 vasp.5.4.1 24Jun15 (build Mar 14 2019 10:18:33) complex                        
  
 executed on INTEL-19.0.2+OPENMPI date 2023.01.23  15:48:24
 running on   36 total cores
 distrk:  each k-point on   36 cores,    1 groups
 distr:  one band on NCORES_PER_BAND=   6 cores,    6 groups


--------------------------------------------------------------------------------------------------------


 INCAR:
 POTCAR:    PAW_PBE Au 04Oct2007                  
 POTCAR:    PAW_PBE O 08Apr2002                   
 POTCAR:    PAW_PBE Pd 04Jan2005                  
 POTCAR:    PAW_PBE Au 04Oct2007                  
  local pseudopotential read in
  partial core-charges read in
  partial kinetic energy density read in
  atomic valenz-charges read in
  non local Contribution for L=           2  read in
    real space projection operators read in
  non local Contribution for L=           2  read in
    real space projection operators read in
  non local Contribution for L=           0  read in
    real space projection operators read in
  non local Contribution for L=           0  read in
    real space projection operators read in
  non local Contribution for L=           1  read in
    real space projection operators read in
  non local Contribution for L=           1  read in
    real space projection operators read in
    PAW grid and wavefunctions read in
 
   number of l-projection  operators is LMAX  =           6
   number of lm-projection operators is LMMAX =          18
 
 POTCAR:    PAW_PBE O 08Apr2002                   
  local pseudopotential read in
  partial core-charges read in
  partial kinetic energy density read in
  kinetic energy density of atom read in
  atomic valenz-charges read in
  non local Contribution for L=           0  read in
    real space projection operators read in
  non local Contribution for L=           0  read in
    real space projection operators read in
  non local Contribution for L=           1  read in
    real space projection operators read in
  non local Contribution for L=           1  read in
    real space projection operators read in
    PAW grid and wavefunctions read in
 
   number of l-projection  operators is LMAX  =           4
   number of lm-projection operators is LMMAX =           8
 
 POTCAR:    PAW_PBE Pd 04Jan2005                  
  local pseudopotential read in
  partial core-charges read in
  partial kinetic energy density read in
  atomic valenz-charges read in
  non local Contribution for L=           2  read in
    real space projection operators read in
  non local Contribution for L=           2  read in
    real space projection operators read in
  non local Contribution for L=           0  read in
    real space projection operators read in
  non local Contribution for L=           0  read in
    real space projection operators read in
  non local Contribution for L=           1  read in
    real space projection operators read in
  non local Contribution for L=           1  read in
    real space projection operators read in
    PAW grid and wavefunctions read in
 
   number of l-projection  operators is LMAX  =           6
   number of lm-projection operators is LMMAX =          18
 
 Optimization of the real space projectors (new method)

 maximal supplied QI-value         = 15.12
 optimisation between [QCUT,QGAM] = [ 10.13, 20.41] = [ 28.73,116.64] Ry 
 Optimized for a Real-space Cutoff    1.51 Angstroem

   l    n(q)    QCUT    max X(q) W(low)/X(q) W(high)/X(q)  e(spline) 
   2      8    10.129    60.898    0.46E-03    0.46E-03    0.14E-06
   2      8    10.129    58.894    0.47E-03    0.47E-03    0.14E-06
   0      9    10.129   109.617    0.16E-03    0.11E-03    0.54E-07
   0      9    10.129    75.026    0.15E-03    0.11E-03    0.52E-07
   1      9    10.129    16.344    0.96E-04    0.15E-03    0.14E-06
   1      9    10.129    10.160    0.81E-04    0.12E-03    0.11E-06
 Optimization of the real space projectors (new method)

 maximal supplied QI-value         = 24.76
 optimisation between [QCUT,QGAM] = [ 10.15, 20.30] = [ 28.85,115.39] Ry 
 Optimized for a Real-space Cutoff    1.38 Angstroem

   l    n(q)    QCUT    max X(q) W(low)/X(q) W(high)/X(q)  e(spline) 
   0      8    10.150    20.381    0.22E-03    0.32E-03    0.29E-06
   0      8    10.150    15.268    0.23E-03    0.35E-03    0.30E-06
   1      8    10.150     5.964    0.46E-03    0.53E-03    0.21E-06
   1      8    10.150     5.382    0.38E-03    0.45E-03    0.19E-06
 Optimization of the real space projectors (new method)

 maximal supplied QI-value         = 14.36
 optimisation between [QCUT,QGAM] = [ 10.20, 20.39] = [ 29.12,116.47] Ry 
 Optimized for a Real-space Cutoff    1.51 Angstroem

   l    n(q)    QCUT    max X(q) W(low)/X(q) W(high)/X(q)  e(spline) 
   2      8    10.197    59.108    0.26E-03    0.14E-03    0.96E-07
   2      8    10.197    58.101    0.27E-03    0.14E-03    0.98E-07
   0      9    10.197   102.235    0.54E-04    0.60E-05    0.72E-07
   0      9    10.197    58.388    0.52E-04    0.60E-05    0.68E-07
   1      9    10.197    22.191    0.18E-03    0.25E-03    0.79E-07
   1      9    10.197    15.590    0.15E-03    0.21E-03    0.69E-07
  PAW_PBE Au 04Oct2007                  :
 energy of atom  1       EATOM= -926.0867
 kinetic energy error for atom=    0.0062 (will be added to EATOM!!)
  PAW_PBE O 08Apr2002                   :
 energy of atom  2       EATOM= -432.3788
 kinetic energy error for atom=    0.1156 (will be added to EATOM!!)
  PAW_PBE Pd 04Jan2005                  :
 energy of atom  3       EATOM= -809.7530
 kinetic energy error for atom=    0.0091 (will be added to EATOM!!)
 
 
 POSCAR: Au  O Pd                                
  positions in direct lattice
  velocities in cartesian coordinates
 exchange correlation table for  LEXCH =        8
   RHO(1)=    0.500       N(1)  =     2000
   RHO(2)=  100.500       N(2)  =     4000

 VTST: version 3.2, (02/03/18)

 CHAIN: initializing optimizer
 
 OPT: Using VASP Conjugate-Gradient optimizer
 CHAIN: Read ICHAIN            0
 
 POSCAR: Au  O Pd                                
  positions in direct lattice
  velocities in cartesian coordinates
 


--------------------------------------------------------------------------------------------------------


 ion  position               nearest neighbor table
   1  0.083  0.083  0.382-   3 2.75  42 2.75  45 2.75  46 2.75  15 2.75   8 2.75  16 2.88  54 2.93
                            53 2.98
   2  0.758  0.751  0.618-  31 2.03  40 2.67  41 2.68   6 2.81  10 2.96  11 2.99  55 3.02  51 3.09

   3  0.083  0.833  0.382-   1 2.75   8 2.75   9 2.75  22 2.75  42 2.75  52 2.75  12 2.85  54 2.85
                            23 3.29
   4  0.679  0.897  0.473-  50 2.70  12 2.71  13 2.77  52 2.81  44 2.84  33 2.84  10 2.85  21 2.86
                             6 2.87  55 2.94  24 2.98
   5  0.833  0.583  0.382-  33 2.75  45 2.75  46 2.75  52 2.75   9 2.75  17 2.75  50 2.86   7 2.96

   6  0.770  0.968  0.565-  49 2.75  55 2.77  40 2.77  48 2.77   2 2.81  12 2.82   4 2.87  18 2.91
                            44 2.95  10 3.20
   7  0.919  0.411  0.476-  50 2.67  19 2.72  47 2.74  16 2.75  53 2.78  51 2.79  10 2.90  46 2.91
                            45 2.92   5 2.96  43 2.97
   8  0.833  0.083  0.382-   3 2.75  34 2.75  46 2.75  52 2.75  24 2.75   1 2.75  44 2.92  12 2.95
                            53 2.97
   9  0.083  0.583  0.382-   3 2.75  36 2.75  45 2.75  52 2.75  22 2.75   5 2.75  19 2.88  23 3.26

  10  0.908  0.658  0.520-  41 2.79  50 2.83   4 2.85  40 2.86   7 2.90  19 2.93  23 2.96   2 2.96
                            12 3.03  51 3.16   6 3.20
  11  0.526  0.742  0.563-  32 2.13  28 2.17  55 2.66  50 2.72  51 2.78  13 2.83  38 2.85  39 2.88
                            14 2.89  37 2.96   2 2.99
  12  0.923  0.903  0.473-  23 2.68   4 2.71  54 2.76  44 2.78  53 2.80   6 2.82  49 2.84  52 2.84
                             3 2.85   8 2.95  10 3.03
  13  0.425  0.903  0.472-  39 2.73  50 2.76  54 2.76   4 2.77  33 2.81  21 2.81  16 2.82  42 2.83
                            38 2.83  11 2.83  15 2.93  55 2.96
  14  0.503  0.492  0.568-  32 2.20  30 2.30  37 2.68  56 2.71  39 2.85  20 2.86  18 2.87  11 2.89
                            48 2.91  47 2.96  51 2.98
  15  0.333  0.083  0.382-  33 2.75  36 2.75  42 2.75  45 2.75   1 2.75  24 2.75  16 2.90  13 2.93
                            21 2.95
  16  0.169  0.159  0.475-  53 2.75   7 2.75  54 2.77  38 2.78  21 2.80  43 2.81  13 2.82  19 2.85
                            35 2.86   1 2.88  15 2.90  45 2.95
  17  0.583  0.583  0.382-  33 2.75  34 2.75  42 2.75  46 2.75   5 2.75  22 2.75  50 2.89  47 2.94
                            39 2.94
  18  0.505  0.230  0.571-  30 2.04  55 2.61  35 2.64  56 2.78  48 2.81  21 2.87  14 2.87   6 2.91
                            44 2.96  20 3.03
  19  0.161  0.422  0.475-   7 2.72  23 2.73  20 2.80  16 2.85  35 2.86   9 2.88  21 2.89  45 2.91
                            10 2.93  36 2.94  56 3.07
  20  0.420  0.412  0.476-  39 2.71  47 2.75  21 2.76  44 2.79  19 2.80  23 2.82  14 2.86  34 2.93
                            36 2.93  22 2.97  56 3.01  18 3.03
  21  0.423  0.160  0.477-  44 2.75  20 2.76  35 2.76  16 2.80  13 2.81  55 2.84   4 2.86  18 2.87
                            19 2.89  24 2.93  15 2.95  36 2.99
  22  0.333  0.583  0.382-   3 2.75  34 2.75  36 2.75  42 2.75  17 2.75   9 2.75  39 2.94  20 2.97
                            23 3.29
  23  0.165  0.665  0.491-  12 2.68  19 2.73  54 2.73  56 2.77  39 2.79  37 2.81  20 2.82  10 2.96
                             9 3.26  22 3.29   3 3.29  40 3.40
  24  0.583  0.083  0.382-  33 2.75  34 2.75  36 2.75  52 2.75   8 2.75  15 2.75  21 2.93  44 2.94
                             4 2.98
  25  0.119  0.290  0.617-  35 1.95  43 2.01  41 2.04
  26  0.133  0.548  0.636-  41 1.98  56 2.00  40 2.01
  27  0.092  0.855  0.621-  40 1.96  49 1.98  37 2.00
  28  0.344  0.843  0.612-  38 1.95  37 2.00  11 2.17
  29  0.850  0.313  0.609-  43 1.96  48 1.98  51 1.99
  30  0.606  0.296  0.619-  48 2.00  18 2.04  14 2.30
  31  0.566  0.916  0.634-  55 1.93   2 2.03
  32  0.614  0.572  0.615-  51 1.97  11 2.13  14 2.20
  33  0.583  0.833  0.382-   5 2.75  15 2.75  17 2.75  24 2.75  42 2.75  52 2.75  13 2.81   4 2.84
                            50 2.98
  34  0.583  0.333  0.382-   8 2.75  17 2.75  22 2.75  24 2.75  36 2.75  46 2.75  47 2.86  20 2.93
                            44 3.00
  35  0.257  0.247  0.563-  25 1.95  18 2.64  56 2.69  43 2.71  21 2.76  38 2.76  55 2.78  16 2.86
                            19 2.86  41 3.10
  36  0.333  0.333  0.382-   9 2.75  15 2.75  22 2.75  24 2.75  34 2.75  45 2.75  20 2.93  19 2.94
                            21 2.99
  37  0.263  0.736  0.579-  27 2.00  28 2.00  14 2.68  56 2.74  49 2.80  23 2.81  38 2.86  40 2.91
                            11 2.96  39 3.06  54 3.21
  38  0.260  0.994  0.562-  28 1.95  43 2.62  55 2.71  35 2.76  16 2.78  49 2.79  13 2.83  11 2.85
                            37 2.86  54 2.87
  39  0.421  0.657  0.477-  20 2.71  13 2.73  54 2.73  47 2.77  50 2.79  23 2.79  14 2.85  11 2.88
                            22 2.94  17 2.94  42 3.01  37 3.06
  40  0.005  0.740  0.607-  27 1.96  26 2.01   2 2.67  41 2.69   6 2.77  10 2.86  56 2.91  37 2.91
                            49 2.97  23 3.40
  41  0.994  0.501  0.609-  26 1.98  25 2.04   2 2.68  40 2.69  51 2.69  10 2.79  56 2.99  43 3.07
                            35 3.10
  42  0.333  0.833  0.382-   1 2.75  15 2.75  17 2.75  22 2.75   3 2.75  33 2.75  13 2.83  54 2.85
                            39 3.01
  43  0.021  0.229  0.568-  29 1.96  25 2.01  38 2.62  35 2.71  49 2.74  51 2.78  16 2.81  53 2.85
                            48 2.86   7 2.97  41 3.07
  44  0.673  0.158  0.477-  53 2.72  47 2.73  21 2.75  12 2.78  20 2.79   4 2.84  48 2.84   8 2.92
                            24 2.94   6 2.95  18 2.96  34 3.00
  45  0.083  0.333  0.382-   1 2.75   5 2.75   9 2.75  15 2.75  36 2.75  46 2.75  19 2.91   7 2.92
                            16 2.95
  46  0.833  0.333  0.382-   1 2.75   5 2.75   8 2.75  17 2.75  34 2.75  45 2.75  47 2.85   7 2.91
                            53 3.04
  47  0.673  0.406  0.474-  53 2.73  44 2.73  50 2.74   7 2.74  20 2.75  39 2.77  46 2.85  34 2.86
                            17 2.94  14 2.96  48 3.05  51 3.05
  48  0.763  0.223  0.569-  29 1.98  30 2.00  49 2.68   6 2.77  53 2.80  18 2.81  44 2.84  43 2.86
                            14 2.91  51 2.99  47 3.05
  49  0.011  0.985  0.562-  27 1.98  48 2.68  43 2.74  53 2.74   6 2.75  38 2.79  37 2.80  54 2.80
                            12 2.84  40 2.97
  50  0.676  0.653  0.475-   7 2.67   4 2.70  11 2.72  47 2.74  13 2.76  39 2.79  10 2.83   5 2.86
                            17 2.89  51 2.92  33 2.98
  51  0.776  0.488  0.568-  32 1.97  29 1.99  41 2.69  43 2.78  11 2.78   7 2.79  50 2.92  14 2.98
                            48 2.99  47 3.05   2 3.09  10 3.16
  52  0.833  0.833  0.382-   5 2.75   8 2.75   9 2.75  24 2.75   3 2.75  33 2.75   4 2.81  12 2.84

  53  0.920  0.158  0.479-  44 2.72  47 2.73  49 2.74  16 2.75   7 2.78  54 2.78  12 2.80  48 2.80
                            43 2.85   8 2.97   1 2.98  46 3.04
  54  0.173  0.906  0.473-  23 2.73  39 2.73  13 2.76  12 2.76  16 2.77  53 2.78  49 2.80  42 2.85
                             3 2.85  38 2.87   1 2.93  37 3.21
  55  0.508  0.992  0.566-  31 1.93  18 2.61  11 2.66  38 2.71   6 2.77  35 2.78  21 2.84   4 2.94
                            13 2.96   2 3.02
  56  0.259  0.488  0.575-  26 2.00  35 2.69  14 2.71  37 2.74  23 2.77  18 2.78  40 2.91  41 2.99
                            20 3.01  19 3.07
 
  LATTYP: Found a hexagonal cell.
 ALAT       =    11.0025815153
 C/A-ratio  =     2.3805127059
  
  Lattice vectors:
  
 A1 = (   5.5012907576,  -9.5285150994,   0.0000000000)
 A2 = ( -11.0025815153,   0.0000000000,   0.0000000000)
 A3 = (   0.0000000000,   0.0000000000, -26.1917850943)


Analysis of symmetry for initial positions (statically):
=====================================================================
 Subroutine PRICEL returns:
 Original cell was already a primitive cell.
 

 Routine SETGRP: Setting up the symmetry group for a 
 hexagonal supercell.


 Subroutine GETGRP returns: Found  1 space group operations
 (whereof  1 operations were pure point group operations)
 out of a pool of 24 trial point group operations.


The static configuration has the point symmetry C_1 .


Analysis of symmetry for dynamics (positions and initial velocities):
=====================================================================
 Subroutine PRICEL returns:
 Original cell was already a primitive cell.
 

 Routine SETGRP: Setting up the symmetry group for a 
 hexagonal supercell.


 Subroutine GETGRP returns: Found  1 space group operations
 (whereof  1 operations were pure point group operations)
 out of a pool of 24 trial point group operations.


The dynamic configuration has the point symmetry C_1 .


Analysis of constrained symmetry for selective dynamics:
=====================================================================
 Subroutine PRICEL returns:
 Original cell was already a primitive cell.
 

 Routine SETGRP: Setting up the symmetry group for a 
 hexagonal supercell.


 Subroutine GETGRP returns: Found  1 space group operations
 (whereof  1 operations were pure point group operations)
 out of a pool of 24 trial point group operations.


The constrained configuration has the point symmetry C_1 .
 
 
 KPOINTS: Automatic mesh                          

Automatic generation of k-mesh.
Space group operators:
 irot       det(A)        alpha          n_x          n_y          n_z        tau_x        tau_y        tau_z
    1     1.000000     0.000000     1.000000     0.000000     0.000000     0.000000     0.000000     0.000000
 
 Subroutine IBZKPT returns following result:
 ===========================================
 
 Found      6 irreducible k-points:
 
 Following reciprocal coordinates:
            Coordinates               Weight
  0.250000  0.250000  0.000000     16.000000
  0.000000  0.250000  0.000000     16.000000
 -0.250000  0.000000  0.000000     16.000000
 -0.250000  0.250000  0.000000     16.000000
  0.500000 -0.250000  0.000000     16.000000
 -0.250000  0.500000  0.000000     16.000000
 
 Following cartesian coordinates:
            Coordinates               Weight
  0.022722  0.013119  0.000000     16.000000
  0.000000  0.026237  0.000000     16.000000
 -0.022722  0.013119  0.000000     16.000000
 -0.022722  0.039356  0.000000     16.000000
  0.045444 -0.052474  0.000000     16.000000
 -0.022722  0.065593  0.000000     16.000000
 


--------------------------------------------------------------------------------------------------------




 Dimension of arrays:
   k-points           NKPTS =      6   k-points in BZ     NKDIM =      6   number of bands    NBANDS=    336
   number of dos      NEDOS =    301   number of ions     NIONS =     56
   non local maximal  LDIM  =      6   non local SUM 2l+1 LMDIM =     18
   total plane-waves  NPLWV = 373248
   max r-space proj   IRMAX =   2004   max aug-charges    IRDMAX=   8511
   dimension x,y,z NGX =    54 NGY =   54 NGZ =  128
   dimension x,y,z NGXF=   108 NGYF=  108 NGZF=  256
   support grid    NGXF=   108 NGYF=  108 NGZF=  256
   ions per type =              24   8  24
 NGX,Y,Z   is equivalent  to a cutoff of   8.16,  8.16,  8.12 a.u.
 NGXF,Y,Z  is equivalent  to a cutoff of  16.32, 16.32, 16.25 a.u.


 I would recommend the setting:
   dimension x,y,z NGX =    54 NGY =   54 NGZ =  128
 SYSTEM =  unknown system                          
 POSCAR =  Au  O Pd                                

 Startparameter for this run:
   NWRITE =      1    write-flag & timer
   PREC   = normal    normal or accurate (medium, high low for compatibility)
   ISTART =      0    job   : 0-new  1-cont  2-samecut
   ICHARG =      2    charge: 1-file 2-atom 10-const
   ISPIN  =      1    spin polarized calculation?
   LNONCOLLINEAR =      F non collinear calculations
   LSORBIT =      F    spin-orbit coupling
   INIWAV =      1    electr: 0-lowe 1-rand  2-diag
   LASPH  =      F    aspherical Exc in radial PAW
   METAGGA=      F    non-selfconsistent MetaGGA calc.

 Electronic Relaxation 1
   ENCUT  =  400.0 eV  29.40 Ry    5.42 a.u.  17.94 17.94 42.71*2*pi/ulx,y,z
   ENINI  =  400.0     initial cutoff
   ENAUG  =  605.4 eV  augmentation charge cutoff
   NELM   =    500;   NELMIN=  2; NELMDL= -5     # of ELM steps 
   EDIFF  = 0.1E-05   stopping-criterion for ELM
   LREAL  =      T    real-space projection
   NLSPLINE    = F    spline interpolate recip. space projectors
   LCOMPAT=      F    compatible to vasp.4.4
   GGA_COMPAT  = T    GGA compatible to vasp.4.4-vasp.4.6
   LMAXPAW     = -100 max onsite density
   LMAXMIX     =    2 max onsite mixed and CHGCAR
   VOSKOWN=      1    Vosko Wilk Nusair interpolation
   ROPT   =   -0.00050  -0.00050  -0.00050
 Ionic relaxation
   EDIFFG = -.2E-01   stopping-criterion for IOM
   NSW    =    500    number of steps for IOM
   NBLOCK =      1;   KBLOCK =    500    inner block; outer block 
   IBRION =      2    ionic relax: 0-MD 1-quasi-New 2-CG
   NFREE  =      2    steps in history (QN), initial steepest desc. (CG)
   ISIF   =      0    stress and relaxation
   IWAVPR =     11    prediction:  0-non 1-charg 2-wave 3-comb
   ISYM   =      2    0-nonsym 1-usesym 2-fastsym
   LCORR  =      T    Harris-Foulkes like correction to forces

   POTIM  = 0.3500    time-step for ionic-motion
   TEIN   =    0.0    initial temperature
   TEBEG  =    0.0;   TEEND  =   0.0 temperature during run
   SMASS  =  -3.00    Nose mass-parameter (am)
   estimated Nose-frequenzy (Omega)   =  0.10E-29 period in steps =****** mass=  -0.277E-26a.u.
   SCALEE = 1.0000    scale energy and forces
   NPACO  =    256;   APACO  = 16.0  distance and # of slots for P.C.
   PSTRESS=    0.0 pullay stress

  Mass of Ions in am
   POMASS = 196.97 16.00106.42
  Ionic Valenz
   ZVAL   =  11.00  6.00 10.00
  Atomic Wigner-Seitz radii
   RWIGS  =  -1.00 -1.00 -1.00
  virtual crystal weights 
   VCA    =   1.00  1.00  1.00
   NELECT =     552.0000    total number of electrons
   NUPDOWN=      -1.0000    fix difference up-down

 DOS related values:
   EMIN   =  10.00;   EMAX   =-10.00  energy-range for DOS
   EFERMI =   0.00
   ISMEAR =     0;   SIGMA  =   0.10  broadening in eV -4-tet -1-fermi 0-gaus

 Electronic relaxation 2 (details)
   IALGO  =     68    algorithm
   LDIAG  =      T    sub-space diagonalisation (order eigenvalues)
   LSUBROT=      F    optimize rotation matrix (better conditioning)
   TURBO    =      0    0=normal 1=particle mesh
   IRESTART =      0    0=no restart 2=restart with 2 vectors
   NREBOOT  =      0    no. of reboots
   NMIN     =      0    reboot dimension
   EREF     =   0.00    reference energy to select bands
   IMIX   =      4    mixing-type and parameters
     AMIX     =   0.40;   BMIX     =  1.00
     AMIX_MAG =   1.60;   BMIX_MAG =  1.00
     AMIN     =   0.10
     WC   =   100.;   INIMIX=   1;  MIXPRE=   1;  MAXMIX= -45

 Intra band minimization:
   WEIMIN = 0.0010     energy-eigenvalue tresh-hold
   EBREAK =  0.74E-09  absolut break condition
   DEPER  =   0.30     relativ break condition  

   TIME   =   0.40     timestep for ELM

  volume/ion in A,a.u.               =      49.03       330.90
  Fermi-wavevector in a.u.,A,eV,Ry     =   0.959017  1.812279 12.513458  0.919713
  Thomas-Fermi vector in A             =   2.088176
 
 Write flags
   LWAVE  =      F    write WAVECAR
   LCHARG =      F    write CHGCAR
   LVTOT  =      F    write LOCPOT, total local potential
   LVHAR  =      F    write LOCPOT, Hartree potential only
   LELF   =      F    write electronic localiz. function (ELF)
   LORBIT =      0    0 simple, 1 ext, 2 COOP (PROOUT)


 Dipole corrections
   LMONO  =      F    monopole corrections only (constant potential shift)
   LDIPOL =      T    correct potential (dipole corrections)
   IDIPOL =      3    1-x, 2-y, 3-z, 4-all directions 
   EPSILON=  1.0000000 bulk dielectric constant

 Exchange correlation treatment:
   GGA     =    PE    GGA type
   LEXCH   =     8    internal setting for exchange type
   VOSKOWN=      1    Vosko Wilk Nusair interpolation
   LHFCALC =     F    Hartree Fock is set to
   LHFONE  =     F    Hartree Fock one center treatment
   AEXX    =    0.0000 exact exchange contribution

 Linear response parameters
   LEPSILON=     F    determine dielectric tensor
   LRPA    =     F    only Hartree local field effects (RPA)
   LNABLA  =     F    use nabla operator in PAW spheres
   LVEL    =     F    velocity operator in full k-point grid
   LINTERFAST=   F  fast interpolation
   KINTER  =     0    interpolate to denser k-point grid
   CSHIFT  =0.1000    complex shift for real part using Kramers Kronig
   OMEGAMAX=  -1.0    maximum frequency
   DEG_THRESHOLD= 0.2000000E-02 threshold for treating states as degnerate
   RTIME   =    0.100 relaxation time in fs

 Orbital magnetization related:
   ORBITALMAG=     F  switch on orbital magnetization
   LCHIMAG   =     F  perturbation theory with respect to B field
   DQ        =  0.001000  dq finite difference perturbation B field



--------------------------------------------------------------------------------------------------------


 conjugate gradient relaxation of ions
   using selective dynamics as specified on POSCAR
 charge density and potential will be updated during run
 non-spin polarized calculation
 RMM-DIIS sequential band-by-band and
  variant of blocked Davidson during initial phase
 perform sub-space diagonalisation
    before iterative eigenvector-optimisation
 modified Broyden-mixing scheme, WC =      100.0
 initial mixing is a Kerker type mixing with AMIX =  0.4000 and BMIX =      1.0000
 Hartree-type preconditioning will be used
 using additional bands           60
 real space projection scheme for non local part
 use partial core corrections
 calculate Harris-corrections to forces 
   (improved forces if not selfconsistent)
 use gradient corrections 
 use of overlap-Matrix (Vanderbilt PP)
 Gauss-broadening in eV      SIGMA  =   0.10


--------------------------------------------------------------------------------------------------------


  energy-cutoff  :      400.00
  volume of cell :     2745.90
      direct lattice vectors                 reciprocal lattice vectors
    11.002581515  0.000000000  0.000000000     0.090887761 -0.052474073  0.000000000
     5.501290758  9.528515099  0.000000000     0.000000000  0.104948147  0.000000000
     0.000000000  0.000000000 26.191785094     0.000000000  0.000000000  0.038179910

  length of vectors
    11.002581515 11.002581515 26.191785094     0.104948147  0.104948147  0.038179910


 
 k-points in units of 2pi/SCALE and weight: Automatic mesh                          
   0.02272194  0.01311852  0.00000000       0.167
   0.00000000  0.02623704  0.00000000       0.167
  -0.02272194  0.01311852  0.00000000       0.167
  -0.02272194  0.03935555  0.00000000       0.167
   0.04544388 -0.05247407  0.00000000       0.167
  -0.02272194  0.06559259  0.00000000       0.167
 
 k-points in reciprocal lattice and weights: Automatic mesh                          
   0.25000000  0.25000000  0.00000000       0.167
   0.00000000  0.25000000  0.00000000       0.167
  -0.25000000  0.00000000  0.00000000       0.167
  -0.25000000  0.25000000  0.00000000       0.167
   0.50000000 -0.25000000  0.00000000       0.167
  -0.25000000  0.50000000  0.00000000       0.167
 
 position of ions in fractional coordinates (direct lattice) 
   0.08333333  0.08333333  0.38179910
   0.75801808  0.75120888  0.61814757
   0.08333333  0.83333333  0.38179910
   0.67904809  0.89708805  0.47322097
   0.83333333  0.58333333  0.38179910
   0.77024611  0.96788576  0.56549795
   0.91933929  0.41068089  0.47577706
   0.83333333  0.08333333  0.38179910
   0.08333333  0.58333333  0.38179910
   0.90846180  0.65758880  0.51954822
   0.52571244  0.74176111  0.56266884
   0.92268837  0.90304437  0.47341457
   0.42478008  0.90311795  0.47233558
   0.50310364  0.49181025  0.56810213
   0.33333333  0.08333333  0.38179910
   0.16863287  0.15940939  0.47489054
   0.58333333  0.58333333  0.38179910
   0.50466904  0.22992938  0.57143561
   0.16062626  0.42218962  0.47492815
   0.41976820  0.41167436  0.47637024
   0.42264319  0.15972319  0.47699881
   0.33333333  0.58333333  0.38179910
   0.16503852  0.66487670  0.49128276
   0.58333333  0.08333333  0.38179910
   0.11876826  0.28982466  0.61731480
   0.13269428  0.54843486  0.63645304
   0.09160416  0.85526047  0.62070262
   0.34439170  0.84264803  0.61242250
   0.84988048  0.31263472  0.60917747
   0.60607875  0.29633506  0.61927506
   0.56572523  0.91584180  0.63443184
   0.61389183  0.57157408  0.61537672
   0.58333333  0.83333333  0.38179910
   0.58333333  0.33333333  0.38179910
   0.25726539  0.24653061  0.56342346
   0.33333333  0.33333333  0.38179910
   0.26273311  0.73552924  0.57920169
   0.26027290  0.99380931  0.56222723
   0.42058873  0.65719503  0.47729108
   0.00470845  0.74001127  0.60731467
   0.99365115  0.50123232  0.60939702
   0.33333333  0.83333333  0.38179910
   0.02051165  0.22864774  0.56756484
   0.67310336  0.15777770  0.47670128
   0.08333333  0.33333333  0.38179910
   0.83333333  0.33333333  0.38179910
   0.67258134  0.40624922  0.47353439
   0.76349735  0.22322051  0.56887693
   0.01074274  0.98517793  0.56229703
   0.67647481  0.65304651  0.47475465
   0.77605280  0.48807736  0.56844207
   0.83333333  0.83333333  0.38179910
   0.91991070  0.15817568  0.47869523
   0.17259501  0.90550496  0.47327643
   0.50774243  0.99160435  0.56643820
   0.25928157  0.48821281  0.57542670
 
 position of ions in cartesian coordinates  (Angst):
   1.37532269  0.79404292 10.00000000
  12.47277413  7.15790512 16.19038833
   5.50129076  7.94042925 10.00000000
  12.40642417  8.54791698 12.39450189
  12.37790420  5.55830047 10.00000000
  13.79931665  9.22251412 14.81140085
  12.37438039  3.91317904 12.46145058
   9.62725883  0.79404292 10.00000000
   4.12596807  5.55830047 10.00000000
  13.61301216  6.26584479 13.60789539
   9.86483746  7.06788194 14.73730128
  15.11986361  8.60467188 12.39957266
   9.64199191  8.60537301 12.37131206
   8.24103000  4.68622143 14.87960891
   4.12596807  0.79404292 10.00000000
   2.73235433  1.51893481 12.43823093
   9.62725883  5.55830047 10.00000000
   6.81757064  2.19088560 14.96691859
   4.08989136  4.02284018 12.43921596
   6.88327415  3.92264535 12.47698687
   5.52884983  1.52192478 12.49345039
   6.87661345  5.55830047 10.00000000
   5.47352989  6.33528772 12.86757255
   6.87661345  0.79404292 10.00000000
   2.90116720  2.76159864 16.16857645
   4.47707929  5.22576982 16.66984126
   5.71291878  8.14936229 16.25730964
   8.42484959  8.02918451 16.04043841
  11.07077380  2.97894466 15.95544529
   8.29865623  2.82363314 16.21991921
  11.26274993  8.72661239 16.61690251
   9.89879006  5.44625221 16.11781476
  11.00258152  7.94042925 10.00000000
   8.25193614  3.17617170 10.00000000
   4.18682005  2.34907065 14.75706612
   5.50129076  3.17617170 10.00000000
   6.93710265  7.00850147 15.17032629
   8.33090779  9.46952699 14.72573475
   8.24298270  6.26209275 12.50110551
   4.12282221  7.05120851 15.90665545
  13.69015253  4.77599975 15.96119585
   8.25193614  7.94042925 10.00000000
   1.48353879  2.17867348 14.86553620
   8.27385558  1.50338721 12.48565749
   2.75064538  3.17617170 10.00000000
  11.00258152  3.17617170 10.00000000
   9.63502607  3.87095181 12.40271089
   9.62844276  2.12696003 14.89990232
   5.53794808  9.38728280 14.72756293
  11.03556803  6.22256355 12.43467174
  11.22363968  4.65065250 14.88851264
  13.75322689  7.94042925 10.00000000
  10.99156285  1.50717934 12.53788254
   6.88043670  8.62811772 12.39595447
  11.04158128  9.44851700 14.83602769
   5.53856718  4.65194310 15.07145254
 


--------------------------------------------------------------------------------------------------------


 k-point  1 :   0.2500 0.2500 0.0000  plane waves:   49913
 k-point  2 :   0.0000 0.2500 0.0000  plane waves:   49913
 k-point  3 :  -0.2500 0.0000 0.0000  plane waves:   49913
 k-point  4 :  -0.2500 0.2500 0.0000  plane waves:   49888
 k-point  5 :   0.5000-0.2500 0.0000  plane waves:   49888
 k-point  6 :  -0.2500 0.5000 0.0000  plane waves:   49888

 maximum and minimum number of plane-waves per node :      8356     8289

 maximum number of plane-waves:     49913
 maximum index in each direction: 
   IXMAX=   18   IYMAX=   18   IZMAX=   42
   IXMIN=  -18   IYMIN=  -18   IZMIN=  -42

 WARNING: aliasing errors must be expected set NGX to  74 to avoid them
 WARNING: aliasing errors must be expected set NGY to  74 to avoid them
 WARNING: aliasing errors must be expected set NGZ to 170 to avoid them
 aliasing errors are usually negligible using standard VASP settings
 and one can safely disregard these warnings

 real space projection operators:
  total allocation   :      13524.02 KBytes
  max/ min on nodes  :       2270.23       2242.78


 parallel 3D FFT for wavefunctions:
    minimum data exchange during FFTs selected (reduces bandwidth)
 parallel 3D FFT for charge:
    minimum data exchange during FFTs selected (reduces bandwidth)


 total amount of memory used by VASP on root node    93015. kBytes
========================================================================

   base      :      30000. kBytes
   nonlr-proj:       4672. kBytes
   fftplans  :       4744. kBytes
   grid      :       7835. kBytes
   one-center:        155. kBytes
   wavefun   :      45609. kBytes
 
     INWAV:  cpu time    0.0000: real time    0.0000
 Broyden mixing: mesh for mixing (old mesh)
   NGX = 35   NGY = 35   NGZ = 85
  (NGX  =108   NGY  =108   NGZ  =256)
  gives a total of 104125 points

 initial charge density was supplied:
 charge density of overlapping atoms calculated
 number of electron     552.0000000 magnetization 
 keeping initial charge density in first step


--------------------------------------------------------------------------------------------------------


 Maximum index for non-local projection operator          347
 Maximum index for augmentation-charges          439 (set IRDMAX)


--------------------------------------------------------------------------------------------------------


 First call to EWALD:  gamma=   0.127
 Maximum number of real-space cells 4x 4x 2
 Maximum number of reciprocal cells 2x 2x 5

 FEWALD executed in parallel
    FEWALD:  cpu time    0.0026: real time    0.0026


----------------------------------------- Iteration    1(   1)  ---------------------------------------


    POTLOK:  cpu time    0.0603: real time    0.0603
    SETDIJ:  cpu time    0.0073: real time    0.0073
     EDDAV:  cpu time   11.4352: real time   11.5059
       DOS:  cpu time    0.0015: real time    0.0015
    --------------------------------------------
      LOOP:  cpu time   11.5080: real time   11.5817

 eigenvalue-minimisations  :  4080
 total energy-change (2. order) : 0.3620572E+04  (-0.2100578E+05)
 number of electron     552.0000000 magnetization 
 augmentation part      552.0000000 magnetization 

 DIPCOR: dipole corrections for dipol
 direction  3 min pos     1,
 dipolmoment           0.000000      0.000000      0.000066 electrons x Angstroem
 Tr[quadrupol]    -11176.079844

 energy correction for charged system         0.000000 eV
 dipol+quadrupol energy correction           -0.000000 eV
 added-field ion interaction          0.000594 eV  (added to PSCEN)


 Free energy of the ion-electron system (eV)
  ---------------------------------------------------
  alpha Z        PSCENC =       862.57707568
  Ewald energy   TEWEN  =    236436.25174858
  -Hartree energ DENC   =   -282053.52093377
  -exchange      EXHF   =         0.00000000
  -V(xc)+E(xc)   XCENC  =      -116.05399212
  PAW double counting   =     43112.45544455   -41079.41300390
  entropy T*S    EENTRO =        -0.13269075
  eigenvalues    EBANDS =      1340.51702489
  atomic energy  EATOM  =     45117.89144060
  Solvation  Ediel_sol  =         0.00000000
  ---------------------------------------------------
  free energy    TOTEN  =      3620.57211376 eV

  energy without entropy =     3620.70480451  energy(sigma->0) =     3620.63845914


--------------------------------------------------------------------------------------------------------




----------------------------------------- Iteration    1(   2)  ---------------------------------------


     EDDAV:  cpu time   13.7220: real time   13.7324
       DOS:  cpu time    0.0014: real time    0.0014
    --------------------------------------------
      LOOP:  cpu time   13.7240: real time   13.7365

 eigenvalue-minimisations  :  4824
 total energy-change (2. order) :-0.3567722E+04  (-0.3317878E+04)
 number of electron     552.0000000 magnetization 
 augmentation part      552.0000000 magnetization 

 DIPCOR: dipole corrections for dipol
 direction  3 min pos     1,
 dipolmoment           0.000000      0.000000      0.000066 electrons x Angstroem
 Tr[quadrupol]    -11176.079844

 energy correction for charged system         0.000000 eV
 dipol+quadrupol energy correction           -0.000000 eV
 added-field ion interaction          0.000594 eV  (added to PSCEN)


 Free energy of the ion-electron system (eV)
  ---------------------------------------------------
  alpha Z        PSCENC =       862.57707568
  Ewald energy   TEWEN  =    236436.25174858
  -Hartree energ DENC   =   -282053.52093377
  -exchange      EXHF   =         0.00000000
  -V(xc)+E(xc)   XCENC  =      -116.05399212
  PAW double counting   =     43112.45544455   -41079.41300390
  entropy T*S    EENTRO =        -0.14062662
  eigenvalues    EBANDS =     -2227.19718057
  atomic energy  EATOM  =     45117.89144060
  Solvation  Ediel_sol  =         0.00000000
  ---------------------------------------------------
  free energy    TOTEN  =        52.84997243 eV

  energy without entropy =       52.99059905  energy(sigma->0) =       52.92028574


--------------------------------------------------------------------------------------------------------




----------------------------------------- Iteration    1(   3)  ---------------------------------------


     EDDAV:  cpu time   13.8521: real time   13.8894
       DOS:  cpu time    0.0014: real time    0.0014
    --------------------------------------------
      LOOP:  cpu time   13.8540: real time   13.8933

 eigenvalue-minimisations  :  4584
 total energy-change (2. order) :-0.3062535E+03  (-0.2851666E+03)
 number of electron     552.0000000 magnetization 
 augmentation part      552.0000000 magnetization 

 DIPCOR: dipole corrections for dipol
 direction  3 min pos     1,
 dipolmoment           0.000000      0.000000      0.000066 electrons x Angstroem
 Tr[quadrupol]    -11176.079844

 energy correction for charged system         0.000000 eV
 dipol+quadrupol energy correction           -0.000000 eV
 added-field ion interaction          0.000594 eV  (added to PSCEN)


 Free energy of the ion-electron system (eV)
  ---------------------------------------------------
  alpha Z        PSCENC =       862.57707568
  Ewald energy   TEWEN  =    236436.25174858
  -Hartree energ DENC   =   -282053.52093377
  -exchange      EXHF   =         0.00000000
  -V(xc)+E(xc)   XCENC  =      -116.05399212
  PAW double counting   =     43112.45544455   -41079.41300390
  entropy T*S    EENTRO =        -0.21572579
  eigenvalues    EBANDS =     -2533.37559160
  atomic energy  EATOM  =     45117.89144060
  Solvation  Ediel_sol  =         0.00000000
  ---------------------------------------------------
  free energy    TOTEN  =      -253.40353777 eV

  energy without entropy =     -253.18781198  energy(sigma->0) =     -253.29567488


--------------------------------------------------------------------------------------------------------




----------------------------------------- Iteration    1(   4)  ---------------------------------------


     EDDAV:  cpu time   12.9285: real time   12.9983
       DOS:  cpu time    0.0015: real time    0.0015
    --------------------------------------------
      LOOP:  cpu time   12.9306: real time   13.0049

 eigenvalue-minimisations  :  4416
 total energy-change (2. order) :-0.1085127E+02  (-0.1065980E+02)
 number of electron     552.0000000 magnetization 
 augmentation part      552.0000000 magnetization 

 DIPCOR: dipole corrections for dipol
 direction  3 min pos     1,
 dipolmoment           0.000000      0.000000      0.000066 electrons x Angstroem
 Tr[quadrupol]    -11176.079844

 energy correction for charged system         0.000000 eV
 dipol+quadrupol energy correction           -0.000000 eV
 added-field ion interaction          0.000594 eV  (added to PSCEN)


 Free energy of the ion-electron system (eV)
  ---------------------------------------------------
  alpha Z        PSCENC =       862.57707568
  Ewald energy   TEWEN  =    236436.25174858
  -Hartree energ DENC   =   -282053.52093377
  -exchange      EXHF   =         0.00000000
  -V(xc)+E(xc)   XCENC  =      -116.05399212
  PAW double counting   =     43112.45544455   -41079.41300390
  entropy T*S    EENTRO =        -0.22322802
  eigenvalues    EBANDS =     -2544.21935877
  atomic energy  EATOM  =     45117.89144060
  Solvation  Ediel_sol  =         0.00000000
  ---------------------------------------------------
  free energy    TOTEN  =      -264.25480717 eV

  energy without entropy =     -264.03157915  energy(sigma->0) =     -264.14319316


--------------------------------------------------------------------------------------------------------




----------------------------------------- Iteration    1(   5)  ---------------------------------------


     EDDAV:  cpu time   13.3752: real time   13.3894
       DOS:  cpu time    0.0015: real time    0.0015
    CHARGE:  cpu time    0.3499: real time    0.3500
    MIXING:  cpu time    0.0026: real time    0.0029
    --------------------------------------------
      LOOP:  cpu time   13.7297: real time   13.7469

 eigenvalue-minimisations  :  4608
 total energy-change (2. order) :-0.3175218E+00  (-0.3165615E+00)
 number of electron     551.9999800 magnetization 
 augmentation part      194.1156223 magnetization 

 DIPCOR: dipole corrections for dipol
 direction  3 min pos     1,
 dipolmoment           0.000000      0.000000      0.000066 electrons x Angstroem
 Tr[quadrupol]    -11176.079844

 energy correction for charged system         0.000000 eV
 dipol+quadrupol energy correction           -0.000000 eV
 added-field ion interaction          0.000594 eV  (added to PSCEN)


 Broyden mixing:
  rms(total) = 0.66908E+01    rms(broyden)= 0.66900E+01
  rms(prec ) = 0.68595E+01
  weight for this iteration     100.00

 Free energy of the ion-electron system (eV)
  ---------------------------------------------------
  alpha Z        PSCENC =       862.57707568
  Ewald energy   TEWEN  =    236436.25174858
  -Hartree energ DENC   =   -282053.52093377
  -exchange      EXHF   =         0.00000000
  -V(xc)+E(xc)   XCENC  =      -116.05399212
  PAW double counting   =     43112.45544455   -41079.41300390
  entropy T*S    EENTRO =        -0.22446802
  eigenvalues    EBANDS =     -2544.53564062
  atomic energy  EATOM  =     45117.89144060
  Solvation  Ediel_sol  =         0.00000000
  ---------------------------------------------------
  free energy    TOTEN  =      -264.57232902 eV

  energy without entropy =     -264.34786099  energy(sigma->0) =     -264.46009501


--------------------------------------------------------------------------------------------------------




----------------------------------------- Iteration    1(   6)  ---------------------------------------


    POTLOK:  cpu time    0.0553: real time    0.0554
    SETDIJ:  cpu time    0.0066: real time    0.0066
    EDDIAG:  cpu time    2.0525: real time    2.0534
  RMM-DIIS:  cpu time    5.4206: real time    5.4232
    ORTHCH:  cpu time    0.5405: real time    0.5406
       DOS:  cpu time    0.0016: real time    0.0016
    CHARGE:  cpu time    0.3465: real time    0.3477
    MIXING:  cpu time    0.0032: real time    0.0032
    --------------------------------------------
      LOOP:  cpu time    8.4276: real time    8.4350

 eigenvalue-minimisations  :  4038
 total energy-change (2. order) : 0.2330609E+01  (-0.1432108E+02)
 number of electron     551.9999653 magnetization 
 augmentation part      199.6397534 magnetization 

 DIPCOR: dipole corrections for dipol
 direction  3 min pos     1,
 dipolmoment           0.000000      0.000000      1.787428 electrons x Angstroem
 Tr[quadrupol]    -11172.558876

 energy correction for charged system         0.000000 eV
 dipol+quadrupol energy correction           -0.105270 eV
 added-field ion interaction         16.029143 eV  (added to PSCEN)


 Broyden mixing:
  rms(total) = 0.61061E+01    rms(broyden)= 0.61038E+01
  rms(prec ) = 0.68042E+01
  weight for this iteration     100.00

 eigenvalues of (default mixing * dielectric matrix)
  average eigenvalue GAMMA=   0.5822
  0.5822

 Free energy of the ion-electron system (eV)
  ---------------------------------------------------
  alpha Z        PSCENC =       878.50035393
  Ewald energy   TEWEN  =    236436.25174858
  -Hartree energ DENC   =   -281641.59104613
  -exchange      EXHF   =         0.00000000
  -V(xc)+E(xc)   XCENC  =      -121.36008237
  PAW double counting   =     46439.78845093   -44470.27427615
  entropy T*S    EENTRO =        -0.12740459
  eigenvalues    EBANDS =     -2901.32090530
  atomic energy  EATOM  =     45117.89144060
  Solvation  Ediel_sol  =         0.00000000
  ---------------------------------------------------
  free energy    TOTEN  =      -262.24172050 eV

  energy without entropy =     -262.11431591  energy(sigma->0) =     -262.17801821


--------------------------------------------------------------------------------------------------------




----------------------------------------- Iteration    1(   7)  ---------------------------------------


    POTLOK:  cpu time    0.0544: real time    0.0552
    SETDIJ:  cpu time    0.0065: real time    0.0065
    EDDIAG:  cpu time    2.0391: real time    2.0419
  RMM-DIIS:  cpu time    5.3960: real time    5.3987
    ORTHCH:  cpu time    0.5439: real time    0.5443
       DOS:  cpu time    0.0016: real time    0.0016
    CHARGE:  cpu time    0.3518: real time    0.3518
    MIXING:  cpu time    0.0023: real time    0.0023
    --------------------------------------------
      LOOP:  cpu time    8.3964: real time    8.4059

 eigenvalue-minimisations  :  4032
 total energy-change (2. order) :-0.6538178E+02  (-0.1116950E+02)
 number of electron     551.9999880 magnetization 
 augmentation part      195.5887266 magnetization 

 DIPCOR: dipole corrections for dipol
 direction  3 min pos     1,
 dipolmoment           0.000000      0.000000     -2.645844 electrons x Angstroem
 Tr[quadrupol]    -11174.233239

 energy correction for charged system         0.000000 eV
 dipol+quadrupol energy correction           -0.230663 eV
 added-field ion interaction        -23.727181 eV  (added to PSCEN)


 Broyden mixing:
  rms(total) = 0.91625E+01    rms(broyden)= 0.91610E+01
  rms(prec ) = 0.11216E+02
  weight for this iteration     100.00

 eigenvalues of (default mixing * dielectric matrix)
  average eigenvalue GAMMA=   0.3895
  0.6770  0.1020

 Free energy of the ion-electron system (eV)
  ---------------------------------------------------
  alpha Z        PSCENC =       838.61863738
  Ewald energy   TEWEN  =    236436.25174858
  -Hartree energ DENC   =   -281652.88823809
  -exchange      EXHF   =         0.00000000
  -V(xc)+E(xc)   XCENC  =      -129.06084272
  PAW double counting   =     47619.78573041   -45664.09031922
  entropy T*S    EENTRO =        -0.26588033
  eigenvalues    EBANDS =     -2893.86577680
  atomic energy  EATOM  =     45117.89144060
  Solvation  Ediel_sol  =         0.00000000
  ---------------------------------------------------
  free energy    TOTEN  =      -327.62350018 eV

  energy without entropy =     -327.35761985  energy(sigma->0) =     -327.49056001


--------------------------------------------------------------------------------------------------------




----------------------------------------- Iteration    1(   8)  ---------------------------------------


    POTLOK:  cpu time    0.0539: real time    0.0544
    SETDIJ:  cpu time    0.0073: real time    0.0073
    EDDIAG:  cpu time    2.0603: real time    2.0627
  RMM-DIIS:  cpu time    5.3089: real time    5.4106
    ORTHCH:  cpu time    0.6316: real time    0.6354
       DOS:  cpu time    0.0017: real time    0.0017
    CHARGE:  cpu time    0.4974: real time    0.4999
    MIXING:  cpu time    0.0026: real time    0.0026
    --------------------------------------------
      LOOP:  cpu time    8.5645: real time    8.6785

 eigenvalue-minimisations  :  4032
 total energy-change (2. order) : 0.7656502E+02  (-0.2457781E+01)
 number of electron     551.9999767 magnetization 
 augmentation part      200.7522024 magnetization 

 DIPCOR: dipole corrections for dipol
 direction  3 min pos     1,
 dipolmoment           0.000000      0.000000     -0.645582 electrons x Angstroem
 Tr[quadrupol]    -11176.993521

 energy correction for charged system         0.000000 eV
 dipol+quadrupol energy correction           -0.013733 eV
 added-field ion interaction         -5.789398 eV  (added to PSCEN)


 Broyden mixing:
  rms(total) = 0.46548E+01    rms(broyden)= 0.46544E+01
  rms(prec ) = 0.51602E+01
  weight for this iteration     100.00

 eigenvalues of (default mixing * dielectric matrix)
  average eigenvalue GAMMA=   0.6045
  1.3235  0.3411  0.1488

 Free energy of the ion-electron system (eV)
  ---------------------------------------------------
  alpha Z        PSCENC =       856.77335115
  Ewald energy   TEWEN  =    236436.25174858
  -Hartree energ DENC   =   -281681.60468215
  -exchange      EXHF   =         0.00000000
  -V(xc)+E(xc)   XCENC  =      -129.93516745
  PAW double counting   =     48136.31708977   -46190.08499205
  entropy T*S    EENTRO =        -0.27569794
  eigenvalues    EBANDS =     -2796.39156970
  atomic energy  EATOM  =     45117.89144060
  Solvation  Ediel_sol  =         0.00000000
  ---------------------------------------------------
  free energy    TOTEN  =      -251.05847919 eV

  energy without entropy =     -250.78278126  energy(sigma->0) =     -250.92063022


--------------------------------------------------------------------------------------------------------




----------------------------------------- Iteration    1(   9)  ---------------------------------------


    POTLOK:  cpu time    0.0714: real time    0.0720
    SETDIJ:  cpu time    0.0085: real time    0.0086
    EDDIAG:  cpu time    2.2355: real time    2.2453
  RMM-DIIS:  cpu time    5.3506: real time    5.3540
    ORTHCH:  cpu time    0.5325: real time    0.5328
       DOS:  cpu time    0.0017: real time    0.0017
    CHARGE:  cpu time    0.3479: real time    0.3480
    MIXING:  cpu time    0.0025: real time    0.0025
    --------------------------------------------
      LOOP:  cpu time    8.5515: real time    8.5695

 eigenvalue-minimisations  :  4032
 total energy-change (2. order) :-0.8799685E+01  (-0.8979205E+01)
 number of electron     551.9999823 magnetization 
 augmentation part      199.8445991 magnetization 

 DIPCOR: dipole corrections for dipol
 direction  3 min pos     1,
 dipolmoment           0.000000      0.000000      0.125270 electrons x Angstroem
 Tr[quadrupol]    -11171.995003

 energy correction for charged system         0.000000 eV
 dipol+quadrupol energy correction           -0.000517 eV
 added-field ion interaction          1.123390 eV  (added to PSCEN)


 Broyden mixing:
  rms(total) = 0.42949E+01    rms(broyden)= 0.42942E+01
  rms(prec ) = 0.46113E+01
  weight for this iteration     100.00

 eigenvalues of (default mixing * dielectric matrix)
  average eigenvalue GAMMA=   0.7474
  2.1481  0.4292  0.2690  0.1435

 Free energy of the ion-electron system (eV)
  ---------------------------------------------------
  alpha Z        PSCENC =       863.69935450
  Ewald energy   TEWEN  =    236436.25174858
  -Hartree energ DENC   =   -281511.00999534
  -exchange      EXHF   =         0.00000000
  -V(xc)+E(xc)   XCENC  =      -128.28576253
  PAW double counting   =     49642.68632004   -47714.31999941
  entropy T*S    EENTRO =        -0.19403715
  eigenvalues    EBANDS =     -2966.57723321
  atomic energy  EATOM  =     45117.89144060
  Solvation  Ediel_sol  =         0.00000000
  ---------------------------------------------------
  free energy    TOTEN  =      -259.85816391 eV

  energy without entropy =     -259.66412676  energy(sigma->0) =     -259.76114534


--------------------------------------------------------------------------------------------------------




----------------------------------------- Iteration    1(  10)  ---------------------------------------


    POTLOK:  cpu time    0.0551: real time    0.0551
    SETDIJ:  cpu time    0.0067: real time    0.0067
    EDDIAG:  cpu time    2.0548: real time    2.0566
  RMM-DIIS:  cpu time    5.4798: real time    5.4830
    ORTHCH:  cpu time    0.5326: real time    0.5327
       DOS:  cpu time    0.0016: real time    0.0016
    CHARGE:  cpu time    0.3483: real time    0.3485
    MIXING:  cpu time    0.0027: real time    0.0027
    --------------------------------------------
      LOOP:  cpu time    8.4825: real time    8.4932

 eigenvalue-minimisations  :  4032
 total energy-change (2. order) : 0.1008911E+02  (-0.1484917E+01)
 number of electron     551.9999760 magnetization 
 augmentation part      202.0929651 magnetization 

 DIPCOR: dipole corrections for dipol
 direction  3 min pos     1,
 dipolmoment           0.000000      0.000000      0.485517 electrons x Angstroem
 Tr[quadrupol]    -11172.893397

 energy correction for charged system         0.000000 eV
 dipol+quadrupol energy correction           -0.007767 eV
 added-field ion interaction          4.353975 eV  (added to PSCEN)


 Broyden mixing:
  rms(total) = 0.30998E+01    rms(broyden)= 0.30987E+01
  rms(prec ) = 0.33871E+01
  weight for this iteration     100.00

 eigenvalues of (default mixing * dielectric matrix)
  average eigenvalue GAMMA=   0.7159
  2.2806  0.4653  0.3459  0.3459  0.1419

 Free energy of the ion-electron system (eV)
  ---------------------------------------------------
  alpha Z        PSCENC =       866.92268898
  Ewald energy   TEWEN  =    236436.25174858
  -Hartree energ DENC   =   -281501.23045064
  -exchange      EXHF   =         0.00000000
  -V(xc)+E(xc)   XCENC  =      -128.11890614
  PAW double counting   =     51449.16449725   -49543.99638482
  entropy T*S    EENTRO =        -0.16586191
  eigenvalues    EBANDS =     -2946.48782659
  atomic energy  EATOM  =     45117.89144060
  Solvation  Ediel_sol  =         0.00000000
  ---------------------------------------------------
  free energy    TOTEN  =      -249.76905468 eV

  energy without entropy =     -249.60319277  energy(sigma->0) =     -249.68612373


--------------------------------------------------------------------------------------------------------




----------------------------------------- Iteration    1(  11)  ---------------------------------------


    POTLOK:  cpu time    0.0546: real time    0.0546
    SETDIJ:  cpu time    0.0065: real time    0.0065
    EDDIAG:  cpu time    2.0369: real time    2.0378
  RMM-DIIS:  cpu time    5.3553: real time    5.3579
    ORTHCH:  cpu time    0.5352: real time    0.5355
       DOS:  cpu time    0.0015: real time    0.0015
    CHARGE:  cpu time    0.3462: real time    0.3463
    MIXING:  cpu time    0.0027: real time    0.0027
    --------------------------------------------
      LOOP:  cpu time    8.3400: real time    8.3458

 eigenvalue-minimisations  :  4035
 total energy-change (2. order) : 0.4911862E+01  (-0.1306835E+01)
 number of electron     551.9999761 magnetization 
 augmentation part      201.3860124 magnetization 

 DIPCOR: dipole corrections for dipol
 direction  3 min pos     1,
 dipolmoment           0.000000      0.000000      0.640976 electrons x Angstroem
 Tr[quadrupol]    -11174.022930

 energy correction for charged system         0.000000 eV
 dipol+quadrupol energy correction           -0.013537 eV
 added-field ion interaction          5.748087 eV  (added to PSCEN)


 Broyden mixing:
  rms(total) = 0.25044E+01    rms(broyden)= 0.25035E+01
  rms(prec ) = 0.28746E+01
  weight for this iteration     100.00

 eigenvalues of (default mixing * dielectric matrix)
  average eigenvalue GAMMA=   0.7127
  2.3681  0.6305  0.4451  0.4451  0.1426  0.2446

 Free energy of the ion-electron system (eV)
  ---------------------------------------------------
  alpha Z        PSCENC =       868.31103094
  Ewald energy   TEWEN  =    236436.25174858
  -Hartree energ DENC   =   -281542.95209265
  -exchange      EXHF   =         0.00000000
  -V(xc)+E(xc)   XCENC  =      -128.57869657
  PAW double counting   =     51787.78261511   -49885.00450731
  entropy T*S    EENTRO =        -0.14515964
  eigenvalues    EBANDS =     -2898.41357156
  atomic energy  EATOM  =     45117.89144060
  Solvation  Ediel_sol  =         0.00000000
  ---------------------------------------------------
  free energy    TOTEN  =      -244.85719251 eV

  energy without entropy =     -244.71203287  energy(sigma->0) =     -244.78461269


--------------------------------------------------------------------------------------------------------




----------------------------------------- Iteration    1(  12)  ---------------------------------------


    POTLOK:  cpu time    0.0544: real time    0.0545
    SETDIJ:  cpu time    0.0065: real time    0.0065
    EDDIAG:  cpu time    2.0548: real time    2.0565
  RMM-DIIS:  cpu time    5.4889: real time    5.4928
    ORTHCH:  cpu time    0.5318: real time    0.5328
       DOS:  cpu time    0.0016: real time    0.0016
    CHARGE:  cpu time    0.3502: real time    0.3502
    MIXING:  cpu time    0.0030: real time    0.0030
    --------------------------------------------
      LOOP:  cpu time    8.4919: real time    8.5007

 eigenvalue-minimisations  :  4038
 total energy-change (2. order) : 0.9169391E+01  (-0.9608887E+00)
 number of electron     551.9999765 magnetization 
 augmentation part      201.5145549 magnetization 

 DIPCOR: dipole corrections for dipol
 direction  3 min pos     1,
 dipolmoment           0.000000      0.000000      0.492980 electrons x Angstroem
 Tr[quadrupol]    -11175.544650

 energy correction for charged system         0.000000 eV
 dipol+quadrupol energy correction           -0.008008 eV
 added-field ion interaction          4.420902 eV  (added to PSCEN)


 Broyden mixing:
  rms(total) = 0.15001E+01    rms(broyden)= 0.14996E+01
  rms(prec ) = 0.16894E+01
  weight for this iteration     100.00

 eigenvalues of (default mixing * dielectric matrix)
  average eigenvalue GAMMA=   0.6505
  2.3612  0.5576  0.5576  0.4489  0.1425  0.2428  0.2428

 Free energy of the ion-electron system (eV)
  ---------------------------------------------------
  alpha Z        PSCENC =       866.98937599
  Ewald energy   TEWEN  =    236436.25174858
  -Hartree energ DENC   =   -281600.28617494
  -exchange      EXHF   =         0.00000000
  -V(xc)+E(xc)   XCENC  =      -128.74181687
  PAW double counting   =     52009.15916764   -50107.39652064
  entropy T*S    EENTRO =        -0.16368944
  eigenvalues    EBANDS =     -2829.39133285
  atomic energy  EATOM  =     45117.89144060
  Solvation  Ediel_sol  =         0.00000000
  ---------------------------------------------------
  free energy    TOTEN  =      -235.68780193 eV

  energy without entropy =     -235.52411249  energy(sigma->0) =     -235.60595721


--------------------------------------------------------------------------------------------------------




----------------------------------------- Iteration    1(  13)  ---------------------------------------


    POTLOK:  cpu time    0.0550: real time    0.0597
    SETDIJ:  cpu time    0.0064: real time    0.0065
    EDDIAG:  cpu time    2.0324: real time    2.0925
  RMM-DIIS:  cpu time    5.4372: real time    5.4400
    ORTHCH:  cpu time    0.5367: real time    0.5369
       DOS:  cpu time    0.0017: real time    0.0017
    CHARGE:  cpu time    0.3459: real time    0.3462
    MIXING:  cpu time    0.0032: real time    0.0032
    --------------------------------------------
      LOOP:  cpu time    8.4193: real time    8.4904

 eigenvalue-minimisations  :  4038
 total energy-change (2. order) : 0.2124910E+01  (-0.2560539E+00)
 number of electron     551.9999763 magnetization 
 augmentation part      201.5912688 magnetization 

 DIPCOR: dipole corrections for dipol
 direction  3 min pos     1,
 dipolmoment           0.000000      0.000000      0.456280 electrons x Angstroem
 Tr[quadrupol]    -11175.732277

 energy correction for charged system         0.000000 eV
 dipol+quadrupol energy correction           -0.006860 eV
 added-field ion interaction          4.091787 eV  (added to PSCEN)


 Broyden mixing:
  rms(total) = 0.78038E+00    rms(broyden)= 0.77991E+00
  rms(prec ) = 0.84219E+00
  weight for this iteration     100.00

 eigenvalues of (default mixing * dielectric matrix)
  average eigenvalue GAMMA=   0.6131
  2.3170  0.5493  0.5493  0.5598  0.2943  0.2943  0.1425  0.1984

 Free energy of the ion-electron system (eV)
  ---------------------------------------------------
  alpha Z        PSCENC =       866.66140810
  Ewald energy   TEWEN  =    236436.25174858
  -Hartree energ DENC   =   -281608.40638586
  -exchange      EXHF   =         0.00000000
  -V(xc)+E(xc)   XCENC  =      -128.66020558
  PAW double counting   =     52023.82170541   -50121.63636999
  entropy T*S    EENTRO =        -0.17805192
  eigenvalues    EBANDS =     -2819.30818137
  atomic energy  EATOM  =     45117.89144060
  Solvation  Ediel_sol  =         0.00000000
  ---------------------------------------------------
  free energy    TOTEN  =      -233.56289204 eV

  energy without entropy =     -233.38484012  energy(sigma->0) =     -233.47386608


--------------------------------------------------------------------------------------------------------




----------------------------------------- Iteration    1(  14)  ---------------------------------------


    POTLOK:  cpu time    0.0546: real time    0.0557
    SETDIJ:  cpu time    0.0065: real time    0.0065
    EDDIAG:  cpu time    2.0519: real time    2.0539
  RMM-DIIS:  cpu time    5.4037: real time    5.4090
    ORTHCH:  cpu time    0.5285: real time    0.5288
       DOS:  cpu time    0.0016: real time    0.0016
    CHARGE:  cpu time    0.3421: real time    0.3421
    MIXING:  cpu time    0.0033: real time    0.0033
    --------------------------------------------
      LOOP:  cpu time    8.3936: real time    8.4051

 eigenvalue-minimisations  :  4039
 total energy-change (2. order) : 0.3437803E+00  (-0.4462808E-01)
 number of electron     551.9999754 magnetization 
 augmentation part      201.6295022 magnetization 

 DIPCOR: dipole corrections for dipol
 direction  3 min pos     1,
 dipolmoment           0.000000      0.000000      0.507062 electrons x Angstroem
 Tr[quadrupol]    -11175.733092

 energy correction for charged system         0.000000 eV
 dipol+quadrupol energy correction           -0.008472 eV
 added-field ion interaction          4.547190 eV  (added to PSCEN)


 Broyden mixing:
  rms(total) = 0.64828E+00    rms(broyden)= 0.64817E+00
  rms(prec ) = 0.70575E+00
  weight for this iteration     100.00

 eigenvalues of (default mixing * dielectric matrix)
  average eigenvalue GAMMA=   0.6132
  2.3126  0.6603  0.6603  0.5883  0.3588  0.3588  0.1424  0.2187  0.2187

 Free energy of the ion-electron system (eV)
  ---------------------------------------------------
  alpha Z        PSCENC =       867.11519918
  Ewald energy   TEWEN  =    236436.25174858
  -Hartree energ DENC   =   -281609.66878940
  -exchange      EXHF   =         0.00000000
  -V(xc)+E(xc)   XCENC  =      -128.51459530
  PAW double counting   =     51985.45940706   -50082.17450751
  entropy T*S    EENTRO =        -0.16137754
  eigenvalues    EBANDS =     -2819.41763744
  atomic energy  EATOM  =     45117.89144060
  Solvation  Ediel_sol  =         0.00000000
  ---------------------------------------------------
  free energy    TOTEN  =      -233.21911175 eV

  energy without entropy =     -233.05773421  energy(sigma->0) =     -233.13842298


--------------------------------------------------------------------------------------------------------




----------------------------------------- Iteration    1(  15)  ---------------------------------------


    POTLOK:  cpu time    0.0550: real time    0.0551
    SETDIJ:  cpu time    0.0074: real time    0.0074
    EDDIAG:  cpu time    2.0283: real time    2.0294
  RMM-DIIS:  cpu time    5.4153: real time    5.4212
    ORTHCH:  cpu time    0.6221: real time    0.6255
       DOS:  cpu time    0.0016: real time    0.0016
    CHARGE:  cpu time    0.4995: real time    0.5014
    MIXING:  cpu time    0.0038: real time    0.0038
    --------------------------------------------
      LOOP:  cpu time    8.6342: real time    8.6497

 eigenvalue-minimisations  :  4040
 total energy-change (2. order) :-0.1813041E-02  (-0.1116804E-01)
 number of electron     551.9999755 magnetization 
 augmentation part      201.5816647 magnetization 

 DIPCOR: dipole corrections for dipol
 direction  3 min pos     1,
 dipolmoment           0.000000      0.000000      0.541277 electrons x Angstroem
 Tr[quadrupol]    -11175.780246

 energy correction for charged system         0.000000 eV
 dipol+quadrupol energy correction           -0.009654 eV
 added-field ion interaction          4.854015 eV  (added to PSCEN)


 Broyden mixing:
  rms(total) = 0.56753E+00    rms(broyden)= 0.56747E+00
  rms(prec ) = 0.63332E+00
  weight for this iteration     100.00

 eigenvalues of (default mixing * dielectric matrix)
  average eigenvalue GAMMA=   0.6818
  2.3123  1.0648  1.0648  0.6319  0.4278  0.4278  0.1425  0.2777  0.2569  0.2115

 Free energy of the ion-electron system (eV)
  ---------------------------------------------------
  alpha Z        PSCENC =       867.42084245
  Ewald energy   TEWEN  =    236436.25174858
  -Hartree energ DENC   =   -281613.00356969
  -exchange      EXHF   =         0.00000000
  -V(xc)+E(xc)   XCENC  =      -128.37144503
  PAW double counting   =     51979.86699180   -50075.73664882
  entropy T*S    EENTRO =        -0.16734865
  eigenvalues    EBANDS =     -2817.37293605
  atomic energy  EATOM  =     45117.89144060
  Solvation  Ediel_sol  =         0.00000000
  ---------------------------------------------------
  free energy    TOTEN  =      -233.22092479 eV

  energy without entropy =     -233.05357615  energy(sigma->0) =     -233.13725047


--------------------------------------------------------------------------------------------------------




----------------------------------------- Iteration    1(  16)  ---------------------------------------


    POTLOK:  cpu time    0.0507: real time    0.0770
    SETDIJ:  cpu time    0.0046: real time    0.0081
    EDDIAG:  cpu time    1.8238: real time    2.4196
  RMM-DIIS:  cpu time    5.4919: real time    5.4943
    ORTHCH:  cpu time    0.5287: real time    0.5288
       DOS:  cpu time    0.0016: real time    0.0016
    CHARGE:  cpu time    0.3472: real time    0.3476
    MIXING:  cpu time    0.0037: real time    0.0037
    --------------------------------------------
      LOOP:  cpu time    8.2530: real time    8.8838

 eigenvalue-minimisations  :  4038
 total energy-change (2. order) : 0.1372408E+00  (-0.1959099E-01)
 number of electron     551.9999751 magnetization 
 augmentation part      201.5747569 magnetization 

 DIPCOR: dipole corrections for dipol
 direction  3 min pos     1,
 dipolmoment           0.000000      0.000000      0.558230 electrons x Angstroem
 Tr[quadrupol]    -11175.925323

 energy correction for charged system         0.000000 eV
 dipol+quadrupol energy correction           -0.010268 eV
 added-field ion interaction          5.006052 eV  (added to PSCEN)


 Broyden mixing:
  rms(total) = 0.46696E+00    rms(broyden)= 0.46681E+00
  rms(prec ) = 0.53124E+00
  weight for this iteration     100.00

 eigenvalues of (default mixing * dielectric matrix)
  average eigenvalue GAMMA=   0.7393
  2.3326  1.4641  1.4641  0.7514  0.4431  0.4431  0.1425  0.3252  0.3252  0.2333
  0.2076

 Free energy of the ion-electron system (eV)
  ---------------------------------------------------
  alpha Z        PSCENC =       867.57226588
  Ewald energy   TEWEN  =    236436.25174858
  -Hartree energ DENC   =   -281618.31917521
  -exchange      EXHF   =         0.00000000
  -V(xc)+E(xc)   XCENC  =      -128.30134144
  PAW double counting   =     51990.98799791   -50085.69391074
  entropy T*S    EENTRO =        -0.16470034
  eigenvalues    EBANDS =     -2813.30800923
  atomic energy  EATOM  =     45117.89144060
  Solvation  Ediel_sol  =         0.00000000
  ---------------------------------------------------
  free energy    TOTEN  =      -233.08368400 eV

  energy without entropy =     -232.91898366  energy(sigma->0) =     -233.00133383


--------------------------------------------------------------------------------------------------------




----------------------------------------- Iteration    1(  17)  ---------------------------------------


    POTLOK:  cpu time    0.0549: real time    0.0550
    SETDIJ:  cpu time    0.0066: real time    0.0066
    EDDIAG:  cpu time    2.0491: real time    2.0498
  RMM-DIIS:  cpu time    5.3730: real time    5.4473
    ORTHCH:  cpu time    0.5281: real time    0.5284
       DOS:  cpu time    0.0016: real time    0.0016
    CHARGE:  cpu time    0.3445: real time    0.3446
    MIXING:  cpu time    0.0037: real time    0.0037
    --------------------------------------------
      LOOP:  cpu time    8.3623: real time    8.4395

 eigenvalue-minimisations  :  4037
 total energy-change (2. order) : 0.1660950E+00  (-0.3458778E-01)
 number of electron     551.9999752 magnetization 
 augmentation part      201.3986038 magnetization 

 DIPCOR: dipole corrections for dipol
 direction  3 min pos     1,
 dipolmoment           0.000000      0.000000      0.546927 electrons x Angstroem
 Tr[quadrupol]    -11176.365710

 energy correction for charged system         0.000000 eV
 dipol+quadrupol energy correction           -0.009856 eV
 added-field ion interaction          4.904686 eV  (added to PSCEN)


 Broyden mixing:
  rms(total) = 0.29300E+00    rms(broyden)= 0.29276E+00
  rms(prec ) = 0.32828E+00
  weight for this iteration     100.00

 eigenvalues of (default mixing * dielectric matrix)
  average eigenvalue GAMMA=   0.7268
  2.3678  1.4916  1.4916  0.7837  0.5261  0.5261  0.3409  0.3409  0.1425  0.2730
  0.2184  0.2184

 Free energy of the ion-electron system (eV)
  ---------------------------------------------------
  alpha Z        PSCENC =       867.47131090
  Ewald energy   TEWEN  =    236436.25174858
  -Hartree energ DENC   =   -281634.09441625
  -exchange      EXHF   =         0.00000000
  -V(xc)+E(xc)   XCENC  =      -128.20073706
  PAW double counting   =     52028.00913356   -50120.98470374
  entropy T*S    EENTRO =        -0.18351691
  eigenvalues    EBANDS =     -2799.07784871
  atomic energy  EATOM  =     45117.89144060
  Solvation  Ediel_sol  =         0.00000000
  ---------------------------------------------------
  free energy    TOTEN  =      -232.91758903 eV

  energy without entropy =     -232.73407212  energy(sigma->0) =     -232.82583058


--------------------------------------------------------------------------------------------------------




----------------------------------------- Iteration    1(  18)  ---------------------------------------


    POTLOK:  cpu time    0.0549: real time    0.0549
    SETDIJ:  cpu time    0.0066: real time    0.0066
    EDDIAG:  cpu time    2.0531: real time    2.0539
  RMM-DIIS:  cpu time    5.4115: real time    5.4151
    ORTHCH:  cpu time    0.5171: real time    0.5174
       DOS:  cpu time    0.0016: real time    0.0016
    CHARGE:  cpu time    0.3458: real time    0.3459
    MIXING:  cpu time    0.0040: real time    0.0040
    --------------------------------------------
      LOOP:  cpu time    8.3954: real time    8.4055

 eigenvalue-minimisations  :  4037
 total energy-change (2. order) : 0.6173255E-01  (-0.8293236E-02)
 number of electron     551.9999756 magnetization 
 augmentation part      201.3974546 magnetization 

 DIPCOR: dipole corrections for dipol
 direction  3 min pos     1,
 dipolmoment           0.000000      0.000000      0.545234 electrons x Angstroem
 Tr[quadrupol]    -11176.402091

 energy correction for charged system         0.000000 eV
 dipol+quadrupol energy correction           -0.009795 eV
 added-field ion interaction          4.889502 eV  (added to PSCEN)


 Broyden mixing:
  rms(total) = 0.15910E+00    rms(broyden)= 0.15896E+00
  rms(prec ) = 0.17466E+00
  weight for this iteration     100.00

 eigenvalues of (default mixing * dielectric matrix)
  average eigenvalue GAMMA=   0.6974
  2.3679  1.4577  1.4577  0.8170  0.5483  0.5483  0.3953  0.1425  0.3169  0.3169
  0.2083  0.2446  0.2446

 Free energy of the ion-electron system (eV)
  ---------------------------------------------------
  alpha Z        PSCENC =       867.45618819
  Ewald energy   TEWEN  =    236436.25174858
  -Hartree energ DENC   =   -281634.93057995
  -exchange      EXHF   =         0.00000000
  -V(xc)+E(xc)   XCENC  =      -128.16117676
  PAW double counting   =     52045.48446943   -50138.27492736
  entropy T*S    EENTRO =        -0.18899125
  eigenvalues    EBANDS =     -2798.38402795
  atomic energy  EATOM  =     45117.89144060
  Solvation  Ediel_sol  =         0.00000000
  ---------------------------------------------------
  free energy    TOTEN  =      -232.85585648 eV

  energy without entropy =     -232.66686522  energy(sigma->0) =     -232.76136085


--------------------------------------------------------------------------------------------------------




----------------------------------------- Iteration    1(  19)  ---------------------------------------


    POTLOK:  cpu time    0.0551: real time    0.0552
    SETDIJ:  cpu time    0.0068: real time    0.0068
    EDDIAG:  cpu time    2.0152: real time    2.0164
  RMM-DIIS:  cpu time    5.3919: real time    5.3945
    ORTHCH:  cpu time    0.5118: real time    0.5119
       DOS:  cpu time    0.0017: real time    0.0017
    CHARGE:  cpu time    0.3444: real time    0.3453
    MIXING:  cpu time    0.0042: real time    0.0042
    --------------------------------------------
      LOOP:  cpu time    8.3320: real time    8.3403

 eigenvalue-minimisations  :  4041
 total energy-change (2. order) : 0.2044525E-01  (-0.1675285E-02)
 number of electron     551.9999755 magnetization 
 augmentation part      201.3845993 magnetization 

 DIPCOR: dipole corrections for dipol
 direction  3 min pos     1,
 dipolmoment           0.000000      0.000000      0.538695 electrons x Angstroem
 Tr[quadrupol]    -11176.454473

 energy correction for charged system         0.000000 eV
 dipol+quadrupol energy correction           -0.009562 eV
 added-field ion interaction          4.830866 eV  (added to PSCEN)


 Broyden mixing:
  rms(total) = 0.95485E-01    rms(broyden)= 0.95459E-01
  rms(prec ) = 0.10292E+00
  weight for this iteration     100.00

 eigenvalues of (default mixing * dielectric matrix)
  average eigenvalue GAMMA=   0.6945
  2.3741  1.4339  1.4339  0.8059  0.6667  0.6667  0.4723  0.3647  0.3647  0.1425
  0.3105  0.2552  0.2162  0.2162

 Free energy of the ion-electron system (eV)
  ---------------------------------------------------
  alpha Z        PSCENC =       867.39778543
  Ewald energy   TEWEN  =    236436.25174858
  -Hartree energ DENC   =   -281636.26254371
  -exchange      EXHF   =         0.00000000
  -V(xc)+E(xc)   XCENC  =      -128.16841939
  PAW double counting   =     52051.77754312   -50144.59171394
  entropy T*S    EENTRO =        -0.18958316
  eigenvalues    EBANDS =     -2796.94166876
  atomic energy  EATOM  =     45117.89144060
  Solvation  Ediel_sol  =         0.00000000
  ---------------------------------------------------
  free energy    TOTEN  =      -232.83541123 eV

  energy without entropy =     -232.64582807  energy(sigma->0) =     -232.74061965


--------------------------------------------------------------------------------------------------------




----------------------------------------- Iteration    1(  20)  ---------------------------------------


    POTLOK:  cpu time    0.0548: real time    0.0554
    SETDIJ:  cpu time    0.0066: real time    0.0066
    EDDIAG:  cpu time    2.0264: real time    2.0283
  RMM-DIIS:  cpu time    5.4548: real time    5.4574
    ORTHCH:  cpu time    0.5116: real time    0.5119
       DOS:  cpu time    0.0016: real time    0.0016
    CHARGE:  cpu time    0.3484: real time    0.3487
    MIXING:  cpu time    0.0045: real time    0.0045
    --------------------------------------------
      LOOP:  cpu time    8.4097: real time    8.4172

 eigenvalue-minimisations  :  4038
 total energy-change (2. order) : 0.3419098E-02  (-0.4846581E-03)
 number of electron     551.9999755 magnetization 
 augmentation part      201.3944127 magnetization 

 DIPCOR: dipole corrections for dipol
 direction  3 min pos     1,
 dipolmoment           0.000000      0.000000      0.542200 electrons x Angstroem
 Tr[quadrupol]    -11176.493564

 energy correction for charged system         0.000000 eV
 dipol+quadrupol energy correction           -0.009687 eV
 added-field ion interaction          4.862295 eV  (added to PSCEN)


 Broyden mixing:
  rms(total) = 0.77491E-01    rms(broyden)= 0.77482E-01
  rms(prec ) = 0.82477E-01
  weight for this iteration     100.00

 eigenvalues of (default mixing * dielectric matrix)
  average eigenvalue GAMMA=   0.7388
  2.4219  1.4187  1.4187  1.1876  1.1876  0.7521  0.4556  0.4556  0.1425  0.3341
  0.3341  0.2873  0.2492  0.2122  0.2242

 Free energy of the ion-electron system (eV)
  ---------------------------------------------------
  alpha Z        PSCENC =       867.42908993
  Ewald energy   TEWEN  =    236436.25174858
  -Hartree energ DENC   =   -281637.01998416
  -exchange      EXHF   =         0.00000000
  -V(xc)+E(xc)   XCENC  =      -128.16138492
  PAW double counting   =     52057.62103107   -50150.49584436
  entropy T*S    EENTRO =        -0.18968253
  eigenvalues    EBANDS =     -2796.15840635
  atomic energy  EATOM  =     45117.89144060
  Solvation  Ediel_sol  =         0.00000000
  ---------------------------------------------------
  free energy    TOTEN  =      -232.83199213 eV

  energy without entropy =     -232.64230960  energy(sigma->0) =     -232.73715087


--------------------------------------------------------------------------------------------------------




----------------------------------------- Iteration    1(  21)  ---------------------------------------


    POTLOK:  cpu time    0.0546: real time    0.0547
    SETDIJ:  cpu time    0.0079: real time    0.0079
    EDDIAG:  cpu time    2.0201: real time    2.0209
  RMM-DIIS:  cpu time    5.3790: real time    5.3823
    ORTHCH:  cpu time    0.5080: real time    0.5082
       DOS:  cpu time    0.0016: real time    0.0016
    CHARGE:  cpu time    0.3476: real time    0.3477
    MIXING:  cpu time    0.0045: real time    0.0045
    --------------------------------------------
      LOOP:  cpu time    8.3242: real time    8.3302

 eigenvalue-minimisations  :  4040
 total energy-change (2. order) : 0.7028923E-03  (-0.5266057E-03)
 number of electron     551.9999754 magnetization 
 augmentation part      201.4114146 magnetization 

 DIPCOR: dipole corrections for dipol
 direction  3 min pos     1,
 dipolmoment           0.000000      0.000000      0.552783 electrons x Angstroem
 Tr[quadrupol]    -11176.592639

 energy correction for charged system         0.000000 eV
 dipol+quadrupol energy correction           -0.010068 eV
 added-field ion interaction          4.957197 eV  (added to PSCEN)


 Broyden mixing:
  rms(total) = 0.52725E-01    rms(broyden)= 0.52701E-01
  rms(prec ) = 0.58084E-01
  weight for this iteration     100.00

 eigenvalues of (default mixing * dielectric matrix)
  average eigenvalue GAMMA=   0.7529
  2.4422  1.5008  1.5008  1.3550  1.3550  0.6779  0.5468  0.5468  0.1425  0.3575
  0.3575  0.3131  0.2717  0.2128  0.2431  0.2231

 Free energy of the ion-electron system (eV)
  ---------------------------------------------------
  alpha Z        PSCENC =       867.52361016
  Ewald energy   TEWEN  =    236436.25174858
  -Hartree energ DENC   =   -281639.30259478
  -exchange      EXHF   =         0.00000000
  -V(xc)+E(xc)   XCENC  =      -128.14632689
  PAW double counting   =     52070.72629532   -50163.69132709
  entropy T*S    EENTRO =        -0.18598347
  eigenvalues    EBANDS =     -2793.89815167
  atomic energy  EATOM  =     45117.89144060
  Solvation  Ediel_sol  =         0.00000000
  ---------------------------------------------------
  free energy    TOTEN  =      -232.83128924 eV

  energy without entropy =     -232.64530577  energy(sigma->0) =     -232.73829750


--------------------------------------------------------------------------------------------------------




----------------------------------------- Iteration    1(  22)  ---------------------------------------


    POTLOK:  cpu time    0.0554: real time    0.0556
    SETDIJ:  cpu time    0.0067: real time    0.0067
    EDDIAG:  cpu time    2.0278: real time    2.0290
  RMM-DIIS:  cpu time    5.2546: real time    5.3296
    ORTHCH:  cpu time    0.5054: real time    0.5063
[...]
  0.001  -0.000   0.006  -0.002  -8.225   0.001  -0.000   0.006
 -8.366  -0.003   0.004  -0.005   0.001  -8.493  -0.003   0.004
 -0.003  -8.287  -0.001  -0.004  -0.000  -0.003  -8.416  -0.001
  0.004  -0.001  -8.287  -0.002   0.006   0.004  -0.001  -8.416
 -0.005  -0.004  -0.002  -8.298  -0.002  -0.005  -0.004  -0.002
  0.001  -0.000   0.006  -0.002  -8.368   0.001  -0.000   0.006
  0.002   0.001  -0.025   0.002   0.004   0.002   0.001  -0.025
  0.003   0.001  -0.037   0.003   0.005   0.003   0.001  -0.037
  0.000  -0.002   0.002   0.000   0.003   0.000  -0.002   0.002
  0.000  -0.003  -0.004   0.001   0.000   0.000  -0.003  -0.004
 -0.003   0.000  -0.000  -0.002   0.001  -0.003   0.000  -0.000
  0.000  -0.002   0.003   0.000   0.004   0.000  -0.002   0.003
  0.000  -0.003  -0.004   0.001   0.000   0.000  -0.003  -0.003
 -0.004   0.000  -0.000  -0.002   0.001  -0.004   0.000  -0.000
 total augmentation occupancy for first ion, spin component:           1
  4.229   0.020  -0.095  -0.012  -0.077  -2.419  -0.031   0.095  -0.035   0.083  -0.150   0.073   0.036  -0.007   0.006  -0.002
  0.020   4.153   0.034   0.048   0.031  -0.031  -1.888  -0.031  -0.060  -0.063  -0.033   0.017  -0.161  -0.000  -0.003   0.005
 -0.095   0.034   4.487   0.097  -0.181   0.095  -0.031  -2.385  -0.105   0.187   1.005  -0.116  -0.026  -0.236  -0.034   0.004
 -0.012   0.048   0.097   4.144   0.036  -0.034  -0.060  -0.105  -1.911  -0.037  -0.110   0.044  -0.006  -0.033  -0.143   0.001
 -0.077   0.031  -0.181   0.036   4.579   0.083  -0.065   0.187  -0.037  -2.769  -0.223   0.091  -0.065   0.009  -0.026   0.005
 -2.419  -0.031   0.095  -0.034   0.083   2.491   0.039  -0.096   0.070  -0.085   0.134  -0.067  -0.031   0.007  -0.000   0.002
 -0.031  -1.888  -0.031  -0.060  -0.065   0.039   1.594   0.030   0.071   0.089   0.026  -0.013   0.146   0.002   0.003  -0.005
  0.095  -0.031  -2.385  -0.105   0.187  -0.096   0.030   2.225   0.110  -0.190  -0.933   0.137   0.022   0.243   0.029  -0.002
 -0.035  -0.060  -0.105  -1.911  -0.037   0.070   0.071   0.110   1.644   0.038   0.097  -0.042   0.006   0.031   0.132  -0.001
  0.083  -0.063   0.187  -0.037  -2.769  -0.085   0.089  -0.190   0.038   2.837   0.195  -0.085   0.057  -0.007   0.022  -0.002
 -0.150  -0.033   1.005  -0.110  -0.223   0.134   0.026  -0.933   0.097   0.195   2.449  -0.515  -0.012   0.116   0.001   0.000
  0.073   0.017  -0.116   0.044   0.091  -0.067  -0.013   0.137  -0.042  -0.085  -0.515   0.152   0.015  -0.055  -0.000  -0.000
  0.036  -0.161  -0.026  -0.006  -0.065  -0.031   0.146   0.022   0.006   0.057  -0.012   0.015   0.196  -0.002   0.003  -0.006
 -0.007  -0.000  -0.236  -0.033   0.009   0.007   0.002   0.243   0.031  -0.007   0.116  -0.055  -0.002   0.096   0.005  -0.000
  0.006  -0.003  -0.034  -0.143  -0.026  -0.000   0.003   0.029   0.132   0.022   0.001  -0.000   0.003   0.005   0.208  -0.000
 -0.002   0.005   0.004   0.001   0.005   0.002  -0.005  -0.002  -0.001  -0.002   0.000  -0.000  -0.006  -0.000  -0.000   0.000
  0.001  -0.003   0.003   0.002   0.000  -0.000   0.000  -0.007  -0.002  -0.000  -0.007   0.002  -0.000  -0.003  -0.000   0.000
 -0.004   0.001   0.002   0.006   0.002   0.001  -0.000  -0.002  -0.006  -0.001   0.000  -0.000  -0.000  -0.000  -0.007   0.000


------------------------ aborting loop because EDIFF is reached ----------------------------------------


    CHARGE:  cpu time    0.3442: real time    0.3445
    FORLOC:  cpu time    0.0238: real time    0.0238
    FORNL :  cpu time    1.9538: real time    1.9550
    FORCOR:  cpu time    0.0765: real time    0.0776
    FORHAR:  cpu time    0.0347: real time    0.0347
    MIXING:  cpu time    0.0036: real time    0.0036
    OFIELD:  cpu time    0.0000: real time    0.0000

 VOLUME and BASIS-vectors are now :
 -----------------------------------------------------------------------------
  energy-cutoff  :      400.00
  volume of cell :     2745.90
      direct lattice vectors                 reciprocal lattice vectors
    11.002581515  0.000000000  0.000000000     0.090887761 -0.052474073  0.000000000
     5.501290758  9.528515099  0.000000000     0.000000000  0.104948147  0.000000000
     0.000000000  0.000000000 26.191785094     0.000000000  0.000000000  0.038179910

  length of vectors
    11.002581515 11.002581515 26.191785094     0.104948147  0.104948147  0.038179910


 FORCES acting on ions
    electron-ion (+dipol)            ewald-force                    non-local-force                 convergence-correction
 -----------------------------------------------------------------------------------------------
   0.107E+02 -.167E+02 0.251E+04   -.107E+02 0.173E+02 -.251E+04   -.816E-01 -.443E+00 -.667E-02   0.641E-03 0.966E-03 -.126E-02
   0.344E+01 0.792E+01 -.272E+04   -.769E+00 -.800E+01 0.272E+04   -.269E+01 0.774E-01 0.685E+00   0.764E-02 0.198E-02 -.242E-02
   0.231E+02 0.470E+02 0.248E+04   -.229E+02 -.471E+02 -.248E+04   -.142E+00 -.108E+00 -.250E+00   -.144E-02 -.321E-03 -.158E-02
   -.414E+02 0.595E+02 0.372E+03   0.415E+02 -.603E+02 -.372E+03   -.133E+00 0.829E+00 0.731E+00   0.362E-02 0.118E-02 -.716E-03
   -.594E+02 -.239E+02 0.244E+04   0.593E+02 0.243E+02 -.244E+04   0.263E+00 -.343E+00 -.713E-01   0.254E-02 -.407E-03 -.256E-02
   -.795E+01 -.404E+02 -.181E+04   0.945E+01 0.405E+02 0.180E+04   -.151E+01 -.102E+00 0.769E+00   0.118E-02 -.437E-02 -.652E-03
   -.553E+02 -.560E+02 0.354E+03   0.540E+02 0.564E+02 -.354E+03   0.119E+01 -.464E+00 -.615E+00   0.518E-02 -.334E-02 0.780E-04
   0.102E+02 -.103E+02 0.250E+04   -.103E+02 0.112E+02 -.250E+04   0.146E+00 -.560E+00 -.134E+00   -.536E-03 -.944E-03 -.730E-03
   0.329E+02 -.264E+02 0.241E+04   -.333E+02 0.260E+02 -.241E+04   0.254E+00 0.418E+00 0.384E+00   -.134E-03 -.804E-03 -.254E-03
   -.265E+02 -.368E+01 -.543E+03   0.262E+02 0.293E+01 0.543E+03   0.299E+00 0.753E+00 -.325E+00   0.824E-02 -.247E-02 0.548E-02
   -.516E+02 -.181E+02 -.159E+04   0.533E+02 0.182E+02 0.159E+04   -.167E+01 -.727E-01 0.283E+01   0.473E-02 0.510E-02 0.474E-02
   0.317E+02 0.848E+02 0.390E+03   -.313E+02 -.845E+02 -.390E+03   -.391E+00 -.262E+00 -.216E+00   -.861E-03 -.171E-02 0.116E-03
   -.135E+02 0.305E+01 0.425E+03   0.131E+02 -.445E+01 -.425E+03   0.425E+00 0.139E+01 0.929E-01   0.759E-03 0.484E-02 -.244E-02
   0.693E+02 0.107E+02 -.180E+04   -.714E+02 -.858E+01 0.180E+04   0.219E+01 -.214E+01 0.224E+01   -.932E-02 -.516E-02 0.335E-02
   -.106E+02 -.174E+02 0.252E+04   0.105E+02 0.176E+02 -.252E+04   0.871E-01 -.130E+00 0.150E+00   0.461E-03 0.166E-02 -.289E-04
   -.519E+01 -.346E+02 0.373E+03   0.411E+01 0.341E+02 -.371E+03   0.107E+01 0.428E+00 -.216E+01   0.335E-02 0.300E-02 -.626E-03
   -.328E+01 0.352E+01 0.250E+04   0.320E+01 -.354E+01 -.250E+04   0.304E-02 0.178E-02 -.397E+00   -.197E-03 -.226E-03 -.393E-02
   0.655E+02 0.382E+02 -.197E+04   -.669E+02 -.390E+02 0.197E+04   0.143E+01 0.826E+00 -.219E+00   -.447E-02 0.211E-02 -.644E-02
   0.312E+02 -.807E+02 0.344E+03   -.313E+02 0.808E+02 -.344E+03   0.840E-01 -.173E+00 0.300E+00   0.236E-02 0.180E-03 0.363E-02
   0.244E+02 -.414E+01 0.334E+03   -.235E+02 0.455E+01 -.334E+03   -.893E+00 -.415E+00 -.852E-01   -.690E-02 -.653E-03 0.333E-02
   -.169E+02 -.176E+02 0.313E+03   0.172E+02 0.177E+02 -.311E+03   -.291E+00 -.128E+00 -.255E+01   -.302E-02 0.199E-02 -.296E-02
   0.294E+02 0.249E+01 0.247E+04   -.289E+02 -.278E+01 -.247E+04   -.467E+00 0.234E+00 0.348E+00   -.222E-02 -.789E-03 -.189E-02
   0.789E+02 0.165E+01 0.389E+02   -.779E+02 -.135E+01 -.376E+02   -.943E+00 -.286E+00 -.125E+01   -.226E-02 -.354E-02 0.818E-02
   -.103E+02 -.293E+01 0.250E+04   0.105E+02 0.340E+01 -.250E+04   -.115E+00 -.355E+00 -.162E+00   -.587E-03 0.926E-04 0.569E-04
   -.318E+02 0.107E+03 -.165E+04   0.326E+02 -.113E+03 0.167E+04   -.860E+00 0.674E+01 -.253E+02   -.454E-03 0.467E-02 -.477E-03
   -.115E+03 0.751E+02 -.174E+04   0.124E+03 -.811E+02 0.177E+04   -.937E+01 0.594E+01 -.255E+02   -.271E-03 0.751E-03 -.487E-02
   -.304E+02 -.110E+03 -.167E+04   0.366E+02 0.118E+03 0.170E+04   -.616E+01 -.831E+01 -.253E+02   -.353E-02 -.411E-02 0.240E-03
   -.148E+02 -.381E+02 -.164E+04   0.192E+02 0.388E+02 0.166E+04   -.441E+01 -.627E+00 -.275E+02   -.211E-02 -.501E-03 0.127E-02
   0.168E+02 0.548E+02 -.161E+04   -.185E+02 -.544E+02 0.164E+04   0.167E+01 -.332E+00 -.293E+02   0.253E-02 0.232E-05 0.439E-03
   0.307E+02 0.185E+02 -.170E+04   -.280E+02 -.139E+02 0.173E+04   -.268E+01 -.465E+01 -.272E+02   -.264E-04 0.498E-03 0.124E-02
   0.492E+02 -.114E+03 -.174E+04   -.584E+02 0.121E+03 0.177E+04   0.922E+01 -.770E+01 -.232E+02   0.162E-02 0.694E-03 0.311E-02
   0.442E+02 0.287E+01 -.165E+04   -.473E+02 -.265E+01 0.167E+04   0.314E+01 -.213E+00 -.265E+02   0.981E-03 0.107E-02 0.105E-02
   -.269E+02 0.215E+02 0.229E+04   0.270E+02 -.217E+02 -.229E+04   0.152E-01 0.642E-01 -.174E+01   0.901E-03 0.182E-02 -.211E-02
   0.540E+01 0.202E+01 0.228E+04   -.527E+01 -.205E+01 -.227E+04   -.183E+00 -.273E-01 -.188E+01   -.130E-02 -.105E-02 -.144E-02
   -.819E+02 0.165E+02 -.157E+04   0.813E+02 -.166E+02 0.157E+04   0.636E+00 0.899E-02 -.121E+01   -.259E-03 0.693E-02 -.246E-02
   0.521E+01 -.188E+02 0.227E+04   -.503E+01 0.189E+02 -.227E+04   -.108E+00 -.525E-01 -.141E+01   -.123E-02 -.261E-03 0.480E-03
   0.205E+01 0.999E+02 -.179E+04   -.153E+01 -.985E+02 0.179E+04   -.519E+00 -.135E+01 -.140E+01   -.726E-02 -.671E-02 0.116E-01
   0.134E+02 -.950E+02 -.157E+04   -.136E+02 0.944E+02 0.157E+04   0.192E+00 0.649E+00 -.434E+00   0.283E-02 0.556E-02 -.409E-02
   0.267E+02 0.493E+01 0.305E+03   -.267E+02 -.503E+01 -.304E+03   0.242E-02 0.105E+00 -.552E+00   -.190E-02 -.214E-02 0.399E-03
   0.350E+02 -.124E+03 -.225E+04   -.347E+02 0.124E+03 0.225E+04   -.388E+00 0.870E+00 -.633E+00   0.121E-02 -.713E-02 0.108E-01
   0.100E+03 0.451E+02 -.230E+04   -.982E+02 -.436E+02 0.230E+04   -.188E+01 -.151E+01 -.303E+00   0.103E-01 -.300E-02 0.604E-02
   0.346E+01 0.211E+02 0.229E+04   -.348E+01 -.212E+02 -.229E+04   0.570E-01 -.215E-01 -.205E+01   -.156E-03 0.125E-02 -.264E-02
   -.507E+01 0.903E+02 -.159E+04   0.488E+01 -.905E+02 0.159E+04   0.179E+00 0.162E+00 -.123E+01   0.446E-02 -.184E-02 0.398E-02
   0.509E+01 -.987E-01 0.281E+03   -.416E+01 0.561E+00 -.281E+03   -.925E+00 -.454E+00 -.373E+00   -.435E-03 -.499E-02 0.360E-03
   -.591E+01 -.346E+02 0.228E+04   0.584E+01 0.345E+02 -.227E+04   0.450E-01 0.460E-01 -.158E+01   0.125E-02 -.151E-03 -.132E-03
   -.410E+01 -.314E+01 0.228E+04   0.388E+01 0.283E+01 -.228E+04   0.176E+00 0.172E+00 -.170E+01   0.127E-02 -.981E-03 -.181E-02
   0.164E+01 0.600E+01 0.352E+03   -.155E+01 -.632E+01 -.353E+03   -.942E-01 0.309E+00 0.844E+00   0.994E-03 -.240E-02 -.163E-02
   0.251E+02 0.112E+03 -.163E+04   -.247E+02 -.111E+03 0.163E+04   -.417E+00 -.351E+00 -.151E+01   0.537E-03 -.585E-02 0.164E-02
   0.274E+02 -.690E+02 -.153E+04   -.274E+02 0.690E+02 0.153E+04   -.514E-01 -.243E-01 0.358E+00   -.205E-02 -.156E-02 0.236E-02
   -.717E+02 0.850E+00 0.352E+03   0.715E+02 -.104E+01 -.350E+03   0.257E+00 0.188E+00 -.129E+01   0.259E-02 0.116E-03 -.349E-03
   -.702E+02 -.414E+02 -.150E+04   0.697E+02 0.411E+02 0.150E+04   0.485E+00 0.317E+00 -.253E+01   0.810E-02 -.552E-02 0.662E-02
   0.211E+01 0.630E+02 0.224E+04   -.221E+01 -.630E+02 -.223E+04   0.398E-01 -.160E+00 -.146E+01   0.504E-03 0.122E-03 -.546E-03
   0.160E+02 -.844E+01 0.276E+03   -.164E+02 0.838E+01 -.274E+03   0.369E+00 0.712E-01 -.244E+01   0.323E-02 -.227E-02 -.132E-02
   0.221E+02 0.306E+02 0.354E+03   -.221E+02 -.308E+02 -.354E+03   0.781E-01 0.202E+00 -.251E+00   -.491E-03 0.112E-02 0.334E-02
   -.830E+01 -.828E+02 -.160E+04   0.844E+01 0.824E+02 0.160E+04   -.150E+00 0.387E+00 -.281E+01   0.458E-02 -.109E-02 -.683E-02
   -.609E+02 0.733E+02 -.172E+04   0.607E+02 -.729E+02 0.172E+04   0.238E+00 -.339E+00 -.911E+00   -.447E-02 -.382E-02 0.813E-02
 -----------------------------------------------------------------------------------------------
   0.133E+02 0.109E+02 0.238E+03   0.931E-12 -.227E-12 -.477E-11   -.133E+02 -.109E+02 -.238E+03   0.307E-01 -.324E-01 0.329E-01
 
 
 POSITION                                       TOTAL-FORCE (eV/Angst)
 -----------------------------------------------------------------------------------
      1.37532      0.79404     10.00000        -0.097905      0.227982     -0.224885
     12.46910      7.16972     16.18732        -0.005768      0.001343      0.011371
      5.50129      7.94043     10.00000         0.022058     -0.260520     -0.262901
     12.40159      8.55804     12.40161        -0.004312      0.006473     -0.007233
     12.37790      5.55830     10.00000         0.181143      0.126642     -0.087432
     13.79665      9.23512     14.81438        -0.010921      0.003601      0.004825
     12.37204      3.91693     12.45203        -0.007922      0.001249     -0.001008
      9.62726      0.79404     10.00000        -0.003698      0.371845     -0.107000
      4.12597      5.55830     10.00000        -0.141350      0.045514      0.009314
     13.60861      6.26815     13.60203         0.001252      0.002139     -0.006717
      9.86403      7.07044     14.72197        -0.002140      0.007871     -0.001350
     15.11329      8.60720     12.39875        -0.003874      0.006501     -0.004056
      9.63825      8.61057     12.37087         0.003411     -0.000937      0.002606
      8.24324      4.68816     14.87280        -0.002191     -0.000375     -0.001587
      4.12597      0.79404     10.00000         0.056251      0.084670     -0.365964
      2.72998      1.52083     12.43877        -0.000274     -0.000501      0.001672
      9.62726      5.55830     10.00000        -0.083670     -0.015622      0.000407
      6.81573      2.19514     14.98159         0.003361      0.001707      0.007242
      4.08787      4.01847     12.44781         0.002783      0.004862     -0.006884
      6.88072      3.92192     12.48128         0.010375     -0.006738     -0.005572
      5.52731      1.52199     12.50595         0.007886      0.000153      0.000238
      6.87661      5.55830     10.00000         0.046570     -0.054384     -0.025178
      5.46828      6.33256     12.85515        -0.002985      0.005859     -0.012665
      6.87661      0.79404     10.00000         0.052445      0.124114     -0.147985
      2.89006      2.76518     16.17139        -0.000042      0.006043      0.005298
      4.47235      5.23364     16.65739        -0.002696     -0.007920     -0.002717
      5.71219      8.14803     16.24500         0.008648      0.003011     -0.003609
      8.41986      8.02198     16.03286        -0.011775     -0.000087     -0.005095
     11.07245      2.98902     15.95235        -0.005761      0.005642     -0.002366
      8.30247      2.83071     16.22463         0.004705      0.007120     -0.002200
     11.26079      8.73406     16.64491        -0.002001     -0.003864     -0.008784
      9.90135      5.45287     16.10540         0.000120      0.010749      0.000508
     11.00258      7.94043     10.00000         0.110424     -0.167509      0.020943
      8.25194      3.17617     10.00000        -0.061709     -0.066956      0.329010
      4.18511      2.34346     14.76876        -0.000965     -0.008055     -0.002223
      5.50129      3.17617     10.00000         0.067861     -0.022391      0.290930
      6.93271      7.00685     15.15537        -0.001448      0.008126     -0.012570
      8.32719      9.47117     14.72622         0.004701      0.003555      0.003783
      8.23969      6.26426     12.48967        -0.007412      0.001779      0.002152
      4.11775      7.05480     15.89043        -0.006120      0.006008     -0.005917
     13.68334      4.78035     15.95622         0.003352      0.006559     -0.002688
      8.25194      7.94043     10.00000         0.036967     -0.183794      0.109350
      1.48138      2.18099     14.85906        -0.003030     -0.001297      0.002274
      8.27364      1.51002     12.49124        -0.000457      0.003529      0.000186
      2.75065      3.17617     10.00000        -0.023525      0.037299      0.184181
     11.00258      3.17617     10.00000        -0.045841     -0.138949      0.256813
      9.63391      3.87650     12.39807        -0.010059     -0.006542      0.003597
      9.63043      2.13095     14.90354        -0.009531      0.003166     -0.000360
      5.53496      9.39182     14.72063         0.010394      0.002031      0.005007
     11.03654      6.22914     12.42362        -0.001016     -0.006390      0.002617
     11.22455      4.65522     14.87582        -0.005961      0.002747     -0.008654
     13.75323      7.94043     10.00000        -0.061801     -0.190738      0.071802
     10.98783      1.51062     12.53201        -0.006572      0.007131      0.000213
      6.87713      8.62933     12.39846         0.000546     -0.002155      0.001175
     11.03762      9.45219     14.86756        -0.005303     -0.000798      0.002818
      5.53648      4.65201     15.06423         0.004785      0.009507     -0.004736
 -----------------------------------------------------------------------------------
    total drift:                                0.027716     -0.006049     -0.050467


--------------------------------------------------------------------------------------------------------



  FREE ENERGIE OF THE ION-ELECTRON SYSTEM (eV)
  ---------------------------------------------------
  free  energy   TOTEN  =      -232.83794600 eV

  energy  without entropy=     -232.64995443  energy(sigma->0) =     -232.74395021
 
 d Force = 0.3740095E-03[ 0.259E-03, 0.489E-03]  d Energy = 0.3820007E-03-0.799E-05
 d Force =-0.1169363E+02[-0.117E+02,-0.117E+02]  d Ewald  =-0.1169363E+02 0.193E-05


--------------------------------------------------------------------------------------------------------


    POTLOK:  cpu time    0.0624: real time    0.0624


--------------------------------------------------------------------------------------------------------


 stress matrix after NEB project (eV)
      0.00000      0.00000      0.00000
      0.00000      0.00000      0.00000
      0.00000      0.00000      0.00000
  FORCES: max atom, RMS     0.015037    0.007931
  FORCE total and by dimension    0.059350    0.012665
  Stress total and by dimension    0.000000    0.000000
 Conjugate gradient step on ions:
 trial-energy change:   -0.000382  1 .order   -0.000374   -0.000489   -0.000259
  (g-gl).g = 0.271E-03      g.g   = 0.303E-03  gl.gl    = 0.318E-03
 g(Force)  = 0.303E-03   g(Stress)= 0.000E+00 ortho     = 0.331E-04
 gamma     =   0.85252
 trial     =   1.47551
 opt step  =   2.67851  (harmonic =   3.13296) maximal distance =0.00395238
 next E    =  -232.838056   (d E  =  -0.00049)


--------------------------------------------------------------------------------------------------------


  
 reached required accuracy - stopping structural energy minimisation
     LOOP+:  cpu time   83.9692: real time   84.3082
    4ORBIT:  cpu time    0.0000: real time    0.0000

 total amount of memory used by VASP on root node    93015. kBytes
========================================================================

   base      :      30000. kBytes
   nonlr-proj:       4672. kBytes
   fftplans  :       4744. kBytes
   grid      :       7835. kBytes
   one-center:        155. kBytes
   wavefun   :      45609. kBytes
 
  
  
 General timing and accounting informations for this job:
 ========================================================
  
                  Total CPU time used (sec):     1629.453
                            User time (sec):     1564.914
                          System time (sec):       64.539
                         Elapsed time (sec):     1640.303
  
                   Maximum memory used (kb):      647700.
                   Average memory used (kb):           0.
  
                          Minor page faults:       558757
                          Major page faults:            0
                 Voluntary context switches:         7833
