unknown system                          
           1
    11.002582    0.000000    0.000000
     5.501291    9.528515    0.000000
     0.000000    0.000000   26.191785
   Au   O    Pd
  24   8  24
Direct configuration=     1
   0.08333333  0.08333333  0.38179910
   0.75801808  0.75120888  0.61814757
   0.08333333  0.83333333  0.38179910
   0.67904809  0.89708805  0.47322097
   0.83333333  0.58333333  0.38179910
   0.77024611  0.96788576  0.56549795
   0.91933929  0.41068089  0.47577706
   0.83333333  0.08333333  0.38179910
   0.08333333  0.58333333  0.38179910
   0.90846180  0.65758880  0.51954822
   0.52571244  0.74176111  0.56266884
   0.92268837  0.90304437  0.47341457
   0.42478008  0.90311795  0.47233558
   0.50310364  0.49181025  0.56810213
   0.33333333  0.08333333  0.38179910
   0.16863287  0.15940939  0.47489054
   0.58333333  0.58333333  0.38179910
   0.50466904  0.22992938  0.57143561
   0.16062626  0.42218962  0.47492815
   0.41976820  0.41167436  0.47637024
   0.42264319  0.15972319  0.47699881
   0.33333333  0.58333333  0.38179910
   0.16503852  0.66487670  0.49128276
   0.58333333  0.08333333  0.38179910
   0.11876826  0.28982466  0.61731480
   0.13269428  0.54843486  0.63645304
   0.09160416  0.85526047  0.62070262
   0.34439170  0.84264803  0.61242250
   0.84988048  0.31263472  0.60917747
   0.60607875  0.29633506  0.61927506
   0.56572523  0.91584180  0.63443184
   0.61389183  0.57157408  0.61537672
   0.58333333  0.83333333  0.38179910
   0.58333333  0.33333333  0.38179910
   0.25726539  0.24653061  0.56342346
   0.33333333  0.33333333  0.38179910
   0.26273311  0.73552924  0.57920169
   0.26027290  0.99380931  0.56222723
   0.42058873  0.65719503  0.47729108
   0.00470845  0.74001127  0.60731467
   0.99365115  0.50123232  0.60939702
   0.33333333  0.83333333  0.38179910
   0.02051165  0.22864774  0.56756484
   0.67310336  0.15777770  0.47670128
   0.08333333  0.33333333  0.38179910
   0.83333333  0.33333333  0.38179910
   0.67258134  0.40624922  0.47353439
   0.76349735  0.22322051  0.56887693
   0.01074274  0.98517793  0.56229703
   0.67647481  0.65304651  0.47475465
   0.77605280  0.48807736  0.56844207
   0.83333333  0.83333333  0.38179910
   0.91991070  0.15817568  0.47869523
   0.17259501  0.90550496  0.47327643
   0.50774243  0.99160435  0.56643820
   0.25928157  0.48821281  0.57542670
Direct configuration=     2
   0.08333333  0.08333333  0.38179910
   0.75799771  0.75127371  0.61812694
   0.08333333  0.83333333  0.38179910
   0.67900370  0.89715678  0.47322384
   0.83333333  0.58333333  0.38179910
   0.77017715  0.96795604  0.56550103
   0.91925273  0.41074086  0.47575687
   0.83333333  0.08333333  0.38179910
   0.08333333  0.58333333  0.38179910
   0.90848515  0.65756357  0.51954169
   0.52577725  0.74171703  0.56264803
   0.92256077  0.90311387  0.47339826
   0.42474422  0.90312455  0.47232285
   0.50312928  0.49180945  0.56809721
   0.33333333  0.08333333  0.38179910
   0.16863133  0.15939844  0.47489216
   0.58333333  0.58333333  0.38179910
   0.50466057  0.22995852  0.57145119
   0.16063425  0.42222999  0.47494555
   0.41978739  0.41164281  0.47638556
   0.42265486  0.15974325  0.47700796
   0.33333333  0.58333333  0.38179910
   0.16508600  0.66479144  0.49127701
   0.58333333  0.08333333  0.38179910
   0.11870103  0.28980652  0.61734892
   0.13266506  0.54848159  0.63643372
   0.09167054  0.85528116  0.62068854
   0.34436588  0.84263094  0.61243389
   0.84979193  0.31266908  0.60919838
   0.60603942  0.29635464  0.61928090
   0.56562709  0.91595281  0.63443990
   0.61386859  0.57158999  0.61535822
   0.58333333  0.83333333  0.38179910
   0.58333333  0.33333333  0.38179910
   0.25734984  0.24640782  0.56340778
   0.33333333  0.33333333  0.38179910
   0.26266933  0.73551014  0.57919297
   0.26022906  0.99389585  0.56220976
   0.42056577  0.65720380  0.47727231
   0.00469789  0.73995610  0.60730237
   0.99361691  0.50123215  0.60939793
   0.33333333  0.83333333  0.38179910
   0.02064964  0.22854053  0.56753328
   0.67311995  0.15780440  0.47671613
   0.08333333  0.33333333  0.38179910
   0.83333333  0.33333333  0.38179910
   0.67255843  0.40624148  0.47352615
   0.76355600  0.22319617  0.56887747
   0.01073781  0.98522520  0.56228190
   0.67647228  0.65306786  0.47474386
   0.77603516  0.48813787  0.56841962
   0.83333333  0.83333333  0.38179910
   0.91986028  0.15819740  0.47867573
   0.17263331  0.90549293  0.47330924
   0.50775795  0.99156368  0.56652581
   0.25929563  0.48823874  0.57542140
Direct configuration=     3
   0.08333333  0.08333333  0.38179910
   0.75798131  0.75132594  0.61811033
   0.08333333  0.83333333  0.38179910
   0.67896793  0.89721214  0.47322615
   0.83333333  0.58333333  0.38179910
   0.77012160  0.96801265  0.56550351
   0.91918301  0.41078916  0.47574060
   0.83333333  0.08333333  0.38179910
   0.08333333  0.58333333  0.38179910
   0.90850395  0.65754325  0.51953642
   0.52582947  0.74168153  0.56263127
   0.92245799  0.90316986  0.47338512
   0.42471534  0.90312986  0.47231259
   0.50314994  0.49180880  0.56809325
   0.33333333  0.08333333  0.38179910
   0.16863008  0.15938962  0.47489346
   0.58333333  0.58333333  0.38179910
   0.50465375  0.22998199  0.57146374
   0.16064069  0.42226251  0.47495958
   0.41980284  0.41161740  0.47639790
   0.42266427  0.15975941  0.47701533
   0.33333333  0.58333333  0.38179910
   0.16512424  0.66472277  0.49127237
   0.58333333  0.08333333  0.38179910
   0.11864688  0.28979191  0.61737640
   0.13264152  0.54851924  0.63641815
   0.09172401  0.85529782  0.62067719
   0.34434508  0.84261718  0.61244306
   0.84972060  0.31269677  0.60921522
   0.60600774  0.29637040  0.61928561
   0.56554805  0.91604223  0.63444640
   0.61384987  0.57160281  0.61534332
   0.58333333  0.83333333  0.38179910
   0.58333333  0.33333333  0.38179910
   0.25741786  0.24630891  0.56339515
   0.33333333  0.33333333  0.38179910
   0.26261795  0.73549476  0.57918594
   0.26019375  0.99396556  0.56219570
   0.42054728  0.65721086  0.47725718
   0.00468939  0.73991167  0.60729247
   0.99358933  0.50123201  0.60939865
   0.33333333  0.83333333  0.38179910
   0.02076080  0.22845417  0.56750785
   0.67313331  0.15782591  0.47672809
   0.08333333  0.33333333  0.38179910
   0.83333333  0.33333333  0.38179910
   0.67253997  0.40623525  0.47351952
   0.76360325  0.22317656  0.56887790
   0.01073384  0.98526327  0.56226971
   0.67647024  0.65308506  0.47473517
   0.77602096  0.48818661  0.56840154
   0.83333333  0.83333333  0.38179910
   0.91981967  0.15821489  0.47866002
   0.17266416  0.90548324  0.47333567
   0.50777046  0.99153092  0.56659637
   0.25930695  0.48825963  0.57541713
Direct configuration=     4
   0.08333333  0.08333333  0.38179910
   0.75791481  0.75143385  0.61808654
   0.08333333  0.83333333  0.38179910
   0.67887410  0.89730286  0.47323430
   0.83333333  0.58333333  0.38179910
   0.77004417  0.96811514  0.56551039
   0.91911744  0.41083780  0.47570831
   0.83333333  0.08333333  0.38179910
   0.08333333  0.58333333  0.38179910
   0.90852979  0.65751820  0.51952122
   0.52582798  0.74169181  0.56259995
   0.92237816  0.90320421  0.47336892
   0.42469121  0.90314154  0.47230319
   0.50318178  0.49181757  0.56808142
   0.33333333  0.08333333  0.38179910
   0.16860366  0.15941896  0.47487782
   0.58333333  0.58333333  0.38179910
   0.50463340  0.23000390  0.57148647
   0.16062786  0.42228107  0.47498528
   0.41984445  0.41157256  0.47642158
   0.42268581  0.15976332  0.47703359
   0.33333333  0.58333333  0.38179910
   0.16512229  0.66470113  0.49125126
   0.58333333  0.08333333  0.38179910
   0.11860277  0.28975446  0.61738279
   0.13260153  0.54855576  0.63639171
   0.09174498  0.85530924  0.62064766
   0.34428981  0.84261325  0.61241301
   0.84974395  0.31272762  0.60919017
   0.60599632  0.29639525  0.61928936
   0.56545550  0.91614689  0.63452506
   0.61382499  0.57162350  0.61531674
   0.58333333  0.83333333  0.38179910
   0.58333333  0.33333333  0.38179910
   0.25745701  0.24620233  0.56341458
   0.33333333  0.33333333  0.38179910
   0.26259047  0.73547727  0.57916957
   0.26024726  0.99390424  0.56220238
   0.42052415  0.65721038  0.47722938
   0.00467790  0.73995194  0.60726709
   0.99357188  0.50118473  0.60940283
   0.33333333  0.83333333  0.38179910
   0.02068537  0.22850015  0.56751957
   0.67312273  0.15788774  0.47675083
   0.08333333  0.33333333  0.38179910
   0.83333333  0.33333333  0.38179910
   0.67249185  0.40624726  0.47350516
   0.76364069  0.22317634  0.56889202
   0.01072886  0.98528896  0.56225177
   0.67645152  0.65314700  0.47470990
   0.77605289  0.48816904  0.56837799
   0.83333333  0.83333333  0.38179910
   0.91976906  0.15824840  0.47862640
   0.17266683  0.90545351  0.47337945
   0.50772683  0.99154901  0.56667057
   0.25933263  0.48825912  0.57541158
Direct configuration=     5
   0.08333333  0.08333333  0.38179910
   0.75780739  0.75160816  0.61804813
   0.08333333  0.83333333  0.38179910
   0.67872253  0.89744939  0.47324746
   0.83333333  0.58333333  0.38179910
   0.76991911  0.96828067  0.56552149
   0.91901152  0.41091636  0.47565616
   0.83333333  0.08333333  0.38179910
   0.08333333  0.58333333  0.38179910
   0.90857152  0.65747774  0.51949667
   0.52582557  0.74170841  0.56254936
   0.92224923  0.90325969  0.47334276
   0.42465223  0.90316042  0.47228802
   0.50323321  0.49183174  0.56806230
   0.33333333  0.08333333  0.38179910
   0.16856098  0.15946636  0.47485257
   0.58333333  0.58333333  0.38179910
   0.50460051  0.23003929  0.57152319
   0.16060714  0.42231105  0.47502679
   0.41991164  0.41150013  0.47645983
   0.42272062  0.15976964  0.47706309
   0.33333333  0.58333333  0.38179910
   0.16511913  0.66466617  0.49121716
   0.58333333  0.08333333  0.38179910
   0.11853152  0.28969397  0.61739311
   0.13253694  0.54861475  0.63634899
   0.09177884  0.85532767  0.62059996
   0.34420054  0.84260691  0.61236448
   0.84978166  0.31277746  0.60914971
   0.60597787  0.29643540  0.61929542
   0.56530603  0.91631594  0.63465212
   0.61378481  0.57165694  0.61527380
   0.58333333  0.83333333  0.38179910
   0.58333333  0.33333333  0.38179910
   0.25752026  0.24603018  0.56344597
   0.33333333  0.33333333  0.38179910
   0.26254608  0.73544902  0.57914312
   0.26033368  0.99380521  0.56221317
   0.42048678  0.65720960  0.47718448
   0.00465935  0.74001699  0.60722610
   0.99354370  0.50110836  0.60940957
   0.33333333  0.83333333  0.38179910
   0.02056354  0.22857442  0.56753850
   0.67310564  0.15798761  0.47678757
   0.08333333  0.33333333  0.38179910
   0.83333333  0.33333333  0.38179910
   0.67241412  0.40626666  0.47348198
   0.76370116  0.22317597  0.56891482
   0.01072083  0.98533045  0.56222278
   0.67642129  0.65324703  0.47466909
   0.77610447  0.48814065  0.56833997
   0.83333333  0.83333333  0.38179910
   0.91968733  0.15830252  0.47857210
   0.17267115  0.90540549  0.47345016
   0.50765636  0.99157822  0.56679041
   0.25937410  0.48825828  0.57540262
Direct configuration=     6
   0.08333333  0.08333333  0.38179910
   0.75759256  0.75195677  0.61797130
   0.08333333  0.83333333  0.38179910
   0.67841939  0.89774245  0.47327378
   0.83333333  0.58333333  0.38179910
   0.76966898  0.96861174  0.56554369
   0.91879967  0.41107349  0.47555185
   0.83333333  0.08333333  0.38179910
   0.08333333  0.58333333  0.38179910
   0.90865499  0.65739682  0.51944756
   0.52582076  0.74174161  0.56244819
   0.92199136  0.90337064  0.47329044
   0.42457428  0.90319816  0.47225768
   0.50333607  0.49186007  0.56802405
   0.33333333  0.08333333  0.38179910
   0.16847563  0.15956115  0.47480206
   0.58333333  0.58333333  0.38179910
   0.50453475  0.23011008  0.57159661
   0.16056571  0.42237100  0.47510981
   0.42004604  0.41135528  0.47653631
   0.42279022  0.15978226  0.47712209
   0.33333333  0.58333333  0.38179910
   0.16511282  0.66459627  0.49114896
   0.58333333  0.08333333  0.38179910
   0.11838902  0.28957299  0.61741374
   0.13240777  0.54873272  0.63626357
   0.09184657  0.85536455  0.62050456
   0.34402199  0.84259424  0.61226742
   0.84985707  0.31287714  0.60906878
   0.60594098  0.29651568  0.61930753
   0.56500707  0.91665404  0.63490625
   0.61370444  0.57172380  0.61518794
   0.58333333  0.83333333  0.38179910
   0.58333333  0.33333333  0.38179910
   0.25764674  0.24568589  0.56350874
   0.33333333  0.33333333  0.38179910
   0.26245731  0.73539254  0.57909022
   0.26050654  0.99360714  0.56223475
   0.42041205  0.65720803  0.47709467
   0.00462225  0.74014708  0.60714412
   0.99348733  0.50095562  0.60942305
   0.33333333  0.83333333  0.38179910
   0.02031988  0.22872295  0.56757636
   0.67307147  0.15818736  0.47686105
   0.08333333  0.33333333  0.38179910
   0.83333333  0.33333333  0.38179910
   0.67225866  0.40630545  0.47343561
   0.76382210  0.22317523  0.56896043
   0.01070476  0.98541344  0.56216481
   0.67636082  0.65344710  0.47458745
   0.77620764  0.48808388  0.56826391
   0.83333333  0.83333333  0.38179910
   0.91952385  0.15841076  0.47846350
   0.17267978  0.90530945  0.47359157
   0.50751541  0.99163666  0.56703009
   0.25945706  0.48825661  0.57538468
Direct configuration=     7
   0.08333333  0.08333333  0.38179910
   0.75775291  0.75169657  0.61802864
   0.08333333  0.83333333  0.38179910
   0.67864565  0.89752371  0.47325413
   0.83333333  0.58333333  0.38179910
   0.76985567  0.96836463  0.56552712
   0.91895779  0.41095621  0.47562971
   0.83333333  0.08333333  0.38179910
   0.08333333  0.58333333  0.38179910
   0.90859269  0.65745722  0.51948421
   0.52582435  0.74171683  0.56252370
   0.92218383  0.90328783  0.47332949
   0.42463246  0.90316999  0.47228033
   0.50325930  0.49183892  0.56805260
   0.33333333  0.08333333  0.38179910
   0.16853934  0.15949040  0.47483976
   0.58333333  0.58333333  0.38179910
   0.50458384  0.23005724  0.57154181
   0.16059664  0.42232625  0.47504784
   0.41994573  0.41146340  0.47647922
   0.42273827  0.15977284  0.47707805
   0.33333333  0.58333333  0.38179910
   0.16511753  0.66464845  0.49119986
   0.58333333  0.08333333  0.38179910
   0.11849538  0.28966329  0.61739834
   0.13250418  0.54864467  0.63632733
   0.09179602  0.85533702  0.62057577
   0.34415526  0.84260370  0.61233987
   0.84980078  0.31280274  0.60912918
   0.60596852  0.29645576  0.61929849
   0.56523021  0.91640168  0.63471657
   0.61376443  0.57167389  0.61525203
   0.58333333  0.83333333  0.38179910
   0.58333333  0.33333333  0.38179910
   0.25755233  0.24594287  0.56346189
   0.33333333  0.33333333  0.38179910
   0.26252357  0.73543470  0.57912970
   0.26037752  0.99375498  0.56221864
   0.42046783  0.65720920  0.47716170
   0.00464994  0.74004998  0.60720531
   0.99352940  0.50106962  0.60941299
   0.33333333  0.83333333  0.38179910
   0.02050175  0.22861209  0.56754810
   0.67309698  0.15803827  0.47680621
   0.08333333  0.33333333  0.38179910
   0.83333333  0.33333333  0.38179910
   0.67237469  0.40627649  0.47347022
   0.76373183  0.22317578  0.56892639
   0.01071676  0.98535150  0.56220808
   0.67640595  0.65329777  0.47464838
   0.77613064  0.48812625  0.56832068
   0.83333333  0.83333333  0.38179910
   0.91964587  0.15832997  0.47854456
   0.17267334  0.90538113  0.47348602
   0.50762061  0.99159304  0.56685119
   0.25939514  0.48825786  0.57539807
Direct configuration=     8
   0.08333333  0.08333333  0.38179910
   0.75765393  0.75182495  0.61800948
   0.08333333  0.83333333  0.38179910
   0.67856182  0.89760227  0.47326911
   0.83333333  0.58333333  0.38179910
   0.76980106  0.96846382  0.56553149
   0.91893751  0.41097134  0.47559755
   0.83333333  0.08333333  0.38179910
   0.08333333  0.58333333  0.38179910
   0.90859602  0.65745155  0.51947051
   0.52581426  0.74173565  0.56248729
   0.92217419  0.90327462  0.47332484
   0.42459588  0.90320600  0.47227632
   0.50327809  0.49185428  0.56803916
   0.33333333  0.08333333  0.38179910
   0.16850297  0.15953027  0.47483643
   0.58333333  0.58333333  0.38179910
   0.50455912  0.23007425  0.57156749
   0.16058553  0.42229402  0.47507385
   0.41994952  0.41144849  0.47649867
   0.42273187  0.15976451  0.47710171
   0.33333333  0.58333333  0.38179910
   0.16506936  0.66468086  0.49117000
   0.58333333  0.08333333  0.38179910
   0.11849014  0.28962780  0.61739925
   0.13245554  0.54866948  0.63629927
   0.09176979  0.85535687  0.62055459
   0.34414380  0.84253619  0.61232737
   0.84977220  0.31287518  0.60913337
   0.60598242  0.29648852  0.61930492
   0.56520176  0.91644530  0.63481074
   0.61376379  0.57169258  0.61522044
   0.58333333  0.83333333  0.38179910
   0.58333333  0.33333333  0.38179910
   0.25752590  0.24588721  0.56349837
   0.33333333  0.33333333  0.38179910
   0.26256829  0.73537240  0.57909402
   0.26035120  0.99378933  0.56220688
   0.42045388  0.65720660  0.47713294
   0.00458856  0.74011488  0.60716830
   0.99350978  0.50108091  0.60941298
   0.33333333  0.83333333  0.38179910
   0.02053137  0.22858214  0.56752511
   0.67307811  0.15808714  0.47682632
   0.08333333  0.33333333  0.38179910
   0.83333333  0.33333333  0.38179910
   0.67234266  0.40632490  0.47345563
   0.76370957  0.22318251  0.56893783
   0.01068919  0.98537835  0.56218417
   0.67638277  0.65335127  0.47461931
   0.77610943  0.48815899  0.56829828
   0.83333333  0.83333333  0.38179910
   0.91962909  0.15835505  0.47851744
   0.17264333  0.90537213  0.47351551
   0.50757111  0.99163618  0.56691778
   0.25941018  0.48823051  0.57538966
Direct configuration=     9
   0.08333333  0.08333333  0.38179910
   0.75742874  0.75211705  0.61796588
   0.08333333  0.83333333  0.38179910
   0.67837109  0.89778101  0.47330317
   0.83333333  0.58333333  0.38179910
   0.76967681  0.96868950  0.56554143
   0.91889138  0.41100576  0.47552441
   0.83333333  0.08333333  0.38179910
   0.08333333  0.58333333  0.38179910
   0.90860361  0.65743866  0.51943932
   0.52579129  0.74177845  0.56240444
   0.92215225  0.90324457  0.47331424
   0.42451266  0.90328793  0.47226720
   0.50332085  0.49188923  0.56800860
   0.33333333  0.08333333  0.38179910
   0.16842024  0.15962097  0.47482887
   0.58333333  0.58333333  0.38179910
   0.50450289  0.23011295  0.57162593
   0.16056027  0.42222070  0.47513301
   0.41995816  0.41141456  0.47654291
   0.42271730  0.15974558  0.47715553
   0.33333333  0.58333333  0.38179910
   0.16495975  0.66475462  0.49110207
   0.58333333  0.08333333  0.38179910
   0.11847822  0.28954704  0.61740131
   0.13234487  0.54872594  0.63623543
   0.09171012  0.85540203  0.62050642
   0.34411772  0.84238260  0.61229894
   0.84970718  0.31303998  0.60914288
   0.60601406  0.29656305  0.61931954
   0.56513704  0.91654454  0.63502499
   0.61376234  0.57173509  0.61514857
   0.58333333  0.83333333  0.38179910
   0.58333333  0.33333333  0.38179910
   0.25746576  0.24576057  0.56358136
   0.33333333  0.33333333  0.38179910
   0.26267003  0.73523067  0.57901282
   0.26029131  0.99386750  0.56218011
   0.42042214  0.65720068  0.47706751
   0.00444889  0.74026255  0.60708411
   0.99346515  0.50110660  0.60941297
   0.33333333  0.83333333  0.38179910
   0.02059878  0.22851402  0.56747281
   0.67303519  0.15819833  0.47687208
   0.08333333  0.33333333  0.38179910
   0.83333333  0.33333333  0.38179910
   0.67226979  0.40643503  0.47342245
   0.76365893  0.22319783  0.56896385
   0.01062647  0.98543944  0.56212979
   0.67633001  0.65347300  0.47455318
   0.77606117  0.48823346  0.56824733
   0.83333333  0.83333333  0.38179910
   0.91959091  0.15841212  0.47845575
   0.17257505  0.90535164  0.47358259
   0.50745849  0.99173432  0.56706928
   0.25944439  0.48816828  0.57537053
Direct configuration=    10
   0.08333333  0.08333333  0.38179910
   0.75734630  0.75221288  0.61796147
   0.08333333  0.83333333  0.38179910
   0.67834161  0.89783087  0.47332882
   0.83333333  0.58333333  0.38179910
   0.76965294  0.96874251  0.56554636
   0.91889107  0.41100680  0.47550773
   0.83333333  0.08333333  0.38179910
   0.08333333  0.58333333  0.38179910
   0.90854533  0.65747415  0.51943136
   0.52575019  0.74183862  0.56237005
   0.92214237  0.90323680  0.47332271
   0.42444748  0.90334770  0.47227084
   0.50332490  0.49188074  0.56799120
   0.33333333  0.08333333  0.38179910
   0.16840909  0.15962760  0.47483237
   0.58333333  0.58333333  0.38179910
   0.50444632  0.23015096  0.57165952
   0.16058119  0.42215081  0.47515559
   0.41988421  0.41145143  0.47655139
   0.42265739  0.15974189  0.47719018
   0.33333333  0.58333333  0.38179910
   0.16492687  0.66474167  0.49107092
   0.58333333  0.08333333  0.38179910
   0.11842622  0.28957160  0.61742138
   0.13229225  0.54879098  0.63620378
   0.09169498  0.85538409  0.62046833
   0.34413876  0.84230389  0.61227602
   0.84969572  0.31309647  0.60913893
   0.60603189  0.29661363  0.61933295
   0.56515363  0.91654877  0.63508257
   0.61376882  0.57177322  0.61512524
   0.58333333  0.83333333  0.38179910
   0.58333333  0.33333333  0.38179910
   0.25749146  0.24579146  0.56360726
   0.33333333  0.33333333  0.38179910
   0.26265204  0.73526668  0.57898110
   0.26025284  0.99385530  0.56218034
   0.42040568  0.65721213  0.47703819
   0.00438303  0.74028912  0.60704211
   0.99338376  0.50119414  0.60939274
   0.33333333  0.83333333  0.38179910
   0.02052079  0.22854071  0.56744360
   0.67302289  0.15820763  0.47688212
   0.08333333  0.33333333  0.38179910
   0.83333333  0.33333333  0.38179910
   0.67227260  0.40651318  0.47341262
   0.76362855  0.22324921  0.56897465
   0.01059348  0.98544144  0.56212004
   0.67632114  0.65349351  0.47452280
   0.77605373  0.48826520  0.56821419
   0.83333333  0.83333333  0.38179910
   0.91959324  0.15842367  0.47845045
   0.17252972  0.90539459  0.47357322
   0.50745201  0.99174370  0.56714500
   0.25942060  0.48812730  0.57535131
Direct configuration=    11
   0.08333333  0.08333333  0.38179910
   0.75723409  0.75234331  0.61795548
   0.08333333  0.83333333  0.38179910
   0.67830150  0.89789873  0.47336372
   0.83333333  0.58333333  0.38179910
   0.76962046  0.96881466  0.56555308
   0.91889064  0.41100821  0.47548503
   0.83333333  0.08333333  0.38179910
   0.08333333  0.58333333  0.38179910
   0.90846601  0.65752246  0.51942053
   0.52569427  0.74192051  0.56232325
   0.92212892  0.90322623  0.47333423
   0.42435878  0.90342905  0.47227580
   0.50333040  0.49186919  0.56796751
   0.33333333  0.08333333  0.38179910
   0.16839391  0.15963663  0.47483713
   0.58333333  0.58333333  0.38179910
   0.50436933  0.23020271  0.57170524
   0.16060967  0.42205567  0.47518632
   0.41978355  0.41150161  0.47656292
   0.42257585  0.15973688  0.47723734
   0.33333333  0.58333333  0.38179910
   0.16488212  0.66472406  0.49102853
   0.58333333  0.08333333  0.38179910
   0.11835544  0.28960502  0.61744869
   0.13222062  0.54887951  0.63616071
   0.09167436  0.85535969  0.62041649
   0.34416739  0.84219677  0.61224481
   0.84968013  0.31317336  0.60913356
   0.60605616  0.29668248  0.61935120
   0.56517620  0.91655453  0.63516093
   0.61377763  0.57182511  0.61509350
   0.58333333  0.83333333  0.38179910
   0.58333333  0.33333333  0.38179910
   0.25752645  0.24583352  0.56364251
   0.33333333  0.33333333  0.38179910
   0.26262755  0.73531570  0.57893793
   0.26020048  0.99383870  0.56218066
   0.42038329  0.65722771  0.47699828
   0.00429338  0.74032529  0.60698493
   0.99327299  0.50131330  0.60936521
   0.33333333  0.83333333  0.38179910
   0.02041463  0.22857705  0.56740383
   0.67300615  0.15822029  0.47689578
   0.08333333  0.33333333  0.38179910
   0.83333333  0.33333333  0.38179910
   0.67227642  0.40661953  0.47339923
   0.76358721  0.22331915  0.56898936
   0.01054857  0.98544416  0.56210678
   0.67630906  0.65352143  0.47448145
   0.77604360  0.48830840  0.56816909
   0.83333333  0.83333333  0.38179910
   0.91959641  0.15843940  0.47844325
   0.17246803  0.90545305  0.47356045
   0.50744319  0.99175646  0.56724807
   0.25938823  0.48807151  0.57532514
Direct configuration=    12
   0.08333333  0.08333333  0.38179910
   0.75700968  0.75260418  0.61794349
   0.08333333  0.83333333  0.38179910
   0.67822126  0.89803445  0.47343354
   0.83333333  0.58333333  0.38179910
   0.76955548  0.96895897  0.56556651
   0.91888978  0.41101104  0.47543963
   0.83333333  0.08333333  0.38179910
   0.08333333  0.58333333  0.38179910
   0.90830737  0.65761909  0.51939886
   0.52558241  0.74208428  0.56222965
   0.92210202  0.90320509  0.47335729
   0.42418137  0.90359175  0.47228571
   0.50334141  0.49184608  0.56792015
   0.33333333  0.08333333  0.38179910
   0.16836357  0.15965468  0.47484666
   0.58333333  0.58333333  0.38179910
   0.50421534  0.23030620  0.57179667
   0.16066662  0.42186541  0.47524778
   0.41958223  0.41160198  0.47658600
   0.42241277  0.15972686  0.47733166
   0.33333333  0.58333333  0.38179910
   0.16479263  0.66468882  0.49094375
   0.58333333  0.08333333  0.38179910
   0.11821389  0.28967187  0.61750332
   0.13207737  0.54905655  0.63607457
   0.09163312  0.85531087  0.62031279
   0.34422465  0.84198251  0.61218240
   0.84964894  0.31332713  0.60912281
   0.60610470  0.29682017  0.61938770
   0.56522136  0.91656605  0.63531767
   0.61379524  0.57192890  0.61503001
   0.58333333  0.83333333  0.38179910
   0.58333333  0.33333333  0.38179910
   0.25759642  0.24591762  0.56371301
   0.33333333  0.33333333  0.38179910
   0.26257857  0.73541372  0.57885159
   0.26009575  0.99380548  0.56218129
   0.42033850  0.65725888  0.47691847
   0.00411409  0.74039764  0.60687058
   0.99305145  0.50155162  0.60931014
   0.33333333  0.83333333  0.38179910
   0.02020233  0.22864972  0.56732430
   0.67297268  0.15824561  0.47692310
   0.08333333  0.33333333  0.38179910
   0.83333333  0.33333333  0.38179910
   0.67228407  0.40683225  0.47337246
   0.76350453  0.22345903  0.56901877
   0.01045875  0.98544960  0.56208026
   0.67628489  0.65357727  0.47439875
   0.77602335  0.48839480  0.56807888
   0.83333333  0.83333333  0.38179910
   0.91960275  0.15847084  0.47842884
   0.17234465  0.90556997  0.47353493
   0.50742554  0.99178199  0.56745420
   0.25932348  0.48795993  0.57527281
Direct configuration=    13
   0.08333333  0.08333333  0.38179910
   0.75716851  0.75241955  0.61795197
   0.08333333  0.83333333  0.38179910
   0.67827805  0.89793839  0.47338413
   0.83333333  0.58333333  0.38179910
   0.76960147  0.96885684  0.56555700
   0.91889038  0.41100904  0.47547176
   0.83333333  0.08333333  0.38179910
   0.08333333  0.58333333  0.38179910
   0.90841965  0.65755070  0.51941420
   0.52566158  0.74196837  0.56229590
   0.92212106  0.90322005  0.47334097
   0.42430693  0.90347659  0.47227869
   0.50333362  0.49186243  0.56795367
   0.33333333  0.08333333  0.38179910
   0.16838505  0.15964191  0.47483991
   0.58333333  0.58333333  0.38179910
   0.50432432  0.23023295  0.57173196
   0.16062631  0.42200007  0.47520428
   0.41972472  0.41153095  0.47656967
   0.42252819  0.15973395  0.47726490
   0.33333333  0.58333333  0.38179910
   0.16485597  0.66471376  0.49100375
   0.58333333  0.08333333  0.38179910
   0.11831408  0.28962456  0.61746466
   0.13217876  0.54893125  0.63613554
   0.09166230  0.85534542  0.62038618
   0.34418412  0.84213415  0.61222657
   0.84967102  0.31321829  0.60913042
   0.60607035  0.29672272  0.61936186
   0.56518940  0.91655790  0.63520674
   0.61378277  0.57185544  0.61507494
   0.58333333  0.83333333  0.38179910
   0.58333333  0.33333333  0.38179910
   0.25754690  0.24585809  0.56366311
   0.33333333  0.33333333  0.38179910
   0.26261323  0.73534434  0.57891270
   0.26016987  0.99382899  0.56218085
   0.42037020  0.65723682  0.47697496
   0.00424098  0.74034644  0.60695151
   0.99320825  0.50138295  0.60934912
   0.33333333  0.83333333  0.38179910
   0.02035259  0.22859828  0.56738059
   0.67299637  0.15822769  0.47690377
   0.08333333  0.33333333  0.38179910
   0.83333333  0.33333333  0.38179910
   0.67227866  0.40668170  0.47339141
   0.76356305  0.22336003  0.56899795
   0.01052232  0.98544575  0.56209903
   0.67630200  0.65353775  0.47445728
   0.77603768  0.48833365  0.56814272
   0.83333333  0.83333333  0.38179910
   0.91959826  0.15844859  0.47843904
   0.17243198  0.90548722  0.47355299
   0.50743803  0.99176392  0.56730831
   0.25936931  0.48803890  0.57530985
Direct configuration=    14
   0.08333333  0.08333333  0.38179910
   0.75715213  0.75242833  0.61796218
   0.08333333  0.83333333  0.38179910
   0.67824710  0.89797796  0.47341015
   0.83333333  0.58333333  0.38179910
   0.76955975  0.96892734  0.56556639
   0.91890620  0.41101868  0.47545962
   0.83333333  0.08333333  0.38179910
   0.08333333  0.58333333  0.38179910
   0.90831880  0.65760845  0.51939907
   0.52563497  0.74198055  0.56225095
   0.92209089  0.90323408  0.47335230
   0.42426582  0.90352225  0.47228558
   0.50331138  0.49188567  0.56793195
   0.33333333  0.08333333  0.38179910
   0.16837040  0.15963506  0.47485418
   0.58333333  0.58333333  0.38179910
   0.50432345  0.23027827  0.57179007
   0.16064077  0.42193527  0.47521905
   0.41966845  0.41156049  0.47656483
   0.42250763  0.15973189  0.47730605
   0.33333333  0.58333333  0.38179910
   0.16483067  0.66467733  0.49096734
   0.58333333  0.08333333  0.38179910
   0.11818152  0.28972613  0.61745017
   0.13210729  0.54901712  0.63609936
   0.09164709  0.85529851  0.62035459
   0.34422652  0.84207420  0.61221293
   0.84964268  0.31330789  0.60911593
   0.60606257  0.29678783  0.61937691
   0.56517852  0.91657908  0.63527058
   0.61378710  0.57193069  0.61503952
   0.58333333  0.83333333  0.38179910
   0.58333333  0.33333333  0.38179910
   0.25748784  0.24589443  0.56371388
   0.33333333  0.33333333  0.38179910
   0.26257155  0.73533661  0.57885643
   0.26009043  0.99387169  0.56218852
   0.42033812  0.65727129  0.47694793
   0.00421165  0.74033453  0.60689953
   0.99311606  0.50145214  0.60931914
   0.33333333  0.83333333  0.38179910
   0.02032250  0.22865921  0.56736540
   0.67295160  0.15826654  0.47690683
   0.08333333  0.33333333  0.38179910