  48  48   0   0
  0.5349325E+02  0.1100258E-08  0.1100258E-08  0.2449179E-08  0.3500000E-15
  1.000000000000000E-004
  CAR 
 unknown system                          
      6.31882103    -10.05333808  301     -1.11098087      1.00000000
    -10.053  0.0000E+00  0.0000E+00
     -9.999  0.0000E+00  0.0000E+00
     -9.944  0.0000E+00  0.0000E+00
     -9.890  0.0000E+00  0.0000E+00
     -9.835  0.0000E+00  0.0000E+00
     -9.780  0.0000E+00  0.0000E+00
     -9.726  0.0000E+00  0.0000E+00
     -9.671  0.0000E+00  0.0000E+00
     -9.617  0.1221E-16  0.6661E-18
     -9.562  0.4712E-14  0.2578E-15
     -9.508  0.1049E-11  0.5752E-13
     -9.453  0.1312E-09  0.7217E-11
     -9.398  0.9239E-08  0.5114E-09
     -9.344  0.3676E-06  0.2057E-07
     -9.289  0.8292E-05  0.4731E-06
     -9.235  0.1064E-03  0.6280E-05
     -9.180  0.7794E-03  0.4882E-04
     -9.126  0.3270E-02  0.2273E-03
     -9.071  0.7898E-02  0.6583E-03
     -9.016  0.1119E-01  0.1269E-02
     -8.962  0.1030E-01  0.1831E-02
     -8.907  0.8909E-02  0.2317E-02
     -8.853  0.9967E-02  0.2861E-02
     -8.798  0.1005E-01  0.3410E-02
     -8.744  0.6879E-02  0.3785E-02
     -8.689  0.2993E-02  0.3948E-02
     -8.634  0.8548E-03  0.3995E-02
     -8.580  0.4795E-03  0.4021E-02
     -8.525  0.1391E-02  0.4097E-02
     -8.471  0.3251E-02  0.4275E-02
     -8.416  0.5113E-02  0.4554E-02
     -8.362  0.6605E-02  0.4914E-02
     -8.307  0.7721E-02  0.5336E-02
     -8.252  0.7382E-02  0.5738E-02
     -8.198  0.6716E-02  0.6105E-02
     -8.143  0.9103E-02  0.6602E-02
     -8.089  0.1411E-01  0.7372E-02
     -8.034  0.1714E-01  0.8307E-02
     -7.980  0.1520E-01  0.9137E-02
     -7.925  0.1018E-01  0.9692E-02
     -7.870  0.6426E-02  0.1004E-01
     -7.816  0.6367E-02  0.1039E-01
     -7.761  0.8997E-02  0.1088E-01
     -7.707  0.1173E-01  0.1152E-01
     -7.652  0.1277E-01  0.1222E-01
     -7.598  0.1236E-01  0.1289E-01
     -7.543  0.1275E-01  0.1359E-01
     -7.488  0.1686E-01  0.1451E-01
     -7.434  0.2557E-01  0.1590E-01
     -7.379  0.3642E-01  0.1789E-01
     -7.325  0.4640E-01  0.2042E-01
     -7.270  0.5493E-01  0.2342E-01
     -7.215  0.6033E-01  0.2671E-01
     -7.161  0.6042E-01  0.3001E-01
     -7.106  0.5720E-01  0.3313E-01
     -7.052  0.5204E-01  0.3597E-01
     -6.997  0.4285E-01  0.3831E-01
     -6.943  0.3226E-01  0.4007E-01
     -6.888  0.3050E-01  0.4174E-01
     -6.833  0.4374E-01  0.4412E-01
     -6.779  0.6382E-01  0.4761E-01
     -6.724  0.7912E-01  0.5192E-01
     -6.670  0.8870E-01  0.5677E-01
     -6.615  0.9575E-01  0.6199E-01
     -6.561  0.9864E-01  0.6737E-01
     -6.506  0.9766E-01  0.7270E-01
     -6.451  0.9933E-01  0.7812E-01
     -6.397  0.1101E+00  0.8413E-01
     -6.342  0.1314E+00  0.9131E-01
     -6.288  0.1539E+00  0.9970E-01
     -6.233  0.1630E+00  0.1086E+00
     -6.179  0.1589E+00  0.1173E+00
     -6.124  0.1542E+00  0.1257E+00
     -6.069  0.1552E+00  0.1342E+00
     -6.015  0.1577E+00  0.1428E+00
     -5.960  0.1563E+00  0.1513E+00
     -5.906  0.1526E+00  0.1596E+00
     -5.851  0.1491E+00  0.1678E+00
     -5.797  0.1458E+00  0.1757E+00
     -5.742  0.1411E+00  0.1834E+00
     -5.687  0.1327E+00  0.1907E+00
     -5.633  0.1266E+00  0.1976E+00
     -5.578  0.1290E+00  0.2046E+00
     -5.524  0.1357E+00  0.2120E+00
     -5.469  0.1411E+00  0.2197E+00
     -5.415  0.1450E+00  0.2276E+00
     -5.360  0.1488E+00  0.2357E+00
     -5.305  0.1528E+00  0.2441E+00
     -5.251  0.1567E+00  0.2526E+00
     -5.196  0.1627E+00  0.2615E+00
     -5.142  0.1719E+00  0.2709E+00
     -5.087  0.1792E+00  0.2807E+00
     -5.033  0.1801E+00  0.2905E+00
     -4.978  0.1785E+00  0.3003E+00
     -4.923  0.1795E+00  0.3100E+00
     -4.869  0.1812E+00  0.3199E+00
     -4.814  0.1798E+00  0.3297E+00
     -4.760  0.1750E+00  0.3393E+00
     -4.705  0.1700E+00  0.3486E+00
     -4.651  0.1665E+00  0.3577E+00
     -4.596  0.1638E+00  0.3666E+00
     -4.541  0.1629E+00  0.3755E+00
     -4.487  0.1648E+00  0.3845E+00
     -4.432  0.1687E+00  0.3937E+00
     -4.378  0.1717E+00  0.4031E+00
     -4.323  0.1702E+00  0.4123E+00
     -4.269  0.1632E+00  0.4213E+00
     -4.214  0.1563E+00  0.4298E+00
     -4.159  0.1556E+00  0.4383E+00
     -4.105  0.1607E+00  0.4470E+00
     -4.050  0.1664E+00  0.4561E+00
     -3.996  0.1707E+00  0.4654E+00
     -3.941  0.1738E+00  0.4749E+00
     -3.886  0.1748E+00  0.4845E+00
     -3.832  0.1759E+00  0.4941E+00
     -3.777  0.1804E+00  0.5039E+00
     -3.723  0.1883E+00  0.5142E+00
     -3.668  0.1964E+00  0.5249E+00
     -3.614  0.2009E+00  0.5359E+00
     -3.559  0.2031E+00  0.5469E+00
     -3.504  0.2060E+00  0.5582E+00
     -3.450  0.2057E+00  0.5694E+00
     -3.395  0.1965E+00  0.5801E+00
     -3.341  0.1842E+00  0.5902E+00
     -3.286  0.1778E+00  0.5999E+00
     -3.232  0.1770E+00  0.6096E+00
     -3.177  0.1782E+00  0.6193E+00
     -3.122  0.1796E+00  0.6291E+00
     -3.068  0.1805E+00  0.6389E+00
     -3.013  0.1824E+00  0.6489E+00
     -2.959  0.1852E+00  0.6590E+00
     -2.904  0.1853E+00  0.6691E+00
     -2.850  0.1838E+00  0.6791E+00
     -2.795  0.1878E+00  0.6894E+00
     -2.740  0.1985E+00  0.7002E+00
     -2.686  0.2095E+00  0.7117E+00
     -2.631  0.2162E+00  0.7235E+00
     -2.577  0.2203E+00  0.7355E+00
     -2.522  0.2214E+00  0.7476E+00
     -2.468  0.2164E+00  0.7594E+00
     -2.413  0.2076E+00  0.7707E+00
     -2.358  0.1988E+00  0.7816E+00
     -2.304  0.1890E+00  0.7919E+00
     -2.249  0.1770E+00  0.8015E+00
     -2.195  0.1669E+00  0.8106E+00
     -2.140  0.1646E+00  0.8196E+00
     -2.086  0.1692E+00  0.8288E+00
     -2.031  0.1790E+00  0.8386E+00
     -1.976  0.1942E+00  0.8492E+00
     -1.922  0.2064E+00  0.8605E+00
     -1.867  0.2088E+00  0.8719E+00
     -1.813  0.2073E+00  0.8832E+00
     -1.758  0.2087E+00  0.8946E+00
     -1.704  0.2109E+00  0.9061E+00
     -1.649  0.2090E+00  0.9175E+00
     -1.594  0.2015E+00  0.9285E+00
     -1.540  0.1920E+00  0.9390E+00
     -1.485  0.1851E+00  0.9491E+00
     -1.431  0.1830E+00  0.9591E+00
     -1.376  0.1842E+00  0.9691E+00
     -1.322  0.1831E+00  0.9791E+00
     -1.267  0.1744E+00  0.9886E+00
     -1.212  0.1540E+00  0.9970E+00
     -1.158  0.1225E+00  0.1004E+01
     -1.103  0.8973E-01  0.1009E+01
     -1.049  0.6574E-01  0.1012E+01
     -0.994  0.5049E-01  0.1015E+01
     -0.940  0.3890E-01  0.1017E+01
     -0.885  0.2842E-01  0.1019E+01
     -0.830  0.2045E-01  0.1020E+01
     -0.776  0.1777E-01  0.1021E+01
     -0.721  0.2137E-01  0.1022E+01
     -0.667  0.2945E-01  0.1023E+01
     -0.612  0.3831E-01  0.1026E+01
     -0.557  0.4498E-01  0.1028E+01
     -0.503  0.4838E-01  0.1031E+01
     -0.448  0.4629E-01  0.1033E+01
     -0.394  0.3946E-01  0.1035E+01
     -0.339  0.3603E-01  0.1037E+01
     -0.285  0.3962E-01  0.1039E+01
     -0.230  0.4208E-01  0.1042E+01
     -0.175  0.3648E-01  0.1044E+01
     -0.121  0.2616E-01  0.1045E+01
     -0.066  0.1802E-01  0.1046E+01
     -0.012  0.1442E-01  0.1047E+01
      0.043  0.1409E-01  0.1048E+01
      0.097  0.1696E-01  0.1049E+01
      0.152  0.2212E-01  0.1050E+01
      0.207  0.2562E-01  0.1051E+01
      0.261  0.2793E-01  0.1053E+01
      0.316  0.3329E-01  0.1055E+01
      0.370  0.4073E-01  0.1057E+01
      0.425  0.4714E-01  0.1059E+01
      0.479  0.5284E-01  0.1062E+01
      0.534  0.5674E-01  0.1065E+01
      0.589  0.5506E-01  0.1068E+01
      0.643  0.4882E-01  0.1071E+01
      0.698  0.4354E-01  0.1073E+01
      0.752  0.4097E-01  0.1076E+01
      0.807  0.3681E-01  0.1078E+01
      0.861  0.2966E-01  0.1079E+01
      0.916  0.2408E-01  0.1081E+01
      0.971  0.2068E-01  0.1082E+01
      1.025  0.1795E-01  0.1083E+01
      1.080  0.1781E-01  0.1084E+01
      1.134  0.1950E-01  0.1085E+01
      1.189  0.1927E-01  0.1086E+01
      1.243  0.1560E-01  0.1087E+01
      1.298  0.1052E-01  0.1087E+01
      1.353  0.8102E-02  0.1088E+01
      1.407  0.1010E-01  0.1088E+01
      1.462  0.1566E-01  0.1089E+01
      1.516  0.2388E-01  0.1090E+01
      1.571  0.3325E-01  0.1092E+01
      1.625  0.3923E-01  0.1094E+01
      1.680  0.3803E-01  0.1096E+01
      1.735  0.3284E-01  0.1098E+01
      1.789  0.2765E-01  0.1100E+01
      1.844  0.2283E-01  0.1101E+01
      1.898  0.2019E-01  0.1102E+01
      1.953  0.2321E-01  0.1103E+01
      2.007  0.3148E-01  0.1105E+01
      2.062  0.4006E-01  0.1107E+01
      2.117  0.4462E-01  0.1110E+01
      2.171  0.4521E-01  0.1112E+01
      2.226  0.4556E-01  0.1115E+01
      2.280  0.4716E-01  0.1117E+01
      2.335  0.4687E-01  0.1120E+01
      2.390  0.4304E-01  0.1122E+01
      2.444  0.3868E-01  0.1124E+01
      2.499  0.3625E-01  0.1126E+01
      2.553  0.3544E-01  0.1128E+01
      2.608  0.3718E-01  0.1130E+01
      2.662  0.4059E-01  0.1132E+01
      2.717  0.4014E-01  0.1135E+01
      2.772  0.3236E-01  0.1136E+01
      2.826  0.2055E-01  0.1137E+01
      2.881  0.1208E-01  0.1138E+01
      2.935  0.1073E-01  0.1139E+01
      2.990  0.1148E-01  0.1139E+01
      3.044  0.9138E-02  0.1140E+01
      3.099  0.7278E-02  0.1140E+01
      3.154  0.1067E-01  0.1141E+01
      3.208  0.1664E-01  0.1142E+01
      3.263  0.1962E-01  0.1143E+01
      3.317  0.1926E-01  0.1144E+01
      3.372  0.2005E-01  0.1145E+01
      3.426  0.2426E-01  0.1146E+01
      3.481  0.2952E-01  0.1148E+01
      3.536  0.3557E-01  0.1150E+01
      3.590  0.4408E-01  0.1152E+01
      3.645  0.4922E-01  0.1155E+01
      3.699  0.4410E-01  0.1157E+01
      3.754  0.3315E-01  0.1159E+01
      3.808  0.2535E-01  0.1160E+01
      3.863  0.2280E-01  0.1162E+01
      3.918  0.2306E-01  0.1163E+01
      3.972  0.2559E-01  0.1164E+01
      4.027  0.2789E-01  0.1166E+01
      4.081  0.2572E-01  0.1167E+01
      4.136  0.2193E-01  0.1168E+01
      4.190  0.2110E-01  0.1170E+01
      4.245  0.2019E-01  0.1171E+01
      4.300  0.1633E-01  0.1172E+01
      4.354  0.1445E-01  0.1172E+01
      4.409  0.1925E-01  0.1173E+01
      4.463  0.2770E-01  0.1175E+01
      4.518  0.3706E-01  0.1177E+01
      4.572  0.4768E-01  0.1180E+01
      4.627  0.5512E-01  0.1183E+01
      4.682  0.5434E-01  0.1186E+01
      4.736  0.4954E-01  0.1188E+01
      4.791  0.4755E-01  0.1191E+01
      4.845  0.4872E-01  0.1194E+01
      4.900  0.5171E-01  0.1196E+01
      4.954  0.5717E-01  0.1199E+01
      5.009  0.6468E-01  0.1203E+01
      5.064  0.7042E-01  0.1207E+01
      5.118  0.6992E-01  0.1211E+01
      5.173  0.6481E-01  0.1214E+01
      5.227  0.6036E-01  0.1218E+01
      5.282  0.5371E-01  0.1220E+01
      5.336  0.3841E-01  0.1223E+01
      5.391  0.1918E-01  0.1224E+01
      5.446  0.6182E-02  0.1224E+01
      5.500  0.1233E-02  0.1224E+01
      5.555  0.1480E-03  0.1224E+01
      5.609  0.1051E-04  0.1224E+01
      5.664  0.4350E-06  0.1224E+01
      5.719  0.1040E-07  0.1224E+01
      5.773  0.1422E-09  0.1224E+01
      5.828  0.1107E-11  0.1224E+01
      5.882  0.4869E-14  0.1224E+01
      5.937  0.1085E-16  0.1224E+01
      5.991  0.0000E+00  0.1224E+01
      6.046  0.0000E+00  0.1224E+01
      6.101  0.0000E+00  0.1224E+01
      6.155  0.0000E+00  0.1224E+01
      6.210  0.0000E+00  0.1224E+01
      6.264  0.0000E+00  0.1224E+01
      6.319  0.0000E+00  0.1224E+01
