<?xml version="1.0" encoding="ISO-8859-1"?>
<modeling>
 <generator>
  <i name="program" type="string">vasp </i>
  <i name="version" type="string">5.4.1  </i>
  <i name="subversion" type="string">24Jun15 (build Mar 14 2019 10:18:33) complex                          parallel </i>
  <i name="platform" type="string">INTEL-19.0.2+OPENMPI-3.1.3 </i>
  <i name="date" type="string">2022 07 15 </i>
  <i name="time" type="string">15:09:33 </i>
 </generator>
 <incar>
  <i type="int" name="ISTART">     0</i>
  <i type="string" name="PREC">normal</i>
  <i type="string" name="ALGO"> Fast</i>
  <i type="int" name="NELM">   500</i>
  <i type="int" name="IBRION">     2</i>
  <i type="int" name="NFREE">     2</i>
  <i name="EDIFF">      0.00000100</i>
  <i name="EDIFFG">     -0.02000000</i>
  <i type="int" name="NSW">   500</i>
  <i type="int" name="ISIF">     0</i>
  <i type="int" name="ISYM">     2</i>
  <i name="ENCUT">    400.00000000</i>
  <i name="POTIM">      0.35000000</i>
  <i type="string" name="LREAL"> Auto</i>
  <i type="logical" name="LPLANE"> T  </i>
  <i type="int" name="ISMEAR">     0</i>
  <i name="SIGMA">      0.10000000</i>
  <i type="int" name="NWRITE">     1</i>
  <i type="logical" name="LWAVE"> F  </i>
  <i type="logical" name="LCHARG"> F  </i>
  <i type="logical" name="LVTOT"> F  </i>
  <i type="logical" name="LORBIT"> F  </i>
  <i type="logical" name="LAECHG"> F  </i>
  <v type="int" name="KPOINT_BSE">    -1     0     0     0</v>
  <i type="int" name="NELM">   500</i>
  <i type="string" name="GGA"> PE          ! optPBE-vdW XC-functional</i>
  <i type="int" name="VOSKOWN">     1</i>
  <i type="logical" name="LDIPOL"> T  </i>
  <i type="logical" name="LMONO"> F  </i>
  <i type="int" name="IDIPOL">     3</i>
  <v name="DIPOL">      0.00000000      0.00000000      0.50000000</v>
 </incar>
 <kpoints>
  <generation param="Monkhorst-Pack">
   <v type="int" name="divisions">       2        2        1 </v>
   <v name="usershift">      0.00000000       0.00000000       0.00000000 </v>
   <v name="genvec1">      0.50000000      -0.00000000       0.00000000 </v>
   <v name="genvec2">      0.00000000       0.50000000       0.00000000 </v>
   <v name="genvec3">      0.00000000       0.00000000       1.00000000 </v>
   <v name="shift">      0.50000000       0.50000000       0.00000000 </v>
  </generation>
  <varray name="kpointlist" >
   <v>       0.25000000       0.25000000       0.00000000 </v>
   <v>       0.00000000       0.25000000       0.00000000 </v>
   <v>      -0.25000000       0.00000000       0.00000000 </v>
   <v>      -0.25000000       0.25000000       0.00000000 </v>
   <v>       0.50000000      -0.25000000       0.00000000 </v>
   <v>      -0.25000000       0.50000000       0.00000000 </v>
  </varray>
  <varray name="weights" >
   <v>       0.16666667 </v>
   <v>       0.16666667 </v>
   <v>       0.16666667 </v>
   <v>       0.16666667 </v>
   <v>       0.16666667 </v>
   <v>       0.16666667 </v>
  </varray>
 </kpoints>
 <parameters>
  <separator name="general" >
   <i type="string" name="SYSTEM">unknown system</i>
   <i type="logical" name="LCOMPAT"> F  </i>
  </separator>
  <separator name="electronic" >
   <i type="string" name="PREC">normal</i>
   <i name="ENMAX">    400.00000000</i>
   <i name="ENAUG">    416.23000000</i>
   <i name="EDIFF">      0.00000100</i>
   <i type="int" name="IALGO">    68</i>
   <i type="int" name="IWAVPR">    11</i>
   <i type="int" name="NBANDS">   306</i>
   <i name="NELECT">    504.00000000</i>
   <i type="int" name="TURBO">     0</i>
   <i type="int" name="IRESTART">     0</i>
   <i type="int" name="NREBOOT">     0</i>
   <i type="int" name="NMIN">     0</i>
   <i name="EREF">      0.00000000</i>
   <separator name="electronic smearing" >
    <i type="int" name="ISMEAR">     0</i>
    <i name="SIGMA">      0.10000000</i>
    <i name="KSPACING">      0.50000000</i>
    <i type="logical" name="KGAMMA"> T  </i>
   </separator>
   <separator name="electronic projectors" >
    <i type="logical" name="LREAL"> T  </i>
    <v name="ROPT">     -0.00050000     -0.00050000</v>
    <i type="int" name="LMAXPAW">  -100</i>
    <i type="int" name="LMAXMIX">     2</i>
    <i type="logical" name="NLSPLINE"> F  </i>
   </separator>
   <separator name="electronic startup" >
    <i type="int" name="ISTART">     0</i>
    <i type="int" name="ICHARG">     2</i>
    <i type="int" name="INIWAV">     1</i>
   </separator>
   <separator name="electronic spin" >
    <i type="int" name="ISPIN">     1</i>
    <i type="logical" name="LNONCOLLINEAR"> F  </i>
    <v name="MAGMOM">      1.00000000      1.00000000      1.00000000      1.00000000      1.00000000      1.00000000      1.00000000      1.00000000      1.00000000      1.00000000      1.00000000      1.00000000      1.00000000      1.00000000      1.00000000      1.00000000      1.00000000      1.00000000      1.00000000      1.00000000
      1.00000000      1.00000000      1.00000000      1.00000000      1.00000000      1.00000000      1.00000000      1.00000000      1.00000000      1.00000000      1.00000000      1.00000000      1.00000000      1.00000000      1.00000000      1.00000000      1.00000000      1.00000000      1.00000000      1.00000000
      1.00000000      1.00000000      1.00000000      1.00000000      1.00000000      1.00000000      1.00000000      1.00000000</v>
    <i name="NUPDOWN">     -1.00000000</i>
    <i type="logical" name="LSORBIT"> F  </i>
    <v name="SAXIS">      0.00000000      0.00000000      1.00000000</v>
    <i type="logical" name="LSPIRAL"> F  </i>
    <v name="QSPIRAL">      0.00000000      0.00000000      0.00000000</v>
    <i type="logical" name="LZEROZ"> F  </i>
   </separator>
   <separator name="electronic exchange-correlation" >
    <i type="logical" name="LASPH"> F  </i>
    <i type="logical" name="LMETAGGA"> F  </i>
   </separator>
   <separator name="electronic convergence" >
    <i type="int" name="NELM">   500</i>
    <i type="int" name="NELMDL">    -5</i>
    <i type="int" name="NELMIN">     2</i>
    <i name="ENINI">    400.00000000</i>
    <separator name="electronic convergence detail" >
     <i type="logical" name="LDIAG"> T  </i>
     <i type="logical" name="LSUBROT"> F  </i>
     <i name="WEIMIN">      0.00100000</i>
     <i name="EBREAK">      0.00000000</i>
     <i name="DEPER">      0.30000000</i>
     <i type="int" name="NRMM">     4</i>
     <i name="TIME">      0.40000000</i>
    </separator>
   </separator>
   <separator name="electronic mixer" >
    <i name="AMIX">      0.40000000</i>
    <i name="BMIX">      1.00000000</i>
    <i name="AMIN">      0.10000000</i>
    <i name="AMIX_MAG">      1.60000000</i>
    <i name="BMIX_MAG">      1.00000000</i>
    <separator name="electronic mixer details" >
     <i type="int" name="IMIX">     4</i>
     <i type="logical" name="MIXFIRST"> F  </i>
     <i type="int" name="MAXMIX">   -45</i>
     <i name="WC">    100.00000000</i>
     <i type="int" name="INIMIX">     1</i>
     <i type="int" name="MIXPRE">     1</i>
     <i type="int" name="MREMOVE">     5</i>
    </separator>
   </separator>
   <separator name="electronic dipolcorrection" >
    <i type="logical" name="LDIPOL"> T  </i>
    <i type="logical" name="LMONO"> F  </i>
    <i type="int" name="IDIPOL">     3</i>
    <i name="EPSILON">      1.00000000</i>
    <v name="DIPOL">      0.00000000      0.00000000      0.50000000</v>
    <i name="EFIELD">      0.00000000</i>
   </separator>
  </separator>
  <separator name="grids" >
   <i type="int" name="NGX">    54</i>
   <i type="int" name="NGY">    54</i>
   <i type="int" name="NGZ">   120</i>
   <i type="int" name="NGXF">   108</i>
   <i type="int" name="NGYF">   108</i>
   <i type="int" name="NGZF">   240</i>
   <i type="logical" name="ADDGRID"> F  </i>
  </separator>
  <separator name="ionic" >
   <i type="int" name="NSW">   500</i>
   <i type="int" name="IBRION">     2</i>
   <i type="int" name="ISIF">     0</i>
   <i name="PSTRESS">      0.00000000</i>
   <i name="EDIFFG">     -0.02000000</i>
   <i type="int" name="NFREE">     2</i>
   <i name="POTIM">      0.35000000</i>
   <i name="SMASS">     -3.00000000</i>
   <i name="SCALEE">      1.00000000</i>
  </separator>
  <separator name="ionic md" >
   <i name="TEBEG">      0.00010000</i>
   <i name="TEEND">      0.00010000</i>
   <i type="int" name="NBLOCK">     1</i>
   <i type="int" name="KBLOCK">   500</i>
   <i type="int" name="NPACO">   256</i>
   <i name="APACO">     16.00000000</i>
  </separator>
  <separator name="symmetry" >
   <i type="int" name="ISYM">     2</i>
   <i name="SYMPREC">      0.00001000</i>
  </separator>
  <separator name="dos" >
   <i type="logical" name="LORBIT"> F  </i>
   <v name="RWIGS">     -1.00000000     -1.00000000</v>
   <i type="int" name="NEDOS">   301</i>
   <i name="EMIN">     10.00000000</i>
   <i name="EMAX">    -10.00000000</i>
   <i name="EFERMI">      0.00000000</i>
  </separator>
  <separator name="writing" >
   <i type="int" name="NWRITE">     1</i>
   <i type="logical" name="LWAVE"> F  </i>
   <i type="logical" name="LCHARG"> F  </i>
   <i type="logical" name="LPARD"> F  </i>
   <i type="logical" name="LVTOT"> F  </i>
   <i type="logical" name="LVHAR"> F  </i>
   <i type="logical" name="LELF"> F  </i>
   <i type="logical" name="LOPTICS"> F  </i>
   <v name="STM">      0.00000000      0.00000000      0.00000000      0.00000000      0.00000000      0.00000000      0.00000000</v>
  </separator>
  <separator name="performance" >
   <i type="int" name="NPAR">     6</i>
   <i type="int" name="NSIM">     4</i>
   <i type="int" name="NBLK">    -1</i>
   <i type="logical" name="LPLANE"> T  </i>
   <i type="logical" name="LSCALAPACK"> T  </i>
   <i type="logical" name="LSCAAWARE"> F  </i>
   <i type="logical" name="LSCALU"> F  </i>
   <i type="logical" name="LASYNC"> F  </i>
   <i type="logical" name="LORBITALREAL"> F  </i>
  </separator>
  <separator name="miscellaneous" >
   <i type="int" name="IDIOT">     3</i>
   <i type="logical" name="LMUSIC"> F  </i>
   <v name="POMASS">    196.96600000    106.42000000</v>
   <v name="DARWINR">      0.00000000      0.00000000</v>
   <v name="DARWINV">      1.00000000      1.00000000</v>
   <i type="logical" name="LCORR"> T  </i>
  </separator>
  <i type="logical" name="GGA_COMPAT"> T  </i>
  <i type="logical" name="LBERRY"> F  </i>
  <i type="int" name="ICORELEVEL">     0</i>
  <i type="logical" name="LDAU"> F  </i>
  <i type="int" name="I_CONSTRAINED_M">     0</i>
  <separator name="electronic exchange-correlation" >
   <i type="string" name="GGA">PE</i>
   <i type="int" name="VOSKOWN">     1</i>
   <i type="logical" name="LHFCALC"> F  </i>
   <i type="string" name="PRECFOCK"></i>
   <i type="logical" name="LSYMGRAD"> F  </i>
   <i type="logical" name="LHFONE"> F  </i>
   <i type="logical" name="LRHFCALC"> F  </i>
   <i type="logical" name="LTHOMAS"> F  </i>
   <i type="logical" name="LMODELHF"> F  </i>
   <i name="ENCUT4O">     -1.00000000</i>
   <i type="int" name="EXXOEP">     0</i>
   <i type="int" name="FOURORBIT">     0</i>
   <i name="AEXX">      0.00000000</i>
   <i name="HFALPHA">      0.00000000</i>
   <i name="MCALPHA">      0.00000000</i>
   <i name="ALDAX">      1.00000000</i>
   <i name="AGGAX">      1.00000000</i>
   <i name="ALDAC">      1.00000000</i>
   <i name="AGGAC">      1.00000000</i>
   <i type="int" name="NKREDX">     1</i>
   <i type="int" name="NKREDY">     1</i>
   <i type="int" name="NKREDZ">     1</i>
   <i type="logical" name="SHIFTRED"> F  </i>
   <i type="logical" name="ODDONLY"> F  </i>
   <i type="logical" name="EVENONLY"> F  </i>
   <i type="int" name="LMAXFOCK">     0</i>
   <i type="int" name="NMAXFOCKAE">     0</i>
   <i type="logical" name="LFOCKAEDFT"> F  </i>
   <i name="HFSCREEN">      0.00000000</i>
   <i name="HFSCREENC">      0.00000000</i>
   <i type="int" name="NBANDSGWLOW">     0</i>
  </separator>
  <separator name="vdW DFT" >
   <i type="logical" name="LUSE_VDW"> F  </i>
   <i name="Zab_VDW">     -0.84910000</i>
   <i name="PARAM1">      0.12340000</i>
   <i name="PARAM2">      1.00000000</i>
   <i name="PARAM3">      0.00000000</i>
  </separator>
  <separator name="model GW" >
   <i type="int" name="MODEL_GW">     0</i>
   <i name="MODEL_EPS0">     32.09595293</i>
   <i name="MODEL_ALPHA">      1.00000000</i>
  </separator>
  <separator name="linear response parameters" >
   <i type="logical" name="LEPSILON"> F  </i>
   <i type="logical" name="LRPA"> F  </i>
   <i type="logical" name="LNABLA"> F  </i>
   <i type="logical" name="LVEL"> F  </i>
   <i type="int" name="KINTER">     0</i>
   <i name="CSHIFT">      0.10000000</i>
   <i name="OMEGAMAX">     -1.00000000</i>
   <i name="DEG_THRESHOLD">      0.00200000</i>
  </separator>
  <separator name="orbital magnetization" >
   <i type="logical" name="NUCIND"> F  </i>
   <v name="MAGPOS">      0.00000000      0.00000000      0.00000000</v>
   <i type="logical" name="LNICSALL"> T  </i>
   <i type="logical" name="ORBITALMAG"> F  </i>
   <i type="logical" name="LMAGBLOCH"> F  </i>
   <i type="logical" name="LCHIMAG"> F  </i>
   <i type="logical" name="LGAUGE"> T  </i>
   <i type="int" name="MAGATOM">     0</i>
   <v name="MAGDIPOL">      0.00000000      0.00000000      0.00000000</v>
   <v name="AVECCONST">      0.00000000      0.00000000      0.00000000</v>
  </separator>
  <separator name="response functions" >
   <i type="logical" name="LADDER"> F  </i>
   <i type="logical" name="LFXC"> F  </i>
   <i type="logical" name="LHARTREE"> T  </i>
   <i type="int" name="IBSE">     0</i>
   <v type="int" name="KPOINT">    -1     0     0     0</v>
   <i type="logical" name="LTCTE"> F  </i>
   <i type="logical" name="LTETE"> F  </i>
   <i type="logical" name="LTRIPLET"> F  </i>
   <i type="logical" name="LFXCEPS"> F  </i>
   <i type="logical" name="LFXHEG"> F  </i>
   <i type="int" name="NATURALO">     0</i>
   <i type="logical" name="L2ORDER"> F  </i>
   <i type="logical" name="LUSEW"> F  </i>
   <i name="ENCUTGW">     -2.00000000</i>
   <i name="ENCUTGWSOFT">     -2.00000000</i>
   <i name="ENCUTLF">     -1.00000000</i>
   <i type="int" name="LMAXMP2">    -1</i>
   <i name="SCISSOR">      0.00000000</i>
   <i type="int" name="NOMEGA">     0</i>
   <i type="int" name="NOMEGAR">     0</i>
   <i type="int" name="NBANDSGW">    -1</i>
   <i type="int" name="NBANDSO">    -1</i>
   <i type="int" name="NBANDSV">    -1</i>
   <i type="int" name="NELM">   500</i>
   <i type="int" name="NELMHF">     1</i>
   <i type="int" name="DIM">     3</i>
   <i type="int" name="ANTIRES">     0</i>
   <i name="OMEGAMAX">    -30.00000000</i>
   <i name="OMEGAMIN">    -30.00000000</i>
   <i name="OMEGATL">   -200.00000000</i>
   <i type="int" name="OMEGAGRID">     0</i>
   <i name="CSHIFT">     -0.10000000</i>
   <i type="logical" name="SELFENERGY"> F  </i>
   <i type="logical" name="LSPECTRAL"> F  </i>
   <i type="logical" name="LSPECTRALGW"> F  </i>
   <i type="logical" name="LSINGLES"> F  </i>
   <i type="logical" name="LFERMIGW"> F  </i>
   <i type="logical" name="ODDONLYGW"> F  </i>
   <i type="logical" name="EVENONLYGW"> F  </i>
   <i type="int" name="NKREDLFX">     1</i>
   <i type="int" name="NKREDLFY">     1</i>
   <i type="int" name="NKREDLFZ">     1</i>
   <i type="int" name="MAXMEM">  1800</i>
   <i type="int" name="TELESCOPE">     0</i>
   <i type="int" name="TAUPAR">     1</i>
   <i type="int" name="OMEGAPAR">    -1</i>
   <i name="LAMBDA">      1.00000000</i>
  </separator>
  <separator name="External order field" >
   <i name="OFIELD_KAPPA">      0.00000000</i>
   <v name="OFIELD_K">      0.00000000      0.00000000      0.00000000</v>
   <i name="OFIELD_Q6_NEAR">      0.00000000</i>
   <i name="OFIELD_Q6_FAR">      0.00000000</i>
   <i name="OFIELD_A">      0.00000000</i>
  </separator>
 </parameters>
 <atominfo>
  <atoms>      48 </atoms>
  <types>       2 </types>
  <array name="atoms" >
   <dimension dim="1">ion</dimension>
   <field type="string">element</field>
   <field type="int">atomtype</field>
   <set>
    <rc><c>Au</c><c>   1</c></rc>
    <rc><c>Au</c><c>   1</c></rc>
    <rc><c>Au</c><c>   1</c></rc>
    <rc><c>Au</c><c>   1</c></rc>
    <rc><c>Au</c><c>   1</c></rc>
    <rc><c>Au</c><c>   1</c></rc>
    <rc><c>Au</c><c>   1</c></rc>
    <rc><c>Au</c><c>   1</c></rc>
    <rc><c>Au</c><c>   1</c></rc>
    <rc><c>Au</c><c>   1</c></rc>
    <rc><c>Au</c><c>   1</c></rc>
    <rc><c>Au</c><c>   1</c></rc>
    <rc><c>Au</c><c>   1</c></rc>
    <rc><c>Au</c><c>   1</c></rc>
    <rc><c>Au</c><c>   1</c></rc>
    <rc><c>Au</c><c>   1</c></rc>
    <rc><c>Au</c><c>   1</c></rc>
    <rc><c>Au</c><c>   1</c></rc>
    <rc><c>Au</c><c>   1</c></rc>
    <rc><c>Au</c><c>   1</c></rc>
    <rc><c>Au</c><c>   1</c></rc>
    <rc><c>Au</c><c>   1</c></rc>
    <rc><c>Au</c><c>   1</c></rc>
    <rc><c>Au</c><c>   1</c></rc>
    <rc><c>Pd</c><c>   2</c></rc>
    <rc><c>Pd</c><c>   2</c></rc>
    <rc><c>Pd</c><c>   2</c></rc>
    <rc><c>Pd</c><c>   2</c></rc>
    <rc><c>Pd</c><c>   2</c></rc>
    <rc><c>Pd</c><c>   2</c></rc>
    <rc><c>Pd</c><c>   2</c></rc>
    <rc><c>Pd</c><c>   2</c></rc>
    <rc><c>Pd</c><c>   2</c></rc>
    <rc><c>Pd</c><c>   2</c></rc>
    <rc><c>Pd</c><c>   2</c></rc>
    <rc><c>Pd</c><c>   2</c></rc>
    <rc><c>Pd</c><c>   2</c></rc>
    <rc><c>Pd</c><c>   2</c></rc>
    <rc><c>Pd</c><c>   2</c></rc>
    <rc><c>Pd</c><c>   2</c></rc>
    <rc><c>Pd</c><c>   2</c></rc>
    <rc><c>Pd</c><c>   2</c></rc>
    <rc><c>Pd</c><c>   2</c></rc>
    <rc><c>Pd</c><c>   2</c></rc>
    <rc><c>Pd</c><c>   2</c></rc>
    <rc><c>Pd</c><c>   2</c></rc>
    <rc><c>Pd</c><c>   2</c></rc>
    <rc><c>Pd</c><c>   2</c></rc>
   </set>
  </array>
  <array name="atomtypes" >
   <dimension dim="1">type</dimension>
   <field type="int">atomspertype</field>
   <field type="string">element</field>
   <field>mass</field>
   <field>valence</field>
   <field type="string">pseudopotential</field>
   <set>
    <rc><c>  24</c><c>Au</c><c>    196.96600000</c><c>     11.00000000</c><c>  PAW_PBE Au 04Oct2007                  </c></rc>
    <rc><c>  24</c><c>Pd</c><c>    106.42000000</c><c>     10.00000000</c><c>  PAW_PBE Pd 04Jan2005                  </c></rc>
   </set>
  </array>
 </atominfo>
 <structure name="initialpos" >
  <crystal>
   <varray name="basis" >
    <v>      11.00258152       0.00000000       0.00000000 </v>
    <v>       5.50129076       9.52851510       0.00000000 </v>
    <v>       0.00000000       0.00000000      24.49178509 </v>
   </varray>
   <i name="volume">   2567.67623402 </i>
   <varray name="rec_basis" >
    <v>       0.09088776      -0.05247407       0.00000000 </v>
    <v>       0.00000000       0.10494815       0.00000000 </v>
    <v>       0.00000000       0.00000000       0.04083002 </v>
   </varray>
  </crystal>
  <varray name="positions" >
   <v>       0.08333333       0.08333333       0.40830017 </v>
   <v>       0.41666667       0.41666667       0.50000000 </v>
   <v>       0.58333333       0.33333333       0.40830017 </v>
   <v>       0.41666667       0.66666667       0.50000000 </v>
   <v>       0.41666667       0.16666667       0.50000000 </v>
   <v>       0.66666667       0.91666667       0.50000000 </v>
   <v>       0.16666667       0.91666667       0.50000000 </v>
   <v>       0.58333333       0.83333333       0.40830017 </v>
   <v>       0.25000000       0.50000000       0.59169983 </v>
   <v>       0.16666667       0.66666667       0.50000000 </v>
   <v>       0.41666667       0.91666667       0.50000000 </v>
   <v>       0.50000000       0.75000000       0.59169983 </v>
   <v>       0.50000000       0.25000000       0.59169983 </v>
   <v>       0.66666667       0.16666667       0.50000000 </v>
   <v>       0.08333333       0.58333333       0.40830017 </v>
   <v>       0.91666667       0.16666667       0.50000000 </v>
   <v>       0.75000000       0.50000000       0.59169983 </v>
   <v>       0.66666667       0.66666667       0.50000000 </v>
   <v>       0.00000000       0.25000000       0.59169983 </v>
   <v>       0.58333333       0.58333333       0.40830017 </v>
   <v>       0.66666667       0.41666667       0.50000000 </v>
   <v>       0.00000000       0.75000000       0.59169983 </v>
   <v>       0.33333333       0.08333333       0.40830017 </v>
   <v>       0.08333333       0.83333333       0.40830017 </v>
   <v>       0.75000000       0.25000000       0.59169983 </v>
   <v>       0.83333333       0.58333333       0.40830017 </v>
   <v>       0.83333333       0.33333333       0.40830017 </v>
   <v>       0.50000000       0.50000000       0.59169983 </v>
   <v>       0.83333333       0.08333333       0.40830017 </v>
   <v>       0.83333333       0.83333333       0.40830017 </v>
   <v>       0.75000000       0.00000000       0.59169983 </v>
   <v>       0.25000000       0.75000000       0.59169983 </v>
   <v>       0.58333333       0.08333333       0.40830017 </v>
   <v>       0.33333333       0.83333333       0.40830017 </v>
   <v>       0.33333333       0.58333333       0.40830017 </v>
   <v>       0.25000000       0.25000000       0.59169983 </v>
   <v>       0.16666667       0.41666667       0.50000000 </v>
   <v>       0.33333333       0.33333333       0.40830017 </v>
   <v>       0.25000000       0.00000000       0.59169983 </v>
   <v>       0.16666667       0.16666667       0.50000000 </v>
   <v>       0.91666667       0.91666667       0.50000000 </v>
   <v>       0.00000000       0.50000000       0.59169983 </v>
   <v>       0.91666667       0.66666667       0.50000000 </v>
   <v>       0.91666667       0.41666667       0.50000000 </v>
   <v>       0.08333333       0.33333333       0.40830017 </v>
   <v>       0.00000000       0.00000000       0.59169983 </v>
   <v>       0.50000000       0.00000000       0.59169983 </v>
   <v>       0.75000000       0.75000000       0.59169983 </v>
  </varray>
 </structure>
 <calculation>
  <scstep>
   <time name="dav">    6.86    6.89</time>
   <time name="total">    6.92    6.95</time>
   <dipole>
    <v name="dipole">      0.00000000       0.00000000       0.00000074 </v>
    <i name="Tr[quadrupol]"> -10330.28445292 </i>
    <i name="Echarged">      0.00000000 </i>
    <i name="Edipol_quadrupol">      0.00000000 </i>
    <i name="Eion">      0.00000000 </i>
   </dipole>
   <energy>
    <i name="alphaZ">    805.86936440 </i>
    <i name="ewald"> 200869.83849128 </i>
    <i name="hartreedc">-243287.01772888 </i>
    <i name="XCdc">   -327.43027331 </i>
    <i name="pawpsdc">  40340.05962942 </i>
    <i name="pawaedc"> -38292.62782345 </i>
    <i name="eentropy">     -0.13064986 </i>
    <i name="bandstr">   1433.37384793 </i>
    <i name="atom">  41659.78587232 </i>
    <i name="e_fr_energy">   3201.72072985 </i>
    <i name="e_wo_entrp">   3201.85137972 </i>
    <i name="e_0_energy">   3201.78605478 </i>
   </energy>
  </scstep>
  <scstep>
   <time name="dav">    8.12    8.14</time>
   <time name="total">    8.12    8.15</time>
   <dipole>
    <v name="dipole">      0.00000000       0.00000000       0.00000074 </v>
    <i name="Tr[quadrupol]"> -10330.28445292 </i>
    <i name="Echarged">      0.00000000 </i>
    <i name="Edipol_quadrupol">      0.00000000 </i>
    <i name="Eion">      0.00000000 </i>
   </dipole>
   <energy>
    <i name="e_fr_energy">     16.06608531 </i>
    <i name="e_wo_entrp">     16.19156023 </i>
    <i name="e_0_energy">     16.12882277 </i>
   </energy>
  </scstep>
  <scstep>
   <time name="dav">    8.05    8.08</time>
   <time name="total">    8.05    8.09</time>
   <dipole>
    <v name="dipole">      0.00000000       0.00000000       0.00000074 </v>
    <i name="Tr[quadrupol]"> -10330.28445292 </i>
    <i name="Echarged">      0.00000000 </i>
    <i name="Edipol_quadrupol">      0.00000000 </i>
    <i name="Eion">      0.00000000 </i>
   </dipole>
   <energy>
    <i name="e_fr_energy">   -199.09820873 </i>
    <i name="e_wo_entrp">   -198.86795863 </i>
    <i name="e_0_energy">   -198.98308368 </i>
   </energy>
  </scstep>
  <scstep>
   <time name="dav">    8.17    8.27</time>
   <time name="total">    8.17    8.28</time>
   <dipole>
    <v name="dipole">      0.00000000       0.00000000       0.00000074 </v>
    <i name="Tr[quadrupol]"> -10330.28445292 </i>
    <i name="Echarged">      0.00000000 </i>
    <i name="Edipol_quadrupol">      0.00000000 </i>
    <i name="Eion">      0.00000000 </i>
   </dipole>
   <energy>
    <i name="e_fr_energy">   -204.88917470 </i>
    <i name="e_wo_entrp">   -204.64876820 </i>
    <i name="e_0_energy">   -204.76897145 </i>
   </energy>
  </scstep>
  <scstep>
   <time name="dav">    8.45    8.48</time>
   <time name="total">    8.70    8.72</time>
   <dipole>
    <v name="dipole">      0.00000000       0.00000000       0.00000074 </v>
    <i name="Tr[quadrupol]"> -10330.28445292 </i>
    <i name="Echarged">      0.00000000 </i>
    <i name="Edipol_quadrupol">      0.00000000 </i>
    <i name="Eion">      0.00000000 </i>
   </dipole>
   <energy>
    <i name="e_fr_energy">   -205.07718650 </i>
    <i name="e_wo_entrp">   -204.83723915 </i>
    <i name="e_0_energy">   -204.95721283 </i>
   </energy>
  </scstep>
  <scstep>
   <time name="diag">    1.22    1.22</time>
   <time name="diis">    3.38    3.39</time>
   <time name="orth">    0.30    0.30</time>
   <time name="total">    5.19    5.21</time>
   <dipole>
    <v name="dipole">      0.00000000       0.00000000       0.33257545 </v>
    <i name="Tr[quadrupol]"> -10329.56414560 </i>
    <i name="Echarged">      0.00000000 </i>
    <i name="Edipol_quadrupol">      0.00000000 </i>
    <i name="Eion">      0.00000000 </i>
   </dipole>
   <energy>
    <i name="e_fr_energy">   -197.55127814 </i>
    <i name="e_wo_entrp">   -197.28559610 </i>
    <i name="e_0_energy">   -197.41843712 </i>
   </energy>
  </scstep>
  <scstep>
   <time name="diag">    1.23    1.23</time>
   <time name="diis">    3.39    3.40</time>
   <time name="orth">    0.30    0.30</time>
   <time name="total">    5.21    5.23</time>
   <dipole>
    <v name="dipole">      0.00000000       0.00000000      -0.74202709 </v>
    <i name="Tr[quadrupol]"> -10329.74324384 </i>
    <i name="Echarged">      0.00000000 </i>
    <i name="Edipol_quadrupol">      0.00000000 </i>
    <i name="Eion">      0.00000000 </i>
   </dipole>
   <energy>
    <i name="e_fr_energy">   -201.62087421 </i>
    <i name="e_wo_entrp">   -201.47912386 </i>
    <i name="e_0_energy">   -201.54999904 </i>
   </energy>
  </scstep>
  <scstep>
   <time name="diag">    1.24    1.24</time>
   <time name="diis">    3.43    3.43</time>
   <time name="orth">    0.30    0.30</time>
   <time name="total">    5.25    5.27</time>
   <dipole>
    <v name="dipole">      0.00000000       0.00000000       2.09250092 </v>
    <i name="Tr[quadrupol]"> -10332.18886712 </i>
    <i name="Echarged">      0.00000000 </i>
    <i name="Edipol_quadrupol">      0.00000000 </i>
    <i name="Eion">      0.00000000 </i>
   </dipole>
   <energy>
    <i name="e_fr_energy">   -228.41263061 </i>
    <i name="e_wo_entrp">   -228.07291053 </i>
    <i name="e_0_energy">   -228.24277057 </i>
   </energy>
  </scstep>
  <scstep>
   <time name="diag">    1.22    1.22</time>
   <time name="diis">    3.42    3.43</time>
   <time name="orth">    0.30    0.30</time>
   <time name="total">    5.23    5.24</time>
   <dipole>
    <v name="dipole">      0.00000000       0.00000000      -0.71321412 </v>
    <i name="Tr[quadrupol]"> -10333.11779443 </i>
    <i name="Echarged">      0.00000000 </i>
    <i name="Edipol_quadrupol">      0.00000000 </i>
    <i name="Eion">      0.00000000 </i>
   </dipole>
   <energy>
    <i name="e_fr_energy">   -216.56506646 </i>
    <i name="e_wo_entrp">   -216.37347468 </i>
    <i name="e_0_energy">   -216.46927057 </i>
   </energy>
  </scstep>
  <scstep>
   <time name="diag">    1.22    1.22</time>
   <time name="diis">    3.33    3.43</time>
   <time name="orth">    0.30    0.30</time>
   <time name="total">    5.14    5.24</time>
   <dipole>
    <v name="dipole">      0.00000000       0.00000000       0.45795905 </v>
    <i name="Tr[quadrupol]"> -10331.98393475 </i>
    <i name="Echarged">      0.00000000 </i>
    <i name="Edipol_quadrupol">      0.00000000 </i>
    <i name="Eion">      0.00000000 </i>
   </dipole>
   <energy>
    <i name="e_fr_energy">   -198.68468883 </i>
    <i name="e_wo_entrp">   -198.49708052 </i>
    <i name="e_0_energy">   -198.59088468 </i>
   </energy>
  </scstep>
  <scstep>
   <time name="diag">    1.22    1.22</time>
   <time name="diis">    3.40    3.40</time>
   <time name="orth">    0.30    0.30</time>
   <time name="total">    5.20    5.21</time>
   <dipole>
    <v name="dipole">      0.00000000       0.00000000       0.24167218 </v>
    <i name="Tr[quadrupol]"> -10332.13155808 </i>
    <i name="Echarged">      0.00000000 </i>
    <i name="Edipol_quadrupol">      0.00000000 </i>
    <i name="Eion">      0.00000000 </i>
   </dipole>
   <energy>
    <i name="e_fr_energy">   -192.94673372 </i>
    <i name="e_wo_entrp">   -192.76547239 </i>
    <i name="e_0_energy">   -192.85610306 </i>
   </energy>
  </scstep>
  <scstep>
   <time name="diag">    1.23    1.23</time>
   <time name="diis">    3.41    3.42</time>
   <time name="orth">    0.30    0.30</time>
   <time name="total">    5.23    5.24</time>
   <dipole>
    <v name="dipole">      0.00000000       0.00000000       0.14569879 </v>
    <i name="Tr[quadrupol]"> -10332.41744294 </i>
    <i name="Echarged">      0.00000000 </i>
    <i name="Edipol_quadrupol">      0.00000000 </i>
    <i name="Eion">      0.00000000 </i>
   </dipole>
   <energy>
    <i name="e_fr_energy">   -188.17101386 </i>
    <i name="e_wo_entrp">   -187.95996620 </i>
    <i name="e_0_energy">   -188.06549003 </i>
   </energy>
  </scstep>
  <scstep>
   <time name="diag">    1.22    1.23</time>
   <time name="diis">    3.39    3.40</time>
   <time name="orth">    0.29    0.29</time>
   <time name="total">    5.19    5.21</time>
   <dipole>
    <v name="dipole">      0.00000000       0.00000000       0.02684969 </v>
    <i name="Tr[quadrupol]"> -10332.76293631 </i>
    <i name="Echarged">      0.00000000 </i>
    <i name="Edipol_quadrupol">      0.00000000 </i>
    <i name="Eion">      0.00000000 </i>
   </dipole>
   <energy>
    <i name="e_fr_energy">   -188.19236574 </i>
    <i name="e_wo_entrp">   -187.98805467 </i>
    <i name="e_0_energy">   -188.09021021 </i>
   </energy>
  </scstep>
  <scstep>
   <time name="diag">    1.22    1.22</time>
   <time name="diis">    3.40    3.41</time>
   <time name="orth">    0.29    0.29</time>
   <time name="total">    5.19    5.21</time>
   <dipole>
    <v name="dipole">      0.00000000       0.00000000      -0.00399565 </v>
    <i name="Tr[quadrupol]"> -10332.92430990 </i>
    <i name="Echarged">      0.00000000 </i>
    <i name="Edipol_quadrupol">      0.00000000 </i>
    <i name="Eion">      0.00000000 </i>
   </dipole>
   <energy>
    <i name="e_fr_energy">   -188.08005717 </i>
    <i name="e_wo_entrp">   -187.86122009 </i>
    <i name="e_0_energy">   -187.97063863 </i>
   </energy>
  </scstep>
  <scstep>
   <time name="diag">    1.21    1.21</time>
   <time name="diis">    3.43    3.45</time>
   <time name="orth">    0.29    0.29</time>
   <time name="total">    5.22    5.25</time>
   <dipole>
    <v name="dipole">      0.00000000       0.00000000      -0.01677916 </v>
    <i name="Tr[quadrupol]"> -10333.04790825 </i>
    <i name="Echarged">      0.00000000 </i>
    <i name="Edipol_quadrupol">      0.00000000 </i>
    <i name="Eion">      0.00000000 </i>
   </dipole>
   <energy>
    <i name="e_fr_energy">   -187.80903273 </i>
    <i name="e_wo_entrp">   -187.56692557 </i>
    <i name="e_0_energy">   -187.68797915 </i>
   </energy>
  </scstep>
  <scstep>
   <time name="diag">    1.22    1.22</time>
   <time name="diis">    3.42    3.43</time>
   <time name="orth">    0.29    0.29</time>
   <time name="total">    5.21    5.23</time>
   <dipole>
    <v name="dipole">      0.00000000       0.00000000       0.01350536 </v>
    <i name="Tr[quadrupol]"> -10333.35382662 </i>
    <i name="Echarged">      0.00000000 </i>
    <i name="Edipol_quadrupol">      0.00000000 </i>
    <i name="Eion">      0.00000000 </i>
   </dipole>
   <energy>
    <i name="e_fr_energy">   -187.80932849 </i>
    <i name="e_wo_entrp">   -187.56988014 </i>
    <i name="e_0_energy">   -187.68960431 </i>
   </energy>
  </scstep>
  <scstep>
   <time name="diag">    1.21    1.21</time>
   <time name="diis">    3.43    3.44</time>
   <time name="orth">    0.29    0.29</time>
   <time name="total">    5.22    5.24</time>
   <dipole>
    <v name="dipole">      0.00000000       0.00000000       0.02547677 </v>
    <i name="Tr[quadrupol]"> -10333.71867559 </i>
    <i name="Echarged">      0.00000000 </i>
    <i name="Edipol_quadrupol">      0.00000000 </i>
    <i name="Eion">      0.00000000 </i>
   </dipole>
   <energy>
    <i name="e_fr_energy">   -187.61939933 </i>
    <i name="e_wo_entrp">   -187.37667811 </i>
    <i name="e_0_energy">   -187.49803872 </i>
   </energy>
  </scstep>
  <scstep>
   <time name="diag">    1.20    1.25</time>
   <time name="diis">    3.35    3.38</time>
   <time name="orth">    0.29    0.29</time>
   <time name="total">    5.13    5.22</time>
   <dipole>
    <v name="dipole">      0.00000000       0.00000000       0.00945661 </v>
    <i name="Tr[quadrupol]"> -10333.91661085 </i>
    <i name="Echarged">      0.00000000 </i>
    <i name="Edipol_quadrupol">      0.00000000 </i>
    <i name="Eion">      0.00000000 </i>
   </dipole>
   <energy>
    <i name="e_fr_energy">   -187.57430792 </i>
    <i name="e_wo_entrp">   -187.33398835 </i>
    <i name="e_0_energy">   -187.45414814 </i>
   </energy>
  </scstep>
  <scstep>
   <time name="diag">    1.21    1.21</time>
   <time name="diis">    3.38    3.39</time>
   <time name="orth">    0.29    0.29</time>
   <time name="total">    5.17    5.19</time>
   <dipole>
    <v name="dipole">      0.00000000       0.00000000       0.00892490 </v>
    <i name="Tr[quadrupol]"> -10334.10623992 </i>
    <i name="Echarged">      0.00000000 </i>
    <i name="Edipol_quadrupol">      0.00000000 </i>
    <i name="Eion">      0.00000000 </i>
   </dipole>
   <energy>
    <i name="e_fr_energy">   -187.54422821 </i>
    <i name="e_wo_entrp">   -187.30085793 </i>
    <i name="e_0_energy">   -187.42254307 </i>
   </energy>
  </scstep>
  <scstep>
   <time name="diag">    1.22    1.22</time>
   <time name="diis">    3.47    3.47</time>
   <time name="orth">    0.29    0.29</time>
   <time name="total">    5.26    5.28</time>
   <dipole>
    <v name="dipole">      0.00000000       0.00000000       0.00463760 </v>
    <i name="Tr[quadrupol]"> -10334.17222754 </i>
    <i name="Echarged">      0.00000000 </i>
    <i name="Edipol_quadrupol">      0.00000000 </i>
    <i name="Eion">      0.00000000 </i>
   </dipole>
   <energy>
    <i name="e_fr_energy">   -187.54056446 </i>
    <i name="e_wo_entrp">   -187.29701620 </i>
    <i name="e_0_energy">   -187.41879033 </i>
   </energy>
  </scstep>
  <scstep>
   <time name="diag">    1.21    1.21</time>
   <time name="diis">    3.41    3.42</time>
   <time name="orth">    0.29    0.29</time>
   <time name="total">    5.20    5.22</time>
   <dipole>
    <v name="dipole">      0.00000000       0.00000000       0.00034077 </v>
    <i name="Tr[quadrupol]"> -10334.37250866 </i>
    <i name="Echarged">      0.00000000 </i>
    <i name="Edipol_quadrupol">      0.00000000 </i>
    <i name="Eion">      0.00000000 </i>
   </dipole>
   <energy>
    <i name="e_fr_energy">   -187.53545259 </i>
    <i name="e_wo_entrp">   -187.29047475 </i>
    <i name="e_0_energy">   -187.41296367 </i>
   </energy>
  </scstep>
  <scstep>
   <time name="diag">    1.21    1.22</time>
   <time name="diis">    3.35    3.36</time>
   <time name="orth">    0.29    0.29</time>
   <time name="total">    5.14    5.16</time>
   <dipole>
    <v name="dipole">      0.00000000       0.00000000       0.00099517 </v>
    <i name="Tr[quadrupol]"> -10334.55912182 </i>
    <i name="Echarged">      0.00000000 </i>
    <i name="Edipol_quadrupol">      0.00000000 </i>
    <i name="Eion">      0.00000000 </i>
   </dipole>
   <energy>
    <i name="e_fr_energy">   -187.53267027 </i>
    <i name="e_wo_entrp">   -187.28894386 </i>
    <i name="e_0_energy">   -187.41080707 </i>
   </energy>
  </scstep>
  <scstep>
   <time name="diag">    1.21    1.21</time>
   <time name="diis">    3.39    3.39</time>
   <time name="orth">    0.29    0.29</time>
   <time name="total">    5.18    5.19</time>
   <dipole>
    <v name="dipole">      0.00000000       0.00000000       0.00456796 </v>
    <i name="Tr[quadrupol]"> -10334.70888601 </i>
    <i name="Echarged">      0.00000000 </i>
    <i name="Edipol_quadrupol">      0.00000000 </i>
    <i name="Eion">      0.00000000 </i>
   </dipole>
   <energy>
    <i name="e_fr_energy">   -187.53201910 </i>
    <i name="e_wo_entrp">   -187.28821639 </i>
    <i name="e_0_energy">   -187.41011775 </i>
   </energy>
  </scstep>
  <scstep>
   <time name="diag">    1.21    1.22</time>
   <time name="diis">    3.42    3.43</time>
   <time name="orth">    0.29    0.29</time>
   <time name="total">    5.21    5.22</time>
   <dipole>
    <v name="dipole">      0.00000000       0.00000000       0.00477000 </v>
    <i name="Tr[quadrupol]"> -10334.77543520 </i>
    <i name="Echarged">      0.00000000 </i>
    <i name="Edipol_quadrupol">      0.00000000 </i>
    <i name="Eion">      0.00000000 </i>
   </dipole>
   <energy>
    <i name="e_fr_energy">   -187.53204183 </i>
    <i name="e_wo_entrp">   -187.28915767 </i>
    <i name="e_0_energy">   -187.41059975 </i>
   </energy>
  </scstep>
  <scstep>
   <time name="diag">    1.22    1.22</time>
   <time name="diis">    3.35    3.40</time>
   <time name="orth">    0.28    0.30</time>
   <time name="total">    5.13    5.23</time>
   <dipole>
    <v name="dipole">      0.00000000       0.00000000       0.00446865 </v>
    <i name="Tr[quadrupol]"> -10334.83958292 </i>
    <i name="Echarged">      0.00000000 </i>
    <i name="Edipol_quadrupol">      0.00000000 </i>
    <i name="Eion">      0.00000000 </i>
   </dipole>
   <energy>
    <i name="e_fr_energy">   -187.53213220 </i>
    <i name="e_wo_entrp">   -187.28904892 </i>
    <i name="e_0_energy">   -187.41059056 </i>
   </energy>
  </scstep>
  <scstep>
   <time name="diag">    1.21    1.21</time>
   <time name="diis">    3.40    3.41</time>
   <time name="orth">    0.28    0.28</time>
   <time name="total">    5.18    5.20</time>
   <dipole>
    <v name="dipole">      0.00000000       0.00000000       0.00378409 </v>
    <i name="Tr[quadrupol]"> -10334.90113437 </i>
    <i name="Echarged">      0.00000000 </i>
    <i name="Edipol_quadrupol">      0.00000000 </i>
    <i name="Eion">      0.00000000 </i>
   </dipole>
   <energy>
    <i name="e_fr_energy">   -187.53235417 </i>
    <i name="e_wo_entrp">   -187.28918829 </i>
    <i name="e_0_energy">   -187.41077123 </i>
   </energy>
  </scstep>
  <scstep>
   <time name="diag">    1.20    1.22</time>
   <time name="diis">    3.37    3.40</time>
   <time name="orth">    0.28    0.29</time>
   <time name="total">    5.15    5.21</time>
   <dipole>
    <v name="dipole">      0.00000000       0.00000000       0.00198444 </v>
    <i name="Tr[quadrupol]"> -10335.00030509 </i>
    <i name="Echarged">      0.00000000 </i>
    <i name="Edipol_quadrupol">      0.00000000 </i>
    <i name="Eion">      0.00000000 </i>
   </dipole>
   <energy>
    <i name="e_fr_energy">   -187.53285895 </i>
    <i name="e_wo_entrp">   -187.28985969 </i>
    <i name="e_0_energy">   -187.41135932 </i>
   </energy>
  </scstep>
  <scstep>
   <time name="diag">    1.21    1.21</time>
   <time name="diis">    3.38    3.38</time>
   <time name="orth">    0.28    0.28</time>
   <time name="total">    5.16    5.17</time>
   <dipole>
    <v name="dipole">      0.00000000       0.00000000       0.00190988 </v>
    <i name="Tr[quadrupol]"> -10335.05174199 </i>
    <i name="Echarged">      0.00000000 </i>
    <i name="Edipol_quadrupol">      0.00000000 </i>
    <i name="Eion">      0.00000000 </i>
   </dipole>
   <energy>
    <i name="e_fr_energy">   -187.53318613 </i>
    <i name="e_wo_entrp">   -187.29004097 </i>
    <i name="e_0_energy">   -187.41161355 </i>
   </energy>
  </scstep>
  <scstep>
   <time name="diag">    1.21    1.21</time>
   <time name="diis">    3.52    3.53</time>
   <time name="orth">    0.28    0.28</time>
   <time name="total">    5.31    5.32</time>
   <dipole>
    <v name="dipole">      0.00000000       0.00000000       0.00176842 </v>
    <i name="Tr[quadrupol]"> -10335.12405264 </i>
    <i name="Echarged">      0.00000000 </i>
    <i name="Edipol_quadrupol">      0.00000000 </i>
    <i name="Eion">      0.00000000 </i>
   </dipole>
   <energy>
    <i name="e_fr_energy">   -187.53375335 </i>
    <i name="e_wo_entrp">   -187.29069506 </i>
    <i name="e_0_energy">   -187.41222421 </i>
   </energy>
  </scstep>
  <scstep>
   <time name="diag">    1.21    1.21</time>
   <time name="diis">    3.33    3.34</time>
   <time name="orth">    0.28    0.28</time>
   <time name="total">    5.11    5.12</time>
   <dipole>
    <v name="dipole">      0.00000000       0.00000000       0.00125725 </v>
    <i name="Tr[quadrupol]"> -10335.19480774 </i>
    <i name="Echarged">      0.00000000 </i>
    <i name="Edipol_quadrupol">      0.00000000 </i>
    <i name="Eion">      0.00000000 </i>
   </dipole>
   <energy>
    <i name="e_fr_energy">   -187.53434629 </i>
    <i name="e_wo_entrp">   -187.29123539 </i>
    <i name="e_0_energy">   -187.41279084 </i>
   </energy>
  </scstep>
  <scstep>
   <time name="diag">    1.20    1.21</time>
   <time name="diis">    3.41    3.41</time>
   <time name="orth">    0.28    0.28</time>
   <time name="total">    5.19    5.22</time>
   <dipole>
    <v name="dipole">      0.00000000       0.00000000       0.00023176 </v>
    <i name="Tr[quadrupol]"> -10335.27656517 </i>
    <i name="Echarged">      0.00000000 </i>
    <i name="Edipol_quadrupol">      0.00000000 </i>
    <i name="Eion">      0.00000000 </i>
   </dipole>
   <energy>
    <i name="e_fr_energy">   -187.53499761 </i>
    <i name="e_wo_entrp">   -187.29186949 </i>
    <i name="e_0_energy">   -187.41343355 </i>
   </energy>
  </scstep>
  <scstep>
   <time name="diag">    1.21    1.21</time>
   <time name="diis">    3.03    3.04</time>
   <time name="orth">    0.28    0.28</time>
   <time name="total">    4.81    4.83</time>
   <dipole>
    <v name="dipole">      0.00000000       0.00000000      -0.00044072 </v>
    <i name="Tr[quadrupol]"> -10335.32928764 </i>
    <i name="Echarged">      0.00000000 </i>
    <i name="Edipol_quadrupol">      0.00000000 </i>
    <i name="Eion">      0.00000000 </i>
   </dipole>
   <energy>
    <i name="e_fr_energy">   -187.53534260 </i>
    <i name="e_wo_entrp">   -187.29220101 </i>
    <i name="e_0_energy">   -187.41377181 </i>
   </energy>
  </scstep>
  <scstep>
   <time name="diag">    1.21    1.21</time>
   <time name="diis">    2.51    2.61</time>
   <time name="orth">    0.28    0.28</time>
   <time name="total">    4.29    4.40</time>
   <dipole>
    <v name="dipole">      0.00000000       0.00000000      -0.00058202 </v>
    <i name="Tr[quadrupol]"> -10335.34501301 </i>
    <i name="Echarged">      0.00000000 </i>
    <i name="Edipol_quadrupol">      0.00000000 </i>
    <i name="Eion">      0.00000000 </i>
   </dipole>
   <energy>
    <i name="e_fr_energy">   -187.53542932 </i>
    <i name="e_wo_entrp">   -187.29230898 </i>
    <i name="e_0_energy">   -187.41386915 </i>
   </energy>
  </scstep>
  <scstep>
   <time name="diag">    1.21    1.21</time>
   <time name="diis">    2.37    2.37</time>
   <time name="orth">    0.28    0.28</time>
   <time name="total">    4.15    4.16</time>
   <dipole>
    <v name="dipole">      0.00000000       0.00000000      -0.00079938 </v>
    <i name="Tr[quadrupol]"> -10335.36148010 </i>
    <i name="Echarged">      0.00000000 </i>
    <i name="Edipol_quadrupol">      0.00000000 </i>
    <i name="Eion">      0.00000000 </i>
   </dipole>
   <energy>
    <i name="e_fr_energy">   -187.53552836 </i>
    <i name="e_wo_entrp">   -187.29243985 </i>
    <i name="e_0_energy">   -187.41398411 </i>
   </energy>
  </scstep>
  <scstep>
   <time name="diag">    1.21    1.21</time>
   <time name="diis">    2.10    2.11</time>
   <time name="orth">    0.28    0.28</time>
   <time name="total">    3.89    3.90</time>
   <dipole>
    <v name="dipole">      0.00000000       0.00000000      -0.00084528 </v>
    <i name="Tr[quadrupol]"> -10335.36937514 </i>
    <i name="Echarged">      0.00000000 </i>
    <i name="Edipol_quadrupol">      0.00000000 </i>
    <i name="Eion">      0.00000000 </i>
   </dipole>
   <energy>
    <i name="e_fr_energy">   -187.53557418 </i>
    <i name="e_wo_entrp">   -187.29247804 </i>
    <i name="e_0_energy">   -187.41402611 </i>
   </energy>
  </scstep>
  <scstep>
   <time name="diag">    1.21    1.21</time>
   <time name="diis">    2.09    2.09</time>
   <time name="orth">    0.28    0.28</time>
   <time name="total">    3.87    3.88</time>
   <dipole>
    <v name="dipole">      0.00000000       0.00000000      -0.00094338 </v>
    <i name="Tr[quadrupol]"> -10335.37668858 </i>
    <i name="Echarged">      0.00000000 </i>
    <i name="Edipol_quadrupol">      0.00000000 </i>
    <i name="Eion">      0.00000000 </i>
   </dipole>
   <energy>
    <i name="e_fr_energy">   -187.53561320 </i>
    <i name="e_wo_entrp">   -187.29251595 </i>
    <i name="e_0_energy">   -187.41406457 </i>
   </energy>
  </scstep>
  <scstep>
   <time name="diag">    1.21    1.21</time>
   <time name="diis">    2.11    2.11</time>
   <time name="orth">    0.29    0.29</time>
   <time name="total">    3.90    3.91</time>
   <dipole>
    <v name="dipole">      0.00000000       0.00000000      -0.00111952 </v>
    <i name="Tr[quadrupol]"> -10335.38519808 </i>
    <i name="Echarged">      0.00000000 </i>
    <i name="Edipol_quadrupol">      0.00000000 </i>
    <i name="Eion">      0.00000000 </i>
   </dipole>
   <energy>
    <i name="e_fr_energy">   -187.53564738 </i>
    <i name="e_wo_entrp">   -187.29254799 </i>
    <i name="e_0_energy">   -187.41409768 </i>
   </energy>
  </scstep>
  <scstep>
   <time name="diag">    1.20    1.21</time>
   <time name="diis">    1.79    1.80</time>
   <time name="orth">    0.28    0.28</time>
   <time name="total">    3.57    3.58</time>
   <dipole>
    <v name="dipole">      0.00000000       0.00000000      -0.00117870 </v>
    <i name="Tr[quadrupol]"> -10335.38846985 </i>
    <i name="Echarged">      0.00000000 </i>
    <i name="Edipol_quadrupol">      0.00000000 </i>
    <i name="Eion">      0.00000000 </i>
   </dipole>
   <energy>
    <i name="e_fr_energy">   -187.53565493 </i>
    <i name="e_wo_entrp">   -187.29255935 </i>
    <i name="e_0_energy">   -187.41410714 </i>
   </energy>
  </scstep>
  <scstep>
   <time name="diag">    1.20    1.21</time>
   <time name="diis">    1.97    1.97</time>
   <time name="orth">    0.28    0.28</time>
   <time name="total">    3.75    3.76</time>
   <dipole>
    <v name="dipole">      0.00000000       0.00000000      -0.00124431 </v>
    <i name="Tr[quadrupol]"> -10335.39320446 </i>
    <i name="Echarged">      0.00000000 </i>
    <i name="Edipol_quadrupol">      0.00000000 </i>
    <i name="Eion">      0.00000000 </i>
   </dipole>
   <energy>
    <i name="e_fr_energy">   -187.53566090 </i>
    <i name="e_wo_entrp">   -187.29256581 </i>
    <i name="e_0_energy">   -187.41411335 </i>
   </energy>
  </scstep>
  <scstep>
   <time name="diag">    1.21    1.21</time>
   <time name="diis">    1.58    1.61</time>
   <time name="orth">    0.28    0.28</time>
   <time name="total">    3.36    3.40</time>
   <dipole>
    <v name="dipole">      0.00000000       0.00000000      -0.00128777 </v>
    <i name="Tr[quadrupol]"> -10335.39672441 </i>
    <i name="Echarged">      0.00000000 </i>
    <i name="Edipol_quadrupol">      0.00000000 </i>
    <i name="Eion">      0.00000000 </i>
   </dipole>
   <energy>
    <i name="e_fr_energy">   -187.53566269 </i>
    <i name="e_wo_entrp">   -187.29256614 </i>
    <i name="e_0_energy">   -187.41411441 </i>
   </energy>
  </scstep>
  <scstep>
   <time name="diag">    1.20    1.21</time>
   <time name="diis">    1.51    1.51</time>
   <time name="orth">    0.28    0.28</time>
   <time name="total">    3.04    3.06</time>
   <dipole>
    <v name="dipole">      0.00000000       0.00000000      -0.00131587 </v>
    <i name="Tr[quadrupol]"> -10335.39915172 </i>
    <i name="Echarged">      0.00000000 </i>
    <i name="Edipol_quadrupol">      0.00000000 </i>
    <i name="Eion">      0.00000000 </i>
   </dipole>
   <energy>
    <i name="alphaZ">    805.86915595 </i>
    <i name="ewald"> 200869.83849128 </i>
    <i name="hartreedc">-243046.66441682 </i>
    <i name="XCdc">   -342.94016679 </i>
    <i name="pawpsdc">  49508.24177042 </i>
    <i name="pawaedc"> -47585.82476244 </i>
    <i name="eentropy">     -0.24309686 </i>
    <i name="bandstr">  -2055.59851043 </i>
    <i name="atom">  41659.78587232 </i>
    <i name="e_fr_energy">   -187.53566338 </i>
    <i name="e_wo_entrp">   -187.29256652 </i>
    <i name="e_0_energy">   -187.41411495 </i>
   </energy>
  </scstep>
  <structure>
   <crystal>
    <varray name="basis" >
     <v>      11.00258152       0.00000000       0.00000000 </v>
     <v>       5.50129076       9.52851510       0.00000000 </v>
     <v>       0.00000000       0.00000000      24.49178509 </v>
    </varray>
    <i name="volume">   2567.67623402 </i>
    <varray name="rec_basis" >
     <v>       0.09088776      -0.05247407       0.00000000 </v>
     <v>       0.00000000       0.10494815       0.00000000 </v>
     <v>       0.00000000       0.00000000       0.04083002 </v>
    </varray>
   </crystal>
   <varray name="positions" >
    <v>       0.08333333       0.08333333       0.40830017 </v>
    <v>       0.41666667       0.41666667       0.50000000 </v>
    <v>       0.58333333       0.33333333       0.40830017 </v>
    <v>       0.41666667       0.66666667       0.50000000 </v>
    <v>       0.41666667       0.16666667       0.50000000 </v>
    <v>       0.66666667       0.91666667       0.50000000 </v>
    <v>       0.16666667       0.91666667       0.50000000 </v>
    <v>       0.58333333       0.83333333       0.40830017 </v>
    <v>       0.25000000       0.50000000       0.59169983 </v>
    <v>       0.16666667       0.66666667       0.50000000 </v>
    <v>       0.41666667       0.91666667       0.50000000 </v>
    <v>       0.50000000       0.75000000       0.59169983 </v>
    <v>       0.50000000       0.25000000       0.59169983 </v>
    <v>       0.66666667       0.16666667       0.50000000 </v>
    <v>       0.08333333       0.58333333       0.40830017 </v>
    <v>       0.91666667       0.16666667       0.50000000 </v>
    <v>       0.75000000       0.50000000       0.59169983 </v>
    <v>       0.66666667       0.66666667       0.50000000 </v>
    <v>       0.00000000       0.25000000       0.59169983 </v>
    <v>       0.58333333       0.58333333       0.40830017 </v>
    <v>       0.66666667       0.41666667       0.50000000 </v>
    <v>       0.00000000       0.75000000       0.59169983 </v>
    <v>       0.33333333       0.08333333       0.40830017 </v>
    <v>       0.08333333       0.83333333       0.40830017 </v>
    <v>       0.75000000       0.25000000       0.59169983 </v>
    <v>       0.83333333       0.58333333       0.40830017 </v>
    <v>       0.83333333       0.33333333       0.40830017 </v>
    <v>       0.50000000       0.50000000       0.59169983 </v>
    <v>       0.83333333       0.08333333       0.40830017 </v>
    <v>       0.83333333       0.83333333       0.40830017 </v>
    <v>       0.75000000       0.00000000       0.59169983 </v>
    <v>       0.25000000       0.75000000       0.59169983 </v>
    <v>       0.58333333       0.08333333       0.40830017 </v>
    <v>       0.33333333       0.83333333       0.40830017 </v>
    <v>       0.33333333       0.58333333       0.40830017 </v>
    <v>       0.25000000       0.25000000       0.59169983 </v>
    <v>       0.16666667       0.41666667       0.50000000 </v>
    <v>       0.33333333       0.33333333       0.40830017 </v>
    <v>       0.25000000       0.00000000       0.59169983 </v>
    <v>       0.16666667       0.16666667       0.50000000 </v>
    <v>       0.91666667       0.91666667       0.50000000 </v>
    <v>       0.00000000       0.50000000       0.59169983 </v>
    <v>       0.91666667       0.66666667       0.50000000 </v>
    <v>       0.91666667       0.41666667       0.50000000 </v>
    <v>       0.08333333       0.33333333       0.40830017 </v>
    <v>       0.00000000       0.00000000       0.59169983 </v>
    <v>       0.50000000       0.00000000       0.59169983 </v>
    <v>       0.75000000       0.75000000       0.59169983 </v>
   </varray>
  </structure>
  <varray name="forces" >
   <v>       0.00211387       0.31053331      -1.56541504 </v>
   <v>      -0.34065920       0.19042556      -0.24684918 </v>
   <v>      -0.12359372      -0.20257349      -1.84620579 </v>
   <v>      -0.40748687       0.02649593       0.03193600 </v>
   <v>      -0.47546317       0.25127136       0.02285020 </v>
   <v>       0.64587114      -0.16958190       0.24909723 </v>
   <v>      -0.00977467       0.16620990       0.52857415 </v>
   <v>       0.26106945      -0.00389714      -1.83494129 </v>
   <v>      -0.16012002      -0.07334411       1.60453471 </v>
   <v>      -0.23668233      -0.00216709       0.00313130 </v>
   <v>      -0.31896043       0.42005197       0.35239620 </v>
   <v>      -0.11902530       0.20247096       1.82673067 </v>
   <v>       0.10681675      -0.20425912       1.81247802 </v>
   <v>       0.33905966      -0.61327594       0.00405328 </v>
   <v>      -0.27935126      -0.28041627      -1.26700147 </v>
   <v>      -0.03915569      -0.00897508       0.02500486 </v>
   <v>       0.14627918      -0.06958099       1.57814941 </v>
   <v>       0.91409089      -0.26724784       0.00457392 </v>
   <v>       0.25333024      -0.12531522       1.28915397 </v>
   <v>       0.01520869      -0.02279547      -1.84106000 </v>
   <v>       0.33941538      -0.25940871       0.22297505 </v>
   <v>      -0.23756981       0.26224396       1.30210078 </v>
   <v>      -0.01656133       0.32282129      -1.61369265 </v>
   <v>      -0.18009814       0.07847801      -1.58677546 </v>
   <v>      -0.09006849      -0.17159415       1.05720804 </v>
   <v>       0.15192421      -0.21238564      -0.69469340 </v>
   <v>       0.29095495       0.06835811      -0.87367009 </v>
   <v>       0.00837066      -0.01513813       1.11866144 </v>
   <v>      -0.14576712      -0.09795751      -0.88714543 </v>
   <v>       0.01320283       0.12506159      -0.69056668 </v>
   <v>       0.06498712      -0.07108347       0.82805355 </v>
   <v>       0.07704235       0.17518347       1.03423935 </v>
   <v>       0.15075473       0.00365034      -1.07832109 </v>
   <v>      -0.04829448      -0.12218717      -1.14540621 </v>
   <v>      -0.00235687      -0.02330235      -1.04171975 </v>
   <v>      -0.15128855      -0.09347680       0.71228764 </v>
   <v>      -0.55566617      -0.17420975      -0.04432683 </v>
   <v>      -0.10990724       0.02969722      -0.86383637 </v>
   <v>       0.00177152       0.08697307       0.86023648 </v>
   <v>       0.10816461       0.45803469       0.20517389 </v>
   <v>      -0.28211922      -0.00958733       0.02889397 </v>
   <v>       0.02263411      -0.04009327       0.49762034 </v>
   <v>      -0.12295018      -0.16641444       0.00195396 </v>
   <v>       0.54695585       0.06671449      -0.32082463 </v>
   <v>      -0.09055953       0.13661190      -0.49802010 </v>
   <v>      -0.07081628      -0.03035772       0.85448729 </v>
   <v>      -0.01743943       0.01328056       1.05421841 </v>
   <v>       0.17171728       0.13605839       0.82969733 </v>
  </varray>
  <energy>
   <i name="e_fr_energy">   -187.53566338 </i>
   <i name="e_wo_entrp">   -187.41411495 </i>
   <i name="e_0_energy">     -0.24309686 </i>
  </energy>
  <time name="totalsc">  216.03  217.23</time>
 </calculation>
 <calculation>
  <scstep>
   <time name="dav">    7.05    7.14</time>
   <time name="total">    7.33    7.43</time>
   <dipole>
    <v name="dipole">      0.00000000       0.00000000      -0.00133918 </v>
    <i name="Tr[quadrupol]"> -10311.19250819 </i>
    <i name="Echarged">      0.00000000 </i>
    <i name="Edipol_quadrupol">      0.00000000 </i>
    <i name="Eion">      0.00000000 </i>
   </dipole>
   <energy>
    <i name="alphaZ">    805.86914925 </i>
    <i name="ewald"> 198046.19485900 </i>
    <i name="hartreedc">-240240.71295007 </i>
    <i name="XCdc">   -345.29884122 </i>
    <i name="pawpsdc">  49508.23588051 </i>
    <i name="pawaedc"> -47585.81906209 </i>
    <i name="eentropy">     -0.23367819 </i>
    <i name="bandstr">  -2036.73690571 </i>
    <i name="atom">  41659.78587232 </i>
    <i name="e_fr_energy">   -188.71567621 </i>
    <i name="e_wo_entrp">   -188.48199802 </i>
    <i name="e_0_energy">   -188.59883712 </i>
   </energy>
  </scstep>
  <scstep>
   <time name="diag">    1.20    1.21</time>
   <time name="diis">    3.41    3.41</time>
   <time name="orth">    0.28    0.28</time>
   <time name="total">    5.18    5.19</time>
   <dipole>
    <v name="dipole">      0.00000000       0.00000000       0.00325924 </v>
    <i name="Tr[quadrupol]"> -10310.91287713 </i>
    <i name="Echarged">      0.00000000 </i>
    <i name="Edipol_quadrupol">      0.00000000 </i>
    <i name="Eion">      0.00000000 </i>
   </dipole>
   <energy>
    <i name="e_fr_energy">   -189.13089174 </i>
    <i name="e_wo_entrp">   -188.90000104 </i>
    <i name="e_0_energy">   -189.01544639 </i>
   </energy>
  </scstep>
  <scstep>
   <time name="diag">    1.22    1.22</time>
   <time name="diis">    3.50    3.51</time>
   <time name="orth">    0.28    0.28</time>
   <time name="total">    5.29    5.30</time>
   <dipole>
    <v name="dipole">      0.00000000       0.00000000      -0.05012783 </v>
    <i name="Tr[quadrupol]"> -10311.36292866 </i>
    <i name="Echarged">      0.00000000 </i>
    <i name="Edipol_quadrupol">      0.00000000 </i>
    <i name="Eion">      0.00000000 </i>
   </dipole>
   <energy>
    <i name="e_fr_energy">   -189.23144402 </i>
    <i name="e_wo_entrp">   -188.97490864 </i>
    <i name="e_0_energy">   -189.10317633 </i>
   </energy>
  </scstep>
  <scstep>
   <time name="diag">    1.21    1.21</time>
   <time name="diis">    3.46    3.47</time>
   <time name="orth">    0.28    0.28</time>
   <time name="total">    5.24    5.25</time>
   <dipole>
    <v name="dipole">      0.00000000       0.00000000       0.04392640 </v>
    <i name="Tr[quadrupol]"> -10311.28889271 </i>
    <i name="Echarged">      0.00000000 </i>
    <i name="Edipol_quadrupol">      0.00000000 </i>
    <i name="Eion">      0.00000000 </i>
   </dipole>
   <energy>
    <i name="e_fr_energy">   -189.14701277 </i>
    <i name="e_wo_entrp">   -188.91514133 </i>
    <i name="e_0_energy">   -189.03107705 </i>
   </energy>
  </scstep>
  <scstep>
   <time name="diag">    1.22    1.22</time>
   <time name="diis">    3.42    3.43</time>
   <time name="orth">    0.28    0.28</time>
   <time name="total">    5.20    5.22</time>
   <dipole>
    <v name="dipole">      0.00000000       0.00000000      -0.06532922 </v>
    <i name="Tr[quadrupol]"> -10311.24542695 </i>
    <i name="Echarged">      0.00000000 </i>
    <i name="Edipol_quadrupol">      0.00000000 </i>
    <i name="Eion">      0.00000000 </i>
   </dipole>
   <energy>
    <i name="e_fr_energy">   -189.18861396 </i>
    <i name="e_wo_entrp">   -188.97250659 </i>
    <i name="e_0_energy">   -189.08056027 </i>
   </energy>
  </scstep>
  <scstep>
   <time name="diag">    1.21    1.21</time>
   <time name="diis">    3.41    3.42</time>
   <time name="orth">    0.28    0.28</time>
   <time name="total">    5.18    5.20</time>
   <dipole>
    <v name="dipole">      0.00000000       0.00000000       0.02000413 </v>
    <i name="Tr[quadrupol]"> -10311.27163606 </i>
    <i name="Echarged">      0.00000000 </i>
    <i name="Edipol_quadrupol">      0.00000000 </i>
    <i name="Eion">      0.00000000 </i>
   </dipole>
   <energy>
    <i name="e_fr_energy">   -189.12283285 </i>
    <i name="e_wo_entrp">   -188.88638890 </i>
    <i name="e_0_energy">   -189.00461088 </i>
   </energy>
  </scstep>
  <scstep>
   <time name="diag">    1.22    1.22</time>
   <time name="diis">    3.43    3.44</time>
   <time name="orth">    0.28    0.28</time>
   <time name="total">    5.22    5.24</time>
   <dipole>
    <v name="dipole">      0.00000000       0.00000000      -0.00721040 </v>
    <i name="Tr[quadrupol]"> -10311.25515916 </i>
    <i name="Echarged">      0.00000000 </i>
    <i name="Edipol_quadrupol">      0.00000000 </i>
    <i name="Eion">      0.00000000 </i>
   </dipole>
   <energy>
    <i name="e_fr_energy">   -189.10418130 </i>
    <i name="e_wo_entrp">   -188.86888393 </i>
    <i name="e_0_energy">   -188.98653261 </i>
   </energy>
  </scstep>
  <scstep>
   <time name="diag">    1.21    1.21</time>
   <time name="diis">    3.42    3.43</time>
   <time name="orth">    0.28    0.28</time>
   <time name="total">    5.20    5.22</time>
   <dipole>
    <v name="dipole">      0.00000000       0.00000000      -0.00315326 </v>
    <i name="Tr[quadrupol]"> -10311.21644092 </i>
    <i name="Echarged">      0.00000000 </i>
    <i name="Edipol_quadrupol">      0.00000000 </i>
    <i name="Eion">      0.00000000 </i>
   </dipole>
   <energy>
    <i name="e_fr_energy">   -189.10183906 </i>
    <i name="e_wo_entrp">   -188.86742271 </i>
    <i name="e_0_energy">   -188.98463088 </i>
   </energy>
  </scstep>
  <scstep>
   <time name="diag">    1.21    1.21</time>
   <time name="diis">    3.35    3.44</time>
   <time name="orth">    0.28    0.28</time>
   <time name="total">    5.13    5.23</time>
   <dipole>
    <v name="dipole">      0.00000000       0.00000000      -0.00227328 </v>
    <i name="Tr[quadrupol]"> -10311.21102840 </i>
    <i name="Echarged">      0.00000000 </i>
    <i name="Edipol_quadrupol">      0.00000000 </i>
    <i name="Eion">      0.00000000 </i>
   </dipole>
   <energy>
    <i name="e_fr_energy">   -189.10048913 </i>
    <i name="e_wo_entrp">   -188.86402680 </i>
    <i name="e_0_energy">   -188.98225797 </i>
   </energy>
  </scstep>
  <scstep>
   <time name="diag">    1.21    1.21</time>
   <time name="diis">    3.46    3.47</time>
   <time name="orth">    0.28    0.29</time>
   <time name="total">    5.23    5.26</time>
   <dipole>
    <v name="dipole">      0.00000000       0.00000000      -0.00308282 </v>
    <i name="Tr[quadrupol]"> -10311.20607216 </i>
    <i name="Echarged">      0.00000000 </i>
    <i name="Edipol_quadrupol">      0.00000000 </i>
    <i name="Eion">      0.00000000 </i>
   </dipole>
   <energy>
    <i name="e_fr_energy">   -189.10050784 </i>
    <i name="e_wo_entrp">   -188.86415476 </i>
    <i name="e_0_energy">   -188.98233130 </i>
   </energy>
  </scstep>
  <scstep>
   <time name="diag">    1.21    1.21</time>
   <time name="diis">    3.44    3.45</time>
   <time name="orth">    0.28    0.28</time>
   <time name="total">    5.22    5.23</time>
   <dipole>
    <v name="dipole">      0.00000000       0.00000000      -0.00293584 </v>
    <i name="Tr[quadrupol]"> -10311.20752957 </i>
    <i name="Echarged">      0.00000000 </i>
    <i name="Edipol_quadrupol">      0.00000000 </i>
    <i name="Eion">      0.00000000 </i>
   </dipole>
   <energy>
    <i name="e_fr_energy">   -189.10033294 </i>
    <i name="e_wo_entrp">   -188.86375943 </i>
    <i name="e_0_energy">   -188.98204618 </i>
   </energy>
  </scstep>
  <scstep>
   <time name="diag">    1.21    1.21</time>
   <time name="diis">    3.42    3.43</time>
   <time name="orth">    0.28    0.28</time>
   <time name="total">    5.20    5.22</time>
   <dipole>
    <v name="dipole">      0.00000000       0.00000000      -0.00280494 </v>
    <i name="Tr[quadrupol]"> -10311.21019978 </i>
    <i name="Echarged">      0.00000000 </i>
    <i name="Edipol_quadrupol">      0.00000000 </i>
    <i name="Eion">      0.00000000 </i>
   </dipole>
   <energy>
    <i name="e_fr_energy">   -189.10033336 </i>
    <i name="e_wo_entrp">   -188.86383092 </i>
    <i name="e_0_energy">   -188.98208214 </i>
   </energy>
  </scstep>
  <scstep>
   <time name="diag">    1.21    1.21</time>
   <time name="diis">    3.48    3.48</time>
   <time name="orth">    0.28    0.28</time>
   <time name="total">    5.25    5.27</time>
   <dipole>
    <v name="dipole">      0.00000000       0.00000000      -0.00295107 </v>
    <i name="Tr[quadrupol]"> -10311.21753630 </i>
    <i name="Echarged">      0.00000000 </i>
    <i name="Edipol_quadrupol">      0.00000000 </i>
    <i name="Eion">      0.00000000 </i>
   </dipole>
   <energy>
    <i name="e_fr_energy">   -189.10032253 </i>
    <i name="e_wo_entrp">   -188.86380651 </i>
    <i name="e_0_energy">   -188.98206452 </i>
   </energy>
  </scstep>
  <scstep>
   <time name="diag">    1.21    1.21</time>
   <time name="diis">    3.35    3.36</time>
   <time name="orth">    0.28    0.28</time>
   <time name="total">    5.13    5.14</time>
   <dipole>
    <v name="dipole">      0.00000000       0.00000000      -0.00289062 </v>
    <i name="Tr[quadrupol]"> -10311.22026983 </i>
    <i name="Echarged">      0.00000000 </i>
    <i name="Edipol_quadrupol">      0.00000000 </i>
    <i name="Eion">      0.00000000 </i>
   </dipole>
   <energy>
    <i name="e_fr_energy">   -189.10031598 </i>
    <i name="e_wo_entrp">   -188.86399895 </i>
    <i name="e_0_energy">   -188.98215747 </i>
   </energy>
  </scstep>
  <scstep>
   <time name="diag">    1.21    1.21</time>
   <time name="diis">    2.58    2.59</time>
   <time name="orth">    0.28    0.28</time>
   <time name="total">    4.12    4.13</time>
   <dipole>
    <v name="dipole">      0.00000000       0.00000000      -0.00293460 </v>
    <i name="Tr[quadrupol]"> -10311.22425451 </i>
    <i name="Echarged">      0.00000000 </i>
    <i name="Edipol_quadrupol">      0.00000000 </i>
    <i name="Eion">      0.00000000 </i>
   </dipole>
   <energy>
    <i name="alphaZ">    805.86889290 </i>
    <i name="ewald"> 198046.19485900 </i>
    <i name="hartreedc">-240242.20701671 </i>
    <i name="XCdc">   -345.22775987 </i>
    <i name="pawpsdc">  49026.94296668 </i>
    <i name="pawaedc"> -47101.22150753 </i>
    <i name="eentropy">     -0.23632512 </i>
    <i name="bandstr">  -2039.00029849 </i>
    <i name="atom">  41659.78587232 </i>
    <i name="e_fr_energy">   -189.10031682 </i>
    <i name="e_wo_entrp">   -188.86399170 </i>
    <i name="e_0_energy">   -188.98215426 </i>
   </energy>
  </scstep>
  <structure>
   <crystal>
    <varray name="basis" >
     <v>      11.00258152       0.00000000       0.00000000 </v>
     <v>       5.50129076       9.52851510       0.00000000 </v>
     <v>       0.00000000       0.00000000      24.49178509 </v>
    </varray>
    <i name="volume">   2567.67623402 </i>
    <varray name="rec_basis" >
     <v>       0.09088776      -0.05247407       0.00000000 </v>
     <v>       0.00000000       0.10494815       0.00000000 </v>
     <v>       0.00000000       0.00000000       0.04083002 </v>
    </varray>
   </crystal>
   <varray name="positions" >
    <v>       0.08278954       0.08443389       0.40614174 </v>
    <v>       0.41528365       0.41734155       0.49965964 </v>
    <v>       0.58331296       0.33261540       0.40575458 </v>
    <v>       0.41536903       0.66676057       0.50004403 </v>
    <v>       0.41476208       0.16755719       0.50003151 </v>
    <v>       0.66894952       0.91606565       0.50034346 </v>
    <v>       0.16634213       0.91725573       0.50072881 </v>
    <v>       0.58414153       0.83331952       0.40577011 </v>
    <v>       0.24963852       0.49974006       0.59391220 </v>
    <v>       0.16594407       0.66665899       0.50000432 </v>
    <v>       0.41494334       0.91815537       0.50048589 </v>
    <v>       0.49927589       0.75071757       0.59421857 </v>
    <v>       0.50068980       0.24927609       0.59419892 </v>
    <v>       0.66879408       0.16449317       0.50000559 </v>
    <v>       0.08297284       0.58233951       0.40655320 </v>
    <v>       0.91656239       0.16663486       0.50003448 </v>
    <v>       0.75057227       0.49975340       0.59387582 </v>
    <v>       0.66994583       0.66571952       0.50000631 </v>
    <v>       0.00099960       0.24955587       0.59347735 </v>
    <v>       0.58342041       0.58325254       0.40576167 </v>
    <v>       0.66816811       0.41574730       0.50030744 </v>
    <v>      -0.00119387       0.75092941       0.59349520 </v>
    <v>       0.33271045       0.08447744       0.40607517 </v>
    <v>       0.08264150       0.83361147       0.40611229 </v>
    <v>       0.75002763       0.24939186       0.59315753 </v>
    <v>       0.83417599       0.58258062       0.40734231 </v>
    <v>       0.83410522       0.33357560       0.40709553 </v>
    <v>       0.50005252       0.49994635       0.59324227 </v>
    <v>       0.83305952       0.08298616       0.40707695 </v>
    <v>       0.83315224       0.83377656       0.40734800 </v>
    <v>       0.75032543      -0.00025193       0.59284157 </v>
    <v>       0.24992603       0.75062086       0.59312586 </v>
    <v>       0.58378957       0.08334627       0.40681335 </v>
    <v>       0.33340163       0.83290029       0.40672086 </v>
    <v>       0.33336739       0.58325075       0.40686382 </v>
    <v>       0.24970130       0.24966871       0.59268195 </v>
    <v>       0.16526989       0.41604925       0.49993888 </v>
    <v>       0.33294337       0.33343858       0.40710909 </v>
    <v>       0.24985132       0.00030824       0.59288595 </v>
    <v>       0.16618700       0.16828998       0.50028290 </v>
    <v>       0.91581776       0.91663269       0.50003984 </v>
    <v>       0.00014052       0.49985791       0.59238596 </v>
    <v>       0.91658419       0.66607688       0.50000269 </v>
    <v>       0.91822720       0.41690311       0.49955764 </v>
    <v>       0.08281330       0.33381750       0.40761349 </v>
    <v>      -0.00016356      -0.00010759       0.59287802 </v>
    <v>       0.49992294       0.00004707       0.59315341 </v>
    <v>       0.75028594       0.75048220       0.59284384 </v>
   </varray>
  </structure>
  <varray name="forces" >
   <v>      -0.00315838       0.13521074      -1.07955787 </v>
   <v>      -0.13218249      -0.07287355      -0.06057198 </v>
   <v>      -0.03584270      -0.12461030      -1.25320342 </v>
   <v>       0.04882611      -0.00726103       0.00786758 </v>
   <v>      -0.09821181       0.11227294       0.02093307 </v>
   <v>       0.10084128      -0.07407413       0.05458510 </v>
   <v>      -0.11732930       0.16818541       0.11969607 </v>
   <v>       0.12730534       0.03947787      -1.18858472 </v>
   <v>      -0.08977676      -0.04405538       1.14430839 </v>
   <v>      -0.31459928       0.03304602       0.00667209 </v>
   <v>       0.00271818       0.08733443       0.05969319 </v>
   <v>      -0.02583202       0.07528279       1.22732203 </v>
   <v>       0.06857911      -0.11654854       1.21586267 </v>
   <v>       0.00481147      -0.11844920      -0.00490511 </v>
   <v>      -0.13354712      -0.14123470      -0.95306942 </v>
   <v>       0.13507438      -0.01800456      -0.00211500 </v>
   <v>       0.09688045      -0.03821885       1.15490454 </v>
   <v>       0.23651208      -0.06253151      -0.00387280 </v>
   <v>       0.08731832      -0.07009269       0.96526117 </v>
   <v>       0.01601371      -0.02949414      -1.20668798 </v>
   <v>       0.12401550      -0.04140996       0.04258199 </v>
   <v>      -0.10092817       0.13371893       0.97539271 </v>
   <v>       0.00630362       0.13870693      -1.17676455 </v>
   <v>      -0.07195867       0.05692141      -1.09282046 </v>
   <v>      -0.03915369      -0.12074074       0.82206640 </v>
   <v>       0.05638844      -0.10633097      -0.63256459 </v>
   <v>       0.12014740       0.05587655      -0.65890959 </v>
   <v>      -0.00821367      -0.02269798       0.75781737 </v>
   <v>      -0.05248582      -0.03911968      -0.71995037 </v>
   <v>       0.00675556       0.05610810      -0.57156077 </v>
   <v>       0.03469582      -0.00864596       0.74494301 </v>
   <v>      -0.00140508       0.07843826       0.81538960 </v>
   <v>       0.03931235      -0.00283839      -0.74286202 </v>
   <v>      -0.01793353      -0.01533471      -0.75589738 </v>
   <v>      -0.03026652       0.00079310      -0.80528906 </v>
   <v>      -0.03331492      -0.06173654       0.61980449 </v>
   <v>      -0.25089936       0.01292219       0.01165907 </v>
   <v>      -0.05267637       0.01833552      -0.67938058 </v>
   <v>      -0.00123458       0.06756589       0.75969444 </v>
   <v>      -0.06582213       0.24348932       0.04131068 </v>
   <v>       0.01427373      -0.16317942      -0.01779633 </v>
   <v>       0.01250053      -0.01190075       0.42920682 </v>
   <v>       0.11930098      -0.12033036       0.00349039 </v>
   <v>       0.26418522      -0.04461257      -0.07166575 </v>
   <v>      -0.05899159       0.05566661      -0.47988238 </v>
   <v>      -0.05182170       0.00915795       0.69487906 </v>
   <v>       0.01661210       0.01237808       0.75446489 </v>
   <v>       0.04821398       0.08543756       0.70810532 </v>
  </varray>
  <energy>
   <i name="e_fr_energy">   -189.10031682 </i>
   <i name="e_wo_entrp">   -188.98215426 </i>
   <i name="e_0_energy">     -0.23632512 </i>
  </energy>
  <time name="totalsc">   81.57   82.02</time>
 </calculation>
 <calculation>
  <scstep>
   <time name="dav">    7.05    7.14</time>
   <time name="total">    7.34    7.44</time>
   <dipole>
    <v name="dipole">      0.00000000       0.00000000      -0.00297671 </v>
    <i name="Tr[quadrupol]"> -10239.70142632 </i>
    <i name="Echarged">      0.00000000 </i>
    <i name="Edipol_quadrupol">      0.00000000 </i>
    <i name="Eion">      0.00000000 </i>
   </dipole>
   <energy>
    <i name="alphaZ">    805.86886607 </i>
    <i name="ewald"> 189710.69118818 </i>
    <i name="hartreedc">-231952.30002278 </i>
    <i name="XCdc">   -351.10929333 </i>
    <i name="pawpsdc">  49026.95532358 </i>
    <i name="pawaedc"> -47101.23420101 </i>
    <i name="eentropy">     -0.20131252 </i>
    <i name="bandstr">  -1985.91782799 </i>
    <i name="atom">  41659.78587232 </i>
    <i name="e_fr_energy">   -187.46140749 </i>
    <i name="e_wo_entrp">   -187.26009497 </i>
    <i name="e_0_energy">   -187.36075123 </i>
   </energy>
  </scstep>
  <scstep>
   <time name="diag">    1.21    1.22</time>
   <time name="diis">    3.41    3.42</time>
   <time name="orth">    0.30    0.30</time>
   <time name="total">    5.20    5.22</time>
   <dipole>
    <v name="dipole">      0.00000000       0.00000000       0.01171780 </v>
    <i name="Tr[quadrupol]"> -10238.81223491 </i>
    <i name="Echarged">      0.00000000 </i>
    <i name="Edipol_quadrupol">      0.00000000 </i>
    <i name="Eion">      0.00000000 </i>
   </dipole>
   <energy>
    <i name="e_fr_energy">   -191.12982680 </i>
    <i name="e_wo_entrp">   -190.93474424 </i>
    <i name="e_0_energy">   -191.03228552 </i>
   </energy>
  </scstep>
  <scstep>
   <time name="diag">    1.21    1.21</time>
   <time name="diis">    3.39    3.40</time>
   <time name="orth">    0.28    0.28</time>
   <time name="total">    5.17    5.19</time>
   <dipole>
    <v name="dipole">      0.00000000       0.00000000      -0.13303320 </v>
    <i name="Tr[quadrupol]"> -10239.90175579 </i>
    <i name="Echarged">      0.00000000 </i>
    <i name="Edipol_quadrupol">      0.00000000 </i>
    <i name="Eion">      0.00000000 </i>
   </dipole>
   <energy>
    <i name="e_fr_energy">   -191.63104818 </i>
    <i name="e_wo_entrp">   -191.38317117 </i>
    <i name="e_0_energy">   -191.50710967 </i>
   </energy>
  </scstep>
  <scstep>
   <time name="diag">    1.21    1.21</time>
   <time name="diis">    3.42    3.44</time>
   <time name="orth">    0.28    0.28</time>
   <time name="total">    5.19    5.22</time>
   <dipole>
    <v name="dipole">      0.00000000       0.00000000       0.08341255 </v>
    <i name="Tr[quadrupol]"> -10239.72409020 </i>
    <i name="Echarged">      0.00000000 </i>
    <i name="Edipol_quadrupol">      0.00000000 </i>
    <i name="Eion">      0.00000000 </i>
   </dipole>
   <energy>
    <i name="e_fr_energy">   -191.07226683 </i>
    <i name="e_wo_entrp">   -190.87211720 </i>
    <i name="e_0_energy">   -190.97219202 </i>
   </energy>
  </scstep>
  <scstep>
   <time name="diag">    1.21    1.21</time>
   <time name="diis">    3.43    3.44</time>
   <time name="orth">    0.28    0.28</time>
   <time name="total">    5.21    5.22</time>
   <dipole>
    <v name="dipole">      0.00000000       0.00000000      -0.17596604 </v>
    <i name="Tr[quadrupol]"> -10239.73649793 </i>
    <i name="Echarged">      0.00000000 </i>
    <i name="Edipol_quadrupol">      0.00000000 </i>
    <i name="Eion">      0.00000000 </i>
   </dipole>
   <energy>
    <i name="e_fr_energy">   -191.38949430 </i>
    <i name="e_wo_entrp">   -191.20540347 </i>
    <i name="e_0_energy">   -191.29744889 </i>
   </energy>
  </scstep>
  <scstep>
   <time name="diag">    1.21    1.21</time>
   <time name="diis">    3.42    3.44</time>
   <time name="orth">    0.28    0.28</time>
   <time name="total">    5.19    5.22</time>
   <dipole>
    <v name="dipole">      0.00000000       0.00000000       0.07771365 </v>
    <i name="Tr[quadrupol]"> -10239.91396800 </i>
    <i name="Echarged">      0.00000000 </i>
    <i name="Edipol_quadrupol">      0.00000000 </i>
    <i name="Eion">      0.00000000 </i>
   </dipole>
   <energy>
    <i name="e_fr_energy">   -191.05164727 </i>
    <i name="e_wo_entrp">   -190.83328350 </i>
    <i name="e_0_energy">   -190.94246539 </i>
   </energy>
  </scstep>
  <scstep>
   <time name="diag">    1.20    1.21</time>
   <time name="diis">    3.44    3.45</time>
   <time name="orth">    0.29    0.29</time>
   <time name="total">    5.22    5.24</time>
   <dipole>
    <v name="dipole">      0.00000000       0.00000000      -0.01707827 </v>
    <i name="Tr[quadrupol]"> -10239.81225588 </i>
    <i name="Echarged">      0.00000000 </i>
    <i name="Edipol_quadrupol">      0.00000000 </i>
    <i name="Eion">      0.00000000 </i>
   </dipole>
   <energy>
    <i name="e_fr_energy">   -190.89201585 </i>
    <i name="e_wo_entrp">   -190.69691603 </i>
    <i name="e_0_energy">   -190.79446594 </i>
   </energy>
  </scstep>
  <scstep>
   <time name="diag">    1.21    1.21</time>
   <time name="diis">    3.42    3.43</time>
   <time name="orth">    0.28    0.28</time>
   <time name="total">    5.19    5.20</time>
   <dipole>
    <v name="dipole">      0.00000000       0.00000000      -0.00952716 </v>
    <i name="Tr[quadrupol]"> -10239.72690628 </i>
    <i name="Echarged">      0.00000000 </i>
    <i name="Edipol_quadrupol">      0.00000000 </i>
    <i name="Eion">      0.00000000 </i>
   </dipole>
   <energy>
    <i name="e_fr_energy">   -190.84187582 </i>
    <i name="e_wo_entrp">   -190.63772940 </i>
    <i name="e_0_energy">   -190.73980261 </i>
   </energy>
  </scstep>
  <scstep>
   <time name="diag">    1.19    1.27</time>
   <time name="diis">    3.41    3.42</time>
   <time name="orth">    0.28    0.28</time>
   <time name="total">    5.17    5.26</time>
   <dipole>
    <v name="dipole">      0.00000000       0.00000000      -0.00900950 </v>
    <i name="Tr[quadrupol]"> -10239.69112037 </i>
    <i name="Echarged">      0.00000000 </i>
    <i name="Edipol_quadrupol">      0.00000000 </i>
    <i name="Eion">      0.00000000 </i>
[...]
       <r>    2.2820    0.0000 </r>
       <r>    2.3477    0.0000 </r>
       <r>    2.4133    0.0000 </r>
       <r>    2.4867    0.0000 </r>
       <r>    2.6559    0.0000 </r>
       <r>    2.9623    0.0000 </r>
       <r>    3.1813    0.0000 </r>
       <r>    3.2402    0.0000 </r>
       <r>    3.4499    0.0000 </r>
       <r>    3.5913    0.0000 </r>
       <r>    3.6640    0.0000 </r>
       <r>    3.8810    0.0000 </r>
       <r>    4.0646    0.0000 </r>
       <r>    4.1802    0.0000 </r>
       <r>    4.4355    0.0000 </r>
       <r>    4.5262    0.0000 </r>
       <r>    4.6062    0.0000 </r>
       <r>    4.6291    0.0000 </r>
       <r>    4.7534    0.0000 </r>
       <r>    4.8166    0.0000 </r>
       <r>    4.8766    0.0000 </r>
       <r>    4.9305    0.0000 </r>
       <r>    4.9881    0.0000 </r>
       <r>    5.0485    0.0000 </r>
       <r>    5.0955    0.0000 </r>
       <r>    5.1325    0.0000 </r>
       <r>    5.1798    0.0000 </r>
       <r>    5.2388    0.0000 </r>
      </set>
     </set>
    </set>
   </array>
  </eigenvalues>
  <separator name="orbital magnetization" >
   <v name="MAGDIPOLOUT">      0.00000000      0.00000000      0.00000000</v>
  </separator>
  <dos>
   <i name="efermi">     -1.11098087 </i>
   <total>
    <array>
     <dimension dim="1">gridpoints</dimension>
     <dimension dim="2">spin</dimension>
     <field>energy</field>
     <field>total</field>
     <field>integrated</field>
     <set>
      <set comment="spin 1">
       <r>   -10.0533     0.0000     0.0000 </r>
       <r>    -9.9988     0.0000     0.0000 </r>
       <r>    -9.9442     0.0000     0.0000 </r>
       <r>    -9.8896     0.0000     0.0000 </r>
       <r>    -9.8350     0.0000     0.0000 </r>
       <r>    -9.7805     0.0000     0.0000 </r>
       <r>    -9.7259     0.0000     0.0000 </r>
       <r>    -9.6713     0.0000     0.0000 </r>
       <r>    -9.6167     0.0000     0.0000 </r>
       <r>    -9.5622     0.0000     0.0000 </r>
       <r>    -9.5076     0.0000     0.0000 </r>
       <r>    -9.4530     0.0000     0.0000 </r>
       <r>    -9.3985     0.0000     0.0000 </r>
       <r>    -9.3439     0.0002     0.0000 </r>
       <r>    -9.2893     0.0041     0.0002 </r>
       <r>    -9.2347     0.0532     0.0031 </r>
       <r>    -9.1802     0.3897     0.0244 </r>
       <r>    -9.1256     1.6350     0.1136 </r>
       <r>    -9.0710     3.9489     0.3291 </r>
       <r>    -9.0164     5.5966     0.6346 </r>
       <r>    -8.9619     5.1483     0.9155 </r>
       <r>    -8.9073     4.4543     1.1586 </r>
       <r>    -8.8527     4.9834     1.4306 </r>
       <r>    -8.7981     5.0262     1.7049 </r>
       <r>    -8.7436     3.4394     1.8926 </r>
       <r>    -8.6890     1.4963     1.9742 </r>
       <r>    -8.6344     0.4274     1.9976 </r>
       <r>    -8.5798     0.2397     2.0107 </r>
       <r>    -8.5253     0.6956     2.0486 </r>
       <r>    -8.4707     1.6256     2.1373 </r>
       <r>    -8.4161     2.5567     2.2769 </r>
       <r>    -8.3615     3.3026     2.4571 </r>
       <r>    -8.3070     3.8606     2.6678 </r>
       <r>    -8.2524     3.6910     2.8692 </r>
       <r>    -8.1978     3.3581     3.0525 </r>
       <r>    -8.1433     4.5516     3.3009 </r>
       <r>    -8.0887     7.0533     3.6858 </r>
       <r>    -8.0341     8.5706     4.1535 </r>
       <r>    -7.9795     7.6010     4.5683 </r>
       <r>    -7.9250     5.0877     4.8460 </r>
       <r>    -7.8704     3.2131     5.0214 </r>
       <r>    -7.8158     3.1833     5.1951 </r>
       <r>    -7.7612     4.4986     5.4406 </r>
       <r>    -7.7067     5.8633     5.7606 </r>
       <r>    -7.6521     6.3870     6.1091 </r>
       <r>    -7.5975     6.1816     6.4465 </r>
       <r>    -7.5429     6.3757     6.7944 </r>
       <r>    -7.4884     8.4290     7.2544 </r>
       <r>    -7.4338    12.7854     7.9522 </r>
       <r>    -7.3792    18.2113     8.9460 </r>
       <r>    -7.3246    23.2008    10.2122 </r>
       <r>    -7.2701    27.4638    11.7110 </r>
       <r>    -7.2155    30.1647    13.3572 </r>
       <r>    -7.1609    30.2081    15.0058 </r>
       <r>    -7.1063    28.5984    16.5665 </r>
       <r>    -7.0518    26.0204    17.9866 </r>
       <r>    -6.9972    21.4255    19.1558 </r>
       <r>    -6.9426    16.1275    20.0360 </r>
       <r>    -6.8881    15.2486    20.8681 </r>
       <r>    -6.8335    21.8718    22.0618 </r>
       <r>    -6.7789    31.9101    23.8032 </r>
       <r>    -6.7243    39.5617    25.9623 </r>
       <r>    -6.6698    44.3493    28.3826 </r>
       <r>    -6.6152    47.8753    30.9953 </r>
       <r>    -6.5606    49.3212    33.6870 </r>
       <r>    -6.5060    48.8276    36.3517 </r>
       <r>    -6.4515    49.6644    39.0620 </r>
       <r>    -6.3969    55.0642    42.0671 </r>
       <r>    -6.3423    65.7168    45.6535 </r>
       <r>    -6.2877    76.9263    49.8517 </r>
       <r>    -6.2332    81.5154    54.3003 </r>
       <r>    -6.1786    79.4734    58.6375 </r>
       <r>    -6.1240    77.0978    62.8450 </r>
       <r>    -6.0694    77.6085    67.0804 </r>
       <r>    -6.0149    78.8453    71.3833 </r>
       <r>    -5.9603    78.1579    75.6487 </r>
       <r>    -5.9057    76.2952    79.8124 </r>
       <r>    -5.8512    74.5470    83.8807 </r>
       <r>    -5.7966    72.9197    87.8602 </r>
       <r>    -5.7420    70.5403    91.7099 </r>
       <r>    -5.6874    66.3726    95.3321 </r>
       <r>    -5.6329    63.2876    98.7859 </r>
       <r>    -5.5783    64.4904   102.3054 </r>
       <r>    -5.5237    67.8316   106.0073 </r>
       <r>    -5.4691    70.5421   109.8570 </r>
       <r>    -5.4146    72.5061   113.8140 </r>
       <r>    -5.3600    74.4043   117.8745 </r>
       <r>    -5.3054    76.3933   122.0436 </r>
       <r>    -5.2508    78.3674   126.3204 </r>
       <r>    -5.1963    81.3450   130.7597 </r>
       <r>    -5.1417    85.9420   135.4499 </r>
       <r>    -5.0871    89.5947   140.3394 </r>
       <r>    -5.0325    90.0550   145.2541 </r>
       <r>    -4.9780    89.2748   150.1261 </r>
       <r>    -4.9234    89.7254   155.0228 </r>
       <r>    -4.8688    90.6084   159.9676 </r>
       <r>    -4.8142    89.9155   164.8747 </r>
       <r>    -4.7597    87.5110   169.6505 </r>
       <r>    -4.7051    85.0009   174.2893 </r>
       <r>    -4.6505    83.2320   178.8316 </r>
       <r>    -4.5960    81.8888   183.3006 </r>
       <r>    -4.5414    81.4260   187.7443 </r>
       <r>    -4.4868    82.4177   192.2422 </r>
       <r>    -4.4322    84.3347   196.8447 </r>
       <r>    -4.3777    85.8518   201.5299 </r>
       <r>    -4.3231    85.0775   206.1729 </r>
       <r>    -4.2685    81.5941   210.6258 </r>
       <r>    -4.2139    78.1335   214.8899 </r>
       <r>    -4.1594    77.8085   219.1362 </r>
       <r>    -4.1048    80.3432   223.5208 </r>
       <r>    -4.0502    83.1847   228.0605 </r>
       <r>    -3.9956    85.3544   232.7187 </r>
       <r>    -3.9411    86.8860   237.4604 </r>
       <r>    -3.8865    87.3872   242.2294 </r>
       <r>    -3.8319    87.9681   247.0302 </r>
       <r>    -3.7773    90.2241   251.9540 </r>
       <r>    -3.7228    94.1743   257.0935 </r>
       <r>    -3.6682    98.1752   262.4513 </r>
       <r>    -3.6136   100.4323   267.9323 </r>
       <r>    -3.5590   101.5418   273.4738 </r>
       <r>    -3.5045   103.0146   279.0957 </r>
       <r>    -3.4499   102.8446   284.7083 </r>
       <r>    -3.3953    98.2486   290.0701 </r>
       <r>    -3.3408    92.0922   295.0960 </r>
       <r>    -3.2862    88.8981   299.9475 </r>
       <r>    -3.2316    88.4924   304.7769 </r>
       <r>    -3.1770    89.0765   309.6381 </r>
       <r>    -3.1225    89.8147   314.5396 </r>
       <r>    -3.0679    90.2635   319.4657 </r>
       <r>    -3.0133    91.1827   324.4419 </r>
       <r>    -2.9587    92.6148   329.4962 </r>
       <r>    -2.9042    92.6671   334.5534 </r>
       <r>    -2.8496    91.9223   339.5700 </r>
       <r>    -2.7950    93.8834   344.6935 </r>
       <r>    -2.7404    99.2411   350.1095 </r>
       <r>    -2.6859   104.7576   355.8265 </r>
       <r>    -2.6313   108.1249   361.7273 </r>
       <r>    -2.5767   110.1689   367.7397 </r>
       <r>    -2.5221   110.7152   373.7818 </r>
       <r>    -2.4676   108.2136   379.6875 </r>
       <r>    -2.4130   103.8099   385.3528 </r>
       <r>    -2.3584    99.3905   390.7769 </r>
       <r>    -2.3038    94.4905   395.9336 </r>
       <r>    -2.2493    88.4772   400.7621 </r>
       <r>    -2.1947    83.4273   405.3151 </r>
       <r>    -2.1401    82.2918   409.8061 </r>
       <r>    -2.0856    84.5966   414.4228 </r>
       <r>    -2.0310    89.4913   419.3067 </r>
       <r>    -1.9764    97.0873   424.6052 </r>
       <r>    -1.9218   103.2239   430.2385 </r>
       <r>    -1.8673   104.4017   435.9361 </r>
       <r>    -1.8127   103.6590   441.5932 </r>
       <r>    -1.7581   104.3593   447.2885 </r>
       <r>    -1.7035   105.4688   453.0443 </r>
       <r>    -1.6490   104.4981   458.7472 </r>
       <r>    -1.5944   100.7469   464.2453 </r>
       <r>    -1.5398    95.9814   469.4834 </r>
       <r>    -1.4852    92.5345   474.5333 </r>
       <r>    -1.4307    91.4974   479.5267 </r>
       <r>    -1.3761    92.0959   484.5527 </r>
       <r>    -1.3215    91.5681   489.5500 </r>
       <r>    -1.2669    87.1965   494.3086 </r>
       <r>    -1.2124    76.9998   498.5108 </r>
       <r>    -1.1578    61.2390   501.8528 </r>
       <r>    -1.1032    44.8637   504.3012 </r>
       <r>    -1.0487    32.8694   506.0950 </r>
       <r>    -0.9941    25.2449   507.4727 </r>
       <r>    -0.9395    19.4517   508.5343 </r>
       <r>    -0.8849    14.2077   509.3097 </r>
       <r>    -0.8304    10.2237   509.8676 </r>
       <r>    -0.7758     8.8869   510.3526 </r>
       <r>    -0.7212    10.6835   510.9356 </r>
       <r>    -0.6666    14.7246   511.7392 </r>
       <r>    -0.6121    19.1565   512.7847 </r>
       <r>    -0.5575    22.4905   514.0121 </r>
       <r>    -0.5029    24.1914   515.3323 </r>
       <r>    -0.4483    23.1446   516.5954 </r>
       <r>    -0.3938    19.7283   517.6720 </r>
       <r>    -0.3392    18.0157   518.6552 </r>
       <r>    -0.2846    19.8121   519.7364 </r>
       <r>    -0.2300    21.0378   520.8845 </r>
       <r>    -0.1755    18.2425   521.8801 </r>
       <r>    -0.1209    13.0794   522.5939 </r>
       <r>    -0.0663     9.0077   523.0855 </r>
       <r>    -0.0117     7.2125   523.4791 </r>
       <r>     0.0428     7.0434   523.8635 </r>
       <r>     0.0974     8.4794   524.3262 </r>
       <r>     0.1520    11.0608   524.9299 </r>
       <r>     0.2065    12.8115   525.6290 </r>
       <r>     0.2611    13.9627   526.3910 </r>
       <r>     0.3157    16.6436   527.2993 </r>
       <r>     0.3703    20.3673   528.4109 </r>
       <r>     0.4248    23.5717   529.6973 </r>
       <r>     0.4794    26.4216   531.1392 </r>
       <r>     0.5340    28.3693   532.6874 </r>
       <r>     0.5886    27.5324   534.1900 </r>
       <r>     0.6431    24.4090   535.5221 </r>
       <r>     0.6977    21.7723   536.7102 </r>
       <r>     0.7523    20.4859   537.8282 </r>
       <r>     0.8069    18.4058   538.8327 </r>
       <r>     0.8614    14.8322   539.6422 </r>
       <r>     0.9160    12.0419   540.2993 </r>
       <r>     0.9706    10.3396   540.8636 </r>
       <r>     1.0252     8.9727   541.3533 </r>
       <r>     1.0797     8.9029   541.8392 </r>
       <r>     1.1343     9.7481   542.3712 </r>
       <r>     1.1889     9.6350   542.8970 </r>
       <r>     1.2435     7.7991   543.3226 </r>
       <r>     1.2980     5.2624   543.6098 </r>
       <r>     1.3526     4.0509   543.8309 </r>
       <r>     1.4072     5.0521   544.1066 </r>
       <r>     1.4617     7.8316   544.5340 </r>
       <r>     1.5163    11.9399   545.1856 </r>
       <r>     1.5709    16.6267   546.0930 </r>
       <r>     1.6255    19.6133   547.1633 </r>
       <r>     1.6800    19.0173   548.2012 </r>
       <r>     1.7346    16.4212   549.0974 </r>
       <r>     1.7892    13.8267   549.8519 </r>
       <r>     1.8438    11.4171   550.4750 </r>
       <r>     1.8983    10.0949   551.0259 </r>
       <r>     1.9529    11.6044   551.6592 </r>
       <r>     2.0075    15.7399   552.5182 </r>
       <r>     2.0621    20.0316   553.6114 </r>
       <r>     2.1166    22.3112   554.8290 </r>
       <r>     2.1712    22.6069   556.0628 </r>
       <r>     2.2258    22.7793   557.3059 </r>
       <r>     2.2804    23.5787   558.5927 </r>
       <r>     2.3349    23.4372   559.8718 </r>
       <r>     2.3895    21.5206   561.0462 </r>
       <r>     2.4441    19.3417   562.1018 </r>
       <r>     2.4987    18.1237   563.0909 </r>
       <r>     2.5532    17.7203   564.0579 </r>
       <r>     2.6078    18.5886   565.0724 </r>
       <r>     2.6624    20.2934   566.1799 </r>
       <r>     2.7169    20.0702   567.2752 </r>
       <r>     2.7715    16.1812   568.1583 </r>
       <r>     2.8261    10.2741   568.7189 </r>
       <r>     2.8807     6.0406   569.0486 </r>
       <r>     2.9352     5.3633   569.3413 </r>
       <r>     2.9898     5.7399   569.6546 </r>
       <r>     3.0444     4.5691   569.9039 </r>
       <r>     3.0990     3.6392   570.1025 </r>
       <r>     3.1535     5.3341   570.3936 </r>
       <r>     3.2081     8.3207   570.8477 </r>
       <r>     3.2627     9.8076   571.3829 </r>
       <r>     3.3173     9.6282   571.9084 </r>
       <r>     3.3718    10.0258   572.4555 </r>
       <r>     3.4264    12.1318   573.1176 </r>
       <r>     3.4810    14.7575   573.9230 </r>
       <r>     3.5356    17.7865   574.8937 </r>
       <r>     3.5901    22.0406   576.0965 </r>
       <r>     3.6447    24.6076   577.4394 </r>
       <r>     3.6993    22.0486   578.6427 </r>
       <r>     3.7538    16.5759   579.5473 </r>
       <r>     3.8084    12.6756   580.2391 </r>
       <r>     3.8630    11.3983   580.8611 </r>
       <r>     3.9176    11.5313   581.4904 </r>
       <r>     3.9721    12.7929   582.1886 </r>
       <r>     4.0267    13.9440   582.9496 </r>
       <r>     4.0813    12.8577   583.6513 </r>
       <r>     4.1359    10.9657   584.2497 </r>
       <r>     4.1904    10.5516   584.8256 </r>
       <r>     4.2450    10.0965   585.3766 </r>
       <r>     4.2996     8.1636   585.8221 </r>
       <r>     4.3542     7.2260   586.2164 </r>
       <r>     4.4087     9.6270   586.7418 </r>
       <r>     4.4633    13.8504   587.4977 </r>
       <r>     4.5179    18.5298   588.5089 </r>
       <r>     4.5725    23.8402   589.8100 </r>
       <r>     4.6270    27.5610   591.3141 </r>
       <r>     4.6816    27.1681   592.7968 </r>
       <r>     4.7362    24.7694   594.1485 </r>
       <r>     4.7908    23.7753   595.4460 </r>
       <r>     4.8453    24.3593   596.7754 </r>
       <r>     4.8999    25.8548   598.1864 </r>
       <r>     4.9545    28.5835   599.7463 </r>
       <r>     5.0090    32.3423   601.5114 </r>
       <r>     5.0636    35.2110   603.4330 </r>
       <r>     5.1182    34.9595   605.3408 </r>
       <r>     5.1728    32.4030   607.1092 </r>
       <r>     5.2273    30.1804   608.7562 </r>
       <r>     5.2819    26.8562   610.2219 </r>
       <r>     5.3365    19.2065   611.2701 </r>
       <r>     5.3911     9.5884   611.7933 </r>
       <r>     5.4456     3.0910   611.9620 </r>
       <r>     5.5002     0.6163   611.9957 </r>
       <r>     5.5548     0.0740   611.9997 </r>
       <r>     5.6094     0.0053   612.0000 </r>
       <r>     5.6639     0.0002   612.0000 </r>
       <r>     5.7185     0.0000   612.0000 </r>
       <r>     5.7731     0.0000   612.0000 </r>
       <r>     5.8277     0.0000   612.0000 </r>
       <r>     5.8822     0.0000   612.0000 </r>
       <r>     5.9368     0.0000   612.0000 </r>
       <r>     5.9914     0.0000   612.0000 </r>
       <r>     6.0460     0.0000   612.0000 </r>
       <r>     6.1005     0.0000   612.0000 </r>
       <r>     6.1551     0.0000   612.0000 </r>
       <r>     6.2097     0.0000   612.0000 </r>
       <r>     6.2642     0.0000   612.0000 </r>
       <r>     6.3188     0.0000   612.0000 </r>
      </set>
     </set>
    </array>
   </total>
  </dos>
 </calculation>
 <structure name="finalpos" >
  <crystal>
   <varray name="basis" >
    <v>      11.00258152       0.00000000       0.00000000 </v>
    <v>       5.50129076       9.52851510       0.00000000 </v>
    <v>       0.00000000       0.00000000      24.49178509 </v>
   </varray>
   <i name="volume">   2567.67623402 </i>
   <varray name="rec_basis" >
    <v>       0.09088776      -0.05247407       0.00000000 </v>
    <v>       0.00000000       0.10494815       0.00000000 </v>
    <v>       0.00000000       0.00000000       0.04083002 </v>
   </varray>
  </crystal>
  <varray name="positions" >
   <v>       0.08108654       0.08600173       0.39577095 </v>
   <v>       0.41568949       0.41608546       0.50040113 </v>
   <v>       0.58280878       0.33217357       0.39377853 </v>
   <v>       0.41755580       0.66650306       0.50019926 </v>
   <v>       0.41363792       0.16828617       0.49972679 </v>
   <v>       0.67020409       0.91451079       0.49986197 </v>
   <v>       0.16562207       0.91795368       0.49988179 </v>
   <v>       0.58452064       0.83392474       0.39386853 </v>
   <v>       0.24986530       0.49909351       0.60528243 </v>
   <v>       0.16502189       0.66602603       0.50054860 </v>
   <v>       0.41612355       0.91806612       0.49958263 </v>
   <v>       0.49860324       0.75104548       0.60569917 </v>
   <v>       0.50191337       0.24764581       0.60616212 </v>
   <v>       0.66871412       0.16465642       0.50033300 </v>
   <v>       0.08167891       0.58180107       0.39852143 </v>
   <v>       0.91875004       0.16639575       0.49992038 </v>
   <v>       0.75130227       0.49933078       0.60549993 </v>
   <v>       0.67173783       0.66459799       0.50060414 </v>
   <v>       0.00255976       0.24810781       0.60239691 </v>
   <v>       0.58252639       0.58341858       0.39412894 </v>
   <v>       0.66953694       0.41592690       0.50046080 </v>
   <v>      -0.00241351       0.75200419       0.60195592 </v>
   <v>       0.33147465       0.08674638       0.39415988 </v>
   <v>       0.08166799       0.83403295       0.39619687 </v>
   <v>       0.75063905       0.24788639       0.59904565 </v>
   <v>       0.83272047       0.58260002       0.40371057 </v>
   <v>       0.83286649       0.33522319       0.40283329 </v>
   <v>       0.50038411       0.49930709       0.59873996 </v>
   <v>       0.83170182       0.08384752       0.40219687 </v>
   <v>       0.83203533       0.83471493       0.40262382 </v>
   <v>       0.75007821      -0.00016548       0.59802664 </v>
   <v>       0.24952748       0.75096960       0.59857290 </v>
   <v>       0.58274622       0.08423340       0.40147313 </v>
   <v>       0.33316547       0.83375506       0.40087471 </v>
   <v>       0.33257325       0.58363256       0.40188468 </v>
   <v>       0.25121912       0.24837050       0.59698041 </v>
   <v>       0.16416879       0.41734136       0.50067810 </v>
   <v>       0.33198224       0.33441718       0.40249702 </v>
   <v>       0.25048352      -0.00030651       0.59741640 </v>
   <v>       0.16536671       0.16923361       0.49976957 </v>
   <v>       0.91821409       0.91402511       0.49975056 </v>
   <v>       0.00055106       0.49986606       0.59721679 </v>
   <v>       0.91942122       0.66474108       0.50017802 </v>
   <v>       0.91991976       0.41637611       0.50203723 </v>
   <v>       0.08097462       0.33458732       0.40483828 </v>
   <v>      -0.00008527      -0.00008652       0.59767342 </v>
   <v>       0.49992139      -0.00031889       0.59808201 </v>
   <v>       0.74923678       0.75141433       0.59795790 </v>
  </varray>
 </structure>
</modeling>
