  48  48   0   0
  0.5349325E+02  0.1100258E-08  0.1100258E-08  0.2449179E-08  0.3500000E-15
  1.000000000000000E-004
  CAR 
 unknown system                          
      6.40157275     -9.79765434  301     -1.09778481      1.00000000
     -9.798  0.0000E+00  0.0000E+00
     -9.744  0.0000E+00  0.0000E+00
     -9.690  0.0000E+00  0.0000E+00
     -9.636  0.0000E+00  0.0000E+00
     -9.582  0.0000E+00  0.0000E+00
     -9.528  0.0000E+00  0.0000E+00
     -9.474  0.0000E+00  0.0000E+00
     -9.420  0.0000E+00  0.0000E+00
     -9.366  0.8224E-17  0.4441E-18
     -9.312  0.3084E-14  0.1670E-15
     -9.258  0.6900E-12  0.3743E-13
     -9.204  0.8757E-10  0.4766E-11
     -9.150  0.6319E-08  0.3460E-09
     -9.096  0.2598E-06  0.1438E-07
     -9.042  0.6105E-05  0.3440E-06
     -8.988  0.8218E-04  0.4782E-05
     -8.934  0.6357E-03  0.3911E-04
     -8.880  0.2835E-02  0.1922E-03
     -8.826  0.7335E-02  0.5882E-03
     -8.772  0.1129E-01  0.1198E-02
     -8.718  0.1154E-01  0.1821E-02
     -8.664  0.1075E-01  0.2402E-02
     -8.610  0.1128E-01  0.3011E-02
     -8.556  0.9952E-02  0.3548E-02
     -8.502  0.5785E-02  0.3861E-02
     -8.448  0.2079E-02  0.3973E-02
     -8.394  0.5316E-03  0.4002E-02
     -8.340  0.5547E-03  0.4032E-02
     -8.286  0.1719E-02  0.4124E-02
     -8.232  0.3594E-02  0.4318E-02
     -8.178  0.5231E-02  0.4601E-02
     -8.124  0.6808E-02  0.4968E-02
     -8.070  0.9013E-02  0.5455E-02
     -8.016  0.1113E-01  0.6056E-02
     -7.962  0.1236E-01  0.6723E-02
     -7.908  0.1290E-01  0.7420E-02
     -7.854  0.1368E-01  0.8159E-02
     -7.800  0.1446E-01  0.8940E-02
     -7.746  0.1452E-01  0.9724E-02
     -7.692  0.1552E-01  0.1056E-01
     -7.638  0.1738E-01  0.1150E-01
     -7.584  0.1726E-01  0.1243E-01
     -7.530  0.1700E-01  0.1335E-01
     -7.476  0.1994E-01  0.1443E-01
     -7.422  0.2340E-01  0.1569E-01
     -7.368  0.2343E-01  0.1696E-01
     -7.314  0.2182E-01  0.1813E-01
     -7.260  0.2354E-01  0.1940E-01
     -7.206  0.2872E-01  0.2096E-01
     -7.152  0.3434E-01  0.2281E-01
     -7.098  0.4003E-01  0.2497E-01
     -7.044  0.4678E-01  0.2750E-01
     -6.990  0.5384E-01  0.3040E-01
     -6.936  0.5809E-01  0.3354E-01
     -6.882  0.5956E-01  0.3676E-01
     -6.828  0.6239E-01  0.4013E-01
     -6.774  0.6832E-01  0.4382E-01
     -6.720  0.7617E-01  0.4793E-01
     -6.666  0.8438E-01  0.5248E-01
     -6.612  0.9401E-01  0.5756E-01
     -6.558  0.1052E+00  0.6324E-01
     -6.504  0.1145E+00  0.6942E-01
     -6.450  0.1230E+00  0.7606E-01
     -6.396  0.1333E+00  0.8326E-01
     -6.342  0.1398E+00  0.9081E-01
     -6.288  0.1375E+00  0.9824E-01
     -6.234  0.1325E+00  0.1054E+00
     -6.180  0.1335E+00  0.1126E+00
     -6.126  0.1390E+00  0.1201E+00
     -6.072  0.1444E+00  0.1279E+00
     -6.018  0.1505E+00  0.1360E+00
     -5.964  0.1594E+00  0.1446E+00
     -5.910  0.1680E+00  0.1537E+00
     -5.856  0.1698E+00  0.1629E+00
     -5.802  0.1624E+00  0.1716E+00
     -5.748  0.1509E+00  0.1798E+00
     -5.694  0.1422E+00  0.1875E+00
     -5.640  0.1375E+00  0.1949E+00
     -5.586  0.1351E+00  0.2022E+00
     -5.532  0.1340E+00  0.2094E+00
     -5.478  0.1348E+00  0.2167E+00
     -5.424  0.1384E+00  0.2242E+00
     -5.370  0.1466E+00  0.2321E+00
     -5.316  0.1582E+00  0.2406E+00
     -5.262  0.1661E+00  0.2496E+00
     -5.208  0.1659E+00  0.2586E+00
     -5.154  0.1614E+00  0.2673E+00
     -5.100  0.1591E+00  0.2759E+00
     -5.046  0.1626E+00  0.2846E+00
     -4.992  0.1710E+00  0.2939E+00
     -4.938  0.1795E+00  0.3036E+00
     -4.884  0.1818E+00  0.3134E+00
     -4.830  0.1768E+00  0.3229E+00
     -4.776  0.1717E+00  0.3322E+00
     -4.722  0.1722E+00  0.3415E+00
     -4.668  0.1740E+00  0.3509E+00
     -4.614  0.1705E+00  0.3601E+00
     -4.560  0.1641E+00  0.3690E+00
     -4.506  0.1607E+00  0.3776E+00
     -4.452  0.1612E+00  0.3863E+00
     -4.398  0.1646E+00  0.3952E+00
     -4.344  0.1705E+00  0.4044E+00
     -4.290  0.1744E+00  0.4139E+00
     -4.236  0.1722E+00  0.4232E+00
     -4.182  0.1686E+00  0.4323E+00
     -4.128  0.1694E+00  0.4414E+00
     -4.074  0.1736E+00  0.4508E+00
     -4.020  0.1780E+00  0.4604E+00
     -3.966  0.1811E+00  0.4702E+00
     -3.912  0.1819E+00  0.4800E+00
     -3.858  0.1805E+00  0.4897E+00
     -3.804  0.1810E+00  0.4995E+00
     -3.750  0.1852E+00  0.5095E+00
     -3.696  0.1888E+00  0.5197E+00
     -3.642  0.1923E+00  0.5301E+00
     -3.588  0.1990E+00  0.5408E+00
     -3.534  0.2048E+00  0.5519E+00
     -3.480  0.2046E+00  0.5629E+00
     -3.426  0.2014E+00  0.5738E+00
     -3.372  0.1997E+00  0.5846E+00
     -3.318  0.1975E+00  0.5953E+00
     -3.264  0.1930E+00  0.6057E+00
     -3.210  0.1874E+00  0.6158E+00
     -3.156  0.1835E+00  0.6257E+00
     -3.102  0.1836E+00  0.6356E+00
     -3.048  0.1855E+00  0.6456E+00
     -2.994  0.1855E+00  0.6557E+00
     -2.940  0.1848E+00  0.6656E+00
     -2.886  0.1865E+00  0.6757E+00
     -2.832  0.1887E+00  0.6859E+00
     -2.778  0.1878E+00  0.6960E+00
     -2.724  0.1871E+00  0.7061E+00
     -2.670  0.1889E+00  0.7163E+00
     -2.616  0.1875E+00  0.7265E+00
     -2.562  0.1828E+00  0.7363E+00
     -2.508  0.1814E+00  0.7461E+00
     -2.454  0.1847E+00  0.7561E+00
     -2.400  0.1908E+00  0.7664E+00
     -2.346  0.1958E+00  0.7770E+00
     -2.292  0.1935E+00  0.7874E+00
     -2.238  0.1852E+00  0.7974E+00
     -2.184  0.1790E+00  0.8071E+00
     -2.130  0.1794E+00  0.8168E+00
     -2.076  0.1854E+00  0.8268E+00
     -2.022  0.1920E+00  0.8372E+00
     -1.968  0.1949E+00  0.8477E+00
     -1.914  0.1954E+00  0.8582E+00
     -1.860  0.1964E+00  0.8688E+00
     -1.806  0.1979E+00  0.8795E+00
     -1.752  0.1995E+00  0.8903E+00
     -1.698  0.2008E+00  0.9011E+00
     -1.644  0.2005E+00  0.9120E+00
     -1.590  0.1989E+00  0.9227E+00
     -1.536  0.1979E+00  0.9334E+00
     -1.482  0.1994E+00  0.9442E+00
     -1.428  0.1995E+00  0.9549E+00
     -1.374  0.1956E+00  0.9655E+00
     -1.320  0.1893E+00  0.9757E+00
     -1.266  0.1787E+00  0.9854E+00
     -1.212  0.1602E+00  0.9940E+00
     -1.158  0.1359E+00  0.1001E+01
     -1.104  0.1115E+00  0.1007E+01
     -1.050  0.8878E-01  0.1012E+01
     -0.996  0.6530E-01  0.1016E+01
     -0.942  0.4209E-01  0.1018E+01
     -0.888  0.2506E-01  0.1019E+01
     -0.834  0.1724E-01  0.1020E+01
     -0.780  0.1657E-01  0.1021E+01
     -0.726  0.1839E-01  0.1022E+01
     -0.672  0.2025E-01  0.1023E+01
     -0.618  0.2305E-01  0.1024E+01
     -0.564  0.2860E-01  0.1026E+01
     -0.510  0.3778E-01  0.1028E+01
     -0.456  0.4619E-01  0.1031E+01
     -0.402  0.4588E-01  0.1033E+01
     -0.348  0.3760E-01  0.1035E+01
     -0.294  0.3244E-01  0.1037E+01
     -0.240  0.3559E-01  0.1039E+01
     -0.186  0.3993E-01  0.1041E+01
     -0.132  0.3819E-01  0.1043E+01
     -0.078  0.3068E-01  0.1045E+01
     -0.024  0.2342E-01  0.1046E+01
      0.030  0.2207E-01  0.1047E+01
      0.084  0.2588E-01  0.1048E+01
      0.138  0.3026E-01  0.1050E+01
      0.192  0.3265E-01  0.1052E+01
      0.246  0.3339E-01  0.1054E+01
      0.300  0.3426E-01  0.1056E+01
      0.354  0.3679E-01  0.1058E+01
      0.408  0.3996E-01  0.1060E+01
      0.462  0.4137E-01  0.1062E+01
      0.516  0.4164E-01  0.1064E+01
      0.570  0.4329E-01  0.1066E+01
      0.624  0.4612E-01  0.1069E+01
      0.678  0.4669E-01  0.1071E+01
      0.732  0.4301E-01  0.1074E+01
      0.786  0.3661E-01  0.1076E+01
      0.840  0.2877E-01  0.1077E+01
      0.894  0.2177E-01  0.1079E+01
      0.948  0.1883E-01  0.1080E+01
      1.002  0.2029E-01  0.1081E+01
      1.056  0.2409E-01  0.1082E+01
      1.110  0.2627E-01  0.1083E+01
      1.164  0.2346E-01  0.1085E+01
      1.218  0.1664E-01  0.1086E+01
      1.272  0.1094E-01  0.1086E+01
      1.326  0.9521E-02  0.1087E+01
      1.380  0.1051E-01  0.1087E+01
      1.434  0.1326E-01  0.1088E+01
      1.488  0.2052E-01  0.1089E+01
      1.542  0.3103E-01  0.1091E+01
      1.596  0.3701E-01  0.1093E+01
      1.650  0.3495E-01  0.1095E+01
      1.704  0.3240E-01  0.1096E+01
      1.758  0.3586E-01  0.1098E+01
      1.812  0.4000E-01  0.1100E+01
      1.866  0.3517E-01  0.1102E+01
      1.920  0.2304E-01  0.1104E+01
      1.974  0.1524E-01  0.1104E+01
      2.028  0.1689E-01  0.1105E+01
      2.082  0.2295E-01  0.1107E+01
      2.136  0.2833E-01  0.1108E+01
      2.190  0.3235E-01  0.1110E+01
      2.244  0.3700E-01  0.1112E+01
      2.298  0.4205E-01  0.1114E+01
      2.352  0.4458E-01  0.1116E+01
      2.406  0.4450E-01  0.1119E+01
      2.460  0.4375E-01  0.1121E+01
      2.514  0.4265E-01  0.1124E+01
      2.568  0.4294E-01  0.1126E+01
      2.622  0.4746E-01  0.1128E+01
      2.676  0.5241E-01  0.1131E+01
      2.730  0.4959E-01  0.1134E+01
      2.784  0.3784E-01  0.1136E+01
      2.838  0.2423E-01  0.1137E+01
      2.892  0.1558E-01  0.1138E+01
      2.946  0.1316E-01  0.1139E+01
      3.000  0.1197E-01  0.1140E+01
      3.054  0.1003E-01  0.1140E+01
      3.108  0.1283E-01  0.1141E+01
      3.162  0.2154E-01  0.1142E+01
      3.216  0.2753E-01  0.1143E+01
      3.270  0.2430E-01  0.1145E+01
      3.324  0.1621E-01  0.1146E+01
      3.378  0.1076E-01  0.1146E+01
      3.432  0.1082E-01  0.1147E+01
      3.486  0.1600E-01  0.1148E+01
      3.540  0.2407E-01  0.1149E+01
      3.594  0.3232E-01  0.1151E+01
      3.648  0.3921E-01  0.1153E+01
      3.702  0.4265E-01  0.1155E+01
      3.756  0.4065E-01  0.1157E+01
      3.810  0.3407E-01  0.1159E+01
      3.864  0.2771E-01  0.1161E+01
      3.918  0.2561E-01  0.1162E+01
      3.972  0.2704E-01  0.1163E+01
      4.026  0.2890E-01  0.1165E+01
      4.080  0.2741E-01  0.1166E+01
      4.134  0.2350E-01  0.1168E+01
      4.188  0.2202E-01  0.1169E+01
      4.242  0.2223E-01  0.1170E+01
      4.296  0.2019E-01  0.1171E+01
      4.350  0.1786E-01  0.1172E+01
      4.404  0.2033E-01  0.1173E+01
      4.458  0.2617E-01  0.1175E+01
      4.512  0.3259E-01  0.1176E+01
      4.566  0.4229E-01  0.1179E+01
      4.620  0.5271E-01  0.1182E+01
      4.674  0.5527E-01  0.1185E+01
      4.728  0.5079E-01  0.1187E+01
      4.782  0.4735E-01  0.1190E+01
      4.836  0.4661E-01  0.1192E+01
      4.890  0.4690E-01  0.1195E+01
      4.944  0.5067E-01  0.1198E+01
      4.998  0.5897E-01  0.1201E+01
      5.052  0.6631E-01  0.1204E+01
      5.106  0.6592E-01  0.1208E+01
      5.160  0.6060E-01  0.1211E+01
      5.214  0.5959E-01  0.1214E+01
      5.268  0.6031E-01  0.1218E+01
      5.322  0.5164E-01  0.1221E+01
      5.376  0.3453E-01  0.1222E+01
      5.430  0.1861E-01  0.1223E+01
      5.484  0.8073E-02  0.1224E+01
      5.538  0.2545E-02  0.1224E+01
      5.592  0.5212E-03  0.1224E+01
      5.646  0.6492E-04  0.1224E+01
      5.700  0.4767E-05  0.1224E+01
      5.754  0.2033E-06  0.1224E+01
      5.808  0.4989E-08  0.1224E+01
      5.862  0.7007E-10  0.1224E+01
      5.916  0.5608E-12  0.1224E+01
      5.970  0.2550E-14  0.1224E+01
      6.024  0.5483E-17  0.1224E+01
      6.078  0.0000E+00  0.1224E+01
      6.132  0.0000E+00  0.1224E+01
      6.186  0.0000E+00  0.1224E+01
      6.240  0.0000E+00  0.1224E+01
      6.294  0.0000E+00  0.1224E+01
      6.348  0.0000E+00  0.1224E+01
      6.402  0.0000E+00  0.1224E+01
