 vasp.5.4.1 24Jun15 (build Mar 14 2019 10:18:33) complex                        
  
 executed on INTEL-19.0.2+OPENMPI date 2022.07.11  20:36:20
 running on   36 total cores
 distrk:  each k-point on   36 cores,    1 groups
 distr:  one band on NCORES_PER_BAND=   6 cores,    6 groups


--------------------------------------------------------------------------------------------------------


 INCAR:
 POTCAR:    PAW_PBE Au 04Oct2007                  
 POTCAR:    PAW_PBE Pd 04Jan2005                  
 POTCAR:    PAW_PBE Au 04Oct2007                  
  local pseudopotential read in
  partial core-charges read in
  partial kinetic energy density read in
  atomic valenz-charges read in
  non local Contribution for L=           2  read in
    real space projection operators read in
  non local Contribution for L=           2  read in
    real space projection operators read in
  non local Contribution for L=           0  read in
    real space projection operators read in
  non local Contribution for L=           0  read in
    real space projection operators read in
  non local Contribution for L=           1  read in
    real space projection operators read in
  non local Contribution for L=           1  read in
    real space projection operators read in
    PAW grid and wavefunctions read in
 
   number of l-projection  operators is LMAX  =           6
   number of lm-projection operators is LMMAX =          18
 
 POTCAR:    PAW_PBE Pd 04Jan2005                  
  local pseudopotential read in
  partial core-charges read in
  partial kinetic energy density read in
  atomic valenz-charges read in
  non local Contribution for L=           2  read in
    real space projection operators read in
  non local Contribution for L=           2  read in
    real space projection operators read in
  non local Contribution for L=           0  read in
    real space projection operators read in
  non local Contribution for L=           0  read in
    real space projection operators read in
  non local Contribution for L=           1  read in
    real space projection operators read in
  non local Contribution for L=           1  read in
    real space projection operators read in
    PAW grid and wavefunctions read in
 
   number of l-projection  operators is LMAX  =           6
   number of lm-projection operators is LMMAX =          18
 
 Optimization of the real space projectors (new method)

 maximal supplied QI-value         = 15.12
 optimisation between [QCUT,QGAM] = [ 10.13, 20.41] = [ 28.73,116.64] Ry 
 Optimized for a Real-space Cutoff    1.51 Angstroem

   l    n(q)    QCUT    max X(q) W(low)/X(q) W(high)/X(q)  e(spline) 
   2      8    10.129    60.898    0.46E-03    0.46E-03    0.14E-06
   2      8    10.129    58.894    0.47E-03    0.47E-03    0.14E-06
   0      9    10.129   109.617    0.16E-03    0.11E-03    0.54E-07
   0      9    10.129    75.026    0.15E-03    0.11E-03    0.52E-07
   1      9    10.129    16.344    0.96E-04    0.15E-03    0.14E-06
   1      9    10.129    10.160    0.81E-04    0.12E-03    0.11E-06
 Optimization of the real space projectors (new method)

 maximal supplied QI-value         = 14.36
 optimisation between [QCUT,QGAM] = [ 10.20, 20.39] = [ 29.12,116.47] Ry 
 Optimized for a Real-space Cutoff    1.51 Angstroem

   l    n(q)    QCUT    max X(q) W(low)/X(q) W(high)/X(q)  e(spline) 
   2      8    10.197    59.108    0.26E-03    0.14E-03    0.96E-07
   2      8    10.197    58.101    0.27E-03    0.14E-03    0.98E-07
   0      9    10.197   102.235    0.54E-04    0.60E-05    0.72E-07
   0      9    10.197    58.388    0.52E-04    0.60E-05    0.68E-07
   1      9    10.197    22.191    0.18E-03    0.25E-03    0.79E-07
   1      9    10.197    15.590    0.15E-03    0.21E-03    0.69E-07
  PAW_PBE Au 04Oct2007                  :
 energy of atom  1       EATOM= -926.0867
 kinetic energy error for atom=    0.0062 (will be added to EATOM!!)
  PAW_PBE Pd 04Jan2005                  :
 energy of atom  2       EATOM= -809.7530
 kinetic energy error for atom=    0.0091 (will be added to EATOM!!)
 
 
 POSCAR: Au Pd                                   
  positions in cartesian coordinates
  No initial velocities read in
 exchange correlation table for  LEXCH =        8
   RHO(1)=    0.500       N(1)  =     2000
   RHO(2)=  100.500       N(2)  =     4000

 VTST: version 3.2, (02/03/18)

 CHAIN: initializing optimizer
 
 OPT: Using VASP Conjugate-Gradient optimizer
 CHAIN: Read ICHAIN            0
 
 POSCAR: Au Pd                                   
  positions in cartesian coordinates
  No initial velocities read in
 


--------------------------------------------------------------------------------------------------------


 ion  position               nearest neighbor table
   1  0.333  0.333  0.408-  47 2.75  11 2.75  38 2.75  41 2.75   5 2.75  44 2.75   3 2.75  34 2.75
                            36 2.75
   2  0.417  0.667  0.500-  11 2.75  29 2.75  32 2.75  20 2.75   7 2.75   6 2.75  47 2.75  22 2.75
                            10 2.75   8 2.75  26 2.75  15 2.75
   3  0.583  0.333  0.408-  20 2.75  11 2.75  14 2.75  15 2.75   5 2.75   1 2.75  27 2.75  25 2.75
                            47 2.75
   4  0.583  0.833  0.408-  35 2.75  15 2.75  21 2.75   5 2.75  38 2.75   8 2.75  30 2.75  22 2.75
                             6 2.75
   5  0.583  0.083  0.408-  25 2.75   3 2.75   4 2.75   1 2.75  30 2.75  14 2.75  38 2.75  35 2.75
                            34 2.75
   6  0.417  0.917  0.500-   8 2.75  26 2.75  37 2.75  24 2.75   2 2.75  34 2.75  22 2.75  35 2.75
                             7 2.75  38 2.75   4 2.75  33 2.75
   7  0.167  0.917  0.500-  18 2.75  32 2.75  45 2.75  24 2.75  10 2.75   2 2.75  46 2.75   6 2.75
                            39 2.75  31 2.75  37 2.75   8 2.75
   8  0.333  0.833  0.408-   6 2.75  11 2.75  15 2.75  31 2.75  38 2.75   4 2.75  18 2.75   2 2.75
                             7 2.75
   9  0.250  0.500  0.592-  10 2.75  47 2.75  13 2.75  16 2.75  32 2.75  12 2.75  19 2.75  29 2.75
                            36 2.75
  10  0.167  0.667  0.500-  41 2.75   9 2.75  16 2.75  36 2.75  39 2.75   7 2.75  47 2.75   2 2.75
                            40 2.75  18 2.75  32 2.75  11 2.75
  11  0.333  0.583  0.408-   2 2.75   1 2.75   3 2.75   8 2.75  18 2.75  15 2.75  41 2.75  47 2.75
                            10 2.75
  12  0.250  0.250  0.592-  36 2.75  34 2.75  33 2.75   9 2.75  19 2.75  37 2.75  13 2.75  42 2.75
                            24 2.75
  13  0.500  0.250  0.592-  47 2.75  25 2.75   9 2.75  29 2.75  33 2.75  17 2.75  28 2.75  12 2.75
                            34 2.75
  14  0.833  0.083  0.408-  46 2.75  18 2.75  27 2.75  30 2.75   3 2.75  31 2.75   5 2.75  39 2.75
                            25 2.75
  15  0.583  0.583  0.408-  22 2.75   4 2.75   8 2.75   3 2.75  27 2.75  11 2.75  21 2.75  20 2.75
                             2 2.75
  16  0.000  0.750  0.592-  39 2.75  10 2.75  17 2.75  19 2.75   9 2.75  45 2.75  32 2.75  48 2.75
                            40 2.75
  17  0.750  0.000  0.592-  25 2.75  39 2.75  13 2.75  28 2.75  16 2.75  48 2.75  45 2.75  33 2.75
                            35 2.75
  18  0.083  0.833  0.408-   7 2.75  11 2.75  14 2.75  31 2.75  41 2.75   8 2.75  30 2.75  10 2.75
                            39 2.75
  19  0.000  0.500  0.592-  40 2.75  36 2.75  12 2.75  16 2.75  42 2.75  48 2.75   9 2.75  23 2.75
                            43 2.75
  20  0.667  0.417  0.500-   3 2.75  28 2.75  29 2.75  25 2.75   2 2.75  22 2.75  46 2.75  43 2.75
                            47 2.75  15 2.75  27 2.75  23 2.75
  21  0.833  0.583  0.408-  40 2.75  27 2.75  30 2.75   4 2.75  44 2.75  41 2.75  15 2.75  43 2.75
                            22 2.75
  22  0.667  0.667  0.500-  15 2.75  23 2.75  26 2.75   6 2.75  20 2.75  35 2.75  43 2.75  40 2.75
                             2 2.75   4 2.75  21 2.75  48 2.75
  23  0.750  0.500  0.592-  22 2.75  43 2.75  28 2.75  42 2.75  26 2.75  48 2.75  29 2.75  19 2.75
                            20 2.75
  24  0.167  0.167  0.500-  31 2.75  37 2.75  42 2.75  36 2.75   7 2.75   6 2.75  43 2.75  34 2.75
                            46 2.75  44 2.75  12 2.75  38 2.75
  25  0.667  0.167  0.500-   5 2.75  17 2.75  13 2.75  20 2.75  35 2.75  39 2.75  47 2.75  46 2.75
                            34 2.75   3 2.75  28 2.75  14 2.75
  26  0.500  0.750  0.592-   6 2.75  22 2.75  23 2.75  29 2.75  33 2.75  37 2.75  32 2.75  48 2.75
                             2 2.75
  27  0.833  0.333  0.408-  43 2.75  15 2.75  21 2.75  31 2.75  14 2.75   3 2.75  44 2.75  46 2.75
                            20 2.75
  28  0.750  0.250  0.592-  20 2.75  46 2.75  23 2.75  29 2.75  45 2.75  17 2.75  13 2.75  42 2.75
                            25 2.75
  29  0.500  0.500  0.592-   2 2.75  20 2.75  13 2.75  26 2.75  28 2.75  32 2.75  23 2.75   9 2.75
                            47 2.75
  30  0.833  0.833  0.408-  39 2.75  14 2.75  21 2.75   5 2.75  41 2.75  18 2.75   4 2.75  40 2.75
                            35 2.75
  31  0.083  0.083  0.408-  24 2.75  18 2.75   8 2.75  27 2.75  44 2.75  38 2.75  14 2.75   7 2.75
                            46 2.75
  32  0.250  0.750  0.592-   7 2.75   2 2.75   9 2.75  29 2.75  37 2.75  45 2.75  26 2.75  16 2.75
                            10 2.75
  33  0.500  0.000  0.592-  34 2.75  35 2.75  26 2.75  12 2.75  13 2.75  48 2.75  37 2.75  17 2.75
                             6 2.75
  34  0.417  0.167  0.500-  38 2.75  33 2.75  12 2.75  35 2.75  36 2.75   6 2.75  47 2.75  25 2.75
                            24 2.75   1 2.75  13 2.75   5 2.75
  35  0.667  0.917  0.500-   4 2.75  48 2.75  33 2.75  22 2.75  34 2.75  40 2.75  25 2.75   6 2.75
                            39 2.75   5 2.75  30 2.75  17 2.75
  36  0.167  0.417  0.500-  44 2.75  12 2.75  19 2.75  24 2.75  34 2.75  40 2.75  10 2.75  43 2.75
                            47 2.75  41 2.75   1 2.75   9 2.75
  37  0.250  0.000  0.592-  24 2.75   6 2.75  12 2.75  26 2.75  32 2.75  42 2.75  33 2.75  45 2.75
                             7 2.75
  38  0.333  0.083  0.408-  34 2.75   4 2.75   8 2.75   1 2.75  44 2.75   5 2.75  31 2.75   6 2.75
                            24 2.75
  39  0.917  0.917  0.500-  30 2.75  16 2.75  17 2.75  25 2.75  10 2.75  40 2.75  46 2.75   7 2.75
                            35 2.75  14 2.75  45 2.75  18 2.75
  40  0.917  0.667  0.500-  21 2.75  19 2.75  48 2.75  36 2.75  39 2.75  43 2.75  35 2.75  22 2.75
                            10 2.75  30 2.75  16 2.75  41 2.75
  41  0.083  0.583  0.408-  10 2.75   1 2.75  18 2.75  30 2.75  44 2.75  11 2.75  21 2.75  36 2.75
                            40 2.75
  42  0.000  0.250  0.592-  43 2.75  24 2.75  19 2.75  37 2.75  23 2.75  45 2.75  28 2.75  12 2.75
                            46 2.75
  43  0.917  0.417  0.500-  27 2.75  42 2.75  23 2.75  22 2.75  40 2.75  24 2.75  46 2.75  36 2.75
                            20 2.75  21 2.75  44 2.75  19 2.75
  44  0.083  0.333  0.408-  36 2.75  31 2.75  21 2.75  38 2.75  41 2.75   1 2.75  27 2.75  24 2.75
                            43 2.75
  45  0.000  0.000  0.592-  46 2.75   7 2.75  28 2.75  32 2.75  42 2.75  16 2.75  17 2.75  37 2.75
                            39 2.75
  46  0.917  0.167  0.500-  14 2.75  45 2.75  28 2.75   7 2.75  39 2.75  43 2.75  20 2.75  24 2.75
                            25 2.75  27 2.75  31 2.75  42 2.75
  47  0.417  0.417  0.500-   1 2.75  13 2.75   9 2.75  10 2.75   2 2.75  25 2.75  34 2.75  20 2.75
                            36 2.75  11 2.75   3 2.75  29 2.75
  48  0.750  0.750  0.592-  35 2.75  40 2.75  23 2.75  33 2.75  17 2.75  19 2.75  26 2.75  16 2.75
                            22 2.75
 
  LATTYP: Found a hexagonal cell.
 ALAT       =    11.0025815153
 C/A-ratio  =     2.2260035120
  
  Lattice vectors:
  
 A1 = (   5.5012907576,  -9.5285150994,   0.0000000000)
 A2 = ( -11.0025815153,   0.0000000000,   0.0000000000)
 A3 = (   0.0000000000,   0.0000000000, -24.4917850943)


Analysis of symmetry for initial positions (statically):
=====================================================================
 Subroutine PRICEL returns:
 Original cell was already a primitive cell.
 

 Routine SETGRP: Setting up the symmetry group for a 
 hexagonal supercell.


 Subroutine GETGRP returns: Found  1 space group operations
 (whereof  1 operations were pure point group operations)
 out of a pool of 24 trial point group operations.


The static configuration has the point symmetry C_1 .


Analysis of symmetry for dynamics (positions and initial velocities):
=====================================================================
 Subroutine PRICEL returns:
 Original cell was already a primitive cell.
 

 Routine SETGRP: Setting up the symmetry group for a 
 hexagonal supercell.


 Subroutine GETGRP returns: Found  1 space group operations
 (whereof  1 operations were pure point group operations)
 out of a pool of 24 trial point group operations.


The dynamic configuration has the point symmetry C_1 .
 
 
 KPOINTS: Automatic mesh                          

Automatic generation of k-mesh.
Space group operators:
 irot       det(A)        alpha          n_x          n_y          n_z        tau_x        tau_y        tau_z
    1     1.000000     0.000000     1.000000     0.000000     0.000000     0.000000     0.000000     0.000000
 
 Subroutine IBZKPT returns following result:
 ===========================================
 
 Found      6 irreducible k-points:
 
 Following reciprocal coordinates:
            Coordinates               Weight
  0.250000  0.250000  0.000000     16.000000
  0.000000  0.250000  0.000000     16.000000
 -0.250000  0.000000  0.000000     16.000000
 -0.250000  0.250000  0.000000     16.000000
  0.500000 -0.250000  0.000000     16.000000
 -0.250000  0.500000  0.000000     16.000000
 
 Following cartesian coordinates:
            Coordinates               Weight
  0.022722  0.013119  0.000000     16.000000
  0.000000  0.026237  0.000000     16.000000
 -0.022722  0.013119  0.000000     16.000000
 -0.022722  0.039356  0.000000     16.000000
  0.045444 -0.052474  0.000000     16.000000
 -0.022722  0.065593  0.000000     16.000000
 


--------------------------------------------------------------------------------------------------------




 Dimension of arrays:
   k-points           NKPTS =      6   k-points in BZ     NKDIM =      6   number of bands    NBANDS=    306
   number of dos      NEDOS =    301   number of ions     NIONS =     48
   non local maximal  LDIM  =      6   non local SUM 2l+1 LMDIM =     18
   total plane-waves  NPLWV = 349920
   max r-space proj   IRMAX =   2009   max aug-charges    IRDMAX=   8532
   dimension x,y,z NGX =    54 NGY =   54 NGZ =  120
   dimension x,y,z NGXF=   108 NGYF=  108 NGZF=  240
   support grid    NGXF=   108 NGYF=  108 NGZF=  240
   ions per type =              24  24
 NGX,Y,Z   is equivalent  to a cutoff of   8.16,  8.16,  8.15 a.u.
 NGXF,Y,Z  is equivalent  to a cutoff of  16.32, 16.32, 16.29 a.u.


 I would recommend the setting:
   dimension x,y,z NGX =    54 NGY =   54 NGZ =  120
 SYSTEM =  unknown system                          
 POSCAR =  Au Pd                                   

 Startparameter for this run:
   NWRITE =      1    write-flag & timer
   PREC   = normal    normal or accurate (medium, high low for compatibility)
   ISTART =      0    job   : 0-new  1-cont  2-samecut
   ICHARG =      2    charge: 1-file 2-atom 10-const
   ISPIN  =      1    spin polarized calculation?
   LNONCOLLINEAR =      F non collinear calculations
   LSORBIT =      F    spin-orbit coupling
   INIWAV =      1    electr: 0-lowe 1-rand  2-diag
   LASPH  =      F    aspherical Exc in radial PAW
   METAGGA=      F    non-selfconsistent MetaGGA calc.

 Electronic Relaxation 1
   ENCUT  =  400.0 eV  29.40 Ry    5.42 a.u.  17.94 17.94 39.94*2*pi/ulx,y,z
   ENINI  =  400.0     initial cutoff
   ENAUG  =  416.2 eV  augmentation charge cutoff
   NELM   =    500;   NELMIN=  2; NELMDL= -5     # of ELM steps 
   EDIFF  = 0.1E-05   stopping-criterion for ELM
   LREAL  =      T    real-space projection
   NLSPLINE    = F    spline interpolate recip. space projectors
   LCOMPAT=      F    compatible to vasp.4.4
   GGA_COMPAT  = T    GGA compatible to vasp.4.4-vasp.4.6
   LMAXPAW     = -100 max onsite density
   LMAXMIX     =    2 max onsite mixed and CHGCAR
   VOSKOWN=      1    Vosko Wilk Nusair interpolation
   ROPT   =   -0.00050  -0.00050
 Ionic relaxation
   EDIFFG = -.2E-01   stopping-criterion for IOM
   NSW    =    500    number of steps for IOM
   NBLOCK =      1;   KBLOCK =    500    inner block; outer block 
   IBRION =      2    ionic relax: 0-MD 1-quasi-New 2-CG
   NFREE  =      2    steps in history (QN), initial steepest desc. (CG)
   ISIF   =      0    stress and relaxation
   IWAVPR =     11    prediction:  0-non 1-charg 2-wave 3-comb
   ISYM   =      2    0-nonsym 1-usesym 2-fastsym
   LCORR  =      T    Harris-Foulkes like correction to forces

   POTIM  = 0.3500    time-step for ionic-motion
   TEIN   =    0.0    initial temperature
   TEBEG  =    0.0;   TEEND  =   0.0 temperature during run
   SMASS  =  -3.00    Nose mass-parameter (am)
   estimated Nose-frequenzy (Omega)   =  0.10E-29 period in steps =****** mass=  -0.277E-26a.u.
   SCALEE = 1.0000    scale energy and forces
   NPACO  =    256;   APACO  = 16.0  distance and # of slots for P.C.
   PSTRESS=    0.0 pullay stress

  Mass of Ions in am
   POMASS = 196.97106.42
  Ionic Valenz
   ZVAL   =  11.00 10.00
  Atomic Wigner-Seitz radii
   RWIGS  =  -1.00 -1.00
  virtual crystal weights 
   VCA    =   1.00  1.00
   NELECT =     504.0000    total number of electrons
   NUPDOWN=      -1.0000    fix difference up-down

 DOS related values:
   EMIN   =  10.00;   EMAX   =-10.00  energy-range for DOS
   EFERMI =   0.00
   ISMEAR =     0;   SIGMA  =   0.10  broadening in eV -4-tet -1-fermi 0-gaus

 Electronic relaxation 2 (details)
   IALGO  =     68    algorithm
   LDIAG  =      T    sub-space diagonalisation (order eigenvalues)
   LSUBROT=      F    optimize rotation matrix (better conditioning)
   TURBO    =      0    0=normal 1=particle mesh
   IRESTART =      0    0=no restart 2=restart with 2 vectors
   NREBOOT  =      0    no. of reboots
   NMIN     =      0    reboot dimension
   EREF     =   0.00    reference energy to select bands
   IMIX   =      4    mixing-type and parameters
     AMIX     =   0.40;   BMIX     =  1.00
     AMIX_MAG =   1.60;   BMIX_MAG =  1.00
     AMIN     =   0.10
     WC   =   100.;   INIMIX=   1;  MIXPRE=   1;  MAXMIX= -45

 Intra band minimization:
   WEIMIN = 0.0010     energy-eigenvalue tresh-hold
   EBREAK =  0.82E-09  absolut break condition
   DEPER  =   0.30     relativ break condition  

   TIME   =   0.40     timestep for ELM

  volume/ion in A,a.u.               =      53.49       360.99
  Fermi-wavevector in a.u.,A,eV,Ry     =   0.951418  1.797920 12.315955  0.905197
  Thomas-Fermi vector in A             =   2.079887
 
 Write flags
   LWAVE  =      F    write WAVECAR
   LCHARG =      F    write CHGCAR
   LVTOT  =      F    write LOCPOT, total local potential
   LVHAR  =      F    write LOCPOT, Hartree potential only
   LELF   =      F    write electronic localiz. function (ELF)
   LORBIT =      0    0 simple, 1 ext, 2 COOP (PROOUT)


 Dipole corrections
   LMONO  =      F    monopole corrections only (constant potential shift)
   LDIPOL =      T    correct potential (dipole corrections)
   IDIPOL =      3    1-x, 2-y, 3-z, 4-all directions 
   EPSILON=  1.0000000 bulk dielectric constant

 Exchange correlation treatment:
   GGA     =    PE    GGA type
   LEXCH   =     8    internal setting for exchange type
   VOSKOWN=      1    Vosko Wilk Nusair interpolation
   LHFCALC =     F    Hartree Fock is set to
   LHFONE  =     F    Hartree Fock one center treatment
   AEXX    =    0.0000 exact exchange contribution

 Linear response parameters
   LEPSILON=     F    determine dielectric tensor
   LRPA    =     F    only Hartree local field effects (RPA)
   LNABLA  =     F    use nabla operator in PAW spheres
   LVEL    =     F    velocity operator in full k-point grid
   LINTERFAST=   F  fast interpolation
   KINTER  =     0    interpolate to denser k-point grid
   CSHIFT  =0.1000    complex shift for real part using Kramers Kronig
   OMEGAMAX=  -1.0    maximum frequency
   DEG_THRESHOLD= 0.2000000E-02 threshold for treating states as degnerate
   RTIME   =    0.100 relaxation time in fs

 Orbital magnetization related:
   ORBITALMAG=     F  switch on orbital magnetization
   LCHIMAG   =     F  perturbation theory with respect to B field
   DQ        =  0.001000  dq finite difference perturbation B field



--------------------------------------------------------------------------------------------------------


 conjugate gradient relaxation of ions
 charge density and potential will be updated during run
 non-spin polarized calculation
 RMM-DIIS sequential band-by-band and
  variant of blocked Davidson during initial phase
 perform sub-space diagonalisation
    before iterative eigenvector-optimisation
 modified Broyden-mixing scheme, WC =      100.0
 initial mixing is a Kerker type mixing with AMIX =  0.4000 and BMIX =      1.0000
 Hartree-type preconditioning will be used
 using additional bands           54
 real space projection scheme for non local part
 use partial core corrections
 calculate Harris-corrections to forces 
   (improved forces if not selfconsistent)
 use gradient corrections 
 use of overlap-Matrix (Vanderbilt PP)
 Gauss-broadening in eV      SIGMA  =   0.10


--------------------------------------------------------------------------------------------------------


  energy-cutoff  :      400.00
  volume of cell :     2567.68
      direct lattice vectors                 reciprocal lattice vectors
    11.002581515  0.000000000  0.000000000     0.090887761 -0.052474073  0.000000000
     5.501290758  9.528515099  0.000000000     0.000000000  0.104948147  0.000000000
     0.000000000  0.000000000 24.491785094     0.000000000  0.000000000  0.040830017

  length of vectors
    11.002581515 11.002581515 24.491785094     0.104948147  0.104948147  0.040830017


 
 k-points in units of 2pi/SCALE and weight: Automatic mesh                          
   0.02272194  0.01311852  0.00000000       0.167
   0.00000000  0.02623704  0.00000000       0.167
  -0.02272194  0.01311852  0.00000000       0.167
  -0.02272194  0.03935555  0.00000000       0.167
   0.04544388 -0.05247407  0.00000000       0.167
  -0.02272194  0.06559259  0.00000000       0.167
 
 k-points in reciprocal lattice and weights: Automatic mesh                          
   0.25000000  0.25000000  0.00000000       0.167
   0.00000000  0.25000000  0.00000000       0.167
  -0.25000000  0.00000000  0.00000000       0.167
  -0.25000000  0.25000000  0.00000000       0.167
   0.50000000 -0.25000000  0.00000000       0.167
  -0.25000000  0.50000000  0.00000000       0.167
 
 position of ions in fractional coordinates (direct lattice) 
   0.33333333  0.33333333  0.40830017
   0.41666667  0.66666667  0.50000000
   0.58333333  0.33333333  0.40830017
   0.58333333  0.83333333  0.40830017
   0.58333333  0.08333333  0.40830017
   0.41666667  0.91666667  0.50000000
   0.16666667  0.91666667  0.50000000
   0.33333333  0.83333333  0.40830017
   0.25000000  0.50000000  0.59169983
   0.16666667  0.66666667  0.50000000
   0.33333333  0.58333333  0.40830017
   0.25000000  0.25000000  0.59169983
   0.50000000  0.25000000  0.59169983
   0.83333333  0.08333333  0.40830017
   0.58333333  0.58333333  0.40830017
   0.00000000  0.75000000  0.59169983
   0.75000000  0.00000000  0.59169983
   0.08333333  0.83333333  0.40830017
   0.00000000  0.50000000  0.59169983
   0.66666667  0.41666667  0.50000000
   0.83333333  0.58333333  0.40830017
   0.66666667  0.66666667  0.50000000
   0.75000000  0.50000000  0.59169983
   0.16666667  0.16666667  0.50000000
   0.66666667  0.16666667  0.50000000
   0.50000000  0.75000000  0.59169983
   0.83333333  0.33333333  0.40830017
   0.75000000  0.25000000  0.59169983
   0.50000000  0.50000000  0.59169983
   0.83333333  0.83333333  0.40830017
   0.08333333  0.08333333  0.40830017
   0.25000000  0.75000000  0.59169983
   0.50000000  0.00000000  0.59169983
   0.41666667  0.16666667  0.50000000
   0.66666667  0.91666667  0.50000000
   0.16666667  0.41666667  0.50000000
   0.25000000  0.00000000  0.59169983
   0.33333333  0.08333333  0.40830017
   0.91666667  0.91666667  0.50000000
   0.91666667  0.66666667  0.50000000
   0.08333333  0.58333333  0.40830017
   0.00000000  0.25000000  0.59169983
   0.91666667  0.41666667  0.50000000
   0.08333333  0.33333333  0.40830017
   0.00000000  0.00000000  0.59169983
   0.91666667  0.16666667  0.50000000
   0.41666667  0.41666667  0.50000000
   0.75000000  0.75000000  0.59169983
 
 position of ions in cartesian coordinates  (Angst):
   5.50129076  3.17617170 10.00000000
   8.25193614  6.35234340 12.24589255
   8.25193614  3.17617170 10.00000000
  11.00258152  7.94042925 10.00000000
   6.87661345  0.79404292 10.00000000
   9.62725883  8.73447217 12.24589255
   6.87661345  8.73447217 12.24589255
   8.25193614  7.94042925 10.00000000
   5.50129076  4.76425755 14.49178509
   5.50129076  6.35234340 12.24589255
   6.87661345  5.55830047 10.00000000
   4.12596807  2.38212877 14.49178509
   6.87661345  2.38212877 14.49178509
   9.62725883  0.79404292 10.00000000
   9.62725883  5.55830047 10.00000000
   4.12596807  7.14638632 14.49178509
   8.25193614  0.00000000 14.49178509
   5.50129076  7.94042925 10.00000000
   2.75064538  4.76425755 14.49178509
   9.62725883  3.97021462 12.24589255
  12.37790420  5.55830047 10.00000000
  11.00258152  6.35234340 12.24589255
  11.00258152  4.76425755 14.49178509
   2.75064538  1.58808585 12.24589255
   8.25193614  1.58808585 12.24589255
   9.62725883  7.14638632 14.49178509
  11.00258152  3.17617170 10.00000000
   9.62725883  2.38212877 14.49178509
   8.25193614  4.76425755 14.49178509
  13.75322689  7.94042925 10.00000000
   1.37532269  0.79404292 10.00000000
   6.87661345  7.14638632 14.49178509
   5.50129076  0.00000000 14.49178509
   5.50129076  1.58808585 12.24589255
  12.37790420  8.73447217 12.24589255
   4.12596807  3.97021462 12.24589255
   2.75064538  0.00000000 14.49178509
   4.12596807  0.79404292 10.00000000
  15.12854958  8.73447217 12.24589255
  13.75322689  6.35234340 12.24589255
   4.12596807  5.55830047 10.00000000
   1.37532269  2.38212877 14.49178509
  12.37790420  3.97021462 12.24589255
   2.75064538  3.17617170 10.00000000
   0.00000000  0.00000000 14.49178509
  11.00258152  1.58808585 12.24589255
   6.87661345  3.97021462 12.24589255
  12.37790420  7.14638632 14.49178509
 


--------------------------------------------------------------------------------------------------------


 k-point  1 :   0.2500 0.2500 0.0000  plane waves:   46635
 k-point  2 :   0.0000 0.2500 0.0000  plane waves:   46635
 k-point  3 :  -0.2500 0.0000 0.0000  plane waves:   46635
 k-point  4 :  -0.2500 0.2500 0.0000  plane waves:   46644
 k-point  5 :   0.5000-0.2500 0.0000  plane waves:   46644
 k-point  6 :  -0.2500 0.5000 0.0000  plane waves:   46644

 maximum and minimum number of plane-waves per node :      7818     7732

 maximum number of plane-waves:     46644
 maximum index in each direction: 
   IXMAX=   18   IYMAX=   18   IZMAX=   39
   IXMIN=  -18   IYMIN=  -18   IZMIN=  -39

 WARNING: aliasing errors must be expected set NGX to  74 to avoid them
 WARNING: aliasing errors must be expected set NGY to  74 to avoid them
 WARNING: aliasing errors must be expected set NGZ to 158 to avoid them
 aliasing errors are usually negligible using standard VASP settings
 and one can safely disregard these warnings

 real space projection operators:
  total allocation   :      12803.06 KBytes
  max/ min on nodes  :       2145.66       2127.94


 parallel 3D FFT for wavefunctions:
    minimum data exchange during FFTs selected (reduces bandwidth)
 parallel 3D FFT for charge:
    minimum data exchange during FFTs selected (reduces bandwidth)


 total amount of memory used by VASP on root node    84353. kBytes
========================================================================

   base      :      30000. kBytes
   nonlr-proj:       4285. kBytes
   fftplans  :       4447. kBytes
   grid      :       6721. kBytes
   one-center:        124. kBytes
   wavefun   :      38776. kBytes
 
     INWAV:  cpu time    0.0000: real time    0.0000
 Broyden mixing: mesh for mixing (old mesh)
   NGX = 35   NGY = 35   NGZ = 79
  (NGX  =108   NGY  =108   NGZ  =240)
  gives a total of  96775 points

 initial charge density was supplied:
 charge density of overlapping atoms calculated
 number of electron     504.0000000 magnetization 
 keeping initial charge density in first step


--------------------------------------------------------------------------------------------------------


 Maximum index for non-local projection operator          355
 Maximum index for augmentation-charges          437 (set IRDMAX)


--------------------------------------------------------------------------------------------------------


 First call to EWALD:  gamma=   0.129
 Maximum number of real-space cells 4x 4x 2
 Maximum number of reciprocal cells 2x 2x 5

 FEWALD executed in parallel
    FEWALD:  cpu time    0.0026: real time    0.0026


----------------------------------------- Iteration    1(   1)  ---------------------------------------


    POTLOK:  cpu time    0.0525: real time    0.0528
    SETDIJ:  cpu time    0.0059: real time    0.0060
     EDDAV:  cpu time    9.2354: real time    9.2871
       DOS:  cpu time    0.0013: real time    0.0013
    --------------------------------------------
      LOOP:  cpu time    9.2991: real time    9.3549

 eigenvalue-minimisations  :  3672
 total energy-change (2. order) : 0.3201230E+04  (-0.1898429E+05)
 number of electron     504.0000000 magnetization 
 augmentation part      504.0000000 magnetization 

 DIPCOR: dipole corrections for dipol
 direction  3 min pos     1,
 dipolmoment           0.000000      0.000000      0.000002 electrons x Angstroem
 Tr[quadrupol]    -10333.647160

 energy correction for charged system         0.000000 eV
 dipol+quadrupol energy correction           -0.000000 eV
 added-field ion interaction          0.000001 eV  (added to PSCEN)


 Free energy of the ion-electron system (eV)
  ---------------------------------------------------
  alpha Z        PSCENC =       805.86936534
  Ewald energy   TEWEN  =    199935.36059865
  -Hartree energ DENC   =   -242348.97610947
  -exchange      EXHF   =         0.00000000
  -V(xc)+E(xc)   XCENC  =      -327.69083045
  PAW double counting   =     40340.05962942   -38292.62782345
  entropy T*S    EENTRO =        -0.12598321
  eigenvalues    EBANDS =      1429.57570429
  atomic energy  EATOM  =     41659.78587232
  Solvation  Ediel_sol  =         0.00000000
  ---------------------------------------------------
  free energy    TOTEN  =      3201.23042344 eV

  energy without entropy =     3201.35640665  energy(sigma->0) =     3201.29341504


--------------------------------------------------------------------------------------------------------




----------------------------------------- Iteration    1(   2)  ---------------------------------------


     EDDAV:  cpu time   10.9453: real time   11.0805
       DOS:  cpu time    0.0013: real time    0.0013
    --------------------------------------------
      LOOP:  cpu time   10.9472: real time   11.0843

 eigenvalue-minimisations  :  4380
 total energy-change (2. order) :-0.3187715E+04  (-0.2928989E+04)
 number of electron     504.0000000 magnetization 
 augmentation part      504.0000000 magnetization 

 DIPCOR: dipole corrections for dipol
 direction  3 min pos     1,
 dipolmoment           0.000000      0.000000      0.000002 electrons x Angstroem
 Tr[quadrupol]    -10333.647160

 energy correction for charged system         0.000000 eV
 dipol+quadrupol energy correction           -0.000000 eV
 added-field ion interaction          0.000001 eV  (added to PSCEN)


 Free energy of the ion-electron system (eV)
  ---------------------------------------------------
  alpha Z        PSCENC =       805.86936534
  Ewald energy   TEWEN  =    199935.36059865
  -Hartree energ DENC   =   -242348.97610947
  -exchange      EXHF   =         0.00000000
  -V(xc)+E(xc)   XCENC  =      -327.69083045
  PAW double counting   =     40340.05962942   -38292.62782345
  entropy T*S    EENTRO =        -0.13916365
  eigenvalues    EBANDS =     -1758.12595096
  atomic energy  EATOM  =     41659.78587232
  Solvation  Ediel_sol  =         0.00000000
  ---------------------------------------------------
  free energy    TOTEN  =        13.51558775 eV

  energy without entropy =       13.65475141  energy(sigma->0) =       13.58516958


--------------------------------------------------------------------------------------------------------




----------------------------------------- Iteration    1(   3)  ---------------------------------------


     EDDAV:  cpu time   10.4797: real time   10.5364
       DOS:  cpu time    0.0015: real time    0.0015
    --------------------------------------------
      LOOP:  cpu time   10.4822: real time   10.5403

 eigenvalue-minimisations  :  4140
 total energy-change (2. order) :-0.2149983E+03  (-0.1998272E+03)
 number of electron     504.0000000 magnetization 
 augmentation part      504.0000000 magnetization 

 DIPCOR: dipole corrections for dipol
 direction  3 min pos     1,
 dipolmoment           0.000000      0.000000      0.000002 electrons x Angstroem
 Tr[quadrupol]    -10333.647160

 energy correction for charged system         0.000000 eV
 dipol+quadrupol energy correction           -0.000000 eV
 added-field ion interaction          0.000001 eV  (added to PSCEN)


 Free energy of the ion-electron system (eV)
  ---------------------------------------------------
  alpha Z        PSCENC =       805.86936534
  Ewald energy   TEWEN  =    199935.36059865
  -Hartree energ DENC   =   -242348.97610947
  -exchange      EXHF   =         0.00000000
  -V(xc)+E(xc)   XCENC  =      -327.69083045
  PAW double counting   =     40340.05962942   -38292.62782345
  entropy T*S    EENTRO =        -0.18575531
  eigenvalues    EBANDS =     -1973.07769566
  atomic energy  EATOM  =     41659.78587232
  Solvation  Ediel_sol  =         0.00000000
  ---------------------------------------------------
  free energy    TOTEN  =      -201.48274861 eV

  energy without entropy =     -201.29699330  energy(sigma->0) =     -201.38987095


--------------------------------------------------------------------------------------------------------




----------------------------------------- Iteration    1(   4)  ---------------------------------------


     EDDAV:  cpu time   10.7240: real time   10.7840
       DOS:  cpu time    0.0015: real time    0.0015
    --------------------------------------------
      LOOP:  cpu time   10.7267: real time   10.7907

 eigenvalue-minimisations  :  4272
 total energy-change (2. order) :-0.5758387E+01  (-0.5699317E+01)
 number of electron     504.0000000 magnetization 
 augmentation part      504.0000000 magnetization 

 DIPCOR: dipole corrections for dipol
 direction  3 min pos     1,
 dipolmoment           0.000000      0.000000      0.000002 electrons x Angstroem
 Tr[quadrupol]    -10333.647160

 energy correction for charged system         0.000000 eV
 dipol+quadrupol energy correction           -0.000000 eV
 added-field ion interaction          0.000001 eV  (added to PSCEN)


 Free energy of the ion-electron system (eV)
  ---------------------------------------------------
  alpha Z        PSCENC =       805.86936534
  Ewald energy   TEWEN  =    199935.36059865
  -Hartree energ DENC   =   -242348.97610947
  -exchange      EXHF   =         0.00000000
  -V(xc)+E(xc)   XCENC  =      -327.69083045
  PAW double counting   =     40340.05962942   -38292.62782345
  entropy T*S    EENTRO =        -0.19316666
  eigenvalues    EBANDS =     -1978.82867119
  atomic energy  EATOM  =     41659.78587232
  Solvation  Ediel_sol  =         0.00000000
  ---------------------------------------------------
  free energy    TOTEN  =      -207.24113550 eV

  energy without entropy =     -207.04796883  energy(sigma->0) =     -207.14455216


--------------------------------------------------------------------------------------------------------




----------------------------------------- Iteration    1(   5)  ---------------------------------------


     EDDAV:  cpu time   10.9764: real time   11.1059
       DOS:  cpu time    0.0015: real time    0.0015
    CHARGE:  cpu time    0.2221: real time    0.2231
    MIXING:  cpu time    0.0023: real time    0.0025
    --------------------------------------------
      LOOP:  cpu time   11.2037: real time   11.3373

 eigenvalue-minimisations  :  4428
 total energy-change (2. order) :-0.1713219E+00  (-0.1707703E+00)
 number of electron     503.9998404 magnetization 
 augmentation part      191.2745098 magnetization 

 DIPCOR: dipole corrections for dipol
 direction  3 min pos     1,
 dipolmoment           0.000000      0.000000      0.000002 electrons x Angstroem
 Tr[quadrupol]    -10333.647160

 energy correction for charged system         0.000000 eV
 dipol+quadrupol energy correction           -0.000000 eV
 added-field ion interaction          0.000001 eV  (added to PSCEN)


 Broyden mixing:
  rms(total) = 0.62275E+01    rms(broyden)= 0.62275E+01
  rms(prec ) = 0.63694E+01
  weight for this iteration     100.00

 Free energy of the ion-electron system (eV)
  ---------------------------------------------------
  alpha Z        PSCENC =       805.86936534
  Ewald energy   TEWEN  =    199935.36059865
  -Hartree energ DENC   =   -242348.97610947
  -exchange      EXHF   =         0.00000000
  -V(xc)+E(xc)   XCENC  =      -327.69083045
  PAW double counting   =     40340.05962942   -38292.62782345
  entropy T*S    EENTRO =        -0.19445579
  eigenvalues    EBANDS =     -1978.99870398
  atomic energy  EATOM  =     41659.78587232
  Solvation  Ediel_sol  =         0.00000000
  ---------------------------------------------------
  free energy    TOTEN  =      -207.41245741 eV

  energy without entropy =     -207.21800162  energy(sigma->0) =     -207.31522952


--------------------------------------------------------------------------------------------------------




----------------------------------------- Iteration    1(   6)  ---------------------------------------


    POTLOK:  cpu time    0.0478: real time    0.0481
    SETDIJ:  cpu time    0.0061: real time    0.0062
    EDDIAG:  cpu time    1.5811: real time    1.5894
  RMM-DIIS:  cpu time    4.7410: real time    4.7741
    ORTHCH:  cpu time    0.3876: real time    0.3905
       DOS:  cpu time    0.0015: real time    0.0015
    CHARGE:  cpu time    0.2328: real time    0.2339
    MIXING:  cpu time    0.0023: real time    0.0024
    --------------------------------------------
      LOOP:  cpu time    7.0009: real time    7.0503

 eigenvalue-minimisations  :  3678
 total energy-change (2. order) : 0.2779003E+01  (-0.1052056E+02)
 number of electron     503.9998436 magnetization 
 augmentation part      191.0151930 magnetization 

 DIPCOR: dipole corrections for dipol
 direction  3 min pos     1,
 dipolmoment           0.000000      0.000000      1.008590 electrons x Angstroem
 Tr[quadrupol]    -10335.729143

 energy correction for charged system         0.000000 eV
 dipol+quadrupol energy correction           -0.035845 eV
 added-field ion interaction          0.478914 eV  (added to PSCEN)


 Broyden mixing:
  rms(total) = 0.56394E+01    rms(broyden)= 0.56393E+01
  rms(prec ) = 0.59373E+01
  weight for this iteration     100.00

 eigenvalues of (default mixing * dielectric matrix)
  average eigenvalue GAMMA=   0.6725
  0.6725

 Free energy of the ion-electron system (eV)
  ---------------------------------------------------
  alpha Z        PSCENC =       806.31243342
  Ewald energy   TEWEN  =    199935.36059865
  -Hartree energ DENC   =   -242120.55189273
  -exchange      EXHF   =         0.00000000
  -V(xc)+E(xc)   XCENC  =      -340.42421230
  PAW double counting   =     43907.07999453   -41919.08729763
  entropy T*S    EENTRO =        -0.25236768
  eigenvalues    EBANDS =     -2132.85658318
  atomic energy  EATOM  =     41659.78587232
  Solvation  Ediel_sol  =         0.00000000
  ---------------------------------------------------
  free energy    TOTEN  =      -204.63345462 eV

  energy without entropy =     -204.38108694  energy(sigma->0) =     -204.50727078


--------------------------------------------------------------------------------------------------------




----------------------------------------- Iteration    1(   7)  ---------------------------------------


    POTLOK:  cpu time    0.0476: real time    0.0480
    SETDIJ:  cpu time    0.0054: real time    0.0056
    EDDIAG:  cpu time    1.5512: real time    1.5587
  RMM-DIIS:  cpu time    4.7601: real time    4.7874
    ORTHCH:  cpu time    0.3887: real time    0.3905
       DOS:  cpu time    0.0015: real time    0.0015
    CHARGE:  cpu time    0.2309: real time    0.2320
    MIXING:  cpu time    0.0024: real time    0.0024
    --------------------------------------------
      LOOP:  cpu time    6.9885: real time    7.0297

 eigenvalue-minimisations  :  3678
 total energy-change (2. order) :-0.7549421E+01  (-0.5482223E+01)
 number of electron     503.9998371 magnetization 
 augmentation part      194.8165421 magnetization 

 DIPCOR: dipole corrections for dipol
 direction  3 min pos     1,
 dipolmoment           0.000000      0.000000     -1.250985 electrons x Angstroem
 Tr[quadrupol]    -10333.916453

 energy correction for charged system         0.000000 eV
 dipol+quadrupol energy correction           -0.055145 eV
 added-field ion interaction         -0.594012 eV  (added to PSCEN)


 Broyden mixing:
  rms(total) = 0.49426E+01    rms(broyden)= 0.49423E+01
  rms(prec ) = 0.58594E+01
  weight for this iteration     100.00

 eigenvalues of (default mixing * dielectric matrix)
  average eigenvalue GAMMA=   0.7903
  1.2413  0.3392

 Free energy of the ion-electron system (eV)
  ---------------------------------------------------
  alpha Z        PSCENC =       805.22020696
  Ewald energy   TEWEN  =    199935.36059865
  -Hartree energ DENC   =   -241957.17547333
  -exchange      EXHF   =         0.00000000
  -V(xc)+E(xc)   XCENC  =      -342.63771886
  PAW double counting   =     45185.34949722   -43221.89039681
  entropy T*S    EENTRO =        -0.22769436
  eigenvalues    EBANDS =     -2275.96776786
  atomic energy  EATOM  =     41659.78587232
  Solvation  Ediel_sol  =         0.00000000
  ---------------------------------------------------
  free energy    TOTEN  =      -212.18287607 eV

  energy without entropy =     -211.95518171  energy(sigma->0) =     -212.06902889


--------------------------------------------------------------------------------------------------------




----------------------------------------- Iteration    1(   8)  ---------------------------------------


    POTLOK:  cpu time    0.0473: real time    0.0478
    SETDIJ:  cpu time    0.0054: real time    0.0060
    EDDIAG:  cpu time    1.5929: real time    1.6045
  RMM-DIIS:  cpu time    4.6941: real time    4.7172
    ORTHCH:  cpu time    0.3876: real time    0.3893
       DOS:  cpu time    0.0014: real time    0.0014
    CHARGE:  cpu time    0.2332: real time    0.2342
    MIXING:  cpu time    0.0024: real time    0.0024
    --------------------------------------------
      LOOP:  cpu time    6.9650: real time    7.0060

 eigenvalue-minimisations  :  3678
 total energy-change (2. order) :-0.8795847E+01  (-0.9317574E+01)
 number of electron     503.9998357 magnetization 
 augmentation part      196.3685027 magnetization 

 DIPCOR: dipole corrections for dipol
 direction  3 min pos     1,
 dipolmoment           0.000000      0.000000      1.706175 electrons x Angstroem
 Tr[quadrupol]    -10334.981906

 energy correction for charged system         0.000000 eV
 dipol+quadrupol energy correction           -0.102577 eV
 added-field ion interaction          0.810153 eV  (added to PSCEN)


 Broyden mixing:
  rms(total) = 0.43632E+01    rms(broyden)= 0.43629E+01
  rms(prec ) = 0.52064E+01
  weight for this iteration     100.00

 eigenvalues of (default mixing * dielectric matrix)
  average eigenvalue GAMMA=   0.8878
  1.9841  0.4587  0.2205

 Free energy of the ion-electron system (eV)
  ---------------------------------------------------
  alpha Z        PSCENC =       806.57693987
  Ewald energy   TEWEN  =    199935.36059865
  -Hartree energ DENC   =   -241925.47677576
  -exchange      EXHF   =         0.00000000
  -V(xc)+E(xc)   XCENC  =      -344.57103540
  PAW double counting   =     46548.85363728   -44608.21844208
  entropy T*S    EENTRO =        -0.28789379
  eigenvalues    EBANDS =     -2293.00162403
  atomic energy  EATOM  =     41659.78587232
  Solvation  Ediel_sol  =         0.00000000
  ---------------------------------------------------
  free energy    TOTEN  =      -220.97872294 eV

  energy without entropy =     -220.69082915  energy(sigma->0) =     -220.83477604


--------------------------------------------------------------------------------------------------------




----------------------------------------- Iteration    1(   9)  ---------------------------------------


    POTLOK:  cpu time    0.0461: real time    0.0463
    SETDIJ:  cpu time    0.0055: real time    0.0055
    EDDIAG:  cpu time    1.5809: real time    1.5885
  RMM-DIIS:  cpu time    4.6671: real time    4.6925
    ORTHCH:  cpu time    0.3857: real time    0.3874
       DOS:  cpu time    0.0014: real time    0.0014
    CHARGE:  cpu time    0.2415: real time    0.2425
    MIXING:  cpu time    0.0025: real time    0.0026
    --------------------------------------------
      LOOP:  cpu time    6.9314: real time    6.9706

 eigenvalue-minimisations  :  3678
 total energy-change (2. order) :-0.9150904E+00  (-0.5155359E+01)
 number of electron     503.9998343 magnetization 
 augmentation part      197.4360792 magnetization 

 DIPCOR: dipole corrections for dipol
 direction  3 min pos     1,
 dipolmoment           0.000000      0.000000     -0.222307 electrons x Angstroem
 Tr[quadrupol]    -10336.728829

 energy correction for charged system         0.000000 eV
 dipol+quadrupol energy correction           -0.001741 eV
 added-field ion interaction         -0.105559 eV  (added to PSCEN)


 Broyden mixing:
  rms(total) = 0.42654E+01    rms(broyden)= 0.42652E+01
  rms(prec ) = 0.47427E+01
  weight for this iteration     100.00

 eigenvalues of (default mixing * dielectric matrix)
  average eigenvalue GAMMA=   0.7948
  2.2016  0.4511  0.2632  0.2632

 Free energy of the ion-electron system (eV)
  ---------------------------------------------------
  alpha Z        PSCENC =       805.76206340
  Ewald energy   TEWEN  =    199935.36059865
  -Hartree energ DENC   =   -241939.23738886
  -exchange      EXHF   =         0.00000000
  -V(xc)+E(xc)   XCENC  =      -346.58309474
  PAW double counting   =     48304.35236969   -46390.43332632
  entropy T*S    EENTRO =        -0.21188152
  eigenvalues    EBANDS =     -2250.68902595
  atomic energy  EATOM  =     41659.78587232
  Solvation  Ediel_sol  =         0.00000000
  ---------------------------------------------------
  free energy    TOTEN  =      -221.89381334 eV

  energy without entropy =     -221.68193181  energy(sigma->0) =     -221.78787258


--------------------------------------------------------------------------------------------------------




----------------------------------------- Iteration    1(  10)  ---------------------------------------


    POTLOK:  cpu time    0.0466: real time    0.0471
    SETDIJ:  cpu time    0.0056: real time    0.0063
    EDDIAG:  cpu time    1.5645: real time    1.5810
  RMM-DIIS:  cpu time    4.7055: real time    4.7301
    ORTHCH:  cpu time    0.3791: real time    0.3808
       DOS:  cpu time    0.0015: real time    0.0015
    CHARGE:  cpu time    0.2301: real time    0.2311
    MIXING:  cpu time    0.0028: real time    0.0028
    --------------------------------------------
      LOOP:  cpu time    6.9365: real time    6.9852

 eigenvalue-minimisations  :  3681
 total energy-change (2. order) : 0.1820976E+02  (-0.2043584E+01)
 number of electron     503.9998337 magnetization 
 augmentation part      199.0949013 magnetization 

 DIPCOR: dipole corrections for dipol
 direction  3 min pos     1,
 dipolmoment           0.000000      0.000000      0.532806 electrons x Angstroem
 Tr[quadrupol]    -10335.165826

 energy correction for charged system         0.000000 eV
 dipol+quadrupol energy correction           -0.010003 eV
 added-field ion interaction          0.252995 eV  (added to PSCEN)


 Broyden mixing:
  rms(total) = 0.24704E+01    rms(broyden)= 0.24702E+01
  rms(prec ) = 0.28642E+01
  weight for this iteration     100.00

 eigenvalues of (default mixing * dielectric matrix)
  average eigenvalue GAMMA=   0.7469
  2.2532  0.4681  0.4681  0.3232  0.2218

 Free energy of the ion-electron system (eV)
  ---------------------------------------------------
  alpha Z        PSCENC =       806.11235620
  Ewald energy   TEWEN  =    199935.36059865
  -Hartree energ DENC   =   -241884.22475883
  -exchange      EXHF   =         0.00000000
  -V(xc)+E(xc)   XCENC  =      -346.65525768
  PAW double counting   =     48927.81224466   -47022.15293129
  entropy T*S    EENTRO =        -0.18195406
  eigenvalues    EBANDS =     -2279.54022135
  atomic energy  EATOM  =     41659.78587232
  Solvation  Ediel_sol  =         0.00000000
  ---------------------------------------------------
  free energy    TOTEN  =      -203.68405139 eV

  energy without entropy =     -203.50209733  energy(sigma->0) =     -203.59307436


--------------------------------------------------------------------------------------------------------




----------------------------------------- Iteration    1(  11)  ---------------------------------------


    POTLOK:  cpu time    0.0465: real time    0.0476
    SETDIJ:  cpu time    0.0062: real time    0.0062
    EDDIAG:  cpu time    1.5402: real time    1.5487
  RMM-DIIS:  cpu time    4.6028: real time    4.7325
    ORTHCH:  cpu time    0.3774: real time    0.3802
       DOS:  cpu time    0.0015: real time    0.0015
    CHARGE:  cpu time    0.2279: real time    0.2291
    MIXING:  cpu time    0.0027: real time    0.0027
    --------------------------------------------
      LOOP:  cpu time    6.8059: real time    6.9522

 eigenvalue-minimisations  :  3681
 total energy-change (2. order) : 0.8058286E+01  (-0.1537857E+01)
 number of electron     503.9998342 magnetization 
 augmentation part      198.9689092 magnetization 

 DIPCOR: dipole corrections for dipol
 direction  3 min pos     1,
 dipolmoment           0.000000      0.000000      0.255635 electrons x Angstroem
 Tr[quadrupol]    -10335.974156

 energy correction for charged system         0.000000 eV
 dipol+quadrupol energy correction           -0.002303 eV
 added-field ion interaction          0.121384 eV  (added to PSCEN)


 Broyden mixing:
  rms(total) = 0.16424E+01    rms(broyden)= 0.16421E+01
  rms(prec ) = 0.18919E+01
  weight for this iteration     100.00

 eigenvalues of (default mixing * dielectric matrix)
  average eigenvalue GAMMA=   0.7144
  2.2009  0.6315  0.6315  0.3222  0.2502  0.2502

 Free energy of the ion-electron system (eV)
  ---------------------------------------------------
  alpha Z        PSCENC =       805.98844599
  Ewald energy   TEWEN  =    199935.36059865
  -Hartree energ DENC   =   -241933.34486679
  -exchange      EXHF   =         0.00000000
  -V(xc)+E(xc)   XCENC  =      -346.21298184
  PAW double counting   =     49104.87102573   -47198.07168653
  entropy T*S    EENTRO =        -0.18585253
  eigenvalues    EBANDS =     -2223.81632069
  atomic energy  EATOM  =     41659.78587232
  Solvation  Ediel_sol  =         0.00000000
  ---------------------------------------------------
  free energy    TOTEN  =      -195.62576569 eV

  energy without entropy =     -195.43991316  energy(sigma->0) =     -195.53283943


--------------------------------------------------------------------------------------------------------




----------------------------------------- Iteration    1(  12)  ---------------------------------------


    POTLOK:  cpu time    0.0490: real time    0.0493
    SETDIJ:  cpu time    0.0055: real time    0.0055
    EDDIAG:  cpu time    1.5816: real time    1.5900
  RMM-DIIS:  cpu time    4.7349: real time    4.7737
    ORTHCH:  cpu time    0.3781: real time    0.3807
       DOS:  cpu time    0.0015: real time    0.0015
    CHARGE:  cpu time    0.2315: real time    0.2325
    MIXING:  cpu time    0.0029: real time    0.0029
    --------------------------------------------
      LOOP:  cpu time    6.9858: real time    7.0411

 eigenvalue-minimisations  :  3678
 total energy-change (2. order) : 0.4937852E+01  (-0.7677459E+00)
 number of electron     503.9998355 magnetization 
 augmentation part      197.7596860 magnetization 

 DIPCOR: dipole corrections for dipol
 direction  3 min pos     1,
 dipolmoment           0.000000      0.000000      0.285470 electrons x Angstroem
 Tr[quadrupol]    -10336.055436

 energy correction for charged system         0.000000 eV
 dipol+quadrupol energy correction           -0.002872 eV
 added-field ion interaction          0.135551 eV  (added to PSCEN)


 Broyden mixing:
  rms(total) = 0.12490E+01    rms(broyden)= 0.12489E+01
  rms(prec ) = 0.14515E+01
  weight for this iteration     100.00

 eigenvalues of (default mixing * dielectric matrix)
  average eigenvalue GAMMA=   0.6675
  2.2508  0.5594  0.5594  0.4746  0.3045  0.3045  0.2191

 Free energy of the ion-electron system (eV)
  ---------------------------------------------------
  alpha Z        PSCENC =       806.00204388
  Ewald energy   TEWEN  =    199935.36059865
  -Hartree energ DENC   =   -241977.80760470
  -exchange      EXHF   =         0.00000000
  -V(xc)+E(xc)   XCENC  =      -345.08219977
  PAW double counting   =     49170.73928488   -47258.69993983
  entropy T*S    EENTRO =        -0.19042940
  eigenvalues    EBANDS =     -2180.79553993
  atomic energy  EATOM  =     41659.78587232
  Solvation  Ediel_sol  =         0.00000000
  ---------------------------------------------------
  free energy    TOTEN  =      -190.68791391 eV

  energy without entropy =     -190.49748451  energy(sigma->0) =     -190.59269921


--------------------------------------------------------------------------------------------------------




----------------------------------------- Iteration    1(  13)  ---------------------------------------


    POTLOK:  cpu time    0.0463: real time    0.0472
    SETDIJ:  cpu time    0.0055: real time    0.0055
    EDDIAG:  cpu time    1.5700: real time    1.5775
  RMM-DIIS:  cpu time    4.7333: real time    4.7598
    ORTHCH:  cpu time    0.3779: real time    0.3796
       DOS:  cpu time    0.0015: real time    0.0015
    CHARGE:  cpu time    0.2287: real time    0.2298
    MIXING:  cpu time    0.0029: real time    0.0029
    --------------------------------------------
      LOOP:  cpu time    6.9668: real time    7.0077

 eigenvalue-minimisations  :  3678
 total energy-change (2. order) : 0.6237215E+00  (-0.2520892E+00)
 number of electron     503.9998357 magnetization 
 augmentation part      197.6562023 magnetization 

 DIPCOR: dipole corrections for dipol
 direction  3 min pos     1,
 dipolmoment           0.000000      0.000000      0.198872 electrons x Angstroem
 Tr[quadrupol]    -10336.510750

 energy correction for charged system         0.000000 eV
 dipol+quadrupol energy correction           -0.001394 eV
 added-field ion interaction          0.094431 eV  (added to PSCEN)


 Broyden mixing:
  rms(total) = 0.89044E+00    rms(broyden)= 0.89029E+00
  rms(prec ) = 0.10334E+01
  weight for this iteration     100.00

 eigenvalues of (default mixing * dielectric matrix)
  average eigenvalue GAMMA=   0.6782
  2.2662  0.7204  0.7204  0.6820  0.2949  0.2949  0.2234  0.2234

 Free energy of the ion-electron system (eV)
  ---------------------------------------------------
  alpha Z        PSCENC =       805.96240205
  Ewald energy   TEWEN  =    199935.36059865
  -Hartree energ DENC   =   -241996.72752907
  -exchange      EXHF   =         0.00000000
  -V(xc)+E(xc)   XCENC  =      -344.97288215
  PAW double counting   =     49237.95659723   -47325.58406799
  entropy T*S    EENTRO =        -0.22668865
  eigenvalues    EBANDS =     -2161.61849484
  atomic energy  EATOM  =     41659.78587232
  Solvation  Ediel_sol  =         0.00000000
  ---------------------------------------------------
  free energy    TOTEN  =      -190.06419245 eV

  energy without entropy =     -189.83750380  energy(sigma->0) =     -189.95084813


--------------------------------------------------------------------------------------------------------




----------------------------------------- Iteration    1(  14)  ---------------------------------------


    POTLOK:  cpu time    0.0471: real time    0.0473
    SETDIJ:  cpu time    0.0053: real time    0.0054
    EDDIAG:  cpu time    1.5616: real time    1.5692
  RMM-DIIS:  cpu time    4.7089: real time    4.7320
    ORTHCH:  cpu time    0.3779: real time    0.3797
       DOS:  cpu time    0.0016: real time    0.0016
    CHARGE:  cpu time    0.2306: real time    0.2317
    MIXING:  cpu time    0.0031: real time    0.0032
    --------------------------------------------
      LOOP:  cpu time    6.9369: real time    6.9741

 eigenvalue-minimisations  :  3679
 total energy-change (2. order) : 0.2551431E+00  (-0.1139028E+00)
 number of electron     503.9998358 magnetization 
 augmentation part      197.6674516 magnetization 

 DIPCOR: dipole corrections for dipol
 direction  3 min pos     1,
 dipolmoment           0.000000      0.000000      0.114814 electrons x Angstroem
 Tr[quadrupol]    -10336.670869

 energy correction for charged system         0.000000 eV
 dipol+quadrupol energy correction           -0.000465 eV
 added-field ion interaction          0.054518 eV  (added to PSCEN)


 Broyden mixing:
  rms(total) = 0.74833E+00    rms(broyden)= 0.74820E+00
  rms(prec ) = 0.83746E+00
  weight for this iteration     100.00

 eigenvalues of (default mixing * dielectric matrix)
  average eigenvalue GAMMA=   0.6584
  2.2506  0.8362  0.8362  0.6864  0.3114  0.3114  0.2420  0.2420  0.2092

 Free energy of the ion-electron system (eV)
  ---------------------------------------------------
  alpha Z        PSCENC =       805.92341776
  Ewald energy   TEWEN  =    199935.36059865
  -Hartree energ DENC   =   -242008.96497651
  -exchange      EXHF   =         0.00000000
  -V(xc)+E(xc)   XCENC  =      -344.74014039
  PAW double counting   =     49273.52001102   -47359.89564816
  entropy T*S    EENTRO =        -0.22360275
  eigenvalues    EBANDS =     -2150.57458128
  atomic energy  EATOM  =     41659.78587232
  Solvation  Ediel_sol  =         0.00000000
  ---------------------------------------------------
  free energy    TOTEN  =      -189.80904935 eV

  energy without entropy =     -189.58544660  energy(sigma->0) =     -189.69724798


--------------------------------------------------------------------------------------------------------




----------------------------------------- Iteration    1(  15)  ---------------------------------------


    POTLOK:  cpu time    0.0464: real time    0.0466
    SETDIJ:  cpu time    0.0054: real time    0.0054
    EDDIAG:  cpu time    1.5370: real time    1.5446
  RMM-DIIS:  cpu time    4.7398: real time    4.7631
    ORTHCH:  cpu time    0.3791: real time    0.3808
       DOS:  cpu time    0.0015: real time    0.0015
    CHARGE:  cpu time    0.2284: real time    0.2295
    MIXING:  cpu time    0.0033: real time    0.0033
    --------------------------------------------
      LOOP:  cpu time    6.9416: real time    6.9784

 eigenvalue-minimisations  :  3678
 total energy-change (2. order) : 0.2685004E+00  (-0.3387363E-01)
 number of electron     503.9998357 magnetization 
 augmentation part      197.6105396 magnetization 

 DIPCOR: dipole corrections for dipol
 direction  3 min pos     1,
 dipolmoment           0.000000      0.000000      0.067922 electrons x Angstroem
 Tr[quadrupol]    -10336.796473

 energy correction for charged system         0.000000 eV
 dipol+quadrupol energy correction           -0.000163 eV
 added-field ion interaction          0.032252 eV  (added to PSCEN)


 Broyden mixing:
  rms(total) = 0.62306E+00    rms(broyden)= 0.62301E+00
  rms(prec ) = 0.69460E+00
  weight for this iteration     100.00

 eigenvalues of (default mixing * dielectric matrix)
  average eigenvalue GAMMA=   0.6922
  2.2043  1.1407  1.1407  0.5983  0.4310  0.4310  0.2676  0.2676  0.2281  0.2125

 Free energy of the ion-electron system (eV)
  ---------------------------------------------------
  alpha Z        PSCENC =       805.90145349
  Ewald energy   TEWEN  =    199935.36059865
  -Hartree energ DENC   =   -242018.35768492
  -exchange      EXHF   =         0.00000000
  -V(xc)+E(xc)   XCENC  =      -344.56395249
  PAW double counting   =     49274.59032569   -47359.67913899
  entropy T*S    EENTRO =        -0.24450008
  eigenvalues    EBANDS =     -2142.33352259
  atomic energy  EATOM  =     41659.78587232
  Solvation  Ediel_sol  =         0.00000000
  ---------------------------------------------------
  free energy    TOTEN  =      -189.54054893 eV

  energy without entropy =     -189.29604885  energy(sigma->0) =     -189.41829889


--------------------------------------------------------------------------------------------------------




----------------------------------------- Iteration    1(  16)  ---------------------------------------


    POTLOK:  cpu time    0.0465: real time    0.0467
    SETDIJ:  cpu time    0.0055: real time    0.0056
    EDDIAG:  cpu time    1.5922: real time    1.6009
  RMM-DIIS:  cpu time    4.6994: real time    4.7243
    ORTHCH:  cpu time    0.3764: real time    0.3790
       DOS:  cpu time    0.0015: real time    0.0016
    CHARGE:  cpu time    0.2303: real time    0.2313
    MIXING:  cpu time    0.0036: real time    0.0036
    --------------------------------------------
      LOOP:  cpu time    6.9561: real time    6.9969

 eigenvalue-minimisations  :  3678
 total energy-change (2. order) : 0.1815291E+00  (-0.3384546E-01)
 number of electron     503.9998359 magnetization 
 augmentation part      197.3933771 magnetization 

 DIPCOR: dipole corrections for dipol
 direction  3 min pos     1,
 dipolmoment           0.000000      0.000000      0.049874 electrons x Angstroem
 Tr[quadrupol]    -10337.129240

 energy correction for charged system         0.000000 eV
 dipol+quadrupol energy correction           -0.000088 eV
 added-field ion interaction          0.023682 eV  (added to PSCEN)


 Broyden mixing:
  rms(total) = 0.53996E+00    rms(broyden)= 0.53991E+00
  rms(prec ) = 0.61592E+00
  weight for this iteration     100.00

 eigenvalues of (default mixing * dielectric matrix)
  average eigenvalue GAMMA=   0.7095
  2.1741  1.4032  1.4032  0.5568  0.5045  0.5045  0.2947  0.2947  0.2344  0.2344
  0.1998

 Free energy of the ion-electron system (eV)
  ---------------------------------------------------
  alpha Z        PSCENC =       805.89295876
  Ewald energy   TEWEN  =    199935.36059865
  -Hartree energ DENC   =   -242038.72165473
  -exchange      EXHF   =         0.00000000
  -V(xc)+E(xc)   XCENC  =      -344.26161835
  PAW double counting   =     49272.87443405   -47355.47411709
  entropy T*S    EENTRO =        -0.24228649
  eigenvalues    EBANDS =     -2124.57320696
  atomic energy  EATOM  =     41659.78587232
  Solvation  Ediel_sol  =         0.00000000
  ---------------------------------------------------
  free energy    TOTEN  =      -189.35901985 eV

  energy without entropy =     -189.11673336  energy(sigma->0) =     -189.23787661


--------------------------------------------------------------------------------------------------------




----------------------------------------- Iteration    1(  17)  ---------------------------------------


    POTLOK:  cpu time    0.0476: real time    0.0479
    SETDIJ:  cpu time    0.0056: real time    0.0058
    EDDIAG:  cpu time    1.5263: real time    1.6101
  RMM-DIIS:  cpu time    4.7072: real time    4.7302
    ORTHCH:  cpu time    0.3767: real time    0.3787
       DOS:  cpu time    0.0015: real time    0.0015
    CHARGE:  cpu time    0.2285: real time    0.2295
    MIXING:  cpu time    0.0037: real time    0.0037
    --------------------------------------------
      LOOP:  cpu time    6.8979: real time    7.0108

 eigenvalue-minimisations  :  3678
 total energy-change (2. order) : 0.2687089E+00  (-0.2688543E-01)
 number of electron     503.9998361 magnetization 
 augmentation part      197.2660171 magnetization 

 DIPCOR: dipole corrections for dipol
 direction  3 min pos     1,
 dipolmoment           0.000000      0.000000      0.035971 electrons x Angstroem
 Tr[quadrupol]    -10337.534659

 energy correction for charged system         0.000000 eV
 dipol+quadrupol energy correction           -0.000046 eV
 added-field ion interaction          0.017080 eV  (added to PSCEN)


 Broyden mixing:
  rms(total) = 0.31007E+00    rms(broyden)= 0.31002E+00
  rms(prec ) = 0.35475E+00
  weight for this iteration     100.00

 eigenvalues of (default mixing * dielectric matrix)
  average eigenvalue GAMMA=   0.7189
  2.1394  1.5411  1.5411  0.6479  0.5753  0.5753  0.3248  0.3248  0.2652  0.2652
  0.2277  0.1991

 Free energy of the ion-electron system (eV)
  ---------------------------------------------------
  alpha Z        PSCENC =       805.88639907
  Ewald energy   TEWEN  =    199935.36059865
  -Hartree energ DENC   =   -242060.11941712
  -exchange      EXHF   =         0.00000000
  -V(xc)+E(xc)   XCENC  =      -344.01166681
  PAW double counting   =     49285.38388361   -47365.92699392
  entropy T*S    EENTRO =        -0.24113772
  eigenvalues    EBANDS =     -2105.20784907
  atomic energy  EATOM  =     41659.78587232
  Solvation  Ediel_sol  =         0.00000000
  ---------------------------------------------------
  free energy    TOTEN  =      -189.09031100 eV

  energy without entropy =     -188.84917328  energy(sigma->0) =     -188.96974214


--------------------------------------------------------------------------------------------------------




----------------------------------------- Iteration    1(  18)  ---------------------------------------


    POTLOK:  cpu time    0.0471: real time    0.0474
    SETDIJ:  cpu time    0.0057: real time    0.0057
    EDDIAG:  cpu time    1.5588: real time    1.5700
  RMM-DIIS:  cpu time    4.6540: real time    4.6775
    ORTHCH:  cpu time    0.3772: real time    0.3790
       DOS:  cpu time    0.0016: real time    0.0016
    CHARGE:  cpu time    0.2282: real time    0.2292
    MIXING:  cpu time    0.0039: real time    0.0039
    --------------------------------------------
      LOOP:  cpu time    6.8773: real time    6.9183

 eigenvalue-minimisations  :  3678
 total energy-change (2. order) : 0.1043728E+00  (-0.1464936E-01)
 number of electron     503.9998362 magnetization 
 augmentation part      197.1372951 magnetization 

 DIPCOR: dipole corrections for dipol
 direction  3 min pos     1,
 dipolmoment           0.000000      0.000000      0.062752 electrons x Angstroem
 Tr[quadrupol]    -10337.724451

 energy correction for charged system         0.000000 eV
 dipol+quadrupol energy correction           -0.000139 eV
 added-field ion interaction          0.029797 eV  (added to PSCEN)


 Broyden mixing:
  rms(total) = 0.20186E+00    rms(broyden)= 0.20180E+00
  rms(prec ) = 0.23110E+00
  weight for this iteration     100.00

 eigenvalues of (default mixing * dielectric matrix)
  average eigenvalue GAMMA=   0.7207
  2.2719  1.5675  1.5675  0.7257  0.6452  0.6452  0.3535  0.3535  0.2814  0.2814
  0.2395  0.2395  0.1967

 Free energy of the ion-electron system (eV)
  ---------------------------------------------------
  alpha Z        PSCENC =       805.89902220
  Ewald energy   TEWEN  =    199935.36059865
  -Hartree energ DENC   =   -242072.41300208
  -exchange      EXHF   =         0.00000000
  -V(xc)+E(xc)   XCENC  =      -343.80496192
  PAW double counting   =     49301.05349607   -47380.24525878
  entropy T*S    EENTRO =        -0.24046897
  eigenvalues    EBANDS =     -2094.38123565
  atomic energy  EATOM  =     41659.78587232
  Solvation  Ediel_sol  =         0.00000000
  ---------------------------------------------------
  free energy    TOTEN  =      -188.98593816 eV

  energy without entropy =     -188.74546919  energy(sigma->0) =     -188.86570367


--------------------------------------------------------------------------------------------------------




----------------------------------------- Iteration    1(  19)  ---------------------------------------


    POTLOK:  cpu time    0.0472: real time    0.0476
    SETDIJ:  cpu time    0.0055: real time    0.0056
    EDDIAG:  cpu time    1.5339: real time    1.5419
  RMM-DIIS:  cpu time    4.6966: real time    4.7200
    ORTHCH:  cpu time    0.3761: real time    0.3779
       DOS:  cpu time    0.0016: real time    0.0016
    CHARGE:  cpu time    0.2275: real time    0.2285
    MIXING:  cpu time    0.0039: real time    0.0039
    --------------------------------------------
      LOOP:  cpu time    6.8932: real time    6.9297

 eigenvalue-minimisations  :  3680
 total energy-change (2. order) : 0.3361293E-01  (-0.4966500E-02)
 number of electron     503.9998363 magnetization 
 augmentation part      197.1229600 magnetization 

 DIPCOR: dipole corrections for dipol
 direction  3 min pos     1,
 dipolmoment           0.000000      0.000000      0.061203 electrons x Angstroem
 Tr[quadrupol]    -10337.910563

 energy correction for charged system         0.000000 eV
 dipol+quadrupol energy correction           -0.000132 eV
 added-field ion interaction          0.029062 eV  (added to PSCEN)


 Broyden mixing:
  rms(total) = 0.11372E+00    rms(broyden)= 0.11368E+00
  rms(prec ) = 0.12924E+00
  weight for this iteration     100.00

 eigenvalues of (default mixing * dielectric matrix)
  average eigenvalue GAMMA=   0.7131
  2.2901  1.5751  1.5751  0.7287  0.7287  0.6473  0.4547  0.4547  0.2992  0.2992
  0.2503  0.2503  0.2334  0.1968

 Free energy of the ion-electron system (eV)
  ---------------------------------------------------
  alpha Z        PSCENC =       805.89829382
  Ewald energy   TEWEN  =    199935.36059865
  -Hartree energ DENC   =   -242079.89539232
  -exchange      EXHF   =         0.00000000
  -V(xc)+E(xc)   XCENC  =      -343.75027326
  PAW double counting   =     49323.46235099   -47402.42185251
  entropy T*S    EENTRO =        -0.24496770
  eigenvalues    EBANDS =     -2087.14695520
  atomic energy  EATOM  =     41659.78587232
  Solvation  Ediel_sol  =         0.00000000
  ---------------------------------------------------
  free energy    TOTEN  =      -188.95232522 eV

  energy without entropy =     -188.70735752  energy(sigma->0) =     -188.82984137


--------------------------------------------------------------------------------------------------------




----------------------------------------- Iteration    1(  20)  ---------------------------------------


    POTLOK:  cpu time    0.0471: real time    0.0474
    SETDIJ:  cpu time    0.0055: real time    0.0056
    EDDIAG:  cpu time    1.5870: real time    1.5960
  RMM-DIIS:  cpu time    4.7015: real time    4.7242
    ORTHCH:  cpu time    0.3754: real time    0.3771
       DOS:  cpu time    0.0016: real time    0.0016
    CHARGE:  cpu time    0.2300: real time    0.2310
    MIXING:  cpu time    0.0041: real time    0.0041
    --------------------------------------------
      LOOP:  cpu time    6.9531: real time    6.9896

 eigenvalue-minimisations  :  3679
 total energy-change (2. order) : 0.6980905E-02  (-0.1409408E-02)
 number of electron     503.9998363 magnetization 
 augmentation part      197.1079391 magnetization 

 DIPCOR: dipole corrections for dipol
 direction  3 min pos     1,
 dipolmoment           0.000000      0.000000      0.047517 electrons x Angstroem
 Tr[quadrupol]    -10337.984368

 energy correction for charged system         0.000000 eV
 dipol+quadrupol energy correction           -0.000080 eV
 added-field ion interaction          0.022563 eV  (added to PSCEN)


 Broyden mixing:
  rms(total) = 0.90335E-01    rms(broyden)= 0.90324E-01
  rms(prec ) = 0.10271E+00
  weight for this iteration     100.00

 eigenvalues of (default mixing * dielectric matrix)
  average eigenvalue GAMMA=   0.7106
  2.3185  1.6087  1.6087  0.8489  0.8489  0.5571  0.5571  0.5010  0.3083  0.3083
  0.2558  0.2558  0.2500  0.2354  0.1964

 Free energy of the ion-electron system (eV)
  ---------------------------------------------------
  alpha Z        PSCENC =       805.89184750
  Ewald energy   TEWEN  =    199935.36059865
  -Hartree energ DENC   =   -242083.42713546
  -exchange      EXHF   =         0.00000000
  -V(xc)+E(xc)   XCENC  =      -343.71663416
  PAW double counting   =     49328.79608006   -47407.60709233
  entropy T*S    EENTRO =        -0.24550774
  eigenvalues    EBANDS =     -2083.78337315
  atomic energy  EATOM  =     41659.78587232
  Solvation  Ediel_sol  =         0.00000000
  ---------------------------------------------------
  free energy    TOTEN  =      -188.94534432 eV

  energy without entropy =     -188.69983658  energy(sigma->0) =     -188.82259045


--------------------------------------------------------------------------------------------------------




----------------------------------------- Iteration    1(  21)  ---------------------------------------


    POTLOK:  cpu time    0.0478: real time    0.0480
    SETDIJ:  cpu time    0.0055: real time    0.0056
    EDDIAG:  cpu time    1.5628: real time    1.5719
  RMM-DIIS:  cpu time    4.7207: real time    4.7433
    ORTHCH:  cpu time    0.3751: real time    0.3768
       DOS:  cpu time    0.0016: real time    0.0016
    CHARGE:  cpu time    0.2277: real time    0.2288
    MIXING:  cpu time    0.0042: real time    0.0042
    --------------------------------------------
      LOOP:  cpu time    6.9463: real time    6.9849

 eigenvalue-minimisations  :  3681
 total energy-change (2. order) : 0.7574780E-02  (-0.5069827E-03)
 number of electron     503.9998363 magnetization 
 augmentation part      197.0910819 magnetization 

 DIPCOR: dipole corrections for dipol
 direction  3 min pos     1,
 dipolmoment           0.000000      0.000000      0.039443 electrons x Angstroem
 Tr[quadrupol]    -10338.089820

 energy correction for charged system         0.000000 eV
 dipol+quadrupol energy correction           -0.000055 eV
 added-field ion interaction          0.018729 eV  (added to PSCEN)


 Broyden mixing:
  rms(total) = 0.58698E-01    rms(broyden)= 0.58694E-01
  rms(prec ) = 0.66960E-01
  weight for this iteration     100.00

 eigenvalues of (default mixing * dielectric matrix)
  average eigenvalue GAMMA=   0.7544
  2.3855  1.7630  1.7630  0.9980  0.9980  0.7616  0.6060  0.6060  0.3485  0.3172
  0.3172  0.1965  0.2706  0.2706  0.2345  0.2345

 Free energy of the ion-electron system (eV)
  ---------------------------------------------------
  alpha Z        PSCENC =       805.88803844
  Ewald energy   TEWEN  =    199935.36059865
  -Hartree energ DENC   =   -242087.81562153
  -exchange      EXHF   =         0.00000000
  -V(xc)+E(xc)   XCENC  =      -343.69136082
  PAW double counting   =     49333.80940958   -47412.50435699
  entropy T*S    EENTRO =        -0.24595928
  eigenvalues    EBANDS =     -2079.52438991
  atomic energy  EATOM  =     41659.78587232
  Solvation  Ediel_sol  =         0.00000000
  ---------------------------------------------------
  free energy    TOTEN  =      -188.93776954 eV

  energy without entropy =     -188.69181026  energy(sigma->0) =     -188.81478990


--------------------------------------------------------------------------------------------------------




----------------------------------------- Iteration    1(  22)  ---------------------------------------


    POTLOK:  cpu time    0.0468: real time    0.0474
    SETDIJ:  cpu time    0.0058: real time    0.0058
    EDDIAG:  cpu time    1.5548: real time    1.5622
  RMM-DIIS:  cpu time    4.6367: real time    4.7487
    ORTHCH:  cpu time    0.3746: real time    0.3764
       DOS:  cpu time    0.0016: real time    0.0016
    CHARGE:  cpu time    0.2287: real time    0.2297
    MIXING:  cpu time    0.0045: real time    0.0045
    --------------------------------------------
      LOOP:  cpu time    6.8541: real time    6.9800

 eigenvalue-minimisations  :  3678
 total energy-change (2. order) : 0.3494021E-02  (-0.5968222E-03)
 number of electron     503.9998363 magnetization 
 augmentation part      197.0602914 magnetization 

 DIPCOR: dipole corrections for dipol
 direction  3 min pos     1,
 dipolmoment           0.000000      0.000000      0.039400 electrons x Angstroem
 Tr[quadrupol]    -10338.281915

 energy correction for charged system         0.000000 eV
 dipol+quadrupol energy correction           -0.000055 eV
 added-field ion interaction          0.018709 eV  (added to PSCEN)


 Broyden mixing:
  rms(total) = 0.41638E-01    rms(broyden)= 0.41630E-01
  rms(prec ) = 0.47272E-01
  weight for this iteration     100.00

 eigenvalues of (default mixing * dielectric matrix)
  average eigenvalue GAMMA=   0.7667
  2.4693  1.8730  1.8730  1.2841  0.8790  0.8790  0.6217  0.6217  0.3736  0.3736
  0.3034  0.3034  0.2607  0.2607  0.1964  0.2303  0.2303

 Free energy of the ion-electron system (eV)
  ---------------------------------------------------
  alpha Z        PSCENC =       805.88801809
  Ewald energy   TEWEN  =    199935.36059865
  -Hartree energ DENC   =   -242096.03941421
  -exchange      EXHF   =         0.00000000
  -V(xc)+E(xc)   XCENC  =      -343.63830256
  PAW double counting   =     49340.93924981   -47419.42142955
  entropy T*S    EENTRO =        -0.24511381
  eigenvalues    EBANDS =     -2071.56375426
  atomic energy  EATOM  =     41659.78587232
  Solvation  Ediel_sol  =         0.00000000
  ---------------------------------------------------
  free energy    TOTEN  =      -188.93427552 eV

  energy without entropy =     -188.68916171  energy(sigma->0) =     -188.81171862


--------------------------------------------------------------------------------------------------------




----------------------------------------- Iteration    1(  23)  ---------------------------------------


    POTLOK:  cpu time    0.0474: real time    0.0476
    SETDIJ:  cpu time    0.0055: real time    0.0055
    EDDIAG:  cpu time    1.5313: real time    1.5385
  RMM-DIIS:  cpu time    4.7070: real time    4.7309
    ORTHCH:  cpu time    0.3758: real time    0.3775
       DOS:  cpu time    0.0016: real time    0.0016
    CHARGE:  cpu time    0.2282: real time    0.2292
    MIXING:  cpu time    0.0044: real time    0.0044
    --------------------------------------------
      LOOP:  cpu time    6.9020: real time    6.9379

 eigenvalue-minimisations  :  3679
 total energy-change (2. order) : 0.1978581E-02  (-0.2600407E-03)
 number of electron     503.9998363 magnetization 
 augmentation part      197.0494693 magnetization 

 DIPCOR: dipole corrections for dipol
 direction  3 min pos     1,
 dipolmoment           0.000000      0.000000      0.039478 electrons x Angstroem
 Tr[quadrupol]    -10338.423894

 energy correction for charged system         0.000000 eV
 dipol+quadrupol energy correction           -0.000055 eV
[...]
   0.290E+01 0.108E+02 0.223E+04   -.245E+01 -.107E+02 -.223E+04   -.459E+00 -.436E-01 -.305E-01   0.148E-02 -.159E-02 0.395E-02
   -.212E+02 -.838E+01 0.227E+04   0.214E+02 0.899E+01 -.227E+04   -.229E+00 -.578E+00 0.227E+00   0.140E-02 -.984E-03 0.338E-03
   0.312E+01 0.102E+01 0.219E+04   -.329E+01 -.168E+01 -.219E+04   0.149E+00 0.651E+00 -.622E+00   0.599E-02 -.135E-02 -.108E-02
   0.295E+00 0.113E+02 0.216E+02   0.584E+00 -.108E+02 -.206E+02   -.893E+00 -.517E+00 -.971E+00   -.538E-02 -.420E-02 0.185E-03
   0.136E+01 0.115E+02 0.283E+02   -.220E+01 -.109E+02 -.273E+02   0.848E+00 -.574E+00 -.107E+01   -.105E-01 0.154E-02 0.637E-02
   0.285E+01 -.217E+02 0.231E+04   -.275E+01 0.225E+02 -.231E+04   -.113E+00 -.828E+00 0.188E+00   -.246E-02 -.709E-03 0.389E-02
   -.202E+02 -.515E+01 -.227E+04   0.210E+02 0.535E+01 0.227E+04   -.812E+00 -.224E+00 0.318E+00   0.171E-02 0.281E-02 0.162E-02
   -.382E+00 0.124E+01 -.225E+02   -.406E+00 -.178E+01 0.224E+02   0.751E+00 0.516E+00 0.118E+00   0.107E-02 0.957E-02 0.449E-02
   0.235E+02 0.115E+02 0.226E+04   -.239E+02 -.117E+02 -.226E+04   0.347E+00 0.156E+00 0.172E+00   0.274E-02 0.134E-02 0.372E-02
   0.164E+01 0.181E+02 -.229E+04   -.206E+01 -.189E+02 0.229E+04   0.424E+00 0.770E+00 0.401E+00   -.231E-02 0.464E-02 0.383E-02
   -.126E+02 -.285E+00 -.223E+04   0.130E+02 0.225E+00 0.223E+04   -.401E+00 0.775E-01 0.708E+00   0.121E-01 0.239E-02 0.272E-02
   -.264E+01 0.421E+01 0.223E+04   0.323E+01 -.407E+01 -.223E+04   -.563E+00 -.145E+00 -.471E+00   -.138E-03 -.280E-02 0.688E-02
   -.154E+02 0.130E+02 0.229E+04   0.155E+02 -.134E+02 -.229E+04   -.142E+00 0.364E+00 0.226E+00   -.160E-02 -.479E-03 0.370E-02
   -.102E+02 -.157E+02 -.229E+04   0.102E+02 0.163E+02 0.229E+04   -.417E-02 -.512E+00 0.123E+00   0.481E-02 0.734E-02 -.290E-02
   -.344E+01 -.612E+01 -.225E+04   0.337E+01 0.606E+01 0.225E+04   0.590E-01 0.307E-01 0.567E+00   0.163E-01 0.752E-02 -.337E-03
   0.225E+02 -.116E+01 0.227E+04   -.230E+02 0.121E+01 -.227E+04   0.580E+00 -.316E-01 0.126E+00   -.187E-02 0.426E-02 0.601E-02
   0.769E+01 0.145E+01 -.225E+04   -.830E+01 -.137E+01 0.225E+04   0.609E+00 -.947E-01 0.608E+00   -.753E-03 -.704E-03 0.225E-02
   0.225E+01 -.135E+02 -.779E+01   -.223E+01 0.124E+02 0.820E+01   -.134E-01 0.108E+01 -.428E+00   -.171E-02 -.796E-02 0.846E-02
   -.273E+02 0.118E+02 0.222E+04   0.281E+02 -.124E+02 -.222E+04   -.771E+00 0.602E+00 -.250E+00   -.287E-02 0.407E-02 -.157E-02
   0.390E+01 0.930E+01 -.330E+01   -.286E+01 -.894E+01 0.443E+01   -.103E+01 -.386E+00 -.112E+01   -.288E-02 -.316E-02 0.138E-02
   0.188E+02 -.223E+01 -.232E+04   -.190E+02 0.207E+01 0.232E+04   0.194E+00 0.181E+00 -.311E-01   -.321E-02 -.108E-01 0.233E-02
   -.532E+01 -.404E+01 -.480E+02   0.509E+01 0.489E+01 0.474E+02   0.216E+00 -.865E+00 0.569E+00   -.104E-01 -.404E-02 0.336E-02
   0.379E+01 -.105E+01 -.655E+01   -.376E+01 0.876E+00 0.703E+01   -.278E-01 0.177E+00 -.491E+00   0.121E-01 0.177E-03 0.610E-02
   0.109E+02 -.354E+01 -.200E+04   -.109E+02 0.390E+01 0.200E+04   -.601E-02 -.359E+00 0.135E+01   -.406E-02 -.514E-02 0.352E-03
   -.260E+02 0.671E+01 0.195E+04   0.263E+02 -.698E+01 -.195E+04   -.281E+00 0.289E+00 -.167E+01   -.425E-02 -.355E-02 0.350E-02
   -.131E+01 0.101E+01 -.198E+04   0.173E+01 -.126E+01 0.198E+04   -.428E+00 0.285E+00 0.177E+01   0.351E-02 -.651E-02 -.212E-04
   -.412E+01 -.934E+01 -.198E+04   0.406E+01 0.932E+01 0.198E+04   0.462E-01 0.322E-01 0.152E+01   0.252E-02 -.675E-02 -.388E-03
   -.200E+01 0.104E+02 0.190E+04   0.222E+01 -.106E+02 -.190E+04   -.247E+00 0.163E+00 -.179E+01   0.401E-02 0.417E-02 0.383E-02
   -.527E+01 -.230E+02 0.198E+04   0.534E+01 0.234E+02 -.198E+04   -.505E-01 -.397E+00 -.158E+01   -.475E-02 -.293E-02 0.318E-02
   -.184E+02 -.931E+01 -.199E+04   0.186E+02 0.953E+01 0.199E+04   -.180E+00 -.238E+00 0.145E+01   -.614E-02 0.319E-02 -.131E-02
   0.851E+01 0.105E+02 -.199E+04   -.851E+01 -.110E+02 0.199E+04   -.362E-01 0.432E+00 0.177E+01   0.363E-02 0.220E-02 0.352E-02
   -.355E+01 -.702E+01 -.345E+02   0.395E+01 0.697E+01 0.344E+02   -.412E+00 0.417E-01 0.770E-01   0.469E-02 0.105E-02 0.148E-02
   -.425E+00 -.744E+00 -.194E+02   0.838E+00 0.756E+00 0.198E+02   -.423E+00 -.244E-02 -.420E+00   0.990E-02 -.375E-03 -.159E-02
   -.570E+01 -.227E+01 -.709E+02   0.553E+01 0.241E+01 0.700E+02   0.148E+00 -.134E+00 0.906E+00   0.176E-02 0.321E-02 0.623E-02
   0.451E+01 0.155E+02 -.201E+04   -.463E+01 -.156E+02 0.201E+04   0.133E+00 0.723E-01 0.128E+01   -.116E-01 0.288E-03 0.770E-03
   0.475E+01 -.228E+02 0.196E+04   -.509E+01 0.230E+02 -.196E+04   0.352E+00 -.189E+00 -.150E+01   -.106E-02 -.319E-02 -.165E-02
   -.233E+01 0.326E+01 -.267E+02   0.179E+01 -.303E+01 0.266E+02   0.567E+00 -.225E+00 0.483E-01   0.457E-02 0.408E-02 0.429E-02
   -.117E+01 0.360E+01 -.626E+02   0.112E+01 -.337E+01 0.621E+02   0.481E-01 -.245E+00 0.491E+00   0.427E-02 0.780E-02 0.241E-02
   0.179E+02 0.107E+02 0.192E+04   -.183E+02 -.105E+02 -.192E+04   0.358E+00 -.177E+00 -.178E+01   0.158E-02 0.767E-02 0.643E-03
   0.127E+02 0.157E+02 -.199E+04   -.131E+02 -.161E+02 0.199E+04   0.404E+00 0.368E+00 0.169E+01   -.126E-01 -.332E-02 0.172E-02
   0.322E+01 -.123E+02 -.517E+02   -.284E+01 0.119E+02 0.512E+02   -.365E+00 0.409E+00 0.487E+00   -.785E-02 -.391E-02 0.653E-02
   -.125E+01 -.528E+01 0.194E+04   0.112E+01 0.517E+01 -.193E+04   0.143E+00 0.128E+00 -.176E+01   -.366E-02 -.327E-02 -.184E-02
   -.961E+01 -.281E+01 -.199E+04   0.974E+01 0.319E+01 0.199E+04   -.123E+00 -.406E+00 0.183E+01   -.710E-02 0.606E-02 -.208E-02
   0.365E+01 0.301E+01 0.844E+01   -.384E+01 -.283E+01 -.809E+01   0.237E+00 -.208E+00 -.334E+00   -.723E-02 -.433E-02 0.999E-02
   0.231E+01 -.102E+01 -.379E+01   -.241E+01 0.656E+00 0.433E+01   0.782E-01 0.353E+00 -.541E+00   0.770E-02 0.191E-02 0.364E-02
   0.157E+02 -.930E+01 -.200E+04   -.159E+02 0.963E+01 0.200E+04   0.116E+00 -.341E+00 0.178E+01   0.552E-02 -.247E-02 0.209E-02
 -----------------------------------------------------------------------------------------------
   0.117E+00 -.179E-02 -.178E+01   0.338E-12 0.211E-12 -.296E-11   -.123E+00 -.941E-04 0.167E+01   0.891E-03 0.108E-02 0.112E+00
 
 
 POSITION                                       TOTAL-FORCE (eV/Angst)
 -----------------------------------------------------------------------------------
      5.46196      3.17775      9.82628         0.009223      0.043073      0.032384
      8.24591      6.33810     12.20969         0.039028     -0.014437     -0.005352
      8.25867      3.17599      9.72403        -0.007229      0.009316      0.007613
     11.02279      7.94903      9.65876         0.021346      0.028213      0.010722
      6.87223      0.78243      9.79841        -0.013464     -0.017438      0.025243
      9.65481      8.75110     12.22575        -0.019827      0.010655     -0.001808
      6.84712      8.74903     12.21776         0.001850      0.052631     -0.017564
      8.25226      7.97973      9.59394        -0.018045      0.008976     -0.015685
      5.52476      4.76510     14.78991         0.011267     -0.013821     -0.004018
      5.47638      6.34479     12.26699        -0.036133     -0.013705      0.001683
      6.86042      5.56313      9.65811        -0.009508     -0.020556     -0.003825
      4.10746      2.33713     14.80366         0.000374      0.000966      0.010042
      6.89136      2.37130     14.72022        -0.011229      0.020550     -0.018485
      9.64826      0.80169      9.75867         0.018487     -0.014584      0.030338
      9.64782      5.55630      9.60334         0.006068     -0.005399     -0.020013
      4.13462      7.16356     14.81313        -0.004752      0.022370     -0.018145
      8.24802     -0.00512     14.72860         0.009677     -0.023882     -0.016205
      5.48133      7.94816      9.67675         0.005029      0.017612      0.026719
      2.73107      4.75778     14.77161        -0.006092     -0.009835      0.018860
      9.63318      3.94391     12.25009         0.006468      0.027321     -0.005201
     12.41734      5.53904      9.77500         0.002236      0.009491      0.043105
     11.03587      6.35769     12.25780         0.005391     -0.033379      0.011213
     10.98237      4.75634     14.83366        -0.014458      0.005356     -0.073551
      2.75199      1.61540     12.28605        -0.019453     -0.012667     -0.009453
      8.24268      1.57454     12.24899         0.009415     -0.001494      0.000043
      9.61780      7.15253     14.61746        -0.002476     -0.007651     -0.031389
     11.01739      3.18346      9.89222         0.012952      0.013837     -0.022397
      9.64673      2.36261     14.61065        -0.006106      0.022472      0.009618
      8.26130      4.76450     14.61242        -0.006944      0.005916     -0.009809
     13.76744      7.93079      9.94903        -0.024606      0.005885     -0.023288
      1.38676      0.82715      9.86568         0.008741     -0.019030     -0.032841
      6.89126      7.15345     14.61250         0.004086     -0.012064      0.001933
      5.48997     -0.03110     14.62481        -0.025283     -0.009736      0.005416
      5.53105      1.60666     12.27611        -0.004233     -0.007463      0.005550
     12.39518      8.74730     12.26698         0.000491      0.009937      0.000225
      4.13079      3.96864     12.31981        -0.018797      0.003941      0.016494
      2.73631     -0.02476     14.63028         0.000801     -0.005828      0.006653
      4.11170      0.80694      9.88568         0.007107     -0.005669     -0.050190
     15.10014      8.74904     12.26917         0.034414      0.008262     -0.005351
     13.75454      6.35671     12.31457         0.004192     -0.010477      0.008076
      4.11788      5.56040      9.93681        -0.000143     -0.009120      0.006484
      1.35037      2.35848     14.63096         0.010028     -0.007692      0.048561
     12.39046      3.98027     12.29966         0.007762      0.004432      0.023848
      2.74071      3.17140      9.95018         0.004543      0.016488     -0.000328
      0.01472      0.01372     14.61068        -0.003029     -0.018762     -0.008404
     10.97451      1.59205     12.22360         0.037799     -0.034352      0.022207
      6.86686      3.95122     12.24951        -0.009106     -0.013366      0.008949
     12.36064      7.15197     14.65684        -0.017867     -0.005294      0.011322
 -----------------------------------------------------------------------------------
    total drift:                               -0.004683     -0.000805      0.004453


--------------------------------------------------------------------------------------------------------



  FREE ENERGIE OF THE ION-ELECTRON SYSTEM (eV)
  ---------------------------------------------------
  free  energy   TOTEN  =      -192.55286914 eV

  energy  without entropy=     -192.31838797  energy(sigma->0) =     -192.43562855
 
 d Force = 0.1763037E-02[ 0.752E-03, 0.277E-02]  d Energy = 0.1826308E-02-0.633E-04
 d Force = 0.3903817E+01[ 0.403E+01, 0.378E+01]  d Ewald  = 0.3903824E+01-0.697E-05


--------------------------------------------------------------------------------------------------------


    POTLOK:  cpu time    0.0522: real time    0.0525


--------------------------------------------------------------------------------------------------------


 stress matrix after NEB project (eV)
      0.00000      0.00000      0.00000
      0.00000      0.00000      0.00000
      0.00000      0.00000      0.00000
  FORCES: max atom, RMS     0.075150    0.032268
  FORCE total and by dimension    0.223562    0.073551
  Stress total and by dimension    0.000000    0.000000


--------------------------------------------------------------------------------------------------------


    WAVPRE:  cpu time    0.0213: real time    0.0215
 FEWALD executed in parallel
    FEWALD:  cpu time    0.0012: real time    0.0012

 real space projection operators:
  total allocation   :      12817.69 KBytes
  max/ min on nodes  :       2141.86       2127.94

    ORTHCH:  cpu time    0.8910: real time    0.8950
     LOOP+:  cpu time   83.1627: real time   83.8614


----------------------------------------- Iteration   19(   1)  ---------------------------------------


    POTLOK:  cpu time    0.0461: real time    0.0464
    SETDIJ:  cpu time    0.0054: real time    0.0054
     EDDAV:  cpu time    8.8165: real time    8.8662
       DOS:  cpu time    0.0015: real time    0.0015
    CHARGE:  cpu time    0.2192: real time    0.2201
    MIXING:  cpu time    0.0021: real time    0.0022
    --------------------------------------------
      LOOP:  cpu time    9.0935: real time    9.1539

 eigenvalue-minimisations  :  3732
 total energy-change (2. order) : 0.3573189E-03  (-0.5317562E-01)
 number of electron     503.9999503 magnetization 
 augmentation part      197.2985309 magnetization 

 DIPCOR: dipole corrections for dipol
 direction  3 min pos     1,
 dipolmoment           0.000000      0.000000     -0.006868 electrons x Angstroem
 Tr[quadrupol]    -10303.306318

 energy correction for charged system         0.000000 eV
 dipol+quadrupol energy correction           -0.000002 eV
 added-field ion interaction         -0.003706 eV  (added to PSCEN)


  free energy =  -0.192552512020E+03  energy without entropy=  -0.192317992963E+03


--------------------------------------------------------------------------------------------------------




----------------------------------------- Iteration   19(   2)  ---------------------------------------


    POTLOK:  cpu time    0.0476: real time    0.0479
    SETDIJ:  cpu time    0.0057: real time    0.0064
    EDDIAG:  cpu time    1.4902: real time    1.4972
  RMM-DIIS:  cpu time    4.4462: real time    4.4695
    ORTHCH:  cpu time    0.3761: real time    0.3779
       DOS:  cpu time    0.0015: real time    0.0015
    CHARGE:  cpu time    0.2254: real time    0.2264
    MIXING:  cpu time    0.0020: real time    0.0020
    --------------------------------------------
      LOOP:  cpu time    6.5956: real time    6.6315

 eigenvalue-minimisations  :  3678
 total energy-change (2. order) :-0.5820016E-03  (-0.5952564E-03)
 number of electron     503.9999503 magnetization 
 augmentation part      197.2994945 magnetization 

 DIPCOR: dipole corrections for dipol
 direction  3 min pos     1,
 dipolmoment           0.000000      0.000000     -0.006515 electrons x Angstroem
 Tr[quadrupol]    -10303.310600

 energy correction for charged system         0.000000 eV
 dipol+quadrupol energy correction           -0.000001 eV
 added-field ion interaction         -0.003516 eV  (added to PSCEN)


 eigenvalues of (default mixing * dielectric matrix)
  average eigenvalue GAMMA=   0.4357
  0.4357

  free energy =  -0.192553094021E+03  energy without entropy=  -0.192318553897E+03


--------------------------------------------------------------------------------------------------------




----------------------------------------- Iteration   19(   3)  ---------------------------------------


    POTLOK:  cpu time    0.0463: real time    0.0466
    SETDIJ:  cpu time    0.0059: real time    0.0060
    EDDIAG:  cpu time    1.5286: real time    1.5374
  RMM-DIIS:  cpu time    4.5006: real time    4.5232
    ORTHCH:  cpu time    0.3764: real time    0.3789
       DOS:  cpu time    0.0015: real time    0.0015
    CHARGE:  cpu time    0.2259: real time    0.2269
    MIXING:  cpu time    0.0021: real time    0.0021
    --------------------------------------------
      LOOP:  cpu time    6.6880: real time    6.7256

 eigenvalue-minimisations  :  3721
 total energy-change (2. order) : 0.1617776E-04  (-0.3926563E-04)
 number of electron     503.9999503 magnetization 
 augmentation part      197.2993782 magnetization 

 DIPCOR: dipole corrections for dipol
 direction  3 min pos     1,
 dipolmoment           0.000000      0.000000     -0.006793 electrons x Angstroem
 Tr[quadrupol]    -10303.306875

 energy correction for charged system         0.000000 eV
 dipol+quadrupol energy correction           -0.000002 eV
 added-field ion interaction         -0.003665 eV  (added to PSCEN)


 eigenvalues of (default mixing * dielectric matrix)
  average eigenvalue GAMMA=   0.4224
  0.5999  0.2449

  free energy =  -0.192553077843E+03  energy without entropy=  -0.192318562603E+03


--------------------------------------------------------------------------------------------------------




----------------------------------------- Iteration   19(   4)  ---------------------------------------


    POTLOK:  cpu time    0.0471: real time    0.0475
    SETDIJ:  cpu time    0.0063: real time    0.0064
    EDDIAG:  cpu time    1.4671: real time    1.4755
  RMM-DIIS:  cpu time    4.5205: real time    4.5440
    ORTHCH:  cpu time    0.3756: real time    0.3776
       DOS:  cpu time    0.0015: real time    0.0015
    CHARGE:  cpu time    0.2259: real time    0.2270
    MIXING:  cpu time    0.0023: real time    0.0023
    --------------------------------------------
      LOOP:  cpu time    6.6468: real time    6.6865

 eigenvalue-minimisations  :  3678
 total energy-change (2. order) : 0.2512841E-04  (-0.3839679E-05)
 number of electron     503.9999503 magnetization 
 augmentation part      197.2986612 magnetization 

 DIPCOR: dipole corrections for dipol
 direction  3 min pos     1,
 dipolmoment           0.000000      0.000000     -0.007139 electrons x Angstroem
 Tr[quadrupol]    -10303.309245

 energy correction for charged system         0.000000 eV
 dipol+quadrupol energy correction           -0.000002 eV
 added-field ion interaction         -0.003852 eV  (added to PSCEN)


 eigenvalues of (default mixing * dielectric matrix)
  average eigenvalue GAMMA=   0.4390
  0.5500  0.5500  0.2171

  free energy =  -0.192553052715E+03  energy without entropy=  -0.192318493204E+03


--------------------------------------------------------------------------------------------------------




----------------------------------------- Iteration   19(   5)  ---------------------------------------


    POTLOK:  cpu time    0.0465: real time    0.0468
    SETDIJ:  cpu time    0.0057: real time    0.0057
    EDDIAG:  cpu time    1.5015: real time    1.5096
  RMM-DIIS:  cpu time    4.4085: real time    4.5317
    ORTHCH:  cpu time    0.3743: real time    0.3761
       DOS:  cpu time    0.0015: real time    0.0015
    CHARGE:  cpu time    0.2271: real time    0.2281
    MIXING:  cpu time    0.0025: real time    0.0025
    --------------------------------------------
      LOOP:  cpu time    6.5682: real time    6.7052

 eigenvalue-minimisations  :  3673
 total energy-change (2. order) : 0.5055554E-06  (-0.1422968E-05)
 number of electron     503.9999503 magnetization 
 augmentation part      197.2987928 magnetization 

 DIPCOR: dipole corrections for dipol
 direction  3 min pos     1,
 dipolmoment           0.000000      0.000000     -0.006121 electrons x Angstroem
 Tr[quadrupol]    -10303.307769

 energy correction for charged system         0.000000 eV
 dipol+quadrupol energy correction           -0.000001 eV
 added-field ion interaction         -0.003303 eV  (added to PSCEN)


 eigenvalues of (default mixing * dielectric matrix)
  average eigenvalue GAMMA=   0.6604
  1.1137  1.1137  0.2508  0.1633

  free energy =  -0.192553052209E+03  energy without entropy=  -0.192318650864E+03


--------------------------------------------------------------------------------------------------------




----------------------------------------- Iteration   19(   6)  ---------------------------------------


    POTLOK:  cpu time    0.0480: real time    0.0482
    SETDIJ:  cpu time    0.0054: real time    0.0055
    EDDIAG:  cpu time    1.4923: real time    1.5022
  RMM-DIIS:  cpu time    4.4342: real time    4.4572
    ORTHCH:  cpu time    0.3807: real time    0.3828
       DOS:  cpu time    0.0015: real time    0.0015
