unknown system                          
           1
    11.002582    0.000000    0.000000
     5.501291    9.528515    0.000000
     0.000000    0.000000   24.491785
   Au   Pd
  24  24
Direct configuration=     1
   0.33333333  0.33333333  0.40830017
   0.41666667  0.66666667  0.50000000
   0.58333333  0.33333333  0.40830017
   0.58333333  0.83333333  0.40830017
   0.58333333  0.08333333  0.40830017
   0.41666667  0.91666667  0.50000000
   0.16666667  0.91666667  0.50000000
   0.33333333  0.83333333  0.40830017
   0.25000000  0.50000000  0.59169983
   0.16666667  0.66666667  0.50000000
   0.33333333  0.58333333  0.40830017
   0.25000000  0.25000000  0.59169983
   0.50000000  0.25000000  0.59169983
   0.83333333  0.08333333  0.40830017
   0.58333333  0.58333333  0.40830017
   0.00000000  0.75000000  0.59169983
   0.75000000  0.00000000  0.59169983
   0.08333333  0.83333333  0.40830017
   0.00000000  0.50000000  0.59169983
   0.66666667  0.41666667  0.50000000
   0.83333333  0.58333333  0.40830017
   0.66666667  0.66666667  0.50000000
   0.75000000  0.50000000  0.59169983
   0.16666667  0.16666667  0.50000000
   0.66666667  0.16666667  0.50000000
   0.50000000  0.75000000  0.59169983
   0.83333333  0.33333333  0.40830017
   0.75000000  0.25000000  0.59169983
   0.50000000  0.50000000  0.59169983
   0.83333333  0.83333333  0.40830017
   0.08333333  0.08333333  0.40830017
   0.25000000  0.75000000  0.59169983
   0.50000000  0.00000000  0.59169983
   0.41666667  0.16666667  0.50000000
   0.66666667  0.91666667  0.50000000
   0.16666667  0.41666667  0.50000000
   0.25000000  0.00000000  0.59169983
   0.33333333  0.08333333  0.40830017
   0.91666667  0.91666667  0.50000000
   0.91666667  0.66666667  0.50000000
   0.08333333  0.58333333  0.40830017
   0.00000000  0.25000000  0.59169983
   0.91666667  0.41666667  0.50000000
   0.08333333  0.33333333  0.40830017
   0.00000000  0.00000000  0.59169983
   0.91666667  0.16666667  0.50000000
   0.41666667  0.41666667  0.50000000
   0.75000000  0.75000000  0.59169983
Direct configuration=     2
   0.33190284  0.33335017  0.40682267
   0.41666999  0.66580021  0.50130346
   0.58393263  0.33285778  0.40637360
   0.58365697  0.83448150  0.40605258
   0.58340203  0.08257788  0.40676948
   0.41712676  0.91837112  0.50082407
   0.16447300  0.91855746  0.50082317
   0.33250835  0.83493682  0.40562410
   0.25099776  0.50013317  0.59361155
   0.16566732  0.66587196  0.50007878
   0.33274459  0.58270401  0.40598612
   0.25014512  0.24880362  0.59356286
   0.50065419  0.24988227  0.59321344
   0.83403747  0.08335868  0.40670713
   0.58427652  0.58248411  0.40565239
  -0.00061415  0.75099500  0.59358762
   0.74995386 -0.00007307  0.59316423
   0.08191716  0.83372292  0.40609895
  -0.00078297  0.49996542  0.59334370
   0.66811745  0.41401359  0.50045534
   0.83546266  0.58225580  0.40651196
   0.66811256  0.66752255  0.50085132
   0.74993826  0.49969620  0.59379423
   0.16540960  0.16803860  0.49969532
   0.66707454  0.16618867  0.50032245
   0.49946754  0.75061575  0.59301893
   0.83437561  0.33268849  0.40728604
   0.75087969  0.24959233  0.59258269
   0.49987124  0.50024902  0.59286440
   0.83376704  0.83302446  0.40753134
   0.08291705  0.08453479  0.40716648
   0.25048539  0.75039993  0.59302580
   0.50027467 -0.00095792  0.59263867
   0.41724558  0.16655299  0.49996715
   0.66739447  0.91683526  0.50025301
   0.16617461  0.41669875  0.49944770
   0.24997775 -0.00040598  0.59300384
   0.33253515  0.08403793  0.40709530
   0.91533815  0.91739046  0.49999691
   0.91642571  0.66704459  0.49973250
   0.08265691  0.58317650  0.40737243
  -0.00028721  0.24923503  0.59268289
   0.91800382  0.41553572  0.49977853
   0.08318524  0.33314814  0.40752065
   0.00002707  0.00082547  0.59260212
   0.91627773  0.16697751  0.50020168
   0.41693769  0.41569859  0.50030997
   0.74928455  0.75060576  0.59269040
Direct configuration=     3
   0.32761135  0.33340067  0.40239018
   0.41667995  0.66320086  0.50521384
   0.58573051  0.33143113  0.40059389
   0.58462789  0.83792599  0.39930980
   0.58360814  0.08031154  0.40217741
   0.41850705  0.92348449  0.50329627
   0.15789201  0.92422985  0.50329268
   0.33003338  0.83974726  0.39759588
   0.25399103  0.50053268  0.59934672
   0.16266928  0.66348783  0.50031513
   0.33097836  0.58081602  0.39904396
   0.25058050  0.24521449  0.59915197
   0.50261676  0.24952909  0.59775427
   0.83614988  0.08343471  0.40192802
   0.58710608  0.57993644  0.39770906
  -0.00245659  0.75398000  0.59925099
   0.74981546 -0.00029227  0.59755741
   0.07766866  0.83489170  0.39949530
  -0.00313187  0.49986168  0.59827532
   0.67246981  0.40605435  0.50182136
   0.84185062  0.57902322  0.40114732
   0.67245023  0.67009019  0.50340529
   0.74975304  0.49878481  0.60007744
   0.16163841  0.17215440  0.49878128
   0.66829815  0.16475467  0.50128982
   0.49787017  0.75246300  0.59697625
   0.83750245  0.33075394  0.40424367
   0.75351874  0.24836931  0.59523127
   0.49948496  0.50099607  0.59635809
   0.83506818  0.83209784  0.40522484
   0.08166821  0.08813918  0.40376540
   0.25194157  0.75159972  0.59700373
   0.50109868 -0.00383169  0.59545519
   0.41898232  0.16621194  0.49986859
   0.66957788  0.91734105  0.50101205
   0.16469845  0.41679500  0.49779081
   0.24991101 -0.00162392  0.59691588
   0.33014059  0.08615173  0.40348070
   0.91135261  0.91956183  0.49998764
   0.91570286  0.66817836  0.49893000
   0.08062762  0.58270600  0.40458923
  -0.00114883  0.24694011  0.59563208
   0.92201529  0.41214286  0.49911414
   0.08274095  0.33259254  0.40518209
   0.00010828  0.00330188  0.59530900
   0.91511092  0.16791003  0.50080674
   0.41775078  0.41279437  0.50123986
   0.74713821  0.75242303  0.59566211
Direct configuration=     4
   0.32898741  0.33284153  0.40108861
   0.41709249  0.66444801  0.50371667
   0.58516708  0.33120327  0.39931960
   0.58459723  0.83505012  0.39794169
   0.58362048  0.08216204  0.40104573
   0.41715135  0.92157888  0.50213545
   0.16056406  0.92110127  0.50222034
   0.33037784  0.83838929  0.39648170
   0.25236470  0.50061018  0.60080685
   0.16327875  0.66488467  0.50028253
   0.33116404  0.58232499  0.39779143
   0.25043971  0.24564919  0.60037366
   0.50254427  0.24892074  0.59919807
   0.83540678  0.08401077  0.40064608
   0.58668692  0.58170481  0.39658987
  -0.00142701  0.75328235  0.60072114
   0.74969782  0.00012433  0.59921537
   0.08000823  0.83410468  0.39813881
  -0.00195610  0.49976895  0.59932829
   0.67084880  0.41038309  0.50118669
   0.83908055  0.57987664  0.39977866
   0.67114699  0.66744695  0.50247724
   0.74901687  0.49900039  0.60177479
   0.16443706  0.17024065  0.49927380
   0.66761446  0.16378530  0.50084209
   0.49840629  0.75210887  0.59852333
   0.83668110  0.33160107  0.40346027
   0.75357149  0.24793333  0.59675734
   0.50104834  0.50002447  0.59795883
   0.83465753  0.83220681  0.40449243
   0.08222896  0.08709112  0.40287565
   0.25043342  0.75221683  0.59842123
   0.50125088 -0.00292512  0.59705039
   0.41875801  0.16816458  0.49986603
   0.66944322  0.91850332  0.50069286
   0.16567588  0.41641439  0.49875804
   0.24960240 -0.00128762  0.59823142
   0.33017731  0.08570625  0.40274537
   0.91209373  0.91916348  0.49990377
   0.91635320  0.66755882  0.49942508
   0.08145342  0.58327066  0.40344335
  -0.00060432  0.24707319  0.59658969
   0.91874377  0.41544427  0.49956318
   0.08279992  0.33200495  0.40367464
  -0.00056231  0.00314305  0.59684505
   0.91480713  0.16708442  0.50027374
   0.41731872  0.41243248  0.50080802
   0.74775111  0.75217328  0.59726513
Direct configuration=     5
   0.32973908  0.33253610  0.40037762
   0.41731784  0.66512927  0.50289883
   0.58485930  0.33107880  0.39862352
   0.58458048  0.83347916  0.39719435
   0.58362722  0.08317288  0.40042754
   0.41641079  0.92053793  0.50150134
   0.16202369  0.91939227  0.50163457
   0.33056600  0.83764749  0.39587308
   0.25147630  0.50065251  0.60160445
   0.16361168  0.66564770  0.50026472
   0.33126546  0.58314927  0.39710723
   0.25036281  0.24588664  0.60104101
   0.50250468  0.24858843  0.59998675
   0.83500086  0.08432545  0.39994581
   0.58645795  0.58267080  0.39597850
  -0.00086460  0.75290125  0.60152422
   0.74963357  0.00035190  0.60012103
   0.08128624  0.83367477  0.39739783
  -0.00131383  0.49971830  0.59990348
   0.66996331  0.41274768  0.50084000
   0.83756738  0.58034283  0.39903103
   0.67043508  0.66600307  0.50197029
   0.74861473  0.49911815  0.60270198
   0.16596584  0.16919525  0.49954285
   0.66724100  0.16325577  0.50059752
   0.49869916  0.75191543  0.59936843
   0.83623243  0.33206381  0.40303234
   0.75360031  0.24769517  0.59759096
   0.50190234  0.49949374  0.59883324
   0.83443322  0.83226634  0.40409235
   0.08253528  0.08651861  0.40238962
   0.24960958  0.75255394  0.59919555
   0.50133401 -0.00242989  0.59792178
   0.41863548  0.16923122  0.49986462
   0.66936966  0.91913822  0.50051850
   0.16620981  0.41620649  0.49928639
   0.24943382 -0.00110392  0.59895004
   0.33019738  0.08546291  0.40234370
   0.91249858  0.91894588  0.49985795
   0.91670846  0.66722040  0.49969552
   0.08190451  0.58357911  0.40281741
  -0.00030688  0.24714589  0.59711279
   0.91695669  0.41724768  0.49980847
   0.08283213  0.33168397  0.40285118
  -0.00092862  0.00305629  0.59768413
   0.91464119  0.16663343  0.49998258
   0.41708271  0.41223479  0.50057212
   0.74808591  0.75203685  0.59814078
Direct configuration=     6
   0.32969550  0.33325016  0.40007781
   0.41702385  0.66502629  0.50238634
   0.58417499  0.33284315  0.39837171
   0.58415261  0.83419237  0.39698419
   0.58352486  0.08197372  0.40011875
   0.41777088  0.91925570  0.50114857
   0.16276158  0.91849368  0.50123404
   0.33106266  0.83690680  0.39562872
   0.25171909  0.50046601  0.60188686
   0.16468244  0.66565356  0.50027844
   0.33235499  0.58306262  0.39689765
   0.25054761  0.24614904  0.60138877
   0.50180078  0.24923868  0.60035054
   0.83543273  0.08375906  0.39957812
   0.58532183  0.58248750  0.39570110
  -0.00076644  0.75268725  0.60192513
   0.75008980 -0.00004113  0.60063042
   0.08139865  0.83402447  0.39709338
  -0.00136165  0.49975693  0.60013096
   0.66868343  0.41307677  0.50066118
   0.83758746  0.58072716  0.39873357
   0.66927265  0.66738086  0.50175041
   0.74904943  0.49922404  0.60325506
   0.16527450  0.16955955  0.49983810
   0.66706555  0.16468042  0.50051524
   0.49878277  0.75186921  0.59948381
   0.83536644  0.33256977  0.40296521
   0.75315623  0.24811181  0.59773733
   0.50130509  0.49956695  0.59884810
   0.83426314  0.83240826  0.40399079
   0.08271292  0.08588913  0.40234863
   0.24984537  0.75211771  0.59926652
   0.50097071 -0.00240451  0.59804185
   0.41858434  0.16856625  0.49999757
   0.66812908  0.91804438  0.50047362
   0.16617507  0.41645176  0.49966923
   0.24951735 -0.00128005  0.59907166
   0.33127890  0.08447943  0.40231138
   0.91355997  0.91843418  0.49991201
   0.91643713  0.66706861  0.50002897
   0.08205412  0.58332088  0.40275634
  -0.00028733  0.24758895  0.59713140
   0.91762329  0.41700007  0.50007723
   0.08268851  0.33206661  0.40278188
  -0.00053199  0.00251811  0.59792368
   0.91465443  0.16669408  0.49980589
   0.41712510  0.41359180  0.50051252
   0.74826956  0.75149194  0.59829934
Direct configuration=     7
   0.32968870  0.33336161  0.40003101
   0.41697797  0.66501022  0.50230635
   0.58406818  0.33311853  0.39833241
   0.58408583  0.83430369  0.39695139
   0.58350888  0.08178655  0.40007055
   0.41798316  0.91905556  0.50109351
   0.16287676  0.91835343  0.50117153
   0.33114018  0.83679119  0.39559058
   0.25175698  0.50043690  0.60193093
   0.16484957  0.66565448  0.50028058
   0.33252504  0.58304910  0.39686493
   0.25057646  0.24619000  0.60144305
   0.50169092  0.24934018  0.60040733
   0.83550013  0.08367066  0.39952073
   0.58514451  0.58245889  0.39565781
  -0.00075111  0.75265384  0.60198771
   0.75016101 -0.00010247  0.60070993
   0.08141620  0.83407906  0.39704586
  -0.00136911  0.49976296  0.60016646
   0.66848366  0.41312813  0.50063327
   0.83759059  0.58078715  0.39868714
   0.66909121  0.66759591  0.50171609
   0.74911728  0.49924057  0.60334139
   0.16516660  0.16961641  0.49988419
   0.66703816  0.16490278  0.50050239
   0.49879582  0.75186200  0.59950182
   0.83523127  0.33264874  0.40295473
   0.75308691  0.24817684  0.59776018
   0.50121187  0.49957838  0.59885041
   0.83423660  0.83243041  0.40397494
   0.08274065  0.08579088  0.40234223
   0.24988217  0.75204962  0.59927760
   0.50091400 -0.00240055  0.59806059
   0.41857636  0.16846246  0.50001832
   0.66793545  0.91787365  0.50046661
   0.16616965  0.41649004  0.49972899
   0.24953039 -0.00130754  0.59909065
   0.33144771  0.08432593  0.40230633
   0.91372564  0.91835431  0.49992045
   0.91639478  0.66704491  0.50008102
   0.08207748  0.58328058  0.40274681
  -0.00028428  0.24765810  0.59713431
   0.91772733  0.41696142  0.50011918
   0.08266609  0.33212634  0.40277106
  -0.00047008  0.00243411  0.59796107
   0.91465650  0.16670355  0.49977831
   0.41713171  0.41380360  0.50050322
   0.74829822  0.75140689  0.59832409
Direct configuration=     8
   0.32973207  0.33349559  0.40001873
   0.41699241  0.66501293  0.50212001
   0.58414981  0.33287151  0.39820078
   0.58410445  0.83421682  0.39674613
   0.58354935  0.08184065  0.39998389
   0.41782656  0.91904753  0.50099508
   0.16316514  0.91861205  0.50103888
   0.33134574  0.83667332  0.39536478
   0.25179555  0.50050892  0.60207360
   0.16494824  0.66533007  0.50027633
   0.33229588  0.58323903  0.39669249
   0.25063865  0.24623041  0.60166216
   0.50170083  0.24932857  0.60052118
   0.83508127  0.08374597  0.39935835
   0.58510097  0.58270865  0.39542581
  -0.00067914  0.75242284  0.60220382
   0.75007426 -0.00015082  0.60082674
   0.08137731  0.83391942  0.39685576
  -0.00132634  0.49980166  0.60034981
   0.66853311  0.41324549  0.50066845
   0.83745731  0.58103494  0.39862303
   0.66911769  0.66744497  0.50162796
   0.74911455  0.49930024  0.60359357
   0.16500680  0.16944136  0.50001137
   0.66706316  0.16507493  0.50047700
   0.49875053  0.75171287  0.59937848
   0.83491560  0.33290558  0.40301696
   0.75282136  0.24848543  0.59765981
   0.50088278  0.49991207  0.59866092
   0.83443249  0.83235957  0.40406417
   0.08296481  0.08571969  0.40242866
   0.25031503  0.75168771  0.59914078
   0.50077343 -0.00248022  0.59797996
   0.41855717  0.16823484  0.50011351
   0.66784571  0.91775940  0.50053868
   0.16633716  0.41666846  0.49992159
   0.24961456 -0.00148748  0.59893275
   0.33156395  0.08419366  0.40242798
   0.91369849  0.91819708  0.50002301
   0.91638527  0.66712148  0.50031580
   0.08222391  0.58330528  0.40293236
  -0.00035649  0.24773317  0.59707871
   0.91764071  0.41697060  0.50025420
   0.08275032  0.33214259  0.40298599
  -0.00007144  0.00219768  0.59790362
   0.91459976  0.16681517  0.49973121
   0.41691480  0.41424092  0.50049040
   0.74827448  0.75120738  0.59830473
Direct configuration=     9
   0.32979386  0.33368645  0.40000122
   0.41701299  0.66501680  0.50185458
   0.58426608  0.33251965  0.39801327
   0.58413097  0.83409308  0.39645374
   0.58360698  0.08191770  0.39986044
   0.41760349  0.91903609  0.50085488
   0.16357593  0.91898044  0.50084993
   0.33163853  0.83650544  0.39504314
   0.25185050  0.50061152  0.60227683
   0.16508878  0.66486798  0.50027029
   0.33196946  0.58350958  0.39644685
   0.25072724  0.24628799  0.60197429
   0.50171495  0.24931204  0.60068335
   0.83448461  0.08385325  0.39912706
   0.58503896  0.58306442  0.39509535
  -0.00057661  0.75209379  0.60251165
   0.74995068 -0.00021969  0.60099313
   0.08132192  0.83369203  0.39658498
  -0.00126541  0.49985678  0.60061099
   0.66860354  0.41341266  0.50071857
   0.83726745  0.58138790  0.39853172
   0.66915540  0.66722996  0.50150243
   0.74911066  0.49938525  0.60395280
   0.16477918  0.16919201  0.50019254
   0.66709877  0.16532014  0.50044082
   0.49868601  0.75150044  0.59920278
   0.83446594  0.33327143  0.40310560
   0.75244309  0.24892500  0.59751684
   0.50041401  0.50038739  0.59839099
   0.83471153  0.83225866  0.40419128
   0.08328411  0.08561829  0.40255177
   0.25093161  0.75117219  0.59894589
   0.50057320 -0.00259370  0.59786510
   0.41852984  0.16791060  0.50024911
   0.66771788  0.91759667  0.50064133
   0.16657577  0.41692262  0.50019594
   0.24973447 -0.00174380  0.59870783
   0.33172953  0.08400525  0.40260126
   0.91365981  0.91797311  0.50016912
   0.91637171  0.66723053  0.50065024
   0.08243251  0.58334047  0.40319667
  -0.00045935  0.24784010  0.59699952
   0.91751731  0.41698367  0.50044652
   0.08287030  0.33216573  0.40329216
   0.00049642  0.00186091  0.59782178
   0.91451895  0.16697417  0.49966411
   0.41660582  0.41486385  0.50047213
   0.74824066  0.75092318  0.59827716
Direct configuration=    10
   0.32984373  0.33363194  0.40006008
   0.41699420  0.66512244  0.50161946
   0.58417086  0.33257295  0.39789834
   0.58425874  0.83415048  0.39624839
   0.58353870  0.08189482  0.39983288
   0.41762262  0.91897953  0.50074745
   0.16348944  0.91886057  0.50070595
   0.33161844  0.83652462  0.39477375
   0.25189476  0.50057545  0.60243401
   0.16493331  0.66514555  0.50029818
   0.33194972  0.58354598  0.39625214
   0.25071070  0.24625631  0.60218078
   0.50176638  0.24927984  0.60073948
   0.83454221  0.08379082  0.39901800
   0.58504912  0.58306598  0.39485097
  -0.00050816  0.75208290  0.60271930
   0.74994887 -0.00024174  0.60104497
   0.08120323  0.83382781  0.39642898
  -0.00119707  0.49976869  0.60081652
   0.66866553  0.41352412  0.50072632
   0.83737486  0.58142438  0.39853468
   0.66926150  0.66703948  0.50142222
   0.74902000  0.49942323  0.60416450
   0.16473862  0.16946159  0.50030904
   0.66704521  0.16526567  0.50043777
   0.49873066  0.75135745  0.59903253
   0.83438482  0.33340314  0.40318146
   0.75233578  0.24900222  0.59741021
   0.50035670  0.50050566  0.59822242
   0.83480177  0.83220275  0.40433766
   0.08322361  0.08564041  0.40261422
   0.25106581  0.75101915  0.59876219
   0.50052599 -0.00269141  0.59778080
   0.41849502  0.16799059  0.50033310
   0.66771708  0.91769179  0.50068756
   0.16669462  0.41668856  0.50039547
   0.24979360 -0.00181482  0.59857591
   0.33176009  0.08409648  0.40273225
   0.91371860  0.91795692  0.50027371
   0.91633608  0.66723703  0.50084362
   0.08239427  0.58331849  0.40341134
  -0.00050853  0.24785011  0.59697793
   0.91747879  0.41708075  0.50056420
   0.08288075  0.33223732  0.40357830
   0.00065958  0.00170157  0.59770402
   0.91442825  0.16691886  0.49960466
   0.41663742  0.41478019  0.50044733
   0.74815373  0.75085336  0.59826494
Direct configuration=    11
   0.32996932  0.33349470  0.40020827
   0.41694688  0.66538842  0.50102745
   0.58393110  0.33270715  0.39760895
   0.58458046  0.83429501  0.39573133
   0.58336678  0.08183720  0.39976347
   0.41767079  0.91883711  0.50047695
   0.16327169  0.91855875  0.50034344
   0.33156785  0.83657292  0.39409544
   0.25200621  0.50048463  0.60282977
   0.16454185  0.66584447  0.50036843
   0.33190000  0.58363764  0.39576187
   0.25066905  0.24617654  0.60270072
   0.50189586  0.24919879  0.60088080
   0.83468722  0.08363365  0.39874342
   0.58507471  0.58306993  0.39423566
  -0.00033580  0.75205547  0.60324214
   0.74994433 -0.00029725  0.60117551
   0.08090439  0.83416972  0.39603618
  -0.00102501  0.49954690  0.60133402
   0.66882161  0.41380474  0.50074582
   0.83764531  0.58151623  0.39854214
   0.66952867  0.66655987  0.50122026
   0.74879173  0.49951886  0.60469752
   0.16463648  0.17014036  0.50060238
   0.66691034  0.16512853  0.50043011
   0.49884307  0.75099742  0.59860386
   0.83418055  0.33373480  0.40337247
   0.75206559  0.24919668  0.59714172
   0.50021241  0.50080348  0.59779795
   0.83502901  0.83206198  0.40470624
   0.08307128  0.08569611  0.40277146
   0.25140373  0.75063381  0.59829964
   0.50040712 -0.00293743  0.59756853
   0.41840736  0.16819200  0.50054461
   0.66771505  0.91793131  0.50080397
   0.16699389  0.41609922  0.50089787
   0.24994250 -0.00199366  0.59824373
   0.33183703  0.08432618  0.40306206
   0.91386665  0.91791613  0.50053708
   0.91624636  0.66725337  0.50133053
   0.08229801  0.58326314  0.40395185
  -0.00063237  0.24787531  0.59692358
   0.91738179  0.41732519  0.50086049
   0.08290706  0.33241756  0.40429880
   0.00107040  0.00130036  0.59740751
   0.91419988  0.16677961  0.49945498
   0.41671698  0.41456954  0.50038486
   0.74793483  0.75067755  0.59823417
Direct configuration=    12
   0.33022049  0.33322022  0.40050466
   0.41685224  0.66592037  0.49984342
   0.58345160  0.33297556  0.39703018
   0.58522389  0.83458407  0.39469721
   0.58302293  0.08172197  0.39962467
   0.41776713  0.91855226  0.49993595
   0.16283617  0.91795512  0.49961840
   0.33146668  0.83666952  0.39273882
   0.25222912  0.50030299  0.60362128
   0.16375891  0.66724231  0.50050891
   0.33180056  0.58382096  0.39478133
   0.25058576  0.24601700  0.60374060
   0.50215483  0.24903668  0.60116344
   0.83497724  0.08331930  0.39819425
   0.58512589  0.58307781  0.39300502
   0.00000891  0.75200061  0.60428783
   0.74993524 -0.00040829  0.60143658
   0.08030670  0.83485353  0.39525059
  -0.00068087  0.49910331  0.60236904
   0.66913378  0.41436600  0.50078483
   0.83818622  0.58169995  0.39855704
   0.67006301  0.66560066  0.50081633
   0.74833520  0.49971013  0.60576358
   0.16443220  0.17149792  0.50118906
   0.66664059  0.16485425  0.50041477
   0.49906789  0.75027737  0.59774651
   0.83377202  0.33439810  0.40375448
   0.75152519  0.24958560  0.59660475
   0.49992382  0.50139910  0.59694902
   0.83548348  0.83178045  0.40544340
   0.08276663  0.08580751  0.40308593
   0.25207957  0.74986313  0.59737455
   0.50016939 -0.00342948  0.59714400
   0.41823204  0.16859480  0.50096761
   0.66771100  0.91841034  0.50103678
   0.16759242  0.41492054  0.50190266
   0.25024030 -0.00235135  0.59757939
   0.33199090  0.08478560  0.40372169
   0.91416274  0.91783457  0.50106381
   0.91606692  0.66728605  0.50230435
   0.08210548  0.58315245  0.40503286
  -0.00088003  0.24792572  0.59681489
   0.91718779  0.41781406  0.50145308
   0.08295967  0.33277804  0.40573980
   0.00189205  0.00049796  0.59681448
   0.91374315  0.16650109  0.49915561
   0.41687609  0.41414824  0.50025994
   0.74749705  0.75032594  0.59817263
Direct configuration=    13
   0.33005687  0.33339903  0.40031158
   0.41691389  0.66557384  0.50061474
   0.58376397  0.33280071  0.39740721
   0.58480474  0.83439576  0.39537087
   0.58324692  0.08179703  0.39971509
   0.41770437  0.91873782  0.50028838
   0.16311988  0.91834835  0.50009071
   0.33153259  0.83660659  0.39362257
   0.25208391  0.50042132  0.60310566
   0.16426894  0.66633171  0.50041739
   0.33186534  0.58370154  0.39542008
   0.25064002  0.24612093  0.60306319
   0.50198613  0.24914228  0.60097932
   0.83478831  0.08352408  0.39855200
   0.58509255  0.58307268  0.39380670
  -0.00021565  0.75203635  0.60360663
   0.74994116 -0.00033596  0.60126651
   0.08069605  0.83440807  0.39576235
  -0.00090505  0.49939228  0.60169480
   0.66893042  0.41400038  0.50075942
   0.83783386  0.58158027  0.39854733
   0.66971492  0.66622552  0.50107946
   0.74863260  0.49958553  0.60506911
   0.16456528  0.17061356  0.50080687
   0.66681631  0.16503293  0.50042476
   0.49892143  0.75074644  0.59830502
   0.83403815  0.33396600  0.40350563
   0.75187722  0.24933224  0.59695455
   0.50011182  0.50101109  0.59750204
   0.83518742  0.83196385  0.40496319
   0.08296509  0.08573494  0.40288107
   0.25163931  0.75036518  0.59797719
   0.50032425 -0.00310894  0.59742055
   0.41834625  0.16833240  0.50069205
   0.66771364  0.91809828  0.50088512
   0.16720251  0.41568838  0.50124810
   0.25004631 -0.00211834  0.59801216
   0.33189066  0.08448632  0.40329199
   0.91396986  0.91788770  0.50072068
   0.91618381  0.66726476  0.50166997
   0.08223090  0.58322456  0.40432865
  -0.00071869  0.24789288  0.59688570
   0.91731417  0.41749559  0.50106705
   0.08292540  0.33254321  0.40480108
   0.00135680  0.00102067  0.59720080
   0.91404068  0.16668253  0.49935063
   0.41677244  0.41442269  0.50034132
   0.74778224  0.75055499  0.59821272
Direct configuration=    14
   0.32995904  0.33350088  0.40046604
   0.41692651  0.66551584  0.50016331
   0.58377866  0.33290359  0.39730114
   0.58487088  0.83438065  0.39512285
   0.58336365  0.08177787  0.39975498
   0.41782520  0.91868095  0.50005326
   0.16298158  0.91851622  0.49982323
   0.33144028  0.83685728  0.39320353
   0.25213469  0.50028348  0.60329884
   0.16427243  0.66618644  0.50047881
   0.33176719  0.58367488  0.39516909
   0.25069276  0.24592668  0.60337854
   0.50193006  0.24914554  0.60101196
   0.83478516  0.08368704  0.39848185
   0.58521030  0.58302818  0.39343061
  -0.00022818  0.75206524  0.60389804
   0.75003814 -0.00041459  0.60130505
   0.08079026  0.83439990  0.39557038
  -0.00098382  0.49936283  0.60200055
   0.66882187  0.41394728  0.50066936
   0.83790369  0.58146881  0.39862865
   0.66969290  0.66646369  0.50093728
   0.74862826  0.49949848  0.60529519
   0.16471647  0.17031144  0.50098550
   0.66672478  0.16501140  0.50037544
   0.49897408  0.75070305  0.59801982
   0.83407857  0.33400729  0.40360936
   0.75206755  0.24907327  0.59683725
   0.50026935  0.50080117  0.59729490
   0.83512639  0.83203906  0.40524805
   0.08284946  0.08594734  0.40294368
   0.25151835  0.75042315  0.59770775
   0.50034286 -0.00317255  0.59733700
   0.41846209  0.16842035  0.50082220
   0.66770814  0.91813133  0.50088973
   0.16721107  0.41596426  0.50160455
   0.25005322 -0.00216485  0.59783921
   0.33174472  0.08450703  0.40343691
   0.91376660  0.91805628  0.50082118
   0.91626058  0.66717215  0.50192785
   0.08236370  0.58320908  0.40466846
  -0.00084024  0.24782272  0.59693548
   0.91731740  0.41764035  0.50127702
   0.08283067  0.33263332  0.40515049
   0.00121155  0.00107033  0.59703563
   0.91402349  0.16659068  0.49926272
   0.41681714  0.41437465  0.50029292
   0.74780051  0.75057055  0.59823439
Direct configuration=    15
   0.32977489  0.33369263  0.40075681
   0.41695027  0.66540665  0.49931353
   0.58380632  0.33309725  0.39710145
   0.58499540  0.83435220  0.39465595
   0.58358338  0.08174179  0.39983006
   0.41805264  0.91857391  0.49961067
   0.16272122  0.91883223  0.49931970
   0.33126651  0.83732919  0.39241470
   0.25223027  0.50002401  0.60366249
   0.16427898  0.66591296  0.50059443
   0.33158244  0.58362470  0.39469659
   0.25079205  0.24556100  0.60397218
   0.50182450  0.24915167  0.60107340
   0.83477924  0.08399383  0.39834981
   0.58543196  0.58294441  0.39272264
  -0.00025179  0.75211962  0.60444659
   0.75022069 -0.00056260  0.60137761
   0.08096761  0.83438451  0.39520900
  -0.00113210  0.49930740  0.60257611
   0.66861752  0.41384731  0.50049983
   0.83803514  0.58125898  0.39878173
   0.66965143  0.66691203  0.50066963
   0.74862008  0.49933461  0.60572076
   0.16500108  0.16974272  0.50132175
   0.66655248  0.16497087  0.50028260
   0.49907318  0.75062138  0.59748294
   0.83415465  0.33408503  0.40380463
   0.75242584  0.24858575  0.59661645
   0.50056591  0.50040600  0.59690498
   0.83501149  0.83218064  0.40578427
   0.08263180  0.08634717  0.40306153
   0.25129064  0.75053229  0.59720056
   0.50037788 -0.00329228  0.59717972
   0.41868015  0.16858590  0.50106719
   0.66769779  0.91819355  0.50089841
   0.16722718  0.41648360  0.50227556
   0.25006623 -0.00225241  0.59751362
   0.33147000  0.08454600  0.40370972
   0.91338397  0.91837363  0.50101037
   0.91640508  0.66699782  0.50241329
   0.08261370  0.58317995  0.40530814
  -0.00106906  0.24769065  0.59702920
   0.91732349  0.41791284  0.50167227
   0.08265234  0.33280294  0.40580824
   0.00093813  0.00116380  0.59672469
   0.91399113  0.16641778  0.49909723
   0.41690130  0.41428421  0.50020180
   0.74783492  0.75059985  0.59827519
Direct configuration=    16
   0.32973006  0.33373931  0.40082760
   0.41695606  0.66538007  0.49910664
   0.58381305  0.33314440  0.39705283
   0.58502572  0.83434528  0.39454227
   0.58363688  0.08173301  0.39984834
   0.41810802  0.91854785  0.49950291
   0.16265783  0.91890917  0.49919711
   0.33122421  0.83744408  0.39222264
   0.25225354  0.49996084  0.60375102
   0.16428058  0.66584638  0.50062258
   0.33153746  0.58361249  0.39458156
   0.25081622  0.24547197  0.60411672
   0.50179880  0.24915316  0.60108836
   0.83477780  0.08406852  0.39831766
   0.58548592  0.58292402  0.39255027
  -0.00025753  0.75213286  0.60458015
   0.75026514 -0.00059864  0.60139528
   0.08101079  0.83438077  0.39512102
  -0.00116820  0.49929390  0.60271624
   0.66856777  0.41382297  0.50045855
   0.83806714  0.58120790  0.39881900
   0.66964134  0.66702118  0.50060447
   0.74861809  0.49929472  0.60582438
   0.16507037  0.16960425  0.50140362
   0.66651053  0.16496101  0.50025999
   0.49909731  0.75060150  0.59735223
   0.83417317  0.33410395  0.40385218
   0.75251307  0.24846706  0.59656269
   0.50063811  0.50030979  0.59681004
   0.83498352  0.83221512  0.40591483
   0.08257881  0.08644452  0.40309022
   0.25123520  0.75055886  0.59707707
   0.50038641 -0.00332144  0.59714143
   0.41873324  0.16862621  0.50112684
   0.66769528  0.91820870  0.50090052
   0.16723110  0.41661005  0.50243892
   0.25006939 -0.00227373  0.59743435
   0.33140312  0.08455549  0.40377614
   0.91329082  0.91845089  0.50105644
   0.91644027  0.66695538  0.50253149
   0.08267457  0.58317286  0.40546388
  -0.00112477  0.24765849  0.59705201
   0.91732497  0.41797918  0.50176851
   0.08260892  0.33284424  0.40596838
   0.00087157  0.00118655  0.59664899
   0.91398326  0.16637569  0.49905694
   0.41692179  0.41426219  0.50017961
   0.74784329  0.75060698  0.59828512
Direct configuration=    17
   0.32970201  0.33361483  0.40102445
   0.41690950  0.66527209  0.49880356
   0.58388663  0.33323262  0.39704216
   0.58486634  0.83428867  0.39445165