  48  48   0   0
  0.5349325E+02  0.1100258E-08  0.1100258E-08  0.2449179E-08  0.3500000E-15
  1.000000000000000E-004
  CAR 
 unknown system                          
      6.37228457     -9.84680823  301     -1.10900802      1.00000000
     -9.847  0.0000E+00  0.0000E+00
     -9.793  0.0000E+00  0.0000E+00
     -9.739  0.0000E+00  0.0000E+00
     -9.685  0.0000E+00  0.0000E+00
     -9.631  0.0000E+00  0.0000E+00
     -9.576  0.0000E+00  0.0000E+00
     -9.522  0.0000E+00  0.0000E+00
     -9.468  0.0000E+00  0.0000E+00
     -9.414  0.1027E-16  0.5551E-18
     -9.360  0.4137E-14  0.2242E-15
     -9.306  0.9208E-12  0.5000E-13
     -9.252  0.1158E-09  0.6308E-11
     -9.198  0.8234E-08  0.4515E-09
     -9.144  0.3321E-06  0.1841E-07
     -9.090  0.7614E-05  0.4300E-06
     -9.036  0.9945E-04  0.5807E-05
     -8.982  0.7420E-03  0.4592E-04
     -8.928  0.3171E-02  0.2174E-03
     -8.874  0.7788E-02  0.6384E-03
     -8.820  0.1113E-01  0.1240E-02
     -8.766  0.1002E-01  0.1782E-02
     -8.711  0.8293E-02  0.2230E-02
     -8.657  0.9841E-02  0.2762E-02
     -8.603  0.1091E-01  0.3352E-02
     -8.549  0.7761E-02  0.3772E-02
     -8.495  0.3288E-02  0.3949E-02
     -8.441  0.8964E-03  0.3998E-02
     -8.387  0.6819E-03  0.4035E-02
     -8.333  0.2352E-02  0.4162E-02
     -8.279  0.6010E-02  0.4487E-02
     -8.225  0.9646E-02  0.5008E-02
     -8.171  0.9766E-02  0.5536E-02
     -8.117  0.6790E-02  0.5903E-02
     -8.063  0.5658E-02  0.6209E-02
     -8.009  0.9002E-02  0.6696E-02
     -7.955  0.1377E-01  0.7441E-02
     -7.901  0.1614E-01  0.8313E-02
     -7.846  0.1519E-01  0.9135E-02
     -7.792  0.1183E-01  0.9774E-02
     -7.738  0.9702E-02  0.1030E-01
     -7.684  0.1111E-01  0.1090E-01
     -7.630  0.1317E-01  0.1161E-01
     -7.576  0.1480E-01  0.1241E-01
     -7.522  0.1812E-01  0.1339E-01
     -7.468  0.2221E-01  0.1459E-01
     -7.414  0.2450E-01  0.1592E-01
     -7.360  0.2476E-01  0.1725E-01
     -7.306  0.2585E-01  0.1865E-01
     -7.252  0.2938E-01  0.2024E-01
     -7.198  0.3278E-01  0.2201E-01
     -7.144  0.3590E-01  0.2395E-01
     -7.090  0.4002E-01  0.2612E-01
     -7.035  0.4344E-01  0.2847E-01
     -6.981  0.4680E-01  0.3100E-01
     -6.927  0.5175E-01  0.3379E-01
     -6.873  0.5591E-01  0.3682E-01
     -6.819  0.5884E-01  0.4000E-01
     -6.765  0.6548E-01  0.4354E-01
     -6.711  0.7701E-01  0.4770E-01
     -6.657  0.8875E-01  0.5250E-01
     -6.603  0.9833E-01  0.5782E-01
     -6.549  0.1065E+00  0.6357E-01
     -6.495  0.1135E+00  0.6971E-01
     -6.441  0.1187E+00  0.7613E-01
     -6.387  0.1230E+00  0.8278E-01
     -6.333  0.1283E+00  0.8972E-01
     -6.279  0.1360E+00  0.9707E-01
     -6.225  0.1465E+00  0.1050E+00
     -6.170  0.1561E+00  0.1134E+00
     -6.116  0.1600E+00  0.1221E+00
     -6.062  0.1585E+00  0.1307E+00
     -6.008  0.1561E+00  0.1391E+00
     -5.954  0.1556E+00  0.1475E+00
     -5.900  0.1555E+00  0.1559E+00
     -5.846  0.1519E+00  0.1641E+00
     -5.792  0.1440E+00  0.1719E+00
     -5.738  0.1345E+00  0.1792E+00
     -5.684  0.1278E+00  0.1861E+00
     -5.630  0.1276E+00  0.1930E+00
     -5.576  0.1333E+00  0.2002E+00
     -5.522  0.1380E+00  0.2076E+00
     -5.468  0.1373E+00  0.2151E+00
     -5.414  0.1345E+00  0.2223E+00
     -5.360  0.1349E+00  0.2296E+00
     -5.305  0.1431E+00  0.2374E+00
     -5.251  0.1572E+00  0.2459E+00
     -5.197  0.1704E+00  0.2551E+00
     -5.143  0.1802E+00  0.2648E+00
     -5.089  0.1864E+00  0.2749E+00
     -5.035  0.1877E+00  0.2851E+00
     -4.981  0.1839E+00  0.2950E+00
     -4.927  0.1762E+00  0.3045E+00
     -4.873  0.1683E+00  0.3136E+00
     -4.819  0.1643E+00  0.3225E+00
     -4.765  0.1662E+00  0.3315E+00
     -4.711  0.1718E+00  0.3408E+00
     -4.657  0.1762E+00  0.3503E+00
     -4.603  0.1787E+00  0.3600E+00
     -4.549  0.1810E+00  0.3697E+00
     -4.495  0.1815E+00  0.3796E+00
     -4.440  0.1776E+00  0.3892E+00
     -4.386  0.1713E+00  0.3984E+00
     -4.332  0.1682E+00  0.4075E+00
     -4.278  0.1697E+00  0.4167E+00
     -4.224  0.1724E+00  0.4260E+00
     -4.170  0.1743E+00  0.4354E+00
     -4.116  0.1762E+00  0.4450E+00
     -4.062  0.1781E+00  0.4546E+00
     -4.008  0.1792E+00  0.4643E+00
     -3.954  0.1808E+00  0.4740E+00
     -3.900  0.1846E+00  0.4840E+00
     -3.846  0.1882E+00  0.4942E+00
     -3.792  0.1899E+00  0.5045E+00
     -3.738  0.1923E+00  0.5149E+00
     -3.684  0.1956E+00  0.5254E+00
     -3.629  0.1985E+00  0.5362E+00
     -3.575  0.2013E+00  0.5470E+00
     -3.521  0.2034E+00  0.5580E+00
     -3.467  0.2047E+00  0.5691E+00
     -3.413  0.2051E+00  0.5802E+00
     -3.359  0.2022E+00  0.5911E+00
     -3.305  0.1949E+00  0.6017E+00
     -3.251  0.1857E+00  0.6117E+00
     -3.197  0.1788E+00  0.6214E+00
     -3.143  0.1772E+00  0.6310E+00
     -3.089  0.1781E+00  0.6406E+00
     -3.035  0.1780E+00  0.6502E+00
     -2.981  0.1777E+00  0.6598E+00
     -2.927  0.1802E+00  0.6696E+00
     -2.873  0.1847E+00  0.6795E+00
     -2.819  0.1870E+00  0.6897E+00
     -2.764  0.1870E+00  0.6998E+00
     -2.710  0.1872E+00  0.7099E+00
     -2.656  0.1889E+00  0.7201E+00
     -2.602  0.1937E+00  0.7306E+00
     -2.548  0.2001E+00  0.7414E+00
     -2.494  0.2026E+00  0.7523E+00
     -2.440  0.1977E+00  0.7630E+00
     -2.386  0.1887E+00  0.7732E+00
     -2.332  0.1833E+00  0.7831E+00
     -2.278  0.1863E+00  0.7932E+00
     -2.224  0.1912E+00  0.8035E+00
     -2.170  0.1891E+00  0.8138E+00
     -2.116  0.1821E+00  0.8236E+00
     -2.062  0.1801E+00  0.8334E+00
     -2.008  0.1858E+00  0.8434E+00
     -1.954  0.1935E+00  0.8539E+00
     -1.899  0.1971E+00  0.8645E+00
     -1.845  0.1984E+00  0.8752E+00
     -1.791  0.2029E+00  0.8862E+00
     -1.737  0.2086E+00  0.8975E+00
     -1.683  0.2130E+00  0.9090E+00
     -1.629  0.2155E+00  0.9207E+00
     -1.575  0.2102E+00  0.9320E+00
     -1.521  0.1961E+00  0.9426E+00
     -1.467  0.1836E+00  0.9526E+00
     -1.413  0.1800E+00  0.9623E+00
     -1.359  0.1811E+00  0.9721E+00
     -1.305  0.1760E+00  0.9816E+00
     -1.251  0.1610E+00  0.9903E+00
     -1.197  0.1415E+00  0.9979E+00
     -1.143  0.1214E+00  0.1005E+01
     -1.088  0.9967E-01  0.1010E+01
     -1.034  0.7449E-01  0.1014E+01
     -0.980  0.4910E-01  0.1017E+01
     -0.926  0.3088E-01  0.1018E+01
     -0.872  0.2240E-01  0.1019E+01
     -0.818  0.1989E-01  0.1021E+01
     -0.764  0.1962E-01  0.1022E+01
     -0.710  0.1931E-01  0.1023E+01
     -0.656  0.1926E-01  0.1024E+01
     -0.602  0.2322E-01  0.1025E+01
     -0.548  0.3375E-01  0.1027E+01
     -0.494  0.4524E-01  0.1029E+01
     -0.440  0.4869E-01  0.1032E+01
     -0.386  0.4389E-01  0.1034E+01
     -0.332  0.3864E-01  0.1036E+01
     -0.278  0.3931E-01  0.1038E+01
     -0.223  0.4240E-01  0.1041E+01
     -0.169  0.3972E-01  0.1043E+01
     -0.115  0.3160E-01  0.1045E+01
     -0.061  0.2391E-01  0.1046E+01
     -0.007  0.1929E-01  0.1047E+01
      0.047  0.1757E-01  0.1048E+01
      0.101  0.2011E-01  0.1049E+01
      0.155  0.2629E-01  0.1050E+01
      0.209  0.3025E-01  0.1052E+01
      0.263  0.3064E-01  0.1054E+01
      0.317  0.3317E-01  0.1055E+01
      0.371  0.3897E-01  0.1058E+01
      0.425  0.4250E-01  0.1060E+01
      0.479  0.4256E-01  0.1062E+01
      0.533  0.4446E-01  0.1065E+01
      0.587  0.4996E-01  0.1067E+01
      0.642  0.5278E-01  0.1070E+01
      0.696  0.4833E-01  0.1073E+01
      0.750  0.4135E-01  0.1075E+01
      0.804  0.3620E-01  0.1077E+01
      0.858  0.3050E-01  0.1079E+01
      0.912  0.2418E-01  0.1080E+01
      0.966  0.2090E-01  0.1081E+01
      1.020  0.2096E-01  0.1082E+01
      1.074  0.2135E-01  0.1083E+01
      1.128  0.1890E-01  0.1084E+01
      1.182  0.1441E-01  0.1085E+01
      1.236  0.1233E-01  0.1086E+01
      1.290  0.1332E-01  0.1086E+01
      1.344  0.1383E-01  0.1087E+01
      1.398  0.1343E-01  0.1088E+01
      1.452  0.1661E-01  0.1089E+01
      1.507  0.2478E-01  0.1090E+01
      1.561  0.3313E-01  0.1092E+01
      1.615  0.3732E-01  0.1094E+01
      1.669  0.3654E-01  0.1096E+01
      1.723  0.3421E-01  0.1098E+01
      1.777  0.3385E-01  0.1100E+01
      1.831  0.3303E-01  0.1101E+01
      1.885  0.2918E-01  0.1103E+01
      1.939  0.2423E-01  0.1104E+01
      1.993  0.1903E-01  0.1105E+01
      2.047  0.1562E-01  0.1106E+01
      2.101  0.1905E-01  0.1107E+01
      2.155  0.2845E-01  0.1109E+01
      2.209  0.3794E-01  0.1111E+01
      2.263  0.4614E-01  0.1113E+01
      2.318  0.5298E-01  0.1116E+01
      2.372  0.5453E-01  0.1119E+01
      2.426  0.4971E-01  0.1122E+01
      2.480  0.4402E-01  0.1124E+01
      2.534  0.4204E-01  0.1126E+01
      2.588  0.4188E-01  0.1129E+01
      2.642  0.4160E-01  0.1131E+01
      2.696  0.4111E-01  0.1133E+01
      2.750  0.3700E-01  0.1135E+01
      2.804  0.2754E-01  0.1137E+01
      2.858  0.1711E-01  0.1138E+01
      2.912  0.1141E-01  0.1138E+01
      2.966  0.1125E-01  0.1139E+01
      3.020  0.1158E-01  0.1139E+01
      3.074  0.1048E-01  0.1140E+01
      3.128  0.1274E-01  0.1141E+01
      3.183  0.1981E-01  0.1142E+01
      3.237  0.2517E-01  0.1143E+01
      3.291  0.2363E-01  0.1144E+01
      3.345  0.1881E-01  0.1145E+01
      3.399  0.1764E-01  0.1146E+01
      3.453  0.2288E-01  0.1148E+01
      3.507  0.3169E-01  0.1149E+01
      3.561  0.3843E-01  0.1151E+01
      3.615  0.3951E-01  0.1154E+01
      3.669  0.3655E-01  0.1156E+01
      3.723  0.3354E-01  0.1157E+01
      3.777  0.3035E-01  0.1159E+01
      3.831  0.2566E-01  0.1160E+01
      3.885  0.2160E-01  0.1162E+01
      3.939  0.2084E-01  0.1163E+01
      3.993  0.2395E-01  0.1164E+01
      4.048  0.2784E-01  0.1165E+01
      4.102  0.2882E-01  0.1167E+01
      4.156  0.2808E-01  0.1169E+01
      4.210  0.2706E-01  0.1170E+01
      4.264  0.2197E-01  0.1171E+01
      4.318  0.1494E-01  0.1172E+01
      4.372  0.1526E-01  0.1173E+01
      4.426  0.2324E-01  0.1174E+01
      4.480  0.3049E-01  0.1176E+01
      4.534  0.3587E-01  0.1178E+01
      4.588  0.4455E-01  0.1180E+01
      4.642  0.5425E-01  0.1183E+01
      4.696  0.5732E-01  0.1186E+01
      4.750  0.5248E-01  0.1189E+01
      4.804  0.4732E-01  0.1192E+01
      4.859  0.4847E-01  0.1194E+01
      4.913  0.5337E-01  0.1197E+01
      4.967  0.5818E-01  0.1200E+01
      5.021  0.6453E-01  0.1204E+01
      5.075  0.7072E-01  0.1207E+01
      5.129  0.6961E-01  0.1211E+01
      5.183  0.6243E-01  0.1215E+01
      5.237  0.5631E-01  0.1218E+01
      5.291  0.4929E-01  0.1220E+01
      5.345  0.3627E-01  0.1222E+01
      5.399  0.2035E-01  0.1223E+01
      5.453  0.8322E-02  0.1224E+01
      5.507  0.2386E-02  0.1224E+01
      5.561  0.4559E-03  0.1224E+01
      5.615  0.5514E-04  0.1224E+01
      5.669  0.4048E-05  0.1224E+01
      5.724  0.1753E-06  0.1224E+01
      5.778  0.4402E-08  0.1224E+01
      5.832  0.6336E-10  0.1224E+01
      5.886  0.5189E-12  0.1224E+01
      5.940  0.2407E-14  0.1224E+01
      5.994  0.5476E-17  0.1224E+01
      6.048  0.0000E+00  0.1224E+01
      6.102  0.0000E+00  0.1224E+01
      6.156  0.0000E+00  0.1224E+01
      6.210  0.0000E+00  0.1224E+01
      6.264  0.0000E+00  0.1224E+01
      6.318  0.0000E+00  0.1224E+01
      6.372  0.0000E+00  0.1224E+01
