       N       E                     dE             d eps       ncg     rms          rms(c)
DAV:   1     0.320101030738E+04    0.32010E+04   -0.18984E+05  3672   0.112E+03
DAV:   2     0.129382607570E+02   -0.31881E+04   -0.29283E+04  4380   0.263E+02
DAV:   3    -0.201489439258E+03   -0.21443E+03   -0.19979E+03  4152   0.650E+01
DAV:   4    -0.207209552345E+03   -0.57201E+01   -0.56569E+01  4176   0.107E+01
DAV:   5    -0.207400203425E+03   -0.19065E+00   -0.19008E+00  4428   0.201E+00    0.623E+01
RMM:   6    -0.202040064029E+03    0.53601E+01   -0.10009E+02  3678   0.155E+01    0.559E+01
RMM:   7    -0.208444584470E+03   -0.64045E+01   -0.58334E+01  3681   0.127E+01    0.449E+01
RMM:   8    -0.226924888410E+03   -0.18480E+02   -0.87119E+01  3675   0.141E+01    0.470E+01
RMM:   9    -0.212436786920E+03    0.14488E+02   -0.59610E+01  3678   0.118E+01    0.357E+01
RMM:  10    -0.197057447043E+03    0.15379E+02   -0.19611E+01  3681   0.734E+00    0.214E+01
RMM:  11    -0.192224219132E+03    0.48332E+01   -0.14199E+01  3678   0.601E+00    0.130E+01
RMM:  12    -0.189725172711E+03    0.24990E+01   -0.54206E+00  3679   0.355E+00    0.964E+00
RMM:  13    -0.189244801710E+03    0.48037E+00   -0.16127E+00  3680   0.198E+00    0.691E+00
RMM:  14    -0.189198044079E+03    0.46758E-01   -0.92787E-01  3678   0.147E+00    0.628E+00
RMM:  15    -0.189211502912E+03   -0.13459E-01   -0.41755E-01  3678   0.999E-01    0.620E+00
RMM:  16    -0.188987679320E+03    0.22382E+00   -0.29198E-01  3679   0.851E-01    0.393E+00
RMM:  17    -0.188876500499E+03    0.11118E+00   -0.18061E-01  3678   0.654E-01    0.283E+00
RMM:  18    -0.188821183795E+03    0.55317E-01   -0.89375E-02  3680   0.458E-01    0.170E+00
RMM:  19    -0.188786604506E+03    0.34579E-01   -0.33289E-02  3680   0.276E-01    0.733E-01
RMM:  20    -0.188781887561E+03    0.47169E-02   -0.67561E-03  3679   0.121E-01    0.504E-01
RMM:  21    -0.188781271157E+03    0.61640E-03   -0.27274E-03  3682   0.798E-02    0.454E-01
RMM:  22    -0.188780239649E+03    0.10315E-02   -0.18126E-03  3680   0.641E-02    0.369E-01
RMM:  23    -0.188778966207E+03    0.12734E-02   -0.15248E-03  3678   0.576E-02    0.220E-01
RMM:  24    -0.188778629427E+03    0.33678E-03   -0.64218E-04  3680   0.369E-02    0.848E-02
RMM:  25    -0.188778869400E+03   -0.23997E-03   -0.46327E-04  3679   0.299E-02    0.837E-02
RMM:  26    -0.188779151356E+03   -0.28196E-03   -0.11316E-04  3678   0.156E-02    0.379E-02
RMM:  27    -0.188779618401E+03   -0.46705E-03   -0.57138E-05  3678   0.107E-02    0.406E-02
RMM:  28    -0.188780056662E+03   -0.43826E-03   -0.38951E-05  3672   0.911E-03    0.234E-02
RMM:  29    -0.188780680010E+03   -0.62335E-03   -0.34813E-05  3671   0.809E-03    0.234E-02
RMM:  30    -0.188781122507E+03   -0.44250E-03   -0.23608E-05  3511   0.652E-03    0.143E-02
RMM:  31    -0.188781733109E+03   -0.61060E-03   -0.38661E-05  3650   0.845E-03    0.132E-02
RMM:  32    -0.188781891810E+03   -0.15870E-03   -0.11351E-05  2940   0.420E-03    0.635E-03
RMM:  33    -0.188782026574E+03   -0.13476E-03   -0.57097E-06  2681   0.300E-03    0.570E-03
RMM:  34    -0.188782100729E+03   -0.74155E-04   -0.24533E-06  2388   0.207E-03    0.333E-03
RMM:  35    -0.188782154849E+03   -0.54120E-04   -0.10056E-06  2174   0.138E-03    0.225E-03
RMM:  36    -0.188782184535E+03   -0.29686E-04   -0.50386E-07  2123   0.978E-04    0.128E-03
RMM:  37    -0.188782215707E+03   -0.31172E-04   -0.52196E-07  2148   0.995E-04    0.111E-03
RMM:  38    -0.188782226759E+03   -0.11053E-04   -0.24601E-07  1715   0.681E-04    0.978E-04
RMM:  39    -0.188782231638E+03   -0.48790E-05   -0.14958E-07  1490   0.547E-04    0.395E-04
RMM:  40    -0.188782232532E+03   -0.89330E-06   -0.37837E-08   913   0.372E-04
   1 F= -.18878223E+03 E0= -.18864713E+03  d E =-.188782E+03
       N       E                     dE             d eps       ncg     rms          rms(c)
DAV:   1    -0.189904186060E+03   -0.11220E+01   -0.39500E+02  3672   0.304E+01    0.396E+00
RMM:   2    -0.190308109659E+03   -0.40392E+00   -0.40968E+00  3678   0.439E+00    0.249E+00
RMM:   3    -0.190448417478E+03   -0.14031E+00   -0.42775E-01  3703   0.113E+00    0.436E+00
RMM:   4    -0.190287560175E+03    0.16086E+00   -0.19535E-01  3687   0.742E-01    0.134E+00
RMM:   5    -0.190333353679E+03   -0.45794E-01   -0.87218E-02  3685   0.463E-01    0.231E+00
RMM:   6    -0.190293408408E+03    0.39945E-01   -0.49234E-02  3683   0.338E-01    0.131E+00
RMM:   7    -0.190276179533E+03    0.17229E-01   -0.15884E-02  3682   0.198E-01    0.527E-01
RMM:   8    -0.190273825361E+03    0.23542E-02   -0.56917E-03  3683   0.118E-01    0.315E-01
RMM:   9    -0.190273005942E+03    0.81942E-03   -0.25235E-03  3682   0.785E-02    0.210E-01
RMM:  10    -0.190272693596E+03    0.31235E-03   -0.90868E-04  3685   0.475E-02    0.121E-01
RMM:  11    -0.190272578339E+03    0.11526E-03   -0.22786E-04  3688   0.245E-02    0.584E-02
RMM:  12    -0.190272581401E+03   -0.30619E-05   -0.59457E-05  3686   0.124E-02    0.584E-02
RMM:  13    -0.190272562517E+03    0.18884E-04   -0.32567E-05  3676   0.932E-03    0.344E-02
RMM:  14    -0.190272556942E+03    0.55758E-05   -0.20377E-05  3672   0.732E-03    0.191E-02
RMM:  15    -0.190272554584E+03    0.23573E-05   -0.66527E-06  3102   0.421E-03    0.677E-03
RMM:  16    -0.190272555194E+03   -0.60996E-06   -0.16332E-06  2118   0.218E-03
   2 F= -.19027256E+03 E0= -.19013732E+03  d E =-.149032E+01
       N       E                     dE             d eps       ncg     rms          rms(c)
DAV:   1    -0.188641213597E+03    0.16313E+01   -0.35314E+03  3672   0.934E+01    0.921E+00
RMM:   2    -0.192100818948E+03   -0.34596E+01   -0.34892E+01  3680   0.129E+01    0.604E+00
RMM:   3    -0.192899433943E+03   -0.79861E+00   -0.28259E+00  3707   0.289E+00    0.109E+01
RMM:   4    -0.191873868607E+03    0.10256E+01   -0.10286E+00  3686   0.171E+00    0.387E+00
RMM:   5    -0.192049351343E+03   -0.17548E+00   -0.65789E-01  3684   0.128E+00    0.514E+00
RMM:   6    -0.191954489516E+03    0.94862E-01   -0.41529E-01  3687   0.102E+00    0.379E+00
RMM:   7    -0.191826613175E+03    0.12788E+00   -0.16344E-01  3684   0.618E-01    0.237E+00
RMM:   8    -0.191780694160E+03    0.45919E-01   -0.75938E-02  3682   0.422E-01    0.134E+00
RMM:   9    -0.191760530562E+03    0.20164E-01   -0.31553E-02  3685   0.277E-01    0.581E-01
RMM:  10    -0.191757839418E+03    0.26911E-02   -0.73466E-03  3685   0.135E-01    0.320E-01
RMM:  11    -0.191757553861E+03    0.28556E-03   -0.22520E-03  3685   0.747E-02    0.245E-01
RMM:  12    -0.191757263990E+03    0.28987E-03   -0.96778E-04  3683   0.500E-02    0.168E-01
RMM:  13    -0.191757155548E+03    0.10844E-03   -0.39692E-04  3682   0.326E-02    0.111E-01
RMM:  14    -0.191757079751E+03    0.75796E-04   -0.20491E-04  3679   0.231E-02    0.592E-02
RMM:  15    -0.191757058736E+03    0.21015E-04   -0.63213E-05  3679   0.127E-02    0.276E-02
RMM:  16    -0.191757056997E+03    0.17393E-05   -0.17185E-05  3672   0.660E-03    0.143E-02
RMM:  17    -0.191757060957E+03   -0.39599E-05   -0.41512E-06  2777   0.335E-03    0.977E-03
RMM:  18    -0.191757064847E+03   -0.38897E-05   -0.21487E-06  2291   0.247E-03    0.819E-03
RMM:  19    -0.191757069593E+03   -0.47467E-05   -0.83577E-07  2080   0.169E-03    0.258E-03
RMM:  20    -0.191757071963E+03   -0.23694E-05   -0.24134E-07  1935   0.806E-04    0.167E-03
RMM:  21    -0.191757076015E+03   -0.40519E-05   -0.14436E-07  1544   0.590E-04    0.957E-04
RMM:  22    -0.191757078459E+03   -0.24449E-05   -0.66005E-08  1000   0.451E-04    0.715E-04
RMM:  23    -0.191757083556E+03   -0.50968E-05   -0.19556E-07  1666   0.552E-04    0.498E-04
RMM:  24    -0.191757086326E+03   -0.27696E-05   -0.12878E-07  1232   0.458E-04    0.505E-04
RMM:  25    -0.191757087836E+03   -0.15106E-05   -0.91682E-08  1030   0.417E-04    0.338E-04
RMM:  26    -0.191757089274E+03   -0.14380E-05   -0.14320E-07  1214   0.466E-04    0.384E-04
RMM:  27    -0.191757089603E+03   -0.32839E-06   -0.24361E-08   611   0.360E-04
   3 F= -.19175709E+03 E0= -.19162207E+03  d E =-.297486E+01
       N       E                     dE             d eps       ncg     rms          rms(c)
DAV:   1    -0.191921910841E+03   -0.16482E+00   -0.40380E+02  3672   0.311E+01    0.278E+00
RMM:   2    -0.192357050321E+03   -0.43514E+00   -0.45325E+00  3681   0.455E+00    0.185E+00
RMM:   3    -0.192435188660E+03   -0.78138E-01   -0.34505E-01  3715   0.102E+00    0.337E+00
RMM:   4    -0.192333001688E+03    0.10219E+00   -0.84556E-02  3686   0.504E-01    0.101E+00
RMM:   5    -0.192369303668E+03   -0.36302E-01   -0.66961E-02  3683   0.406E-01    0.205E+00
RMM:   6    -0.192347336965E+03    0.21967E-01   -0.43760E-02  3686   0.322E-01    0.144E+00
RMM:   7    -0.192328374063E+03    0.18963E-01   -0.17658E-02  3682   0.204E-01    0.559E-01
RMM:   8    -0.192325876475E+03    0.24976E-02   -0.59588E-03  3684   0.123E-01    0.361E-01
RMM:   9    -0.192324354680E+03    0.15218E-02   -0.25728E-03  3681   0.800E-02    0.154E-01
RMM:  10    -0.192324145057E+03    0.20962E-03   -0.64089E-04  3683   0.392E-02    0.799E-02
RMM:  11    -0.192324100714E+03    0.44343E-04   -0.16116E-04  3687   0.199E-02    0.486E-02
RMM:  12    -0.192324101651E+03   -0.93695E-06   -0.69423E-05  3684   0.132E-02    0.442E-02
RMM:  13    -0.192324089050E+03    0.12601E-04   -0.31218E-05  3679   0.909E-03    0.221E-02
RMM:  14    -0.192324089454E+03   -0.40334E-06   -0.96747E-06  3352   0.506E-03
   4 F= -.19232409E+03 E0= -.19219192E+03  d E =-.567000E+00
       N       E                     dE             d eps       ncg     rms          rms(c)
DAV:   1    -0.192286878247E+03    0.37211E-01   -0.10506E+02  3708   0.158E+01    0.128E+00
RMM:   2    -0.192402441469E+03   -0.11556E+00   -0.12006E+00  3681   0.234E+00    0.942E-01
RMM:   3    -0.192419221471E+03   -0.16780E-01   -0.89663E-02  3717   0.522E-01    0.164E+00
RMM:   4    -0.192395695994E+03    0.23525E-01   -0.18813E-02  3686   0.240E-01    0.503E-01
RMM:   5    -0.192400991720E+03   -0.52957E-02   -0.15044E-02  3683   0.194E-01    0.864E-01
RMM:   6    -0.192399317584E+03    0.16741E-02   -0.11395E-02  3684   0.166E-01    0.749E-01
RMM:   7    -0.192394600241E+03    0.47173E-02   -0.44123E-03  3685   0.101E-01    0.338E-01
RMM:   8    -0.192393671890E+03    0.92835E-03   -0.16243E-03  3682   0.644E-02    0.184E-01
RMM:   9    -0.192393268592E+03    0.40330E-03   -0.71809E-04  3682   0.424E-02    0.815E-02
RMM:  10    -0.192393200397E+03    0.68195E-04   -0.19460E-04  3683   0.213E-02    0.421E-02
RMM:  11    -0.192393187719E+03    0.12678E-04   -0.49896E-05  3685   0.109E-02    0.256E-02
RMM:  12    -0.192393188079E+03   -0.36040E-06   -0.21549E-05  3679   0.729E-03    0.212E-02
RMM:  13    -0.192393186478E+03    0.16008E-05   -0.90692E-06  3582   0.487E-03    0.114E-02
RMM:  14    -0.192393187661E+03   -0.11830E-05   -0.24852E-06  2303   0.269E-03    0.866E-03
RMM:  15    -0.192393187795E+03   -0.13402E-06   -0.92434E-07  2003   0.180E-03
   5 F= -.19239319E+03 E0= -.19226238E+03  d E =-.636098E+00
       N       E                     dE             d eps       ncg     rms          rms(c)
DAV:   1    -0.192410398830E+03   -0.17211E-01   -0.37961E+01  3708   0.954E+00    0.860E-01
RMM:   2    -0.192451908875E+03   -0.41510E-01   -0.43367E-01  3682   0.139E+00    0.639E-01
RMM:   3    -0.192470301506E+03   -0.18393E-01   -0.35903E-02  3707   0.319E-01    0.143E+00
RMM:   4    -0.192453227582E+03    0.17074E-01   -0.11263E-02  3688   0.167E-01    0.676E-01
RMM:   5    -0.192449515467E+03    0.37121E-02   -0.45804E-03  3681   0.107E-01    0.341E-01
RMM:   6    -0.192449827710E+03   -0.31224E-03   -0.51890E-03  3683   0.114E-01    0.325E-01
RMM:   7    -0.192448843229E+03    0.98448E-03   -0.21013E-03  3681   0.729E-02    0.146E-01
RMM:   8    -0.192448685620E+03    0.15761E-03   -0.47263E-04  3682   0.351E-02    0.936E-02
RMM:   9    -0.192448579376E+03    0.10624E-03   -0.19901E-04  3679   0.224E-02    0.487E-02
RMM:  10    -0.192448556485E+03    0.22891E-04   -0.60402E-05  3679   0.121E-02    0.281E-02
RMM:  11    -0.192448548742E+03    0.77429E-05   -0.16193E-05  3672   0.620E-03    0.123E-02
RMM:  12    -0.192448548570E+03    0.17264E-06   -0.85901E-06  3668   0.457E-03
   6 F= -.19244855E+03 E0= -.19231826E+03  d E =-.553608E-01
       N       E                     dE             d eps       ncg     rms          rms(c)
DAV:   1    -0.192448321808E+03    0.22693E-03   -0.29424E+00  3744   0.266E+00    0.235E-01
RMM:   2    -0.192451529209E+03   -0.32074E-02   -0.33645E-02  3682   0.388E-01    0.177E-01
RMM:   3    -0.192452795195E+03   -0.12660E-02   -0.27440E-03  3708   0.883E-02    0.383E-01
RMM:   4    -0.192451608799E+03    0.11864E-02   -0.82843E-04  3688   0.456E-02    0.192E-01
RMM:   5    -0.192451335194E+03    0.27360E-03   -0.33618E-04  3681   0.292E-02    0.944E-02
RMM:   6    -0.192451379683E+03   -0.44489E-04   -0.41143E-04  3681   0.321E-02    0.969E-02
RMM:   7    -0.192451295149E+03    0.84534E-04   -0.17779E-04  3680   0.212E-02    0.442E-02
RMM:   8    -0.192451280861E+03    0.14288E-04   -0.39482E-05  3679   0.102E-02    0.250E-02
RMM:   9    -0.192451274074E+03    0.67864E-05   -0.15696E-05  3672   0.627E-03    0.153E-02
RMM:  10    -0.192451271579E+03    0.24954E-05   -0.54407E-06  3055   0.370E-03    0.832E-03
RMM:  11    -0.192451270790E+03    0.78844E-06   -0.14406E-06  2013   0.208E-03
   7 F= -.19245127E+03 E0= -.19232113E+03  d E =-.580830E-01
       N       E                     dE             d eps       ncg     rms          rms(c)
DAV:   1    -0.192454887481E+03   -0.36159E-02   -0.57759E+00  3672   0.372E+00    0.237E-01
RMM:   2    -0.192461134823E+03   -0.62473E-02   -0.66286E-02  3681   0.548E-01    0.187E-01
RMM:   3    -0.192461570098E+03   -0.43528E-03   -0.41237E-03  3721   0.113E-01    0.256E-01
RMM:   4    -0.192461179703E+03    0.39040E-03   -0.71161E-04  3684   0.445E-02    0.185E-01
RMM:   5    -0.192461027337E+03    0.15237E-03   -0.34919E-04  3686   0.292E-02    0.158E-01
RMM:   6    -0.192460928041E+03    0.99296E-04   -0.51494E-04  3681   0.351E-02    0.131E-01
RMM:   7    -0.192460832041E+03    0.96001E-04   -0.58217E-04  3681   0.377E-02    0.694E-02
RMM:   8    -0.192460800440E+03    0.31601E-04   -0.11298E-04  3681   0.171E-02    0.329E-02
RMM:   9    -0.192460790239E+03    0.10201E-04   -0.23266E-05  3672   0.769E-03    0.270E-02
RMM:  10    -0.192460780061E+03    0.10177E-04   -0.15546E-05  3672   0.613E-03    0.155E-02
RMM:  11    -0.192460777115E+03    0.29467E-05   -0.64410E-06  3291   0.390E-03    0.821E-03
RMM:  12    -0.192460776364E+03    0.75097E-06   -0.63392E-06  3660   0.380E-03
   8 F= -.19246078E+03 E0= -.19233058E+03  d E =-.950557E-02
       N       E                     dE             d eps       ncg     rms          rms(c)
DAV:   1    -0.192459072961E+03    0.17042E-02   -0.44144E+00  3672   0.325E+00    0.207E-01
RMM:   2    -0.192463846112E+03   -0.47732E-02   -0.50598E-02  3681   0.479E-01    0.164E-01
RMM:   3    -0.192464149864E+03   -0.30375E-03   -0.31457E-03  3719   0.987E-02    0.219E-01
RMM:   4    -0.192463861260E+03    0.28860E-03   -0.53487E-04  3683   0.387E-02    0.158E-01
RMM:   5    -0.192463761812E+03    0.99448E-04   -0.26105E-04  3686   0.252E-02    0.140E-01
RMM:   6    -0.192463685906E+03    0.75906E-04   -0.39581E-04  3680   0.308E-02    0.117E-01
RMM:   7    -0.192463607594E+03    0.78312E-04   -0.45125E-04  3679   0.332E-02    0.601E-02
RMM:   8    -0.192463583837E+03    0.23757E-04   -0.85821E-05  3678   0.149E-02    0.275E-02
RMM:   9    -0.192463576216E+03    0.76212E-05   -0.17558E-05  3672   0.670E-03    0.231E-02
RMM:  10    -0.192463568839E+03    0.73769E-05   -0.11092E-05  3672   0.516E-03    0.133E-02
RMM:  11    -0.192463566723E+03    0.21158E-05   -0.46029E-06  2873   0.335E-03    0.723E-03
RMM:  12    -0.192463566145E+03    0.57817E-06   -0.52475E-06  3443   0.354E-03
   9 F= -.19246357E+03 E0= -.19233331E+03  d E =-.122954E-01
       N       E                     dE             d eps       ncg     rms          rms(c)
DAV:   1    -0.192464189899E+03   -0.62318E-03   -0.74633E+00  3672   0.421E+00    0.215E-01
RMM:   2    -0.192473021989E+03   -0.88321E-02   -0.86535E-02  3681   0.627E-01    0.339E-01
RMM:   3    -0.192472713769E+03    0.30822E-03   -0.60332E-03  3753   0.136E-01    0.250E-01
RMM:   4    -0.192472411715E+03    0.30205E-03   -0.68096E-04  3672   0.441E-02    0.208E-01
RMM:   5    -0.192472149576E+03    0.26214E-03   -0.21211E-04  3692   0.236E-02    0.155E-01
RMM:   6    -0.192472063306E+03    0.86269E-04   -0.53305E-04  3681   0.353E-02    0.164E-01
RMM:   7    -0.192471868302E+03    0.19500E-03   -0.12767E-03  3678   0.547E-02    0.785E-02
RMM:   8    -0.192471883390E+03   -0.15088E-04   -0.30431E-04  3678   0.271E-02    0.547E-02
RMM:   9    -0.192471863217E+03    0.20173E-04   -0.30965E-05  3683   0.915E-03    0.440E-02
RMM:  10    -0.192471837979E+03    0.25238E-04   -0.28399E-05  3676   0.813E-03    0.292E-02
RMM:  11    -0.192471826646E+03    0.11333E-04   -0.22840E-05  3672   0.713E-03    0.166E-02
RMM:  12    -0.192471823545E+03    0.31012E-05   -0.24462E-05  3678   0.727E-03    0.947E-03
RMM:  13    -0.192471823242E+03    0.30295E-06   -0.47708E-06  2939   0.336E-03
  10 F= -.19247182E+03 E0= -.19234114E+03  d E =-.825710E-02
       N       E                     dE             d eps       ncg     rms          rms(c)
DAV:   1    -0.192462650296E+03    0.91732E-02   -0.14902E+01  3672   0.595E+00    0.304E-01
RMM:   2    -0.192480334635E+03   -0.17684E-01   -0.17270E-01  3681   0.886E-01    0.477E-01
RMM:   3    -0.192479758773E+03    0.57586E-03   -0.12041E-02  3752   0.192E-01    0.355E-01
RMM:   4    -0.192479123647E+03    0.63513E-03   -0.13608E-03  3672   0.622E-02    0.293E-01
RMM:   5    -0.192478589376E+03    0.53427E-03   -0.41900E-04  3692   0.333E-02    0.217E-01
RMM:   6    -0.192478406896E+03    0.18248E-03   -0.10565E-03  3681   0.497E-02    0.232E-01
RMM:   7    -0.192477981563E+03    0.42533E-03   -0.25592E-03  3679   0.774E-02    0.111E-01
RMM:   8    -0.192478006768E+03   -0.25204E-04   -0.60569E-04  3678   0.382E-02    0.778E-02
RMM:   9    -0.192477965456E+03    0.41312E-04   -0.62875E-05  3686   0.130E-02    0.618E-02
RMM:  10    -0.192477915400E+03    0.50056E-04   -0.57103E-05  3678   0.115E-02    0.413E-02
RMM:  11    -0.192477893303E+03    0.22097E-04   -0.44864E-05  3676   0.999E-03    0.237E-02
RMM:  12    -0.192477887177E+03    0.61253E-05   -0.47112E-05  3680   0.101E-02    0.138E-02
RMM:  13    -0.192477886525E+03    0.65229E-06   -0.10816E-05  3660   0.493E-03    0.485E-03
RMM:  14    -0.192477886703E+03   -0.17806E-06   -0.68475E-07  1973   0.153E-03
  11 F= -.19247789E+03 E0= -.19234662E+03  d E =-.143206E-01
       N       E                     dE             d eps       ncg     rms          rms(c)
DAV:   1    -0.192475744332E+03    0.21422E-02   -0.26471E+00  3672   0.251E+00    0.127E-01
RMM:   2    -0.192478845196E+03   -0.31009E-02   -0.30636E-02  3681   0.373E-01    0.197E-01
RMM:   3    -0.192478748586E+03    0.96610E-04   -0.21292E-03  3753   0.808E-02    0.151E-01
RMM:   4    -0.192478636072E+03    0.11251E-03   -0.24232E-04  3672   0.262E-02    0.123E-01
RMM:   5    -0.192478545995E+03    0.90077E-04   -0.73747E-05  3690   0.140E-02    0.912E-02
RMM:   6    -0.192478524229E+03    0.21766E-04   -0.18901E-04  3680   0.210E-02    0.980E-02
RMM:   7    -0.192478462689E+03    0.61540E-04   -0.45106E-04  3677   0.325E-02    0.470E-02
RMM:   8    -0.192478470039E+03   -0.73500E-05   -0.10971E-04  3676   0.163E-02    0.328E-02
RMM:   9    -0.192478462879E+03    0.71603E-05   -0.11128E-05  3537   0.550E-03    0.263E-02
RMM:  10    -0.192478454129E+03    0.87494E-05   -0.98579E-06  3646   0.481E-03    0.176E-02
RMM:  11    -0.192478450122E+03    0.40074E-05   -0.81680E-06  3529   0.429E-03    0.101E-02
RMM:  12    -0.192478449177E+03    0.94543E-06   -0.88901E-06  3659   0.442E-03
  12 F= -.19247845E+03 E0= -.19234695E+03  d E =-.148830E-01
       N       E                     dE             d eps       ncg     rms          rms(c)
DAV:   1    -0.192474326580E+03    0.41235E-02   -0.10447E+01  3672   0.499E+00    0.265E-01
RMM:   2    -0.192486898817E+03   -0.12572E-01   -0.12075E-01  3681   0.741E-01    0.431E-01
RMM:   3    -0.192486292898E+03    0.60592E-03   -0.86860E-03  3739   0.162E-01    0.314E-01
RMM:   4    -0.192485789508E+03    0.50339E-03   -0.99158E-04  3672   0.529E-02    0.247E-01
RMM:   5    -0.192485387832E+03    0.40168E-03   -0.35267E-04  3689   0.305E-02    0.181E-01
RMM:   6    -0.192485276839E+03    0.11099E-03   -0.71837E-04  3682   0.414E-02    0.185E-01
RMM:   7    -0.192485032500E+03    0.24434E-03   -0.16766E-03  3678   0.628E-02    0.945E-02
RMM:   8    -0.192485040496E+03   -0.79958E-05   -0.37071E-04  3678   0.300E-02    0.642E-02
RMM:   9    -0.192485011865E+03    0.28631E-04   -0.47373E-05  3687   0.112E-02    0.456E-02
RMM:  10    -0.192484985364E+03    0.26501E-04   -0.34005E-05  3678   0.897E-03    0.329E-02
RMM:  11    -0.192484971650E+03    0.13714E-04   -0.26932E-05  3673   0.784E-03    0.187E-02
RMM:  12    -0.192484968143E+03    0.35073E-05   -0.23424E-05  3678   0.716E-03    0.106E-02
RMM:  13    -0.192484967792E+03    0.35050E-06   -0.73886E-06  3479   0.409E-03
  13 F= -.19248497E+03 E0= -.19235314E+03  d E =-.651862E-02
       N       E                     dE             d eps       ncg     rms          rms(c)
DAV:   1    -0.192481243058E+03    0.37251E-02   -0.54558E+00  3672   0.360E+00    0.191E-01
RMM:   2    -0.192487776511E+03   -0.65335E-02   -0.62997E-02  3681   0.535E-01    0.311E-01
RMM:   3    -0.192487449683E+03    0.32683E-03   -0.45298E-03  3740   0.117E-01    0.226E-01
RMM:   4    -0.192487193502E+03    0.25618E-03   -0.51263E-04  3674   0.381E-02    0.177E-01
RMM:   5    -0.192486991937E+03    0.20156E-03   -0.18046E-04  3688   0.218E-02    0.131E-01
RMM:   6    -0.192486943011E+03    0.48927E-04   -0.37761E-04  3682   0.300E-02    0.134E-01
RMM:   7    -0.192486825359E+03    0.11765E-03   -0.87654E-04  3678   0.454E-02    0.687E-02
RMM:   8    -0.192486832096E+03   -0.67365E-05   -0.19546E-04  3678   0.218E-02    0.469E-02
RMM:   9    -0.192486816928E+03    0.15168E-04   -0.25082E-05  3679   0.816E-03    0.330E-02
RMM:  10    -0.192486803011E+03    0.13917E-04   -0.18112E-05  3673   0.655E-03    0.237E-02
RMM:  11    -0.192486796095E+03    0.69152E-05   -0.13779E-05  3672   0.561E-03    0.136E-02
RMM:  12    -0.192486794362E+03    0.17329E-05   -0.12554E-05  3672   0.525E-03    0.765E-03
RMM:  13    -0.192486794231E+03    0.13105E-06   -0.35462E-06  2539   0.295E-03
  14 F= -.19248679E+03 E0= -.19235474E+03  d E =-.834505E-02
       N       E                     dE             d eps       ncg     rms          rms(c)
DAV:   1    -0.192486584692E+03    0.20967E-03   -0.27061E-01  3744   0.802E-01    0.423E-02
RMM:   2    -0.192486903737E+03   -0.31904E-03   -0.31179E-03  3680   0.119E-01    0.700E-02
RMM:   3    -0.192486882673E+03    0.21064E-04   -0.22390E-04  3739   0.261E-02    0.497E-02
RMM:   4    -0.192486871005E+03    0.11667E-04   -0.24599E-05  3674   0.836E-03    0.391E-02
RMM:   5    -0.192486862582E+03    0.84235E-05   -0.85230E-06  3459   0.477E-03    0.295E-02
RMM:   6    -0.192486862873E+03   -0.29081E-06   -0.19476E-05  3672   0.685E-03    0.304E-02
RMM:   7    -0.192486859825E+03    0.30480E-05   -0.44829E-05  3673   0.103E-02    0.154E-02
RMM:   8    -0.192486860746E+03   -0.92097E-06   -0.97782E-06  3566   0.488E-03
  15 F= -.19248686E+03 E0= -.19235477E+03  d E =-.841157E-02
       N       E                     dE             d eps       ncg     rms          rms(c)
DAV:   1    -0.192484482504E+03    0.23773E-02   -0.57632E+00  3672   0.371E+00    0.198E-01
RMM:   2    -0.192491207954E+03   -0.67254E-02   -0.65504E-02  3681   0.547E-01    0.287E-01
RMM:   3    -0.192491089086E+03    0.11887E-03   -0.46230E-03  3726   0.118E-01    0.251E-01
RMM:   4    -0.192490712004E+03    0.37708E-03   -0.59441E-04  3674   0.405E-02    0.179E-01
RMM:   5    -0.192490470611E+03    0.24139E-03   -0.19403E-04  3692   0.228E-02    0.119E-01
RMM:   6    -0.192490457197E+03    0.13414E-04   -0.28308E-04  3680   0.264E-02    0.127E-01
RMM:   7    -0.192490362314E+03    0.94882E-04   -0.94081E-04  3679   0.472E-02    0.590E-02
RMM:   8    -0.192490369507E+03   -0.71927E-05   -0.14248E-04  3674   0.187E-02    0.450E-02
RMM:   9    -0.192490355720E+03    0.13787E-04   -0.20677E-05  3684   0.752E-03    0.293E-02
RMM:  10    -0.192490347376E+03    0.83438E-05   -0.10781E-05  3670   0.522E-03    0.218E-02
RMM:  11    -0.192490341059E+03    0.63173E-05   -0.12747E-05  3672   0.541E-03    0.125E-02
RMM:  12    -0.192490339571E+03    0.14880E-05   -0.92911E-06  3669   0.456E-03    0.708E-03
RMM:  13    -0.192490339408E+03    0.16237E-06   -0.30794E-06  2275   0.280E-03
  16 F= -.19249034E+03 E0= -.19235839E+03  d E =-.347866E-02
       N       E                     dE             d eps       ncg     rms          rms(c)
DAV:   1    -0.192487345386E+03    0.29942E-02   -0.36314E+00  3672   0.295E+00    0.156E-01
RMM:   2    -0.192491574271E+03   -0.42289E-02   -0.41103E-02  3680   0.434E-01    0.233E-01
RMM:   3    -0.192491454322E+03    0.11995E-03   -0.28957E-03  3726   0.932E-02    0.198E-01
RMM:   4    -0.192491214149E+03    0.24017E-03   -0.35959E-04  3675   0.316E-02    0.139E-01
RMM:   5    -0.192491075796E+03    0.13835E-03   -0.11372E-04  3690   0.176E-02    0.957E-02
RMM:   6    -0.192491072968E+03    0.28277E-05   -0.18513E-04  3679   0.213E-02    0.104E-01
RMM:   7    -0.192491013310E+03    0.59658E-04   -0.63560E-04  3679   0.387E-02    0.464E-02
RMM:   8    -0.192491018716E+03   -0.54069E-05   -0.88903E-05  3673   0.148E-02    0.362E-02
RMM:   9    -0.192491009615E+03    0.91015E-05   -0.12892E-05  3659   0.595E-03    0.235E-02
RMM:  10    -0.192491004179E+03    0.54362E-05   -0.69887E-06  3331   0.422E-03    0.173E-02
RMM:  11    -0.192491000115E+03    0.40642E-05   -0.87120E-06  3669   0.452E-03    0.982E-03
RMM:  12    -0.192490999268E+03    0.84656E-06   -0.59961E-06  3295   0.370E-03
  17 F= -.19249100E+03 E0= -.19235919E+03  d E =-.413852E-02
       N       E                     dE             d eps       ncg     rms          rms(c)
DAV:   1    -0.192487735934E+03    0.32642E-02   -0.62369E+00  3672   0.385E+00    0.189E-01
RMM:   2    -0.192495450551E+03   -0.77146E-02   -0.71903E-02  3678   0.571E-01    0.353E-01
RMM:   3    -0.192494925889E+03    0.52466E-03   -0.51931E-03  3738   0.125E-01    0.249E-01
RMM:   4    -0.192494511415E+03    0.41447E-03   -0.62758E-04  3675   0.414E-02    0.176E-01
RMM:   5    -0.192494284382E+03    0.22703E-03   -0.14881E-04  3692   0.207E-02    0.129E-01
RMM:   6    -0.192494258295E+03    0.26087E-04   -0.27082E-04  3681   0.258E-02    0.139E-01
RMM:   7    -0.192494115239E+03    0.14306E-03   -0.13415E-03  3678   0.557E-02    0.619E-02
RMM:   8    -0.192494122635E+03   -0.73962E-05   -0.16099E-04  3673   0.197E-02    0.485E-02
RMM:   9    -0.192494112585E+03    0.10051E-04   -0.18635E-05  3680   0.720E-03    0.351E-02
RMM:  10    -0.192494102694E+03    0.98908E-05   -0.99643E-06  3571   0.506E-03    0.267E-02
RMM:  11    -0.192494092225E+03    0.10469E-04   -0.28733E-05  3675   0.801E-03    0.144E-02
RMM:  12    -0.192494090418E+03    0.18075E-05   -0.12436E-05  3669   0.524E-03    0.637E-03
RMM:  13    -0.192494090552E+03   -0.13453E-06   -0.27604E-06  2209   0.268E-03
  18 F= -.19249409E+03 E0= -.19236243E+03  d E =-.309128E-02
       N       E                     dE             d eps       ncg     rms          rms(c)
DAV:   1    -0.192488935575E+03    0.51548E-02   -0.65611E+00  3672   0.395E+00    0.194E-01
RMM:   2    -0.192497039122E+03   -0.81035E-02   -0.75555E-02  3678   0.586E-01    0.360E-01
RMM:   3    -0.192496493011E+03    0.54611E-03   -0.54486E-03  3737   0.128E-01    0.254E-01
RMM:   4    -0.192496056829E+03    0.43618E-03   -0.65507E-04  3675   0.423E-02    0.180E-01
RMM:   5    -0.192495820536E+03    0.23629E-03   -0.15439E-04  3692   0.211E-02    0.132E-01
RMM:   6    -0.192495793506E+03    0.27030E-04   -0.28816E-04  3681   0.265E-02    0.143E-01
RMM:   7    -0.192495637431E+03    0.15608E-03   -0.14140E-03  3678   0.572E-02    0.633E-02
RMM:   8    -0.192495645949E+03   -0.85183E-05   -0.16852E-04  3673   0.202E-02    0.503E-02
RMM:   9    -0.192495634926E+03    0.11023E-04   -0.19762E-05  3684   0.742E-03    0.360E-02
RMM:  10    -0.192495624546E+03    0.10380E-04   -0.10617E-05  3611   0.521E-03    0.275E-02
RMM:  11    -0.192495613315E+03    0.11231E-04   -0.30526E-05  3674   0.824E-03    0.145E-02
RMM:  12    -0.192495611532E+03    0.17838E-05   -0.13020E-05  3671   0.536E-03    0.659E-03
RMM:  13    -0.192495611647E+03   -0.11518E-06   -0.28962E-06  2239   0.274E-03
  19 F= -.19249561E+03 E0= -.19236411E+03  d E =-.461238E-02
       N       E                     dE             d eps       ncg     rms          rms(c)
DAV:   1    -0.192495073819E+03    0.53771E-03   -0.64974E-01  3684   0.124E+00    0.609E-02
RMM:   2    -0.192495866212E+03   -0.79239E-03   -0.74772E-03  3678   0.184E-01    0.115E-01
RMM:   3    -0.192495799338E+03    0.66874E-04   -0.54026E-04  3738   0.402E-02    0.799E-02
RMM:   4    -0.192495758182E+03    0.41156E-04   -0.63560E-05  3675   0.132E-02    0.563E-02
RMM:   5    -0.192495738655E+03    0.19527E-04   -0.14398E-05  3683   0.648E-03    0.420E-02
RMM:   6    -0.192495740363E+03   -0.17078E-05   -0.29312E-05  3675   0.847E-03    0.457E-02
RMM:   7    -0.192495733037E+03    0.73258E-05   -0.14535E-04  3677   0.184E-02    0.201E-02
RMM:   8    -0.192495734213E+03   -0.11764E-05   -0.16759E-05  3672   0.637E-03    0.159E-02
RMM:   9    -0.192495733185E+03    0.10284E-05   -0.17595E-06  2112   0.235E-03    0.114E-02
RMM:  10    -0.192495732142E+03    0.10429E-05   -0.10620E-06  1950   0.187E-03    0.878E-03
RMM:  11    -0.192495730975E+03    0.11667E-05   -0.31356E-06  2255   0.286E-03    0.462E-03
RMM:  12    -0.192495730839E+03    0.13620E-06   -0.15696E-06  1944   0.221E-03
  20 F= -.19249573E+03 E0= -.19236428E+03  d E =-.473157E-02
       N       E                     dE             d eps       ncg     rms          rms(c)
DAV:   1    -0.192492335384E+03    0.33956E-02   -0.59378E+00  3672   0.376E+00    0.195E-01
RMM:   2    -0.192499797426E+03   -0.74620E-02   -0.69307E-02  3679   0.559E-01    0.353E-01
RMM:   3    -0.192499329237E+03    0.46819E-03   -0.50655E-03  3741   0.123E-01    0.254E-01
RMM:   4    -0.192498909471E+03    0.41977E-03   -0.67772E-04  3676   0.426E-02    0.185E-01
RMM:   5    -0.192498632853E+03    0.27662E-03   -0.19213E-04  3692   0.232E-02    0.128E-01
RMM:   6    -0.192498648003E+03   -0.15149E-04   -0.45130E-04  3682   0.329E-02    0.155E-01
RMM:   7    -0.192498462875E+03    0.18513E-03   -0.11392E-03  3681   0.515E-02    0.632E-02
RMM:   8    -0.192498462908E+03   -0.32211E-07   -0.13233E-04  3679   0.181E-02    0.489E-02
RMM:   9    -0.192498444804E+03    0.18103E-04   -0.18245E-05  3677   0.710E-03    0.336E-02
RMM:  10    -0.192498434355E+03    0.10450E-04   -0.12039E-05  3667   0.544E-03    0.254E-02
RMM:  11    -0.192498423997E+03    0.10358E-04   -0.30573E-05  3672   0.819E-03    0.136E-02
RMM:  12    -0.192498422201E+03    0.17954E-05   -0.98784E-06  3645   0.466E-03    0.526E-03
RMM:  13    -0.192498422383E+03   -0.18197E-06   -0.21314E-06  2041   0.238E-03
  21 F= -.19249842E+03 E0= -.19236689E+03  d E =-.269154E-02
       N       E                     dE             d eps       ncg     rms          rms(c)
DAV:   1    -0.192497909360E+03    0.51284E-03   -0.80556E-01  3672   0.138E+00    0.716E-02
RMM:   2    -0.192498911672E+03   -0.10023E-02   -0.93856E-03  3680   0.206E-01    0.130E-01
RMM:   3    -0.192498837303E+03    0.74369E-04   -0.68355E-04  3741   0.452E-02    0.918E-02
RMM:   4    -0.192498785528E+03    0.51775E-04   -0.89106E-05  3674   0.155E-02    0.683E-02
RMM:   5    -0.192498751039E+03    0.34489E-04   -0.24849E-05  3688   0.838E-03    0.478E-02
RMM:   6    -0.192498757327E+03   -0.62879E-05   -0.62479E-05  3681   0.122E-02    0.574E-02
RMM:   7    -0.192498737066E+03    0.20261E-04   -0.15902E-04  3677   0.192E-02    0.236E-02
RMM:   8    -0.192498737318E+03   -0.25242E-06   -0.18315E-05  3672   0.673E-03    0.182E-02
RMM:   9    -0.192498734898E+03    0.24202E-05   -0.23232E-06  2264   0.264E-03    0.126E-02
RMM:  10    -0.192498733409E+03    0.14892E-05   -0.16361E-06  1959   0.225E-03    0.965E-03
RMM:  11    -0.192498731911E+03    0.14975E-05   -0.47668E-06  2983   0.341E-03    0.497E-03
RMM:  12    -0.192498731684E+03    0.22684E-06   -0.14050E-06  1940   0.205E-03
  22 F= -.19249873E+03 E0= -.19236717E+03  d E =-.300085E-02
       N       E                     dE             d eps       ncg     rms          rms(c)
DAV:   1    -0.192496942509E+03    0.17894E-02   -0.30531E+00  3672   0.269E+00    0.139E-01
RMM:   2    -0.192500568425E+03   -0.36259E-02   -0.35164E-02  3679   0.400E-01    0.211E-01
RMM:   3    -0.192500466239E+03    0.10219E-03   -0.24891E-03  3739   0.870E-02    0.174E-01
RMM:   4    -0.192500276269E+03    0.18997E-03   -0.30434E-04  3675   0.289E-02    0.127E-01
RMM:   5    -0.192500150322E+03    0.12595E-03   -0.95957E-05  3689   0.162E-02    0.887E-02
RMM:   6    -0.192500154915E+03   -0.45928E-05   -0.20991E-04  3681   0.225E-02    0.106E-01
RMM:   7    -0.192500073165E+03    0.81750E-04   -0.53271E-04  3683   0.353E-02    0.450E-02
RMM:   8    -0.192500074554E+03   -0.13891E-05   -0.72343E-05  3682   0.134E-02    0.340E-02
RMM:   9    -0.192500065435E+03    0.91194E-05   -0.99044E-06  3614   0.525E-03    0.223E-02
RMM:  10    -0.192500060703E+03    0.47313E-05   -0.58305E-06  3073   0.383E-03    0.171E-02
RMM:  11    -0.192500055980E+03    0.47233E-05   -0.15071E-05  3672   0.586E-03    0.921E-03
RMM:  12    -0.192500055164E+03    0.81647E-06   -0.35843E-06  2487   0.297E-03
  23 F= -.19250006E+03 E0= -.19236852E+03  d E =-.132348E-02
       N       E                     dE             d eps       ncg     rms          rms(c)
DAV:   1    -0.192499995312E+03    0.60668E-04   -0.11942E-01  3732   0.532E-01    0.274E-02
RMM:   2    -0.192500136750E+03   -0.14144E-03   -0.13759E-03  3680   0.794E-02    0.432E-02
RMM:   3    -0.192500128980E+03    0.77705E-05   -0.97470E-05  3739   0.173E-02    0.330E-02
RMM:   4    -0.192500122611E+03    0.63687E-05   -0.11216E-05  3629   0.559E-03    0.251E-02
RMM:   5    -0.192500118523E+03    0.40884E-05   -0.33000E-06  2545   0.310E-03    0.181E-02
RMM:   6    -0.192500119666E+03   -0.11429E-05   -0.86371E-06  3505   0.468E-03    0.214E-02
RMM:   7    -0.192500117762E+03    0.19043E-05   -0.23214E-05  3677   0.741E-03    0.930E-03
RMM:   8    -0.192500117761E+03    0.12369E-09   -0.27185E-06  2375   0.274E-03
  24 F= -.19250012E+03 E0= -.19236858E+03  d E =-.138608E-02
       N       E                     dE             d eps       ncg     rms          rms(c)
DAV:   1    -0.192498812167E+03    0.13056E-02   -0.21782E+00  3672   0.227E+00    0.119E-01
RMM:   2    -0.192501294548E+03   -0.24824E-02   -0.24338E-02  3679   0.335E-01    0.164E-01
RMM:   3    -0.192501274425E+03    0.20123E-04   -0.17029E-03  3737   0.725E-02    0.147E-01
RMM:   4    -0.192501140567E+03    0.13386E-03   -0.20861E-04  3676   0.242E-02    0.106E-01
RMM:   5    -0.192501063322E+03    0.77244E-04   -0.76315E-05  3688   0.142E-02    0.781E-02
RMM:   6    -0.192501055494E+03    0.78278E-05   -0.13686E-04  3680   0.183E-02    0.805E-02
RMM:   7    -0.192501014262E+03    0.41233E-04   -0.36365E-04  3683   0.292E-02    0.351E-02
RMM:   8    -0.192501014866E+03   -0.60446E-06   -0.45606E-05  3677   0.107E-02    0.276E-02
RMM:   9    -0.192501009028E+03    0.58385E-05   -0.66225E-06  3176   0.431E-03    0.177E-02
RMM:  10    -0.192501005929E+03    0.30984E-05   -0.39474E-06  2697   0.327E-03    0.134E-02
RMM:  11    -0.192501003053E+03    0.28764E-05   -0.98790E-06  3672   0.480E-03    0.743E-03
RMM:  12    -0.192501002489E+03    0.56378E-06   -0.20688E-06  2003   0.235E-03
  25 F= -.19250100E+03 E0= -.19236955E+03  d E =-.884728E-03
