  48  48   0   0
  0.5349325E+02  0.1100258E-08  0.1100258E-08  0.2449179E-08  0.3500000E-15
  1.000000000000000E-004
  CAR 
 unknown system                          
      6.41846370     -9.63908195  301     -1.09876437      1.00000000
     -9.639  0.0000E+00  0.0000E+00
     -9.586  0.0000E+00  0.0000E+00
     -9.532  0.0000E+00  0.0000E+00
     -9.479  0.0000E+00  0.0000E+00
     -9.425  0.0000E+00  0.0000E+00
     -9.371  0.0000E+00  0.0000E+00
     -9.318  0.0000E+00  0.0000E+00
     -9.264  0.0000E+00  0.0000E+00
     -9.211  0.1037E-16  0.5551E-18
     -9.157  0.3847E-14  0.2065E-15
     -9.104  0.8311E-12  0.4469E-13
     -9.050  0.1023E-09  0.5519E-11
     -8.997  0.7181E-08  0.3899E-09
     -8.943  0.2883E-06  0.1582E-07
     -8.890  0.6633E-05  0.3708E-06
     -8.836  0.8763E-04  0.5061E-05
     -8.783  0.6665E-03  0.4074E-04
     -8.729  0.2925E-02  0.1973E-03
     -8.676  0.7423E-02  0.5946E-03
     -8.622  0.1094E-01  0.1180E-02
     -8.569  0.9639E-02  0.1696E-02
     -8.515  0.6509E-02  0.2044E-02
     -8.462  0.7166E-02  0.2428E-02
     -8.408  0.1045E-01  0.2987E-02
     -8.354  0.1036E-01  0.3542E-02
     -8.301  0.6057E-02  0.3866E-02
     -8.247  0.2074E-02  0.3977E-02
     -8.194  0.6205E-03  0.4010E-02
     -8.140  0.1307E-02  0.4080E-02
     -8.087  0.4525E-02  0.4323E-02
     -8.033  0.1063E-01  0.4892E-02
     -7.980  0.1795E-01  0.5853E-02
     -7.926  0.2381E-01  0.7127E-02
     -7.873  0.2496E-01  0.8463E-02
     -7.819  0.1998E-01  0.9533E-02
     -7.766  0.1402E-01  0.1028E-01
     -7.712  0.1179E-01  0.1091E-01
     -7.659  0.1098E-01  0.1150E-01
     -7.605  0.9997E-02  0.1204E-01
     -7.552  0.1207E-01  0.1268E-01
     -7.498  0.1733E-01  0.1361E-01
     -7.445  0.2004E-01  0.1468E-01
     -7.391  0.1752E-01  0.1562E-01
     -7.338  0.1494E-01  0.1642E-01
     -7.284  0.1690E-01  0.1733E-01
     -7.230  0.2187E-01  0.1850E-01
     -7.177  0.2862E-01  0.2003E-01
     -7.123  0.3683E-01  0.2200E-01
     -7.070  0.4271E-01  0.2429E-01
     -7.016  0.4478E-01  0.2668E-01
     -6.963  0.4646E-01  0.2917E-01
     -6.909  0.5064E-01  0.3188E-01
     -6.856  0.5684E-01  0.3492E-01
     -6.802  0.6247E-01  0.3827E-01
     -6.749  0.6744E-01  0.4188E-01
     -6.695  0.7526E-01  0.4590E-01
     -6.642  0.8597E-01  0.5051E-01
     -6.588  0.9449E-01  0.5556E-01
     -6.535  0.9857E-01  0.6084E-01
     -6.481  0.1024E+00  0.6632E-01
     -6.428  0.1099E+00  0.7220E-01
     -6.374  0.1179E+00  0.7851E-01
     -6.321  0.1231E+00  0.8510E-01
     -6.267  0.1279E+00  0.9195E-01
     -6.213  0.1355E+00  0.9920E-01
     -6.160  0.1465E+00  0.1070E+00
     -6.106  0.1598E+00  0.1156E+00
     -6.053  0.1721E+00  0.1248E+00
     -5.999  0.1788E+00  0.1344E+00
     -5.946  0.1771E+00  0.1439E+00
     -5.892  0.1702E+00  0.1530E+00
     -5.839  0.1624E+00  0.1617E+00
     -5.785  0.1551E+00  0.1700E+00
     -5.732  0.1489E+00  0.1779E+00
     -5.678  0.1443E+00  0.1857E+00
     -5.625  0.1423E+00  0.1933E+00
     -5.571  0.1412E+00  0.2008E+00
     -5.518  0.1378E+00  0.2082E+00
     -5.464  0.1334E+00  0.2153E+00
     -5.411  0.1307E+00  0.2223E+00
     -5.357  0.1317E+00  0.2294E+00
     -5.304  0.1397E+00  0.2369E+00
     -5.250  0.1536E+00  0.2451E+00
     -5.196  0.1669E+00  0.2540E+00
     -5.143  0.1750E+00  0.2634E+00
     -5.089  0.1767E+00  0.2729E+00
     -5.036  0.1745E+00  0.2822E+00
     -4.982  0.1735E+00  0.2915E+00
     -4.929  0.1753E+00  0.3009E+00
     -4.875  0.1788E+00  0.3104E+00
     -4.822  0.1844E+00  0.3203E+00
     -4.768  0.1907E+00  0.3305E+00
     -4.715  0.1935E+00  0.3409E+00
     -4.661  0.1915E+00  0.3511E+00
     -4.608  0.1842E+00  0.3610E+00
     -4.554  0.1744E+00  0.3703E+00
     -4.501  0.1703E+00  0.3794E+00
     -4.447  0.1738E+00  0.3887E+00
     -4.394  0.1774E+00  0.3982E+00
     -4.340  0.1746E+00  0.4076E+00
     -4.287  0.1689E+00  0.4166E+00
     -4.233  0.1678E+00  0.4256E+00
     -4.180  0.1710E+00  0.4347E+00
     -4.126  0.1737E+00  0.4440E+00
     -4.072  0.1767E+00  0.4535E+00
     -4.019  0.1828E+00  0.4633E+00
     -3.965  0.1889E+00  0.4734E+00
     -3.912  0.1903E+00  0.4836E+00
     -3.858  0.1904E+00  0.4938E+00
     -3.805  0.1937E+00  0.5041E+00
     -3.751  0.1977E+00  0.5147E+00
     -3.698  0.2015E+00  0.5255E+00
     -3.644  0.2055E+00  0.5365E+00
     -3.591  0.2078E+00  0.5476E+00
     -3.537  0.2082E+00  0.5588E+00
     -3.484  0.2084E+00  0.5699E+00
     -3.430  0.2085E+00  0.5811E+00
     -3.377  0.2075E+00  0.5922E+00
     -3.323  0.2046E+00  0.6032E+00
     -3.270  0.1995E+00  0.6138E+00
     -3.216  0.1922E+00  0.6241E+00
     -3.163  0.1838E+00  0.6340E+00
     -3.109  0.1753E+00  0.6433E+00
     -3.055  0.1696E+00  0.6524E+00
     -3.002  0.1703E+00  0.6615E+00
     -2.948  0.1765E+00  0.6710E+00
     -2.895  0.1811E+00  0.6807E+00
     -2.841  0.1805E+00  0.6903E+00
     -2.788  0.1800E+00  0.7000E+00
     -2.734  0.1820E+00  0.7097E+00
     -2.681  0.1838E+00  0.7195E+00
     -2.627  0.1843E+00  0.7294E+00
     -2.574  0.1854E+00  0.7393E+00
     -2.520  0.1870E+00  0.7493E+00
     -2.467  0.1871E+00  0.7594E+00
     -2.413  0.1840E+00  0.7692E+00
     -2.360  0.1802E+00  0.7789E+00
     -2.306  0.1777E+00  0.7884E+00
     -2.253  0.1754E+00  0.7978E+00
     -2.199  0.1744E+00  0.8071E+00
     -2.146  0.1755E+00  0.8165E+00
     -2.092  0.1764E+00  0.8259E+00
     -2.039  0.1786E+00  0.8355E+00
     -1.985  0.1848E+00  0.8454E+00
     -1.931  0.1927E+00  0.8557E+00
     -1.878  0.2002E+00  0.8664E+00
     -1.824  0.2065E+00  0.8775E+00
     -1.771  0.2064E+00  0.8885E+00
     -1.717  0.1985E+00  0.8991E+00
     -1.664  0.1915E+00  0.9094E+00
     -1.610  0.1935E+00  0.9197E+00
     -1.557  0.2016E+00  0.9305E+00
     -1.503  0.2072E+00  0.9416E+00
     -1.450  0.2051E+00  0.9526E+00
     -1.396  0.1976E+00  0.9632E+00
     -1.343  0.1879E+00  0.9732E+00
     -1.289  0.1757E+00  0.9826E+00
     -1.236  0.1594E+00  0.9912E+00
     -1.182  0.1395E+00  0.9986E+00
     -1.129  0.1182E+00  0.1005E+01
     -1.075  0.9766E-01  0.1010E+01
     -1.022  0.7576E-01  0.1014E+01
     -0.968  0.5094E-01  0.1017E+01
     -0.914  0.3207E-01  0.1019E+01
     -0.861  0.2479E-01  0.1020E+01
     -0.807  0.2287E-01  0.1021E+01
     -0.754  0.2076E-01  0.1022E+01
     -0.700  0.1748E-01  0.1023E+01
     -0.647  0.1473E-01  0.1024E+01
     -0.593  0.1776E-01  0.1025E+01
     -0.540  0.2818E-01  0.1027E+01
     -0.486  0.3954E-01  0.1029E+01
     -0.433  0.4512E-01  0.1031E+01
     -0.379  0.4508E-01  0.1033E+01
     -0.326  0.4463E-01  0.1036E+01
     -0.272  0.4668E-01  0.1038E+01
     -0.219  0.4667E-01  0.1041E+01
     -0.165  0.3914E-01  0.1043E+01
     -0.112  0.2766E-01  0.1044E+01
     -0.058  0.1978E-01  0.1045E+01
     -0.005  0.1808E-01  0.1046E+01
      0.049  0.2210E-01  0.1048E+01
      0.102  0.2998E-01  0.1049E+01
      0.156  0.3694E-01  0.1051E+01
      0.210  0.3884E-01  0.1053E+01
      0.263  0.3753E-01  0.1055E+01
      0.317  0.3625E-01  0.1057E+01
      0.370  0.3472E-01  0.1059E+01
      0.424  0.3465E-01  0.1061E+01
      0.477  0.3822E-01  0.1063E+01
      0.531  0.4189E-01  0.1065E+01
      0.584  0.4132E-01  0.1067E+01
      0.638  0.3892E-01  0.1070E+01
      0.691  0.3931E-01  0.1072E+01
      0.745  0.4094E-01  0.1074E+01
      0.798  0.3897E-01  0.1076E+01
      0.852  0.3211E-01  0.1078E+01
      0.905  0.2480E-01  0.1079E+01
      0.959  0.2091E-01  0.1080E+01
      1.012  0.1952E-01  0.1081E+01
      1.066  0.1876E-01  0.1082E+01
      1.119  0.1779E-01  0.1083E+01
      1.173  0.1582E-01  0.1084E+01
      1.227  0.1378E-01  0.1085E+01
      1.280  0.1291E-01  0.1085E+01
      1.334  0.1339E-01  0.1086E+01
      1.387  0.1611E-01  0.1087E+01
      1.441  0.2155E-01  0.1088E+01
      1.494  0.2949E-01  0.1090E+01
      1.548  0.3653E-01  0.1092E+01
      1.601  0.3810E-01  0.1094E+01
      1.655  0.3806E-01  0.1096E+01
      1.708  0.4039E-01  0.1098E+01
      1.762  0.3980E-01  0.1100E+01
      1.815  0.3320E-01  0.1102E+01
      1.869  0.2395E-01  0.1103E+01
      1.922  0.1618E-01  0.1104E+01
      1.976  0.1307E-01  0.1105E+01
      2.029  0.1288E-01  0.1105E+01
      2.083  0.1256E-01  0.1106E+01
      2.136  0.1558E-01  0.1107E+01
      2.190  0.2458E-01  0.1108E+01
      2.244  0.3448E-01  0.1110E+01
      2.297  0.4028E-01  0.1112E+01
      2.351  0.4406E-01  0.1114E+01
      2.404  0.5009E-01  0.1117E+01
      2.458  0.5626E-01  0.1120E+01
      2.511  0.5644E-01  0.1123E+01
      2.565  0.5172E-01  0.1126E+01
      2.618  0.4807E-01  0.1129E+01
      2.672  0.4675E-01  0.1131E+01
      2.725  0.4432E-01  0.1133E+01
      2.779  0.3723E-01  0.1135E+01
      2.832  0.2650E-01  0.1137E+01
      2.886  0.1676E-01  0.1138E+01
      2.939  0.1236E-01  0.1138E+01
      2.993  0.1315E-01  0.1139E+01
      3.046  0.1557E-01  0.1140E+01
      3.100  0.2000E-01  0.1141E+01
      3.153  0.2687E-01  0.1142E+01
      3.207  0.2915E-01  0.1144E+01
      3.260  0.2225E-01  0.1145E+01
      3.314  0.1277E-01  0.1146E+01
      3.368  0.9471E-02  0.1146E+01
      3.421  0.1328E-01  0.1147E+01
      3.475  0.1874E-01  0.1148E+01
      3.528  0.2238E-01  0.1149E+01
      3.582  0.2701E-01  0.1151E+01
      3.635  0.3411E-01  0.1153E+01
      3.689  0.3834E-01  0.1155E+01
      3.742  0.3734E-01  0.1157E+01
      3.796  0.3429E-01  0.1158E+01
      3.849  0.2901E-01  0.1160E+01
      3.903  0.2195E-01  0.1161E+01
      3.956  0.1891E-01  0.1162E+01
      4.010  0.2430E-01  0.1163E+01
      4.063  0.3227E-01  0.1165E+01
      4.117  0.3304E-01  0.1167E+01
      4.170  0.2876E-01  0.1169E+01
      4.224  0.2610E-01  0.1170E+01
      4.277  0.2248E-01  0.1171E+01
      4.331  0.1790E-01  0.1172E+01
      4.385  0.2033E-01  0.1173E+01
      4.438  0.3024E-01  0.1175E+01
      4.492  0.3982E-01  0.1177E+01
      4.545  0.4604E-01  0.1179E+01
      4.599  0.5032E-01  0.1182E+01
      4.652  0.5289E-01  0.1185E+01
      4.706  0.5195E-01  0.1188E+01
      4.759  0.4659E-01  0.1190E+01
      4.813  0.4161E-01  0.1192E+01
      4.866  0.4346E-01  0.1195E+01
      4.920  0.5065E-01  0.1197E+01
      4.973  0.5746E-01  0.1201E+01
      5.027  0.6315E-01  0.1204E+01
      5.080  0.6595E-01  0.1207E+01
      5.134  0.6149E-01  0.1211E+01
      5.187  0.5390E-01  0.1214E+01
      5.241  0.5086E-01  0.1216E+01
      5.294  0.4907E-01  0.1219E+01
      5.348  0.4097E-01  0.1221E+01
      5.401  0.2806E-01  0.1223E+01
      5.455  0.1575E-01  0.1224E+01
      5.509  0.6822E-02  0.1224E+01
      5.562  0.2054E-02  0.1224E+01
      5.616  0.3959E-03  0.1224E+01
      5.669  0.4660E-04  0.1224E+01
      5.723  0.3265E-05  0.1224E+01
      5.776  0.1342E-06  0.1224E+01
      5.830  0.3209E-08  0.1224E+01
      5.883  0.4433E-10  0.1224E+01
      5.937  0.3524E-12  0.1224E+01
      5.990  0.1605E-14  0.1224E+01
      6.044  0.4148E-17  0.1224E+01
      6.097  0.0000E+00  0.1224E+01
      6.151  0.0000E+00  0.1224E+01
      6.204  0.0000E+00  0.1224E+01
      6.258  0.0000E+00  0.1224E+01
      6.311  0.0000E+00  0.1224E+01
      6.365  0.0000E+00  0.1224E+01
      6.418  0.0000E+00  0.1224E+01
