unknown system                          
           1
    11.002582    0.000000    0.000000
     5.501291    9.528515    0.000000
     0.000000    0.000000   24.491785
   Au   Pd
  24  24
Direct configuration=     1
   0.25000000  0.75000000  0.59169983
   0.58333333  0.83333333  0.40830017
   0.41666667  0.41666667  0.50000000
   0.58333333  0.33333333  0.40830017
   0.50000000  0.00000000  0.59169983
   0.58333333  0.08333333  0.40830017
   0.66666667  0.91666667  0.50000000
   0.33333333  0.83333333  0.40830017
   0.16666667  0.66666667  0.50000000
   0.75000000  0.00000000  0.59169983
   0.83333333  0.33333333  0.40830017
   0.58333333  0.58333333  0.40830017
   0.25000000  0.00000000  0.59169983
   0.33333333  0.33333333  0.40830017
   0.00000000  0.75000000  0.59169983
   0.91666667  0.91666667  0.50000000
   0.08333333  0.83333333  0.40830017
   0.83333333  0.83333333  0.40830017
   0.75000000  0.25000000  0.59169983
   0.83333333  0.58333333  0.40830017
   0.16666667  0.16666667  0.50000000
   0.08333333  0.33333333  0.40830017
   0.00000000  0.25000000  0.59169983
   0.91666667  0.41666667  0.50000000
   0.66666667  0.41666667  0.50000000
   0.75000000  0.50000000  0.59169983
   0.50000000  0.75000000  0.59169983
   0.66666667  0.66666667  0.50000000
   0.83333333  0.08333333  0.40830017
   0.66666667  0.16666667  0.50000000
   0.41666667  0.91666667  0.50000000
   0.50000000  0.50000000  0.59169983
   0.08333333  0.08333333  0.40830017
   0.50000000  0.25000000  0.59169983
   0.41666667  0.16666667  0.50000000
   0.16666667  0.91666667  0.50000000
   0.25000000  0.50000000  0.59169983
   0.33333333  0.58333333  0.40830017
   0.25000000  0.25000000  0.59169983
   0.16666667  0.41666667  0.50000000
   0.33333333  0.08333333  0.40830017
   0.00000000  0.50000000  0.59169983
   0.91666667  0.66666667  0.50000000
   0.08333333  0.58333333  0.40830017
   0.00000000  0.00000000  0.59169983
   0.91666667  0.16666667  0.50000000
   0.41666667  0.66666667  0.50000000
   0.75000000  0.75000000  0.59169983
Direct configuration=     2
   0.25103860  0.74966506  0.59357255
   0.58221958  0.83377944  0.40639351
   0.41701533  0.41647421  0.50075688
   0.58385547  0.33308805  0.40646123
   0.49950747  0.00029006  0.59353713
   0.58294782  0.08391986  0.40639761
   0.66592925  0.91598029  0.50043295
   0.33265290  0.83401946  0.40675767
   0.16748923  0.66498006  0.49972655
   0.74969814  0.00053982  0.59390795
   0.83374263  0.33155396  0.40645118
   0.58254436  0.58345651  0.40670185
   0.25037267 -0.00062509  0.59354746
   0.33239298  0.33374578  0.40644766
  -0.00022531  0.74889320  0.59390926
   0.91669704  0.91874620  0.49998041
   0.08372585  0.83360241  0.40621888
   0.83437201  0.83280308  0.40609690
   0.74933651  0.25072414  0.59328908
   0.83384883  0.58384607  0.40636399
   0.16829056  0.16541768  0.49966104
   0.08443181  0.33283668  0.40617497
  -0.00034626  0.25051513  0.59381822
   0.91554089  0.41835959  0.50079011
   0.66626612  0.41713365  0.50058631
   0.74905515  0.50124609  0.59255632
   0.50087410  0.74889327  0.59237644
   0.66607457  0.66654478  0.50085439
   0.83354759  0.08378278  0.40729109
   0.66663387  0.16738418  0.50006818
   0.41666484  0.91611616  0.49997894
   0.50031554  0.50005030  0.59257362
   0.08332018  0.08312520  0.40732772
   0.49913807  0.25083013  0.59256634
   0.41612796  0.16697412  0.50027423
   0.16655783  0.91748164  0.49989323
   0.25032007  0.49874355  0.59279140
   0.33311829  0.58349023  0.40713460
   0.25004380  0.25120894  0.59267993
   0.16661748  0.41702396  0.50048936
   0.33313828  0.08321067  0.40737411
   0.00006636  0.50024693  0.59265527
   0.91696681  0.66535552  0.50033309
   0.08354911  0.58318394  0.40721967
   0.00003937  0.00012655  0.59281529
   0.91656506  0.16567109  0.49976152
   0.41772731  0.66680292  0.50033794
   0.75019388  0.74876175  0.59266598
Direct configuration=     3
   0.25415439  0.74866024  0.59919073
   0.57887834  0.83511776  0.40067354
   0.41806131  0.41589683  0.50302753
   0.58542187  0.33235220  0.40094439
   0.49802986  0.00116026  0.59904903
   0.58179129  0.08567944  0.40068992
   0.66371700  0.91392116  0.50173179
   0.33061160  0.83607784  0.40213016
   0.16995691  0.65992024  0.49890619
   0.74879257  0.00215927  0.60053231
   0.83497052  0.32621584  0.40090423
   0.58017743  0.58382604  0.40190688
   0.25149067 -0.00250035  0.59909035
   0.32957193  0.33498312  0.40089015
  -0.00090123  0.74557279  0.60053754
   0.91678816  0.92498480  0.49992163
   0.08490340  0.83440962  0.39997500
   0.83748802  0.83121230  0.39948708
   0.74734605  0.25289656  0.59805684
   0.83539534  0.58538428  0.40055543
   0.17316223  0.16167073  0.49864416
   0.08772724  0.33134671  0.39979937
  -0.00138502  0.25206051  0.60017337
   0.91216357  0.42343836  0.50316045
   0.66506447  0.41853462  0.50234525
   0.74622059  0.50498435  0.59512577
   0.50349639  0.74557308  0.59440626
   0.66429828  0.66617910  0.50341758
   0.83419036  0.08513111  0.40426387
   0.66653548  0.16953671  0.50027273
   0.41665935  0.91446466  0.49991575
   0.50126215  0.50020122  0.59519501
   0.08328071  0.08250082  0.40441037
   0.49655230  0.25332052  0.59516589
   0.41451185  0.16789648  0.50109694
   0.16623132  0.91992655  0.49957292
   0.25128028  0.49497420  0.59606613
   0.33247317  0.58396092  0.40363789
   0.25017521  0.25483576  0.59562024
   0.16646992  0.41809585  0.50195742
   0.33255314  0.08284269  0.40459593
   0.00026544  0.50098770  0.59552157
   0.91786723  0.66142209  0.50133234
   0.08419645  0.58273578  0.40397819
   0.00015748  0.00050620  0.59616165
   0.91626023  0.16268434  0.49904606
   0.42090925  0.66721168  0.50135175
   0.75077552  0.74504701  0.59556444
Direct configuration=     4
   0.25301984  0.74765062  0.60050297
   0.58020667  0.83484468  0.39925934
   0.41904297  0.41516062  0.50201266
   0.58351981  0.33323045  0.39967961
   0.49815561  0.00103182  0.60080208
   0.58234796  0.08476494  0.39952129
   0.66523054  0.91453049  0.50144041
   0.33044922  0.83564110  0.40075938
   0.16813119  0.66399239  0.49923136
   0.74877514  0.00153515  0.60225217
   0.83588520  0.32875347  0.39977429
   0.58162107  0.58326315  0.40081020
   0.25116377 -0.00139664  0.60067051
   0.33107197  0.33528860  0.39962740
  -0.00021855  0.74644414  0.60201453
   0.91673200  0.92018317  0.50011972
   0.08462790  0.83398980  0.39832329
   0.83655607  0.83284754  0.39820146
   0.74781276  0.25285196  0.59962788
   0.83465772  0.58391927  0.39921964
   0.16989428  0.16478760  0.49915311
   0.08533803  0.33186110  0.39837395
  -0.00079241  0.25191144  0.60163598
   0.91405201  0.41896605  0.50228387
   0.66630432  0.41743713  0.50168406
   0.74664368  0.50402532  0.59701285
   0.50292132  0.74660027  0.59585214
   0.66392201  0.66681089  0.50204463
   0.83396858  0.08317202  0.40308261
   0.66559553  0.16896178  0.50020538
   0.41724083  0.91377177  0.49995754
   0.50075061  0.50048150  0.59665239
   0.08340660  0.08303536  0.40337145
   0.49731581  0.25258506  0.59644598
   0.41620240  0.16717623  0.50072661
   0.16773708  0.91721426  0.49982675
   0.25072459  0.49673506  0.59757289
   0.33292473  0.58323185  0.40290608
   0.24915120  0.25391818  0.59669497
   0.16644599  0.41584417  0.50134509
   0.33311990  0.08292247  0.40357383
   0.00056240  0.50010101  0.59713944
   0.91703636  0.66528375  0.50094297
   0.08439640  0.58292402  0.40307839
   0.00036190 -0.00012382  0.59719200
   0.91626735  0.16752971  0.49953358
   0.41914662  0.66812670  0.50093279
   0.75057303  0.74618240  0.59692846
Direct configuration=     5
   0.25260131  0.74727817  0.60098706
   0.58069669  0.83474394  0.39873765
   0.41940510  0.41488903  0.50163827
   0.58281814  0.33355444  0.39921304
   0.49820199  0.00098444  0.60144878
   0.58255331  0.08442758  0.39909018
   0.66578889  0.91475527  0.50133292
   0.33038932  0.83547999  0.40025370
   0.16745768  0.66549460  0.49935132
   0.74876871  0.00130491  0.60288663
   0.83622263  0.32968960  0.39935745
   0.58215362  0.58305550  0.40040563
   0.25104318 -0.00098948  0.60125343
   0.33162533  0.33540129  0.39916157
   0.00003329  0.74676558  0.60255938
   0.91671128  0.91841186  0.50019280
   0.08452627  0.83383493  0.39771397
   0.83621227  0.83345078  0.39772719
   0.74798493  0.25283551  0.60020744
   0.83438561  0.58337883  0.39872687
   0.16868875  0.16593741  0.49934087
   0.08445666  0.33205086  0.39784811
  -0.00057380  0.25185645  0.60217553
   0.91474865  0.41731622  0.50196050
   0.66676170  0.41703227  0.50144016
   0.74679976  0.50367153  0.59770898
   0.50270918  0.74697920  0.59638552
   0.66378321  0.66704396  0.50153816
   0.83388677  0.08244932  0.40264685
   0.66524878  0.16874969  0.50018053
   0.41745534  0.91351616  0.49997296
   0.50056191  0.50058489  0.59719002
   0.08345303  0.08323255  0.40298820
   0.49759747  0.25231375  0.59691821
   0.41682604  0.16691053  0.50059000
   0.16829254  0.91621370  0.49992039
   0.25051959  0.49738463  0.59812874
   0.33309132  0.58296290  0.40263612
   0.24877344  0.25357968  0.59709144
   0.16643717  0.41501353  0.50111920
   0.33332898  0.08295190  0.40319678
   0.00067195  0.49977391  0.59773627
   0.91672985  0.66670830  0.50079933
   0.08447016  0.58299346  0.40274646
   0.00043731 -0.00035623  0.59757209
   0.91626997  0.16931716  0.49971342
   0.41849639  0.66846425  0.50077824
   0.75049833  0.74660124  0.59743164
Direct configuration=     6
   0.25211471  0.74746896  0.60132417
   0.58161761  0.83439824  0.39838828
   0.41818393  0.41588939  0.50122265
   0.58352703  0.33330818  0.39891616
   0.49851204  0.00089509  0.60188510
   0.58274688  0.08394950  0.39884704
   0.66567188  0.91556051  0.50119343
   0.33100436  0.83498436  0.39989645
   0.16748329  0.66550671  0.49963940
   0.74895050  0.00101113  0.60337948
   0.83528008  0.33012569  0.39906915
   0.58247932  0.58304049  0.40018358
   0.25070451 -0.00084267  0.60160723
   0.33146150  0.33503578  0.39887466
  -0.00002171  0.74732370  0.60297288
   0.91636847  0.91906602  0.50034644
   0.08434021  0.83369784  0.39724285
   0.83557734  0.83312453  0.39739510
   0.74839860  0.25227168  0.60059011
   0.83421267  0.58378933  0.39847325
   0.16878183  0.16533595  0.49960063
   0.08477683  0.33231630  0.39741888
  -0.00046667  0.25152120  0.60271650
   0.91475928  0.41861928  0.50169198
   0.66681538  0.41689548  0.50108664
   0.74736324  0.50336787  0.59806817
   0.50213906  0.74763908  0.59680178
   0.66506666  0.66642317  0.50084602
   0.83381772  0.08294513  0.40272023
   0.66664713  0.16738567  0.50018119
   0.41719399  0.91458366  0.50000194
   0.50025441  0.50054040  0.59753048
   0.08341200  0.08317544  0.40294473
   0.49776192  0.25210274  0.59725681
   0.41740703  0.16588865  0.50035945
   0.16787046  0.91637365  0.50008141
   0.25051285  0.49770904  0.59825202
   0.33311736  0.58314443  0.40264361
   0.24884394  0.25298082  0.59734143
   0.16645091  0.41560559  0.50067908
   0.33316084  0.08348738  0.40315715
   0.00022840  0.49991033  0.59798671
   0.91654897  0.66632022  0.50060770
   0.08405136  0.58310870  0.40272791
   0.00024363 -0.00045546  0.59759176
   0.91613196  0.16823205  0.49999703
   0.41805323  0.66808837  0.50058060
   0.75044304  0.74715041  0.59768075
Direct configuration=     7
   0.25196054  0.74752941  0.60143098
   0.58190938  0.83428871  0.39827759
   0.41779703  0.41620633  0.50109096
   0.58375163  0.33323016  0.39882211
   0.49861028  0.00086679  0.60202334
   0.58280821  0.08379803  0.39877001
   0.66563481  0.91581563  0.50114924
   0.33119921  0.83482733  0.39978327
   0.16749141  0.66551055  0.49973068
   0.74900810  0.00091805  0.60353562
   0.83498146  0.33026386  0.39897781
   0.58258251  0.58303573  0.40011323
   0.25059722 -0.00079615  0.60171933
   0.33140960  0.33491997  0.39878376
  -0.00003914  0.74750052  0.60310389
   0.91625985  0.91927327  0.50039511
   0.08428126  0.83365441  0.39709358
   0.83537618  0.83302117  0.39728988
   0.74852966  0.25209304  0.60071136
   0.83415788  0.58391939  0.39839289
   0.16881132  0.16514539  0.49968293
   0.08487826  0.33240039  0.39728289
  -0.00043274  0.25141498  0.60288789
   0.91476264  0.41903213  0.50160691
   0.66683239  0.41685214  0.50097463
   0.74754176  0.50327167  0.59818197
   0.50195844  0.74784815  0.59693366
   0.66547329  0.66622648  0.50062673
   0.83379585  0.08310221  0.40274348
   0.66709017  0.16695351  0.50018140
   0.41711119  0.91492187  0.50001113
   0.50015699  0.50052630  0.59763835
   0.08339900  0.08315734  0.40293095
   0.49781403  0.25203588  0.59736409
   0.41759111  0.16556489  0.50028640
   0.16773674  0.91642432  0.50013242
   0.25051072  0.49781183  0.59829108
   0.33312561  0.58320195  0.40264599
   0.24886628  0.25279109  0.59742064
   0.16645527  0.41579318  0.50053964
   0.33310757  0.08365703  0.40314459
   0.00008787  0.49995355  0.59806605
   0.91649166  0.66619726  0.50054698
   0.08391867  0.58314520  0.40272203
   0.00018226 -0.00048689  0.59759799
   0.91608823  0.16788825  0.50008688
   0.41791282  0.66796929  0.50051798
   0.75042552  0.74732440  0.59775967
Direct configuration=     8
   0.25197519  0.74782217  0.60160264
   0.58167829  0.83439497  0.39810861
   0.41792372  0.41564588  0.50101620
   0.58387522  0.33290802  0.39871564
   0.49868968  0.00084776  0.60220969
   0.58285630  0.08393491  0.39861890
   0.66561182  0.91571278  0.50116672
   0.33155480  0.83488228  0.39970446
   0.16687953  0.66572347  0.49992267
   0.74901803  0.00084492  0.60387386
   0.83506937  0.33007455  0.39889676
   0.58238111  0.58324107  0.39999118
   0.25052168 -0.00101110  0.60189703
   0.33162191  0.33475783  0.39863326
  -0.00025075  0.74749326  0.60332093
   0.91652377  0.91921774  0.50041483
   0.08404006  0.83368081  0.39690624
   0.83550363  0.83293107  0.39713166
   0.74845626  0.25203788  0.60082998
   0.83450186  0.58379071  0.39816649
   0.16864121  0.16509771  0.49984394
   0.08482987  0.33239527  0.39705968
  -0.00058557  0.25143060  0.60316589
   0.91499880  0.41919072  0.50155304
   0.66672388  0.41670165  0.50094510
   0.74755449  0.50339272  0.59808514
   0.50197864  0.74784384  0.59684860
   0.66545429  0.66641461  0.50046110
   0.83396578  0.08324383  0.40293895
   0.66715682  0.16721540  0.50029464
   0.41727968  0.91489373  0.50005197
   0.50027481  0.50031639  0.59759677
   0.08336607  0.08318517  0.40310770
   0.49766380  0.25216234  0.59727218
   0.41760636  0.16566123  0.50024750
   0.16758586  0.91658869  0.50016152
   0.25049957  0.49747044  0.59817425
   0.33306231  0.58325240  0.40268764
   0.24901426  0.25279498  0.59737475
   0.16663724  0.41595006  0.50036601
   0.33296876  0.08358489  0.40323043
  -0.00003441  0.50015781  0.59799077
   0.91653684  0.66617865  0.50054599
   0.08372640  0.58337870  0.40281270
   0.00008239 -0.00043970  0.59759301
   0.91606473  0.16749657  0.50026707
   0.41822768  0.66806340  0.50053113
   0.75028796  0.74744694  0.59766475
Direct configuration=     9
   0.25198761  0.74807035  0.60174816
   0.58148238  0.83448504  0.39796536
   0.41803112  0.41517077  0.50095282
   0.58398000  0.33263493  0.39862539
   0.49875700  0.00083162  0.60236766
   0.58289707  0.08405094  0.39849081
   0.66559232  0.91562559  0.50118154
   0.33185623  0.83492886  0.39963765
   0.16636081  0.66590398  0.50008543
   0.74902644  0.00078293  0.60416060
   0.83514390  0.32991407  0.39882805
   0.58221038  0.58341514  0.39988771
   0.25045765 -0.00119332  0.60204768
   0.33180189  0.33462038  0.39850568
  -0.00043014  0.74748711  0.60350492
   0.91674751  0.91917066  0.50043154
   0.08383559  0.83370320  0.39674743
   0.83561167  0.83285469  0.39699754
   0.74839403  0.25199113  0.60093054
   0.83479347  0.58368162  0.39797456
   0.16849701  0.16505728  0.49998044
   0.08478885  0.33239093  0.39687047
  -0.00071513  0.25144384  0.60340157
   0.91519900  0.41932516  0.50150738
   0.66663190  0.41657408  0.50092006
   0.74756528  0.50349534  0.59800306
   0.50199577  0.74784019  0.59677649
   0.66543818  0.66657408  0.50032070
   0.83410983  0.08336389  0.40310466
   0.66721332  0.16743742  0.50039064
   0.41742251  0.91486988  0.50008659
   0.50037468  0.50013845  0.59756151
   0.08333815  0.08320876  0.40325754
   0.49753645  0.25226955  0.59719427
   0.41761929  0.16574290  0.50021452
   0.16745795  0.91672802  0.50018619
   0.25049012  0.49718103  0.59807521
   0.33300866  0.58329517  0.40272295
   0.24913971  0.25279827  0.59733585
   0.16679150  0.41608305  0.50021881
   0.33285109  0.08352373  0.40330320
  -0.00013806  0.50033097  0.59792694
   0.91657514  0.66616288  0.50054514
   0.08356341  0.58357664  0.40288956
  -0.00000227 -0.00039970  0.59758878
   0.91604480  0.16716452  0.50041983
   0.41849459  0.66814318  0.50054228
   0.75017133  0.74755081  0.59758429
Direct configuration=    10
   0.25206854  0.74794436  0.60191106
   0.58152212  0.83469113  0.39775650
   0.41809165  0.41511978  0.50084489
   0.58398962  0.33266857  0.39850102
   0.49863897  0.00091190  0.60255186
   0.58308723  0.08389723  0.39834732
   0.66575132  0.91570090  0.50118997
   0.33152637  0.83511369  0.39960118
   0.16642955  0.66595977  0.50031672
   0.74891047  0.00085539  0.60456201
   0.83523453  0.32993922  0.39881697
   0.58228487  0.58321781  0.39973573
   0.25047109 -0.00119461  0.60226727
   0.33174203  0.33466332  0.39830820
  -0.00049809  0.74742594  0.60379088
   0.91663456  0.91898425  0.50046796
   0.08403515  0.83375751  0.39655837
   0.83547861  0.83312131  0.39682936
   0.74822924  0.25206806  0.60106987
   0.83486714  0.58353249  0.39766263
   0.16829227  0.16533139  0.50020542
   0.08489292  0.33222948  0.39661808
  -0.00082610  0.25161976  0.60371587
   0.91533563  0.41900007  0.50145282
   0.66674348  0.41654377  0.50089909
   0.74748546  0.50361353  0.59773702
   0.50216994  0.74769174  0.59659534
   0.66543313  0.66656106  0.50012656
   0.83427748  0.08327006  0.40338142
   0.66721143  0.16740965  0.50055328
   0.41742079  0.91488804  0.50016604
   0.50035811  0.50006984  0.59739934
   0.08345626  0.08309760  0.40353874
   0.49751728  0.25224697  0.59705783
   0.41760176  0.16570391  0.50017685
   0.16774849  0.91652285  0.50018324
   0.25040239  0.49711024  0.59788777
   0.33284748  0.58340667  0.40288582
   0.24910418  0.25275041  0.59720122
   0.16699163  0.41585256  0.50000740
   0.33269864  0.08357211  0.40347969
  -0.00014468  0.50030705  0.59777487
   0.91639982  0.66642382  0.50055452
   0.08371347  0.58361279  0.40299491
  -0.00013211 -0.00039684  0.59764709
   0.91599950  0.16741976  0.50068113
   0.41854280  0.66814186  0.50057609
   0.74996356  0.74762179  0.59741283
Direct configuration=    11
   0.25216723  0.74779075  0.60210969
   0.58157058  0.83494240  0.39750185
   0.41816545  0.41505761  0.50071328
   0.58400135  0.33270959  0.39834936
   0.49849505  0.00100977  0.60277645
   0.58331908  0.08370983  0.39817237
   0.66594518  0.91579273  0.50120025
   0.33112416  0.83533906  0.39955670
   0.16651337  0.66602779  0.50059872
   0.74876908  0.00094374  0.60505144
   0.83534503  0.32996989  0.39880345
   0.58237569  0.58297720  0.39955043
   0.25048747 -0.00119618  0.60253501
   0.33166903  0.33471568  0.39806741
  -0.00058095  0.74735137  0.60413955
   0.91649686  0.91875697  0.50051235
   0.08427848  0.83382374  0.39632785
   0.83531637  0.83344640  0.39662431
   0.74802832  0.25216186  0.60123975
   0.83495697  0.58335066  0.39728231
   0.16804264  0.16566560  0.50047974
   0.08501980  0.33203262  0.39631034
  -0.00096140  0.25183426  0.60409909
   0.91550222  0.41860369  0.50138629
   0.66687953  0.41650682  0.50087352
   0.74738813  0.50375765  0.59741263
   0.50238229  0.74751073  0.59637448
   0.66542697  0.66654519  0.49988984
   0.83448190  0.08315566  0.40371886
   0.66720911  0.16737580  0.50075158
   0.41741870  0.91491018  0.50026291
   0.50033791  0.49998619  0.59720160
   0.08360028  0.08296205  0.40388159
   0.49749391  0.25221944  0.59689146
   0.41758040  0.16565637  0.50013092
   0.16810274  0.91627268  0.50017965
   0.25029542  0.49702393  0.59765923
   0.33265097  0.58354262  0.40308442
   0.24906085  0.25269205  0.59703706
   0.16723565  0.41557153  0.49974962
   0.33251276  0.08363112  0.40369489
  -0.00015274  0.50027788  0.59758944
   0.91618605  0.66674199  0.50056597
   0.08389644  0.58365686  0.40312336
  -0.00029042 -0.00039335  0.59771819
   0.91594427  0.16773097  0.50099974
   0.41860158  0.66814026  0.50061731
   0.74971023  0.74770833  0.59720377
Direct configuration=    12
   0.25220069  0.74773866  0.60217704
   0.58158702  0.83502761  0.39741549
   0.41819047  0.41503653  0.50066865
   0.58400533  0.33272350  0.39829794
   0.49844625  0.00104296  0.60285261
   0.58339769  0.08364628  0.39811305
   0.66601092  0.91582386  0.50120374
   0.33098778  0.83541548  0.39954162
   0.16654179  0.66605086  0.50069434
   0.74872113  0.00097370  0.60521741
   0.83538250  0.32998029  0.39879887
   0.58240649  0.58289561  0.39948759
   0.25049302 -0.00119671  0.60262580
   0.33164428  0.33473343  0.39798576
  -0.00060904  0.74732608  0.60425778
   0.91645016  0.91867990  0.50052741
   0.08436099  0.83384619  0.39624968
   0.83526136  0.83355664  0.39655478
   0.74796018  0.25219367  0.60129735
   0.83498744  0.58328900  0.39715334
   0.16795799  0.16577893  0.50057276
   0.08506283  0.33196586  0.39620599
  -0.00100728  0.25190699  0.60422904
   0.91555871  0.41846929  0.50136373
   0.66692566  0.41649429  0.50086485
   0.74735513  0.50380652  0.59730263
   0.50245430  0.74744935  0.59629958
   0.66542488  0.66653981  0.49980958
   0.83455122  0.08311687  0.40383329
   0.66720833  0.16736432  0.50081882
   0.41741799  0.91491768  0.50029576
   0.50033106  0.49995783  0.59713454
   0.08364912  0.08291609  0.40399785
   0.49748598  0.25221011  0.59683504
   0.41757315  0.16564025  0.50011534
   0.16822286  0.91618785  0.50017843
   0.25025915  0.49699466  0.59758174
   0.33258433  0.58358872  0.40315176
   0.24904616  0.25267226  0.59698139
   0.16731839  0.41547623  0.49966221
   0.33244973  0.08365112  0.40376786
  -0.00015547  0.50026799  0.59752656
   0.91611356  0.66684988  0.50056985
   0.08395848  0.58367181  0.40316692
  -0.00034410 -0.00039216  0.59774229
   0.91592554  0.16783651  0.50110778
   0.41862151  0.66813971  0.50063129
   0.74962433  0.74773767  0.59713288
Direct configuration=    13
   0.25219011  0.74751921  0.60235431
   0.58156958  0.83481350  0.39720216
   0.41830338  0.41529987  0.50044822
   0.58400279  0.33270723  0.39821074
   0.49825907  0.00114750  0.60297091
   0.58324622  0.08394396  0.39802691
   0.66568673  0.91621560  0.50122025
   0.33140048  0.83509364  0.39956886
   0.16686757  0.66605856  0.50090837
   0.74858586  0.00095349  0.60566573
   0.83556160  0.32984160  0.39886116
   0.58232636  0.58314403  0.39930985
   0.25041756 -0.00119190  0.60287427
   0.33171506  0.33465121  0.39772102
  -0.00067416  0.74738835  0.60459886
   0.91656379  0.91871971  0.50069087
   0.08429899  0.83378594  0.39614832
   0.83565246  0.83335880  0.39637391
   0.74792381  0.25235713  0.60150410
   0.83491013  0.58354566  0.39678067
   0.16813084  0.16557085  0.50083508
   0.08514747  0.33191300  0.39593468
  -0.00113984  0.25202077  0.60460557
   0.91549962  0.41863298  0.50119768
   0.66701207  0.41651160  0.50075429
   0.74729523  0.50371935  0.59695580
   0.50231066  0.74748664  0.59610612
   0.66561126  0.66644513  0.49936970
   0.83451155  0.08319397  0.40421823
   0.66722740  0.16708759  0.50097262
   0.41739903  0.91510020  0.50035884
   0.50011860  0.50005192  0.59692206
   0.08348750  0.08318705  0.40438917
   0.49753401  0.25201154  0.59672881
   0.41779572  0.16529897  0.50001522
   0.16831075  0.91603177  0.50030237
   0.25013378  0.49712167  0.59736750
   0.33260128  0.58365927  0.40340009
   0.24879167  0.25266237  0.59686513
   0.16710406  0.41545198  0.49936691
   0.33260803  0.08372434  0.40405130
  -0.00011796  0.50014705  0.59727932
   0.91623200  0.66652099  0.50047472
   0.08382093  0.58387884  0.40329595
  -0.00030192 -0.00052306  0.59782903
   0.91596982  0.16786001  0.50144778
   0.41853715  0.66799807  0.50057084
   0.74956192  0.74788202  0.59694567
Direct configuration=    14
   0.25218646  0.74744358  0.60241541
   0.58156357  0.83473971  0.39712864
   0.41834229  0.41539063  0.50037225
   0.58400191  0.33270162  0.39818069
   0.49819456  0.00118354  0.60301168
   0.58319402  0.08404656  0.39799722
   0.66557499  0.91635061  0.50122594
   0.33154272  0.83498272  0.39957825
   0.16697984  0.66606122  0.50098214
   0.74853924  0.00094653  0.60582025
   0.83562333  0.32979380  0.39888263
   0.58229874  0.58322964  0.39924860
   0.25039155 -0.00119025  0.60295991
   0.33173946  0.33462287  0.39762978
  -0.00069661  0.74740981  0.60471641
   0.91660295  0.91873343  0.50074720
   0.08427762  0.83376517  0.39611339
   0.83578725  0.83329062  0.39631158
   0.74791127  0.25241347  0.60157536
   0.83488348  0.58363412  0.39665223
   0.16819041  0.16549913  0.50092549
   0.08517664  0.33189478  0.39584118
  -0.00118553  0.25205998  0.60473533
   0.91547926  0.41868940  0.50114046
   0.66704186  0.41651757  0.50071619
   0.74727459  0.50368931  0.59683627
   0.50226115  0.74749949  0.59603944
   0.66567549  0.66641250  0.49921810
   0.83449788  0.08322055  0.40435090
   0.66723397  0.16699221  0.50102563
   0.41739250  0.91516310  0.50038059
   0.50004537  0.50008436  0.59684882
   0.08343180  0.08328043  0.40452404
   0.49755057  0.25194311  0.59669219
   0.41787242  0.16518135  0.49998072
   0.16834105  0.91597798  0.50034509
   0.25009057  0.49716545  0.59729367
   0.33260712  0.58368358  0.40348567
   0.24870396  0.25265896  0.59682506
   0.16703019  0.41544363  0.49926514
   0.33266259  0.08374958  0.40414899
  -0.00010503  0.50010536  0.59719411
   0.91627281  0.66640764  0.50044193
   0.08377352  0.58395019  0.40334042
  -0.00028738 -0.00056817  0.59785892
   0.91598508  0.16786811  0.50156496
   0.41850807  0.66794926  0.50055001
   0.74954040  0.74793177  0.59688114
Direct configuration=    15
   0.25207563  0.74752930  0.60252209
   0.58164743  0.83477196  0.39705792
   0.41846292  0.41504227  0.50024526
   0.58409875  0.33279558  0.39820270
   0.49810910  0.00116712  0.60298070
   0.58321693  0.08399307  0.39802261
   0.66559816  0.91619186  0.50119172
   0.33162377  0.83501538  0.39966505
   0.16671270  0.66616932  0.50095787
   0.74856612  0.00087678  0.60598292
   0.83549357  0.32988772  0.39897577
   0.58241782  0.58313762  0.39914984
   0.25024735 -0.00128916  0.60308909
   0.33167566  0.33475983  0.39750064
  -0.00084668  0.74748283  0.60482527
   0.91681841  0.91859489  0.50096563
   0.08427669  0.83382027  0.39624530
   0.83585536  0.83326442  0.39628667
   0.74793749  0.25241022  0.60167762
   0.83488591  0.58378407  0.39645065
   0.16823816  0.16526651  0.50100904
   0.08510044  0.33209714  0.39578291
  -0.00121009  0.25198049  0.60487183
   0.91550097  0.41878854  0.50093144
   0.66705518  0.41637995  0.50057267
   0.74724064  0.50364212  0.59667787
   0.50202447  0.74769300  0.59593052
   0.66567189  0.66661589  0.49889278
   0.83429126  0.08332333  0.40454601
   0.66720678  0.16699131  0.50107238
   0.41747758  0.91499016  0.50040155
   0.49997962  0.50005718  0.59678785
   0.08351728  0.08329561  0.40474806
   0.49746497  0.25192980  0.59665789
   0.41787775  0.16543159  0.49994286
   0.16822006  0.91604169  0.50052135
   0.25008366  0.49711506  0.59721905
   0.33273409  0.58359941  0.40351898
   0.24855983  0.25278579  0.59681789
   0.16703994  0.41546263  0.49911451
   0.33288647  0.08364776  0.40427625
  -0.00015440  0.50015761  0.59705161
   0.91647256  0.66634208  0.50031846
   0.08372137  0.58389571  0.40335826
  -0.00020343 -0.00064257  0.59797663
   0.91605312  0.16772588  0.50176925
   0.41860831  0.66803503  0.50045415
   0.74966846  0.74794595  0.59678261
Direct configuration=    16
   0.25202520  0.74756829  0.60257062
   0.58168558  0.83478664  0.39702575
   0.41851780  0.41488377  0.50018749
   0.58414281  0.33283832  0.39821271
   0.49807022  0.00115966  0.60296660
   0.58322735  0.08396873  0.39803416
   0.66560869  0.91611963  0.50117615
   0.33166064  0.83503024  0.39970453
   0.16659116  0.66621851  0.50094683
   0.74857835  0.00084505  0.60605693
   0.83543453  0.32993045  0.39901815
   0.58247199  0.58309576  0.39910491
   0.25018174 -0.00133416  0.60314786
   0.33164663  0.33482214  0.39744189
  -0.00091496  0.74751605  0.60487480
   0.91691644  0.91853186  0.50106501
   0.08427626  0.83384533  0.39630532
   0.83588635  0.83325249  0.39627533
   0.74794942  0.25240874  0.60172414
   0.83488701  0.58385229  0.39635894
   0.16825988  0.16516068  0.50104706
   0.08506578  0.33218920  0.39575641
  -0.00122126  0.25194433  0.60493394
   0.91551084  0.41883364  0.50083635
   0.66706124  0.41631734  0.50050738
   0.74722519  0.50362065  0.59660581
   0.50191679  0.74778103  0.59588097
   0.66567026  0.66670843  0.49874477
   0.83419725  0.08337010  0.40463478
   0.66719440  0.16699090  0.50109366
   0.41751629  0.91491148  0.50041109
   0.49994971  0.50004482  0.59676011
   0.08355617  0.08330251  0.40484999
   0.49742603  0.25192375  0.59664228
   0.41788017  0.16554544  0.49992564
   0.16816501  0.91607067  0.50060155
   0.25008051  0.49709214  0.59718510
   0.33279186  0.58356112  0.40353413
   0.24849426  0.25284349  0.59681463
   0.16704438  0.41547127  0.49904597
   0.33298833  0.08360144  0.40433414
  -0.00017686  0.50018138  0.59698678
   0.91656344  0.66631225  0.50026229
   0.08369764  0.58387092  0.40336637
  -0.00016524 -0.00067641  0.59803018
   0.91608407  0.16766117  0.50186219
   0.41865392  0.66807405  0.50041053
   0.74972672  0.74795240  0.59673779
Direct configuration=    17
   0.25198633  0.74747275  0.60261945
   0.58177368  0.83487505  0.39695617
   0.41836973  0.41489483  0.50014874
   0.58413092  0.33278851  0.39823269