  48  48   0   0
  0.5349325E+02  0.1100258E-08  0.1100258E-08  0.2449179E-08  0.3500000E-15
  1.000000000000000E-004
  CAR 
 unknown system                          
      6.37702802     -9.77141333  301     -1.09234460      1.00000000
     -9.771  0.0000E+00  0.0000E+00
     -9.718  0.0000E+00  0.0000E+00
     -9.664  0.0000E+00  0.0000E+00
     -9.610  0.0000E+00  0.0000E+00
     -9.556  0.0000E+00  0.0000E+00
     -9.502  0.0000E+00  0.0000E+00
     -9.448  0.0000E+00  0.0000E+00
     -9.395  0.0000E+00  0.0000E+00
     -9.341  0.1031E-16  0.5551E-18
     -9.287  0.3894E-14  0.2102E-15
     -9.233  0.8590E-12  0.4645E-13
     -9.179  0.1074E-09  0.5828E-11
     -9.125  0.7626E-08  0.4163E-09
     -9.072  0.3080E-06  0.1700E-07
     -9.018  0.7094E-05  0.3989E-06
     -8.964  0.9339E-04  0.5426E-05
     -8.910  0.7045E-03  0.4335E-04
     -8.856  0.3054E-02  0.2077E-03
     -8.803  0.7639E-02  0.6189E-03
     -8.749  0.1122E-01  0.1223E-02
     -8.695  0.1066E-01  0.1797E-02
     -8.641  0.9494E-02  0.2308E-02
     -8.587  0.1086E-01  0.2893E-02
     -8.533  0.1074E-01  0.3471E-02
     -8.480  0.6732E-02  0.3833E-02
     -8.426  0.2494E-02  0.3967E-02
     -8.372  0.5938E-03  0.3999E-02
     -8.318  0.4841E-03  0.4026E-02
     -8.264  0.1809E-02  0.4123E-02
     -8.210  0.4747E-02  0.4378E-02
     -8.157  0.8018E-02  0.4810E-02
     -8.103  0.9777E-02  0.5336E-02
     -8.049  0.1028E-01  0.5890E-02
     -7.995  0.1079E-01  0.6471E-02
     -7.941  0.1273E-01  0.7156E-02
     -7.887  0.1703E-01  0.8073E-02
     -7.834  0.2085E-01  0.9195E-02
     -7.780  0.2032E-01  0.1029E-01
     -7.726  0.1626E-01  0.1116E-01
     -7.672  0.1284E-01  0.1186E-01
     -7.618  0.1314E-01  0.1256E-01
     -7.564  0.1648E-01  0.1345E-01
     -7.511  0.1858E-01  0.1445E-01
     -7.457  0.1667E-01  0.1535E-01
     -7.403  0.1378E-01  0.1609E-01
     -7.349  0.1593E-01  0.1695E-01
     -7.295  0.2348E-01  0.1821E-01
     -7.241  0.2993E-01  0.1982E-01
     -7.188  0.3132E-01  0.2151E-01
     -7.134  0.3241E-01  0.2325E-01
     -7.080  0.3856E-01  0.2533E-01
     -7.026  0.4771E-01  0.2790E-01
     -6.972  0.5650E-01  0.3094E-01
     -6.919  0.6542E-01  0.3446E-01
     -6.865  0.7519E-01  0.3851E-01
     -6.811  0.8303E-01  0.4297E-01
     -6.757  0.8642E-01  0.4763E-01
     -6.703  0.8677E-01  0.5230E-01
     -6.649  0.8499E-01  0.5687E-01
     -6.596  0.8158E-01  0.6126E-01
     -6.542  0.8037E-01  0.6559E-01
     -6.488  0.8624E-01  0.7023E-01
     -6.434  0.9892E-01  0.7556E-01
     -6.380  0.1130E+00  0.8164E-01
     -6.326  0.1264E+00  0.8844E-01
     -6.273  0.1384E+00  0.9589E-01
     -6.219  0.1463E+00  0.1038E+00
     -6.165  0.1488E+00  0.1118E+00
     -6.111  0.1493E+00  0.1198E+00
     -6.057  0.1512E+00  0.1279E+00
     -6.003  0.1534E+00  0.1362E+00
     -5.950  0.1548E+00  0.1445E+00
     -5.896  0.1553E+00  0.1529E+00
     -5.842  0.1547E+00  0.1612E+00
     -5.788  0.1539E+00  0.1695E+00
     -5.734  0.1540E+00  0.1778E+00
     -5.680  0.1526E+00  0.1860E+00
     -5.627  0.1470E+00  0.1939E+00
     -5.573  0.1402E+00  0.2015E+00
     -5.519  0.1357E+00  0.2088E+00
     -5.465  0.1351E+00  0.2160E+00
     -5.411  0.1394E+00  0.2235E+00
     -5.358  0.1444E+00  0.2313E+00
     -5.304  0.1464E+00  0.2392E+00
     -5.250  0.1488E+00  0.2472E+00
     -5.196  0.1536E+00  0.2555E+00
     -5.142  0.1579E+00  0.2640E+00
     -5.088  0.1631E+00  0.2728E+00
     -5.035  0.1704E+00  0.2819E+00
     -4.981  0.1762E+00  0.2914E+00
     -4.927  0.1781E+00  0.3010E+00
     -4.873  0.1775E+00  0.3106E+00
     -4.819  0.1770E+00  0.3201E+00
     -4.765  0.1770E+00  0.3296E+00
     -4.712  0.1750E+00  0.3390E+00
     -4.658  0.1719E+00  0.3483E+00
     -4.604  0.1701E+00  0.3574E+00
     -4.550  0.1694E+00  0.3666E+00
     -4.496  0.1690E+00  0.3757E+00
     -4.442  0.1692E+00  0.3848E+00
     -4.389  0.1683E+00  0.3938E+00
     -4.335  0.1673E+00  0.4028E+00
     -4.281  0.1708E+00  0.4120E+00
     -4.227  0.1788E+00  0.4216E+00
     -4.173  0.1849E+00  0.4316E+00
     -4.119  0.1869E+00  0.4417E+00
     -4.066  0.1871E+00  0.4517E+00
     -4.012  0.1875E+00  0.4618E+00
     -3.958  0.1898E+00  0.4720E+00
     -3.904  0.1931E+00  0.4824E+00
     -3.850  0.1958E+00  0.4930E+00
     -3.796  0.1992E+00  0.5037E+00
     -3.743  0.2028E+00  0.5146E+00
     -3.689  0.2053E+00  0.5257E+00
     -3.635  0.2081E+00  0.5369E+00
     -3.581  0.2117E+00  0.5483E+00
     -3.527  0.2146E+00  0.5598E+00
     -3.474  0.2154E+00  0.5714E+00
     -3.420  0.2118E+00  0.5828E+00
     -3.366  0.2045E+00  0.5938E+00
     -3.312  0.1968E+00  0.6044E+00
     -3.258  0.1929E+00  0.6148E+00
     -3.204  0.1922E+00  0.6251E+00
     -3.151  0.1903E+00  0.6354E+00
     -3.097  0.1873E+00  0.6455E+00
     -3.043  0.1870E+00  0.6555E+00
     -2.989  0.1894E+00  0.6657E+00
     -2.935  0.1911E+00  0.6760E+00
     -2.881  0.1885E+00  0.6861E+00
     -2.828  0.1834E+00  0.6960E+00
     -2.774  0.1806E+00  0.7057E+00
     -2.720  0.1805E+00  0.7155E+00
     -2.666  0.1826E+00  0.7253E+00
     -2.612  0.1862E+00  0.7353E+00
     -2.558  0.1888E+00  0.7455E+00
     -2.505  0.1878E+00  0.7556E+00
     -2.451  0.1825E+00  0.7654E+00
     -2.397  0.1766E+00  0.7749E+00
     -2.343  0.1742E+00  0.7843E+00
     -2.289  0.1734E+00  0.7936E+00
     -2.235  0.1720E+00  0.8029E+00
     -2.182  0.1701E+00  0.8120E+00
     -2.128  0.1677E+00  0.8211E+00
     -2.074  0.1694E+00  0.8302E+00
     -2.020  0.1793E+00  0.8398E+00
     -1.966  0.1909E+00  0.8501E+00
     -1.913  0.1952E+00  0.8606E+00
     -1.859  0.1939E+00  0.8710E+00
     -1.805  0.1920E+00  0.8814E+00
     -1.751  0.1902E+00  0.8916E+00
     -1.697  0.1884E+00  0.9018E+00
     -1.643  0.1884E+00  0.9119E+00
     -1.590  0.1927E+00  0.9223E+00
     -1.536  0.1998E+00  0.9330E+00
     -1.482  0.2025E+00  0.9439E+00
     -1.428  0.1971E+00  0.9545E+00
     -1.374  0.1883E+00  0.9647E+00
     -1.320  0.1807E+00  0.9744E+00
     -1.267  0.1726E+00  0.9837E+00
     -1.213  0.1613E+00  0.9924E+00
     -1.159  0.1447E+00  0.1000E+01
     -1.105  0.1209E+00  0.1007E+01
     -1.051  0.9365E-01  0.1012E+01
     -0.997  0.6793E-01  0.1015E+01
     -0.944  0.4472E-01  0.1018E+01
     -0.890  0.2730E-01  0.1019E+01
     -0.836  0.1959E-01  0.1020E+01
     -0.782  0.1904E-01  0.1021E+01
     -0.728  0.2039E-01  0.1022E+01
     -0.674  0.2216E-01  0.1024E+01
     -0.621  0.2723E-01  0.1025E+01
     -0.567  0.3693E-01  0.1027E+01
     -0.513  0.4586E-01  0.1030E+01
     -0.459  0.4763E-01  0.1032E+01
     -0.405  0.4079E-01  0.1034E+01
     -0.351  0.3062E-01  0.1036E+01
     -0.298  0.2740E-01  0.1037E+01
     -0.244  0.3460E-01  0.1039E+01
     -0.190  0.4331E-01  0.1042E+01
     -0.136  0.4158E-01  0.1044E+01
     -0.082  0.2922E-01  0.1045E+01
     -0.029  0.1889E-01  0.1046E+01
      0.025  0.1881E-01  0.1047E+01
      0.079  0.2516E-01  0.1049E+01
      0.133  0.3107E-01  0.1050E+01
      0.187  0.3370E-01  0.1052E+01
      0.241  0.3400E-01  0.1054E+01
      0.294  0.3387E-01  0.1056E+01
      0.348  0.3550E-01  0.1058E+01
      0.402  0.3942E-01  0.1060E+01
      0.456  0.4197E-01  0.1062E+01
      0.510  0.4039E-01  0.1064E+01
      0.564  0.3852E-01  0.1066E+01
      0.617  0.4100E-01  0.1069E+01
      0.671  0.4493E-01  0.1071E+01
      0.725  0.4502E-01  0.1074E+01
      0.779  0.3969E-01  0.1076E+01
      0.833  0.3015E-01  0.1077E+01
      0.887  0.2293E-01  0.1079E+01
      0.940  0.2310E-01  0.1080E+01
      0.994  0.2596E-01  0.1081E+01
      1.048  0.2662E-01  0.1083E+01
      1.102  0.2483E-01  0.1084E+01
      1.156  0.2002E-01  0.1085E+01
      1.210  0.1413E-01  0.1086E+01
      1.263  0.1153E-01  0.1086E+01
      1.317  0.1197E-01  0.1087E+01
      1.371  0.1201E-01  0.1088E+01
      1.425  0.1327E-01  0.1088E+01
      1.479  0.2048E-01  0.1090E+01
      1.532  0.3141E-01  0.1091E+01
      1.586  0.3701E-01  0.1093E+01
      1.640  0.3347E-01  0.1095E+01
      1.694  0.2805E-01  0.1097E+01
      1.748  0.2909E-01  0.1098E+01
      1.802  0.3542E-01  0.1100E+01
      1.855  0.3854E-01  0.1102E+01
      1.909  0.3316E-01  0.1104E+01
      1.963  0.2307E-01  0.1105E+01
      2.017  0.1621E-01  0.1106E+01
      2.071  0.1758E-01  0.1107E+01
      2.125  0.2596E-01  0.1108E+01
      2.178  0.3593E-01  0.1110E+01
      2.232  0.4288E-01  0.1113E+01
      2.286  0.4497E-01  0.1115E+01
      2.340  0.4328E-01  0.1117E+01
      2.394  0.3970E-01  0.1119E+01
      2.448  0.3599E-01  0.1121E+01
      2.501  0.3666E-01  0.1123E+01
      2.555  0.4349E-01  0.1126E+01
      2.609  0.4979E-01  0.1128E+01
      2.663  0.4909E-01  0.1131E+01
      2.717  0.4227E-01  0.1133E+01
      2.771  0.3391E-01  0.1135E+01
      2.824  0.2645E-01  0.1137E+01
      2.878  0.1999E-01  0.1138E+01
      2.932  0.1594E-01  0.1138E+01
      2.986  0.1387E-01  0.1139E+01
      3.040  0.1112E-01  0.1140E+01
      3.094  0.9867E-02  0.1140E+01
      3.147  0.1347E-01  0.1141E+01
      3.201  0.1957E-01  0.1142E+01
      3.255  0.2400E-01  0.1143E+01
      3.309  0.2486E-01  0.1145E+01
      3.363  0.2319E-01  0.1146E+01
      3.416  0.2235E-01  0.1147E+01
      3.470  0.2477E-01  0.1149E+01
      3.524  0.3063E-01  0.1150E+01
      3.578  0.3685E-01  0.1152E+01
      3.632  0.3913E-01  0.1154E+01
      3.686  0.3732E-01  0.1156E+01
      3.739  0.3352E-01  0.1158E+01
      3.793  0.2753E-01  0.1160E+01
      3.847  0.2110E-01  0.1161E+01
      3.901  0.1889E-01  0.1162E+01
      3.955  0.2279E-01  0.1163E+01
      4.009  0.2888E-01  0.1164E+01
      4.062  0.3057E-01  0.1166E+01
      4.116  0.2750E-01  0.1168E+01
      4.170  0.2507E-01  0.1169E+01
      4.224  0.2374E-01  0.1170E+01
      4.278  0.1991E-01  0.1171E+01
      4.332  0.1607E-01  0.1172E+01
      4.385  0.1822E-01  0.1173E+01
      4.439  0.2506E-01  0.1175E+01
      4.493  0.3207E-01  0.1176E+01
      4.547  0.4108E-01  0.1178E+01
      4.601  0.5253E-01  0.1181E+01
      4.655  0.5922E-01  0.1184E+01
      4.708  0.5757E-01  0.1188E+01
      4.762  0.5276E-01  0.1190E+01
      4.816  0.4982E-01  0.1193E+01
      4.870  0.4862E-01  0.1196E+01
      4.924  0.4912E-01  0.1198E+01
      4.977  0.5491E-01  0.1201E+01
      5.031  0.6566E-01  0.1205E+01
      5.085  0.7324E-01  0.1209E+01
      5.139  0.7173E-01  0.1213E+01
      5.193  0.6470E-01  0.1216E+01
      5.247  0.5541E-01  0.1219E+01
      5.300  0.4241E-01  0.1221E+01
      5.354  0.2706E-01  0.1223E+01
      5.408  0.1389E-01  0.1224E+01
      5.462  0.5549E-02  0.1224E+01
      5.516  0.1628E-02  0.1224E+01
      5.570  0.3237E-03  0.1224E+01
      5.623  0.4055E-04  0.1224E+01
      5.677  0.3053E-05  0.1224E+01
      5.731  0.1344E-06  0.1224E+01
      5.785  0.3409E-08  0.1224E+01
      5.839  0.4942E-10  0.1224E+01
      5.893  0.4074E-12  0.1224E+01
      5.946  0.1903E-14  0.1224E+01
      6.000  0.5500E-17  0.1224E+01
      6.054  0.0000E+00  0.1224E+01
      6.108  0.0000E+00  0.1224E+01
      6.162  0.0000E+00  0.1224E+01
      6.216  0.0000E+00  0.1224E+01
      6.269  0.0000E+00  0.1224E+01
      6.323  0.0000E+00  0.1224E+01
      6.377  0.0000E+00  0.1224E+01
