unknown system                          
           1
    11.002582    0.000000    0.000000
     5.501291    9.528515    0.000000
     0.000000    0.000000   24.491785
   Au   Pd
  24  24
Direct configuration=     1
   0.08333333  0.08333333  0.40830017
   0.50000000  0.50000000  0.59169983
   0.83333333  0.08333333  0.40830017
   0.66666667  0.91666667  0.50000000
   0.66666667  0.16666667  0.50000000
   0.83333333  0.33333333  0.40830017
   0.16666667  0.66666667  0.50000000
   0.33333333  0.58333333  0.40830017
   0.25000000  0.25000000  0.59169983
   0.16666667  0.41666667  0.50000000
   0.41666667  0.66666667  0.50000000
   0.25000000  0.00000000  0.59169983
   0.16666667  0.16666667  0.50000000
   0.33333333  0.33333333  0.40830017
   0.75000000  0.25000000  0.59169983
   0.91666667  0.16666667  0.50000000
   0.00000000  0.00000000  0.59169983
   0.83333333  0.83333333  0.40830017
   0.00000000  0.25000000  0.59169983
   0.58333333  0.58333333  0.40830017
   0.83333333  0.58333333  0.40830017
   0.08333333  0.83333333  0.40830017
   0.91666667  0.91666667  0.50000000
   0.08333333  0.58333333  0.40830017
   0.66666667  0.66666667  0.50000000
   0.75000000  0.00000000  0.59169983
   0.66666667  0.41666667  0.50000000
   0.50000000  0.75000000  0.59169983
   0.41666667  0.91666667  0.50000000
   0.58333333  0.83333333  0.40830017
   0.75000000  0.50000000  0.59169983
   0.25000000  0.75000000  0.59169983
   0.41666667  0.41666667  0.50000000
   0.58333333  0.33333333  0.40830017
   0.50000000  0.00000000  0.59169983
   0.41666667  0.16666667  0.50000000
   0.58333333  0.08333333  0.40830017
   0.16666667  0.91666667  0.50000000
   0.33333333  0.83333333  0.40830017
   0.25000000  0.50000000  0.59169983
   0.33333333  0.08333333  0.40830017
   0.00000000  0.75000000  0.59169983
   0.00000000  0.50000000  0.59169983
   0.91666667  0.66666667  0.50000000
   0.91666667  0.41666667  0.50000000
   0.08333333  0.33333333  0.40830017
   0.50000000  0.25000000  0.59169983
   0.75000000  0.75000000  0.59169983
Direct configuration=     2
   0.08527314  0.08271545  0.40610505
   0.49952342  0.50026540  0.59350567
   0.83176489  0.08418586  0.40571820
   0.66489716  0.91604136  0.50045114
   0.66360888  0.16847259  0.50003107
   0.83303046  0.33401764  0.40639427
   0.16671112  0.66659776  0.50121568
   0.33448050  0.58275965  0.40606900
   0.25138780  0.25049954  0.59386626
   0.16597326  0.41702135  0.50043812
   0.41693874  0.66810433  0.50041323
   0.25189586 -0.00208556  0.59364011
   0.16811433  0.16611542  0.49923102
   0.33465573  0.33155366  0.40644498
   0.74888495  0.25066361  0.59391283
   0.91651474  0.16783108  0.50001048
   0.00057297 -0.00183355  0.59396621
   0.83184357  0.83354866  0.40604116
  -0.00117064  0.25217470  0.59394747
   0.58319045  0.58383395  0.40650074
   0.83325568  0.58330345  0.40672244
   0.08445717  0.83364156  0.40598762
   0.91706975  0.91519872  0.50091294
   0.08283141  0.58273316  0.40602299
   0.66707554  0.66658503  0.50053984
   0.74952611 -0.00056719  0.59307930
   0.66665016  0.41732676  0.50005178
   0.50053284  0.75025892  0.59256492
   0.41735176  0.91637561  0.49979688
   0.58224822  0.83427352  0.40741466
   0.75014076  0.50115315  0.59239937
   0.24986792  0.74987650  0.59283301
   0.41760503  0.41545006  0.50024925
   0.58315958  0.33305560  0.40727183
   0.50072354 -0.00057320  0.59262345
   0.41746936  0.16592852  0.49990886
   0.58257380  0.08355746  0.40715411
   0.16823350  0.91578080  0.50006049
   0.33371356  0.83415834  0.40731479
   0.24978879  0.50028003  0.59281939
   0.33406888  0.08255893  0.40742684
  -0.00006324  0.74939644  0.59283469
  -0.00102374  0.50121304  0.59264212
   0.91590584  0.66610974  0.50082053
   0.91542817  0.41831932  0.50031402
   0.08356469  0.33295736  0.40708625
   0.49968356  0.24957990  0.59269884
   0.75007003  0.74958555  0.59254610
Direct configuration=     3
   0.09109256  0.08086180  0.39951969
   0.49809368  0.50106161  0.59892317
   0.82705957  0.08674345  0.39797229
   0.65958864  0.91416546  0.50180455
   0.65443552  0.17389038  0.50012426
   0.83212183  0.33607056  0.40067658
   0.16684447  0.66639106  0.50486272
   0.33792200  0.58103859  0.39937549
   0.25555120  0.25199815  0.60036553
   0.16389302  0.41808540  0.50175249
   0.41775495  0.67241731  0.50165290
   0.25758343 -0.00834223  0.59946096
   0.17245731  0.16446166  0.49692410
   0.33862292  0.32621465  0.40087943
   0.74553979  0.25265443  0.60055182
   0.91605895  0.17132430  0.50004191
   0.00229189 -0.00733419  0.60076535
   0.82737428  0.83419465  0.39926414
  -0.00468255  0.25869879  0.60069039
   0.58276182  0.58533579  0.40110246
   0.83302273  0.58321380  0.40198924
   0.08782866  0.83456624  0.39904999
   0.91827898  0.91079490  0.50365176
   0.08132565  0.58093266  0.39919144
   0.66830217  0.66634013  0.50215938
   0.74810443 -0.00226875  0.59721771
   0.66660063  0.41930705  0.50020711
   0.50213137  0.75103569  0.59516019
   0.41940706  0.91550245  0.49918753
   0.57899287  0.83709409  0.40475811
   0.75056302  0.50461259  0.59449800
   0.24947170  0.74950602  0.59623255
   0.42042011  0.41180025  0.50099698
   0.58263831  0.33222238  0.40418681
   0.50289418 -0.00229280  0.59539431
   0.41987742  0.16371409  0.49963545
   0.58029521  0.08422986  0.40371593
   0.17293402  0.91312320  0.50024195
   0.33485424  0.83663334  0.40435865
   0.24915517  0.50112012  0.59617808
   0.33627553  0.08023572  0.40480684
  -0.00025297  0.74758574  0.59623926
  -0.00409498  0.50485217  0.59546899
   0.91362337  0.66443895  0.50328211
   0.91171267  0.42327726  0.50125609
   0.08425877  0.33182945  0.40344451
   0.49873426  0.24831960  0.59569587
   0.75028012  0.74834219  0.59508492
Direct configuration=     4
   0.08889177  0.08190424  0.39752891
   0.49787136  0.50163834  0.60056052
   0.82850682  0.08552659  0.39640814
   0.66309818  0.91409919  0.50122959
   0.66113654  0.16978062  0.50016562
   0.83299968  0.33452918  0.39909111
   0.16850624  0.66481882  0.50350402
   0.33659984  0.58124532  0.39805869
   0.25419316  0.25097698  0.60217539
   0.16499425  0.41728915  0.50130551
   0.41893896  0.66930967  0.50126550
   0.25600071 -0.00567268  0.60098453
   0.17116038  0.16483259  0.49792683
   0.33676251  0.32775615  0.39940896
   0.74646376  0.25157348  0.60227737
   0.91642176  0.16952710  0.50016697
   0.00153409 -0.00487794  0.60265943
   0.82799348  0.83496680  0.39786793
  -0.00258361  0.25660326  0.60233146
   0.58233980  0.58613338  0.39969455
   0.83227691  0.58393261  0.40070420
   0.08666649  0.83385230  0.39762746
   0.91568456  0.91417295  0.50277855
   0.08284693  0.58152880  0.39771635
   0.66796485  0.66533438  0.50128579
   0.74787761 -0.00208877  0.59836412
   0.66591313  0.41991718  0.50019331
   0.50316622  0.75014214  0.59655965
   0.41789399  0.91626638  0.49949748
   0.57949280  0.83662471  0.40381174
   0.74909814  0.50504013  0.59569648
   0.25047600  0.74875688  0.59794588
   0.41674267  0.41642303  0.50069879
   0.58283376  0.33285792  0.40322122
   0.50251703 -0.00207390  0.59682589
   0.41647504  0.16517464  0.49971256
   0.58153166  0.08273647  0.40265299
   0.17005525  0.91572578  0.50025312
   0.33601636  0.83507945  0.40335404
   0.24930420  0.50076750  0.59782732
   0.33709808  0.08029079  0.40333415
  -0.00095104  0.74698315  0.59848821
  -0.00298922  0.50440525  0.59715583
   0.91361131  0.66561542  0.50228569
   0.91245773  0.42140782  0.50081793
   0.08454066  0.33196112  0.40252947
   0.49954492  0.24799372  0.59715496
   0.75002428  0.74921189  0.59689580
Direct configuration=     5
   0.08785722  0.08239427  0.39659308
   0.49776685  0.50190945  0.60133021
   0.82918714  0.08495458  0.39567286
   0.66474795  0.91406804  0.50095932
   0.66428656  0.16784870  0.50018506
   0.83341235  0.33380461  0.39834581
   0.16928741  0.66407975  0.50286533
   0.33597832  0.58134250  0.39743968
   0.25355477  0.25049694  0.60302617
   0.16551191  0.41691486  0.50109540
   0.41949554  0.66784883  0.50108339
   0.25525670 -0.00441778  0.60170073
   0.17055073  0.16500696  0.49839820
   0.33588797  0.32848079  0.39871771
   0.74689810  0.25106535  0.60308852
   0.91659231  0.16868227  0.50022575
   0.00117786 -0.00372331  0.60354980
   0.82828455  0.83532978  0.39721160
  -0.00159694  0.25561819  0.60310289
   0.58214142  0.58650831  0.39903271
   0.83192632  0.58427052  0.40010012
   0.08612017  0.83351669  0.39695876
   0.91446497  0.91576090  0.50236807
   0.08356205  0.58180903  0.39702294
   0.66780629  0.66486159  0.50087514
   0.74777098 -0.00200417  0.59890303
   0.66558994  0.42020399  0.50018682
   0.50365268  0.74972210  0.59721752
   0.41718272  0.91662550  0.49964318
   0.57972781  0.83640407  0.40336687
   0.74840953  0.50524111  0.59625986
   0.25094810  0.74840472  0.59875128
   0.41501398  0.41859610  0.50055861
   0.58292564  0.33315668  0.40276732
   0.50233975 -0.00197100  0.59749885
   0.41487565  0.16586121  0.49974881
   0.58211290  0.08203446  0.40215332
   0.16870199  0.91694920  0.50025837
   0.33656264  0.83434900  0.40288179
   0.24937425  0.50060174  0.59860260
   0.33748474  0.08031667  0.40264187
  -0.00127919  0.74669988  0.59954540
  -0.00246942  0.50419516  0.59794877
   0.91360565  0.66616845  0.50181729
   0.91280796  0.42052904  0.50061195
   0.08467317  0.33202301  0.40209933
   0.49992600  0.24784054  0.59784085
   0.74990402  0.74962072  0.59774707
Direct configuration=     6
   0.08728229  0.08231620  0.39621206
   0.49833096  0.50119826  0.60173191
   0.83035273  0.08443234  0.39529981
   0.66432908  0.91459482  0.50074061
   0.66340665  0.16923319  0.50019747
   0.83353409  0.33335631  0.39810165
   0.16701157  0.66664064  0.50229059
   0.33545458  0.58173408  0.39717644
   0.25291561  0.25038871  0.60347548
   0.16503171  0.41702681  0.50098222
   0.41835455  0.66816468  0.50092717
   0.25429807 -0.00351013  0.60199166
   0.16831530  0.16553607  0.49888347
   0.33576714  0.32900833  0.39848829
   0.74770833  0.25086964  0.60343940
   0.91680943  0.16849271  0.50031262
   0.00097126 -0.00313706  0.60388396
   0.82968156  0.83476547  0.39692286
  -0.00131388  0.25469074  0.60336275
   0.58236024  0.58569061  0.39863837
   0.83254791  0.58421729  0.39985731
   0.08543976  0.83350188  0.39687746
   0.91663522  0.91503391  0.50208383
   0.08339933  0.58243215  0.39676627
   0.66775745  0.66534112  0.50039676
   0.74823476 -0.00186104  0.59916158
   0.66604590  0.41851471  0.50020083
   0.50309589  0.75003481  0.59750786
   0.41712692  0.91640046  0.50004602
   0.58054205  0.83601762  0.40325968
   0.74890470  0.50401556  0.59651100
   0.25048279  0.74906082  0.59888847
   0.41662160  0.41698206  0.50041289
   0.58309134  0.33306727  0.40294510
   0.50212663 -0.00170852  0.59770478
   0.41580876  0.16674746  0.49988574
   0.58233054  0.08253831  0.40219704
   0.16741887  0.91689623  0.50034493
   0.33549043  0.83421081  0.40286726
   0.24934361  0.50024902  0.59898800
   0.33653663  0.08073486  0.40231023
  -0.00102210  0.74747238  0.59972132
  -0.00186969  0.50328624  0.59815661
   0.91489666  0.66606124  0.50127282
   0.91381322  0.41908378  0.50046633
   0.08460366  0.33224042  0.40215492
   0.50006058  0.24809069  0.59783493
   0.74993531  0.74984603  0.59812123
Direct configuration=     7
   0.08717701  0.08230191  0.39614229
   0.49843426  0.50106803  0.60180547
   0.83056616  0.08433671  0.39523150
   0.66425238  0.91469128  0.50070056
   0.66324553  0.16948671  0.50019974
   0.83355638  0.33327422  0.39805694
   0.16659483  0.66710957  0.50218534
   0.33535868  0.58180579  0.39712824
   0.25279857  0.25036889  0.60355776
   0.16494377  0.41704731  0.50096150
   0.41814562  0.66822252  0.50089857
   0.25412253 -0.00334393  0.60204493
   0.16790596  0.16563295  0.49897232
   0.33574502  0.32910493  0.39844628
   0.74785669  0.25083381  0.60350365
   0.91684919  0.16845801  0.50032852
   0.00093343 -0.00302971  0.60394515
   0.82993737  0.83466214  0.39686999
  -0.00126204  0.25452092  0.60341034
   0.58240031  0.58554088  0.39856616
   0.83266173  0.58420754  0.39981285
   0.08531517  0.83349917  0.39686258
   0.91703262  0.91490078  0.50203179
   0.08336954  0.58254626  0.39671927
   0.66774851  0.66542893  0.50030916
   0.74831968 -0.00183483  0.59920892
   0.66612940  0.41820537  0.50020340
   0.50299394  0.75009208  0.59756103
   0.41711670  0.91635926  0.50011978
   0.58069115  0.83594685  0.40324005
   0.74899537  0.50379114  0.59655699
   0.25039758  0.74918097  0.59891359
   0.41691598  0.41668651  0.50038621
   0.58312168  0.33305090  0.40297766
   0.50208761 -0.00166045  0.59774250
   0.41597962  0.16690974  0.49991081
   0.58237039  0.08263058  0.40220504
   0.16718391  0.91688653  0.50036078
   0.33529409  0.83418550  0.40286460
   0.24933799  0.50018443  0.59905857
   0.33636301  0.08081144  0.40224950
  -0.00097503  0.74761383  0.59975353
  -0.00175987  0.50311980  0.59819467
   0.91513306  0.66604161  0.50117312
   0.91399729  0.41881914  0.50043967
   0.08459093  0.33228023  0.40216509
   0.50008522  0.24813649  0.59783385
   0.74994104  0.74988729  0.59818974
Direct configuration=     8
   0.08724289  0.08216772  0.39600087
   0.49847877  0.50093494  0.60187823
   0.83077704  0.08433383  0.39505799
   0.66437039  0.91499230  0.50070775
   0.66350033  0.16925806  0.50027115
   0.83356122  0.33337443  0.39799166
   0.16659131  0.66686336  0.50203806
   0.33530959  0.58192931  0.39703017
   0.25280820  0.25047352  0.60375148
   0.16518937  0.41729086  0.50100867
   0.41768579  0.66822191  0.50090797
   0.25390027 -0.00329593  0.60217080
   0.16808786  0.16534362  0.49915574
   0.33578467  0.32925134  0.39841829
   0.74820852  0.25071822  0.60370648
   0.91632405  0.16835940  0.50036550
   0.00081609 -0.00301882  0.60413021
   0.83024273  0.83464184  0.39673201
  -0.00143314  0.25432966  0.60360633
   0.58259364  0.58510614  0.39842969
   0.83304698  0.58384327  0.39973422
   0.08522084  0.83365103  0.39677510
   0.91672488  0.91542664  0.50197515
   0.08341366  0.58238725  0.39655160
   0.66802848  0.66515295  0.50015841
   0.74861564 -0.00172834  0.59911969
   0.66641340  0.41794323  0.50026175
   0.50263518  0.75016307  0.59753155
   0.41658775  0.91681369  0.50036175
   0.58082786  0.83593988  0.40328249
   0.74942933  0.50330893  0.59645537
   0.25018407  0.74939067  0.59876500
   0.41677379  0.41669332  0.50039418
   0.58331680  0.33281299  0.40313474
   0.50205092 -0.00146703  0.59773328
   0.41580697  0.16721736  0.49996007
   0.58256643  0.08287725  0.40236668
   0.16725895  0.91686283  0.50045958
   0.33469285  0.83430427  0.40303269
   0.24925662  0.50027529  0.59891498
   0.33573618  0.08099574  0.40242865
  -0.00072707  0.74791859  0.59960057
  -0.00173869  0.50287240  0.59806890
   0.91526507  0.66591948  0.50100109
   0.91378895  0.41891247  0.50042801
   0.08461391  0.33227865  0.40232130
   0.49999357  0.24828639  0.59774089
   0.75017710  0.74967200  0.59808324
Direct configuration=     9
   0.08729785  0.08205574  0.39588287
   0.49851592  0.50082389  0.60193895
   0.83095301  0.08433143  0.39491321
   0.66446885  0.91524348  0.50071374
   0.66371294  0.16906726  0.50033073
   0.83356526  0.33345805  0.39793718
   0.16658838  0.66665790  0.50191516
   0.33526862  0.58203238  0.39694834
   0.25281624  0.25056084  0.60391313
   0.16539431  0.41749410  0.50104803
   0.41730208  0.66822140  0.50091582
   0.25371480 -0.00325588  0.60227583
   0.16823964  0.16510219  0.49930879
   0.33581776  0.32937351  0.39839493
   0.74850211  0.25062178  0.60387573
   0.91588583  0.16827711  0.50039636
   0.00071817 -0.00300973  0.60428463
   0.83049754  0.83462490  0.39661687
  -0.00157591  0.25417006  0.60376989
   0.58275496  0.58474337  0.39831582
   0.83336845  0.58353930  0.39966861
   0.08514212  0.83377774  0.39670209
   0.91646808  0.91586545  0.50192789
   0.08345048  0.58225456  0.39641169
   0.66826210  0.66492266  0.50003262
   0.74886260 -0.00163947  0.59904523
   0.66665039  0.41772448  0.50031044
   0.50233582  0.75022231  0.59750695
   0.41614637  0.91719290  0.50056366
   0.58094194  0.83593405  0.40331790
   0.74979146  0.50290655  0.59637057
   0.25000590  0.74956566  0.59864101
   0.41665514  0.41669901  0.50040083
   0.58347963  0.33261446  0.40326582
   0.50202031 -0.00130563  0.59772559
   0.41566289  0.16747406  0.50000118
   0.58273001  0.08308308  0.40250155
   0.16732157  0.91684306  0.50054203
   0.33419114  0.83440338  0.40317296
   0.24918872  0.50035111  0.59879516
   0.33521311  0.08114953  0.40257814
  -0.00052016  0.74817290  0.59947293
  -0.00172102  0.50266596  0.59796396
   0.91537523  0.66581757  0.50085754
   0.91361509  0.41899035  0.50041828
   0.08463308  0.33227733  0.40245164
   0.49991709  0.24841148  0.59766332
   0.75037408  0.74949235  0.59799438
Direct configuration=    10
   0.08708812  0.08229343  0.39572166
   0.49856428  0.50080750  0.60197867
   0.83106117  0.08452626  0.39462354
   0.66439065  0.91512236  0.50072872
   0.66354819  0.16912955  0.50047664
   0.83378693  0.33330310  0.39786914
   0.16638769  0.66669119  0.50170272
   0.33538183  0.58203214  0.39679299
   0.25275586  0.25070001  0.60419111
   0.16546367  0.41730722  0.50109007
   0.41755055  0.66794563  0.50090921
   0.25355709 -0.00314117  0.60252911
   0.16795279  0.16537729  0.49957366
   0.33591658  0.32934317  0.39837882
   0.74845731  0.25059832  0.60420000
   0.91585015  0.16829796  0.50040570
   0.00070654 -0.00305501  0.60459918
   0.83044672  0.83466894  0.39644189
  -0.00141775  0.25392193  0.60405038
   0.58267295  0.58478333  0.39821805
   0.83349728  0.58341681  0.39951978
   0.08506521  0.83377751  0.39656150
   0.91643531  0.91586940  0.50182808
   0.08367049  0.58206155  0.39612899
   0.66801185  0.66500230  0.49986691
   0.74903239 -0.00158660  0.59892830
   0.66646414  0.41794848  0.50039506
   0.50233370  0.75005317  0.59735880
   0.41623527  0.91723422  0.50084608
   0.58081532  0.83598312  0.40350239
   0.74995502  0.50276721  0.59618640
   0.24990760  0.74956343  0.59841570
   0.41672621  0.41679810  0.50040928
   0.58369801  0.33241640  0.40350248
   0.50213894 -0.00123583  0.59769178
   0.41537313  0.16768304  0.50004365
   0.58276293  0.08314558  0.40274546
   0.16712503  0.91692668  0.50067913
   0.33422045  0.83431554  0.40345919
   0.24907149  0.50060949  0.59856738
   0.33501075  0.08120922  0.40293686
  -0.00034540  0.74820750  0.59914813
  -0.00169428  0.50258596  0.59773511
   0.91526644  0.66598033  0.50063936
   0.91375501  0.41880046  0.50040330
   0.08477349  0.33206900  0.40277040
   0.49996462  0.24851467  0.59755239
   0.75060831  0.74923011  0.59769684
Direct configuration=    11
   0.08681670  0.08260103  0.39551305
   0.49862687  0.50078628  0.60203007
   0.83120113  0.08477838  0.39424868
   0.66428944  0.91496561  0.50074810
   0.66333499  0.16921016  0.50066547
   0.83407378  0.33310258  0.39778110
   0.16612797  0.66673427  0.50142781
   0.33552834  0.58203183  0.39659194
   0.25267771  0.25088012  0.60455083
   0.16555343  0.41706539  0.50114446
   0.41787209  0.66758875  0.50090065
   0.25335300 -0.00299273  0.60285688
   0.16758157  0.16573329  0.49991643
   0.33604446  0.32930391  0.39835798
   0.74839935  0.25056796  0.60461964
   0.91580396  0.16832494  0.50041778
   0.00069149 -0.00311361  0.60500624
   0.83038095  0.83472593  0.39621545
  -0.00121307  0.25360083  0.60441337
   0.58256683  0.58483505  0.39809152
   0.83366399  0.58325830  0.39932719
   0.08496568  0.83377721  0.39637956
   0.91639291  0.91587451  0.50169890
   0.08395520  0.58181178  0.39576315
   0.66768799  0.66510536  0.49965247
   0.74925212 -0.00151819  0.59877698
   0.66622311  0.41823836  0.50050457
   0.50233096  0.74983429  0.59716709
   0.41635032  0.91728770  0.50121156
   0.58065146  0.83604662  0.40374115
   0.75016668  0.50258691  0.59594807
   0.24978038  0.74956054  0.59812413
   0.41681818  0.41692633  0.50042020
   0.58398061  0.33216008  0.40380874
   0.50229247 -0.00114550  0.59764801
   0.41499815  0.16795347  0.50009861
   0.58280552  0.08322645  0.40306110
   0.16687069  0.91703488  0.50085655
   0.33425838  0.83420187  0.40382959
   0.24891979  0.50094385  0.59827260
   0.33474889  0.08128645  0.40340107
  -0.00011925  0.74825228  0.59872782
  -0.00165967  0.50248244  0.59743896
   0.91512564  0.66619095  0.50035702
   0.91393607  0.41855473  0.50038392
   0.08495518  0.33179941  0.40318290
   0.50002613  0.24864820  0.59740885
   0.75091142  0.74889074  0.59731179
Direct configuration=    12
   0.08627386  0.08321621  0.39509582
   0.49875205  0.50074386  0.60213288
   0.83148105  0.08528262  0.39349896
   0.66408704  0.91465212  0.50078685
   0.66290858  0.16937138  0.50104312
   0.83464749  0.33270155  0.39760501
   0.16560853  0.66682042  0.50087799
   0.33582135  0.58203121  0.39618985
   0.25252141  0.25124034  0.60527027
   0.16573296  0.41658172  0.50125326
   0.41851517  0.66687500  0.50088353
   0.25294481 -0.00269584  0.60351241
   0.16683915  0.16644529  0.50060195
   0.33630022  0.32922539  0.39831630
   0.74828341  0.25050723  0.60545892
   0.91571160  0.16837891  0.50044195
   0.00066140 -0.00323081  0.60582036
   0.83024943  0.83483992  0.39576256
  -0.00080372  0.25295864  0.60513934
   0.58235458  0.58493849  0.39783847
   0.83399741  0.58294128  0.39894199
   0.08476661  0.83377661  0.39601568
   0.91630810  0.91588472  0.50144056
   0.08452463  0.58131224  0.39503147
   0.66704028  0.66531149  0.49922359
   0.74969158 -0.00138136  0.59847435
   0.66574106  0.41881810  0.50072358
   0.50232548  0.74939653  0.59678368
   0.41658043  0.91739464  0.50194251
   0.58032374  0.83617362  0.40421865
   0.75059001  0.50222629  0.59547140
   0.24952594  0.74955476  0.59754100
   0.41700212  0.41718280  0.50044206
   0.58454583  0.33164745  0.40442126
   0.50259952 -0.00096484  0.59756048
   0.41424819  0.16849434  0.50020853
   0.58289071  0.08338821  0.40369238
   0.16636201  0.91725129  0.50121140
   0.33433424  0.83397452  0.40457040
   0.24861638  0.50161257  0.59768306
   0.33422515  0.08144092  0.40432949
   0.00033305  0.74834184  0.59788719
  -0.00159045  0.50227538  0.59684665
   0.91484406  0.66661219  0.49979233
   0.91429819  0.41806327  0.50034517
   0.08531857  0.33126023  0.40400790
   0.50014915  0.24891527  0.59712176
   0.75151764  0.74821201  0.59654170
Direct configuration=    13
   0.08665166  0.08278807  0.39538620
   0.49866493  0.50077339  0.60206133
   0.83128623  0.08493169  0.39402073
   0.66422790  0.91487030  0.50075988
   0.66320534  0.16925918  0.50078029
   0.83424821  0.33298065  0.39772756
   0.16597004  0.66676046  0.50126065
   0.33561742  0.58203164  0.39646969
   0.25263019  0.25098964  0.60476957
   0.16560802  0.41691834  0.50117754
   0.41806761  0.66737174  0.50089544
   0.25322889 -0.00290246  0.60305619
   0.16735585  0.16594976  0.50012485
   0.33612222  0.32928004  0.39834531
   0.74836410  0.25054949  0.60487481
   0.91577588  0.16834135  0.50042513
   0.00068235 -0.00314925  0.60525377
   0.83034097  0.83476059  0.39607775
  -0.00108861  0.25340558  0.60463409
   0.58250230  0.58486650  0.39801458
   0.83376536  0.58316191  0.39921007
   0.08490515  0.83377703  0.39626893
   0.91636712  0.91587761  0.50162036
   0.08412833  0.58165990  0.39554069
   0.66749106  0.66516803  0.49952208
   0.74938574 -0.00147659  0.59868497
   0.66607655  0.41841462  0.50057115
   0.50232930  0.74970120  0.59705052
   0.41642028  0.91732021  0.50143379
   0.58055182  0.83608523  0.40388633
   0.75029539  0.50247726  0.59580314
   0.24970302  0.74955878  0.59794684
   0.41687411  0.41700431  0.50042685
   0.58415246  0.33200422  0.40399497
   0.50238583 -0.00109057  0.59762140
   0.41477013  0.16811791  0.50013203
   0.58283142  0.08327563  0.40325303
   0.16671603  0.91710068  0.50096444
   0.33428144  0.83413275  0.40405483
   0.24882754  0.50114716  0.59809336
   0.33458965  0.08133342  0.40368334
   0.00001827  0.74827951  0.59847223
  -0.00163863  0.50241948  0.59725887
   0.91504003  0.66631902  0.50018533
   0.91404617  0.41840531  0.50037214
   0.08506567  0.33163548  0.40343373
   0.50006353  0.24872940  0.59732156
   0.75109573  0.74868438  0.59707766
Direct configuration=    14
   0.08690610  0.08253134  0.39529499
   0.49869304  0.50081745  0.60210587
   0.83113829  0.08481197  0.39372289
   0.66415174  0.91488516  0.50073272
   0.66333808  0.16928816  0.50091687
   0.83407694  0.33327773  0.39769216
   0.16611323  0.66677772  0.50086280
   0.33570836  0.58186079  0.39631253
   0.25278205  0.25107895  0.60508204
   0.16546977  0.41707284  0.50114835
   0.41788918  0.66753983  0.50082645
   0.25353996 -0.00304872  0.60335822
   0.16722140  0.16564273  0.50051873
   0.33624803  0.32915773  0.39834708
   0.74833217  0.25061128  0.60520086
   0.91569446  0.16846169  0.50049499
   0.00064251 -0.00307884  0.60558722
   0.83008430  0.83487417  0.39587317
  -0.00108252  0.25344287  0.60493742
   0.58268613  0.58485897  0.39793430
   0.83364303  0.58327735  0.39905466
   0.08495222  0.83376781  0.39612364
   0.91625631  0.91602522  0.50141339
   0.08424355  0.58153145  0.39522803
   0.66756036  0.66507135  0.49931293
   0.74941125 -0.00162873  0.59861418
   0.66622733  0.41827235  0.50062615
   0.50251485  0.74966442  0.59694631
   0.41609395  0.91736751  0.50167785
   0.58041048  0.83614031  0.40406530
   0.75027678  0.50243249  0.59563205
   0.24982892  0.74952022  0.59775141
   0.41670611  0.41722178  0.50037109
   0.58423817  0.33216715  0.40419225
   0.50244792 -0.00114278  0.59767159
   0.41472320  0.16803789  0.50025084
   0.58292408  0.08307283  0.40347689
   0.16665325  0.91726937  0.50106620
   0.33431477  0.83432644  0.40441043
   0.24885603  0.50118531  0.59791169
   0.33477254  0.08115141  0.40410785
  -0.00009919  0.74813316  0.59813666
  -0.00157654  0.50244945  0.59706177
   0.91489494  0.66622336  0.49982132
   0.91385311  0.41849423  0.50034002
   0.08518662  0.33166163  0.40370194
   0.49991282  0.24879484  0.59732926
   0.75113993  0.74864834  0.59675467
Direct configuration=    15
   0.08719361  0.08224124  0.39519192
   0.49872480  0.50086724  0.60215620
   0.83097112  0.08467668  0.39338634
   0.66406567  0.91490196  0.50070204
   0.66348808  0.16932092  0.50107121
   0.83388341  0.33361341  0.39765216
   0.16627504  0.66679722  0.50041325
   0.33581111  0.58166773  0.39613495
   0.25295364  0.25117987  0.60543512
   0.16531355  0.41724743  0.50111536
   0.41768755  0.66772976  0.50074848
   0.25389146 -0.00321398  0.60369950
   0.16706948  0.16529580  0.50096380
   0.33639019  0.32901953  0.39834909
   0.74829610  0.25068109  0.60556928
   0.91560247  0.16859767  0.50057394
   0.00059750 -0.00299927  0.60596400
   0.82979427  0.83500251  0.39564199
  -0.00107563  0.25348501  0.60528019
   0.58289386  0.58485047  0.39784357
   0.83350479  0.58340779  0.39887906
   0.08500541  0.83375739  0.39595948
   0.91613109  0.91619202  0.50117952
   0.08437375  0.58138631  0.39487473
   0.66763867  0.66496210  0.49907659
   0.74944008 -0.00180065  0.59853419
   0.66639771  0.41811159  0.50068829
   0.50272452  0.74962285  0.59682855
   0.41572519  0.91742095  0.50195362
   0.58025076  0.83620255  0.40426754
   0.75025574  0.50238191  0.59543872
   0.24997118  0.74947665  0.59753058
   0.41651628  0.41746752  0.50030807
   0.58433503  0.33235125  0.40441518
   0.50251808 -0.00120178  0.59772830
   0.41467017  0.16794747  0.50038510
   0.58302878  0.08284366  0.40372983
   0.16658231  0.91745998  0.50118118
   0.33435244  0.83454530  0.40481225
   0.24888822  0.50122842  0.59770640
   0.33497919  0.08094575  0.40458752
  -0.00023192  0.74796780  0.59775747
  -0.00150638  0.50248331  0.59683905
   0.91473100  0.66611526  0.49941000
   0.91363495  0.41859471  0.50030372
   0.08532329  0.33169118  0.40400501
   0.49974252  0.24886878  0.59733796
   0.75118988  0.74860762  0.59638971
Direct configuration=    16
   0.08718637  0.08231981  0.39530878
   0.49870391  0.50090146  0.60212601
   0.83080157  0.08470212  0.39332367
   0.66403036  0.91509238  0.50067427
   0.66358784  0.16938984  0.50110411
   0.83405294  0.33331387  0.39768057
   0.16610117  0.66706958  0.50018647
   0.33590106  0.58170359  0.39603522
   0.25303005  0.25108962  0.60555938
   0.16525555  0.41721813  0.50102746
   0.41770140  0.66774231  0.50068693
   0.25409986 -0.00334107  0.60390328
   0.16697268  0.16548629  0.50120914
   0.33657995  0.32876214  0.39839931
   0.74831005  0.25062189  0.60566578
   0.91556268  0.16855566  0.50065627
   0.00066406 -0.00308354  0.60601237
   0.82987325  0.83480477  0.39548794
  -0.00114250  0.25379034  0.60541351
   0.58271810  0.58499452  0.39781865
   0.83353591  0.58362660  0.39874611
   0.08513076  0.83367394  0.39587290
   0.91623663  0.91621615  0.50103257
   0.08411470  0.58155587  0.39471515
   0.66768018  0.66485749  0.49900348
   0.74938138 -0.00188390  0.59856511
   0.66641328  0.41794628  0.50068722
   0.50296457  0.74963565  0.59688470
   0.41560679  0.91740689  0.50204467
   0.58027018  0.83615099  0.40424857
   0.75016917  0.50245759  0.59545450
   0.24995459  0.74951901  0.59750352
   0.41651789  0.41731360  0.50025945
   0.58429405  0.33243474  0.40439402
   0.50251043 -0.00126236  0.59787002
   0.41471691  0.16798233  0.50058806
   0.58299803  0.08289467  0.40373669
   0.16634088  0.91747071  0.50123037
   0.33435435  0.83443999  0.40488550
   0.24901789  0.50114693  0.59767253
   0.33512758  0.08097984  0.40474429
  -0.00031712  0.74795607  0.59756070
  -0.00152628  0.50252131  0.59683958
   0.91490274  0.66601018  0.49909712
   0.91355291  0.41861835  0.50026501
   0.08526554  0.33167940  0.40403328
   0.49975582  0.24879803  0.59747572
   0.75103990  0.74871997  0.59631001
Direct configuration=    17
   0.08717891  0.08240074  0.39542913
   0.49868239  0.50093669  0.60209492
   0.83062695  0.08472832  0.39325912
   0.66399398  0.91528848  0.50064566