<?xml version="1.0" encoding="ISO-8859-1"?>
<modeling>
 <generator>
  <i name="program" type="string">vasp </i>
  <i name="version" type="string">5.4.1  </i>
  <i name="subversion" type="string">24Jun15 (build Mar 14 2019 10:18:33) complex                          parallel </i>
  <i name="platform" type="string">INTEL-19.0.2+OPENMPI-3.1.3 </i>
  <i name="date" type="string">2023 01 22 </i>
  <i name="time" type="string">05:22:43 </i>
 </generator>
 <incar>
  <i type="int" name="ISTART">     0</i>
  <i type="string" name="PREC">normal</i>
  <i type="string" name="ALGO"> Fast</i>
  <i type="int" name="NELM">   500</i>
  <i type="int" name="IBRION">     2</i>
  <i type="int" name="NFREE">     2</i>
  <i name="EDIFF">      0.00000100</i>
  <i name="EDIFFG">     -0.02000000</i>
  <i type="int" name="NSW">   500</i>
  <i type="int" name="ISIF">     0</i>
  <i type="int" name="ISYM">     2</i>
  <i name="ENCUT">    400.00000000</i>
  <i name="POTIM">      0.35000000</i>
  <i type="string" name="LREAL"> Auto</i>
  <i type="logical" name="LPLANE"> T  </i>
  <i type="int" name="ISMEAR">     0</i>
  <i name="SIGMA">      0.10000000</i>
  <i type="int" name="NWRITE">     1</i>
  <i type="logical" name="LWAVE"> F  </i>
  <i type="logical" name="LCHARG"> F  </i>
  <i type="logical" name="LVTOT"> F  </i>
  <i type="logical" name="LORBIT"> F  </i>
  <i type="logical" name="LAECHG"> F  </i>
  <v type="int" name="KPOINT_BSE">    -1     0     0     0</v>
  <i type="int" name="NELM">   500</i>
  <i type="string" name="GGA"> PE          ! optPBE-vdW XC-functional</i>
  <i type="int" name="VOSKOWN">     1</i>
  <i type="logical" name="LDIPOL"> T  </i>
  <i type="logical" name="LMONO"> F  </i>
  <i type="int" name="IDIPOL">     3</i>
  <v name="DIPOL">      0.00000000      0.00000000      0.50000000</v>
 </incar>
 <kpoints>
  <generation param="Monkhorst-Pack">
   <v type="int" name="divisions">       2        2        1 </v>
   <v name="usershift">      0.00000000       0.00000000       0.00000000 </v>
   <v name="genvec1">      0.50000000       0.00000000       0.00000000 </v>
   <v name="genvec2">      0.00000000       0.50000000       0.00000000 </v>
   <v name="genvec3">      0.00000000       0.00000000       1.00000000 </v>
   <v name="shift">      0.50000000       0.50000000       0.00000000 </v>
  </generation>
  <varray name="kpointlist" >
   <v>       0.25000000       0.25000000       0.00000000 </v>
   <v>       0.00000000       0.25000000       0.00000000 </v>
   <v>      -0.25000000       0.00000000       0.00000000 </v>
   <v>      -0.25000000       0.25000000       0.00000000 </v>
   <v>       0.50000000      -0.25000000       0.00000000 </v>
   <v>      -0.25000000       0.50000000       0.00000000 </v>
  </varray>
  <varray name="weights" >
   <v>       0.16666667 </v>
   <v>       0.16666667 </v>
   <v>       0.16666667 </v>
   <v>       0.16666667 </v>
   <v>       0.16666667 </v>
   <v>       0.16666667 </v>
  </varray>
 </kpoints>
 <parameters>
  <separator name="general" >
   <i type="string" name="SYSTEM">unknown system</i>
   <i type="logical" name="LCOMPAT"> F  </i>
  </separator>
  <separator name="electronic" >
   <i type="string" name="PREC">normal</i>
   <i name="ENMAX">    400.00000000</i>
   <i name="ENAUG">    605.39200000</i>
   <i name="EDIFF">      0.00000100</i>
   <i type="int" name="IALGO">    68</i>
   <i type="int" name="IWAVPR">    11</i>
   <i type="int" name="NBANDS">   336</i>
   <i name="NELECT">    552.00000000</i>
   <i type="int" name="TURBO">     0</i>
   <i type="int" name="IRESTART">     0</i>
   <i type="int" name="NREBOOT">     0</i>
   <i type="int" name="NMIN">     0</i>
   <i name="EREF">      0.00000000</i>
   <separator name="electronic smearing" >
    <i type="int" name="ISMEAR">     0</i>
    <i name="SIGMA">      0.10000000</i>
    <i name="KSPACING">      0.50000000</i>
    <i type="logical" name="KGAMMA"> T  </i>
   </separator>
   <separator name="electronic projectors" >
    <i type="logical" name="LREAL"> T  </i>
    <v name="ROPT">     -0.00050000     -0.00050000     -0.00050000</v>
    <i type="int" name="LMAXPAW">  -100</i>
    <i type="int" name="LMAXMIX">     2</i>
    <i type="logical" name="NLSPLINE"> F  </i>
   </separator>
   <separator name="electronic startup" >
    <i type="int" name="ISTART">     0</i>
    <i type="int" name="ICHARG">     2</i>
    <i type="int" name="INIWAV">     1</i>
   </separator>
   <separator name="electronic spin" >
    <i type="int" name="ISPIN">     1</i>
    <i type="logical" name="LNONCOLLINEAR"> F  </i>
    <v name="MAGMOM">      1.00000000      1.00000000      1.00000000      1.00000000      1.00000000      1.00000000      1.00000000      1.00000000      1.00000000      1.00000000      1.00000000      1.00000000      1.00000000      1.00000000      1.00000000      1.00000000      1.00000000      1.00000000      1.00000000      1.00000000
      1.00000000      1.00000000      1.00000000      1.00000000      1.00000000      1.00000000      1.00000000      1.00000000      1.00000000      1.00000000      1.00000000      1.00000000      1.00000000      1.00000000      1.00000000      1.00000000      1.00000000      1.00000000      1.00000000      1.00000000
      1.00000000      1.00000000      1.00000000      1.00000000      1.00000000      1.00000000      1.00000000      1.00000000      1.00000000      1.00000000      1.00000000      1.00000000      1.00000000      1.00000000      1.00000000      1.00000000</v>
    <i name="NUPDOWN">     -1.00000000</i>
    <i type="logical" name="LSORBIT"> F  </i>
    <v name="SAXIS">      0.00000000      0.00000000      1.00000000</v>
    <i type="logical" name="LSPIRAL"> F  </i>
    <v name="QSPIRAL">      0.00000000      0.00000000      0.00000000</v>
    <i type="logical" name="LZEROZ"> F  </i>
   </separator>
   <separator name="electronic exchange-correlation" >
    <i type="logical" name="LASPH"> F  </i>
    <i type="logical" name="LMETAGGA"> F  </i>
   </separator>
   <separator name="electronic convergence" >
    <i type="int" name="NELM">   500</i>
    <i type="int" name="NELMDL">    -5</i>
    <i type="int" name="NELMIN">     2</i>
    <i name="ENINI">    400.00000000</i>
    <separator name="electronic convergence detail" >
     <i type="logical" name="LDIAG"> T  </i>
     <i type="logical" name="LSUBROT"> F  </i>
     <i name="WEIMIN">      0.00100000</i>
     <i name="EBREAK">      0.00000000</i>
     <i name="DEPER">      0.30000000</i>
     <i type="int" name="NRMM">     4</i>
     <i name="TIME">      0.40000000</i>
    </separator>
   </separator>
   <separator name="electronic mixer" >
    <i name="AMIX">      0.40000000</i>
    <i name="BMIX">      1.00000000</i>
    <i name="AMIN">      0.10000000</i>
    <i name="AMIX_MAG">      1.60000000</i>
    <i name="BMIX_MAG">      1.00000000</i>
    <separator name="electronic mixer details" >
     <i type="int" name="IMIX">     4</i>
     <i type="logical" name="MIXFIRST"> F  </i>
     <i type="int" name="MAXMIX">   -45</i>
     <i name="WC">    100.00000000</i>
     <i type="int" name="INIMIX">     1</i>
     <i type="int" name="MIXPRE">     1</i>
     <i type="int" name="MREMOVE">     5</i>
    </separator>
   </separator>
   <separator name="electronic dipolcorrection" >
    <i type="logical" name="LDIPOL"> T  </i>
    <i type="logical" name="LMONO"> F  </i>
    <i type="int" name="IDIPOL">     3</i>
    <i name="EPSILON">      1.00000000</i>
    <v name="DIPOL">      0.00000000      0.00000000      0.50000000</v>
    <i name="EFIELD">      0.00000000</i>
   </separator>
  </separator>
  <separator name="grids" >
   <i type="int" name="NGX">    54</i>
   <i type="int" name="NGY">    54</i>
   <i type="int" name="NGZ">   128</i>
   <i type="int" name="NGXF">   108</i>
   <i type="int" name="NGYF">   108</i>
   <i type="int" name="NGZF">   256</i>
   <i type="logical" name="ADDGRID"> F  </i>
  </separator>
  <separator name="ionic" >
   <i type="int" name="NSW">   500</i>
   <i type="int" name="IBRION">     2</i>
   <i type="int" name="ISIF">     0</i>
   <i name="PSTRESS">      0.00000000</i>
   <i name="EDIFFG">     -0.02000000</i>
   <i type="int" name="NFREE">     2</i>
   <i name="POTIM">      0.35000000</i>
   <i name="SMASS">     -3.00000000</i>
   <i name="SCALEE">      1.00000000</i>
  </separator>
  <separator name="ionic md" >
   <i name="TEBEG">      0.00010000</i>
   <i name="TEEND">      0.00010000</i>
   <i type="int" name="NBLOCK">     1</i>
   <i type="int" name="KBLOCK">   500</i>
   <i type="int" name="NPACO">   256</i>
   <i name="APACO">     16.00000000</i>
  </separator>
  <separator name="symmetry" >
   <i type="int" name="ISYM">     2</i>
   <i name="SYMPREC">      0.00001000</i>
  </separator>
  <separator name="dos" >
   <i type="logical" name="LORBIT"> F  </i>
   <v name="RWIGS">     -1.00000000     -1.00000000     -1.00000000</v>
   <i type="int" name="NEDOS">   301</i>
   <i name="EMIN">     10.00000000</i>
   <i name="EMAX">    -10.00000000</i>
   <i name="EFERMI">      0.00000000</i>
  </separator>
  <separator name="writing" >
   <i type="int" name="NWRITE">     1</i>
   <i type="logical" name="LWAVE"> F  </i>
   <i type="logical" name="LCHARG"> F  </i>
   <i type="logical" name="LPARD"> F  </i>
   <i type="logical" name="LVTOT"> F  </i>
   <i type="logical" name="LVHAR"> F  </i>
   <i type="logical" name="LELF"> F  </i>
   <i type="logical" name="LOPTICS"> F  </i>
   <v name="STM">      0.00000000      0.00000000      0.00000000      0.00000000      0.00000000      0.00000000      0.00000000</v>
  </separator>
  <separator name="performance" >
   <i type="int" name="NPAR">     6</i>
   <i type="int" name="NSIM">     4</i>
   <i type="int" name="NBLK">    -1</i>
   <i type="logical" name="LPLANE"> T  </i>
   <i type="logical" name="LSCALAPACK"> T  </i>
   <i type="logical" name="LSCAAWARE"> F  </i>
   <i type="logical" name="LSCALU"> F  </i>
   <i type="logical" name="LASYNC"> F  </i>
   <i type="logical" name="LORBITALREAL"> F  </i>
  </separator>
  <separator name="miscellaneous" >
   <i type="int" name="IDIOT">     3</i>
   <i type="logical" name="LMUSIC"> F  </i>
   <v name="POMASS">    196.96600000     16.00000000    106.42000000</v>
   <v name="DARWINR">      0.00000000      0.00000000      0.00000000</v>
   <v name="DARWINV">      1.00000000      1.00000000      1.00000000</v>
   <i type="logical" name="LCORR"> T  </i>
  </separator>
  <i type="logical" name="GGA_COMPAT"> T  </i>
  <i type="logical" name="LBERRY"> F  </i>
  <i type="int" name="ICORELEVEL">     0</i>
  <i type="logical" name="LDAU"> F  </i>
  <i type="int" name="I_CONSTRAINED_M">     0</i>
  <separator name="electronic exchange-correlation" >
   <i type="string" name="GGA">PE</i>
   <i type="int" name="VOSKOWN">     1</i>
   <i type="logical" name="LHFCALC"> F  </i>
   <i type="string" name="PRECFOCK"></i>
   <i type="logical" name="LSYMGRAD"> F  </i>
   <i type="logical" name="LHFONE"> F  </i>
   <i type="logical" name="LRHFCALC"> F  </i>
   <i type="logical" name="LTHOMAS"> F  </i>
   <i type="logical" name="LMODELHF"> F  </i>
   <i name="ENCUT4O">     -1.00000000</i>
   <i type="int" name="EXXOEP">     0</i>
   <i type="int" name="FOURORBIT">     0</i>
   <i name="AEXX">      0.00000000</i>
   <i name="HFALPHA">      0.00000000</i>
   <i name="MCALPHA">      0.00000000</i>
   <i name="ALDAX">      1.00000000</i>
   <i name="AGGAX">      1.00000000</i>
   <i name="ALDAC">      1.00000000</i>
   <i name="AGGAC">      1.00000000</i>
   <i type="int" name="NKREDX">     1</i>
   <i type="int" name="NKREDY">     1</i>
   <i type="int" name="NKREDZ">     1</i>
   <i type="logical" name="SHIFTRED"> F  </i>
   <i type="logical" name="ODDONLY"> F  </i>
   <i type="logical" name="EVENONLY"> F  </i>
   <i type="int" name="LMAXFOCK">     0</i>
   <i type="int" name="NMAXFOCKAE">     0</i>
   <i type="logical" name="LFOCKAEDFT"> F  </i>
   <i name="HFSCREEN">      0.00000000</i>
   <i name="HFSCREENC">      0.00000000</i>
   <i type="int" name="NBANDSGWLOW">     0</i>
  </separator>
  <separator name="vdW DFT" >
   <i type="logical" name="LUSE_VDW"> F  </i>
   <i name="Zab_VDW">     -0.84910000</i>
   <i name="PARAM1">      0.12340000</i>
   <i name="PARAM2">      1.00000000</i>
   <i name="PARAM3">      0.00000000</i>
  </separator>
  <separator name="model GW" >
   <i type="int" name="MODEL_GW">     0</i>
   <i name="MODEL_EPS0">     29.42037089</i>
   <i name="MODEL_ALPHA">      1.00000000</i>
  </separator>
  <separator name="linear response parameters" >
   <i type="logical" name="LEPSILON"> F  </i>
   <i type="logical" name="LRPA"> F  </i>
   <i type="logical" name="LNABLA"> F  </i>
   <i type="logical" name="LVEL"> F  </i>
   <i type="int" name="KINTER">     0</i>
   <i name="CSHIFT">      0.10000000</i>
   <i name="OMEGAMAX">     -1.00000000</i>
   <i name="DEG_THRESHOLD">      0.00200000</i>
  </separator>
  <separator name="orbital magnetization" >
   <i type="logical" name="NUCIND"> F  </i>
   <v name="MAGPOS">      0.00000000      0.00000000      0.00000000</v>
   <i type="logical" name="LNICSALL"> T  </i>
   <i type="logical" name="ORBITALMAG"> F  </i>
   <i type="logical" name="LMAGBLOCH"> F  </i>
   <i type="logical" name="LCHIMAG"> F  </i>
   <i type="logical" name="LGAUGE"> T  </i>
   <i type="int" name="MAGATOM">     0</i>
   <v name="MAGDIPOL">      0.00000000      0.00000000      0.00000000</v>
   <v name="AVECCONST">      0.00000000      0.00000000      0.00000000</v>
  </separator>
  <separator name="response functions" >
   <i type="logical" name="LADDER"> F  </i>
   <i type="logical" name="LFXC"> F  </i>
   <i type="logical" name="LHARTREE"> T  </i>
   <i type="int" name="IBSE">     0</i>
   <v type="int" name="KPOINT">    -1     0     0     0</v>
   <i type="logical" name="LTCTE"> F  </i>
   <i type="logical" name="LTETE"> F  </i>
   <i type="logical" name="LTRIPLET"> F  </i>
   <i type="logical" name="LFXCEPS"> F  </i>
   <i type="logical" name="LFXHEG"> F  </i>
   <i type="int" name="NATURALO">     0</i>
   <i type="logical" name="L2ORDER"> F  </i>
   <i type="logical" name="LUSEW"> F  </i>
   <i name="ENCUTGW">     -2.00000000</i>
   <i name="ENCUTGWSOFT">     -2.00000000</i>
   <i name="ENCUTLF">     -1.00000000</i>
   <i type="int" name="LMAXMP2">    -1</i>
   <i name="SCISSOR">      0.00000000</i>
   <i type="int" name="NOMEGA">     0</i>
   <i type="int" name="NOMEGAR">     0</i>
   <i type="int" name="NBANDSGW">    -1</i>
   <i type="int" name="NBANDSO">    -1</i>
   <i type="int" name="NBANDSV">    -1</i>
   <i type="int" name="NELM">   500</i>
   <i type="int" name="NELMHF">     1</i>
   <i type="int" name="DIM">     3</i>
   <i type="int" name="ANTIRES">     0</i>
   <i name="OMEGAMAX">    -30.00000000</i>
   <i name="OMEGAMIN">    -30.00000000</i>
   <i name="OMEGATL">   -200.00000000</i>
   <i type="int" name="OMEGAGRID">     0</i>
   <i name="CSHIFT">     -0.10000000</i>
   <i type="logical" name="SELFENERGY"> F  </i>
   <i type="logical" name="LSPECTRAL"> F  </i>
   <i type="logical" name="LSPECTRALGW"> F  </i>
   <i type="logical" name="LSINGLES"> F  </i>
   <i type="logical" name="LFERMIGW"> F  </i>
   <i type="logical" name="ODDONLYGW"> F  </i>
   <i type="logical" name="EVENONLYGW"> F  </i>
   <i type="int" name="NKREDLFX">     1</i>
   <i type="int" name="NKREDLFY">     1</i>
   <i type="int" name="NKREDLFZ">     1</i>
   <i type="int" name="MAXMEM">  1800</i>
   <i type="int" name="TELESCOPE">     0</i>
   <i type="int" name="TAUPAR">     1</i>
   <i type="int" name="OMEGAPAR">    -1</i>
   <i name="LAMBDA">      1.00000000</i>
  </separator>
  <separator name="External order field" >
   <i name="OFIELD_KAPPA">      0.00000000</i>
   <v name="OFIELD_K">      0.00000000      0.00000000      0.00000000</v>
   <i name="OFIELD_Q6_NEAR">      0.00000000</i>
   <i name="OFIELD_Q6_FAR">      0.00000000</i>
   <i name="OFIELD_A">      0.00000000</i>
  </separator>
 </parameters>
 <atominfo>
  <atoms>      56 </atoms>
  <types>       3 </types>
  <array name="atoms" >
   <dimension dim="1">ion</dimension>
   <field type="string">element</field>
   <field type="int">atomtype</field>
   <set>
    <rc><c>Au</c><c>   1</c></rc>
    <rc><c>Au</c><c>   1</c></rc>
    <rc><c>Au</c><c>   1</c></rc>
    <rc><c>Au</c><c>   1</c></rc>
    <rc><c>Au</c><c>   1</c></rc>
    <rc><c>Au</c><c>   1</c></rc>
    <rc><c>Au</c><c>   1</c></rc>
    <rc><c>Au</c><c>   1</c></rc>
    <rc><c>Au</c><c>   1</c></rc>
    <rc><c>Au</c><c>   1</c></rc>
    <rc><c>Au</c><c>   1</c></rc>
    <rc><c>Au</c><c>   1</c></rc>
    <rc><c>Au</c><c>   1</c></rc>
    <rc><c>Au</c><c>   1</c></rc>
    <rc><c>Au</c><c>   1</c></rc>
    <rc><c>Au</c><c>   1</c></rc>
    <rc><c>Au</c><c>   1</c></rc>
    <rc><c>Au</c><c>   1</c></rc>
    <rc><c>Au</c><c>   1</c></rc>
    <rc><c>Au</c><c>   1</c></rc>
    <rc><c>Au</c><c>   1</c></rc>
    <rc><c>Au</c><c>   1</c></rc>
    <rc><c>Au</c><c>   1</c></rc>
    <rc><c>Au</c><c>   1</c></rc>
    <rc><c>O </c><c>   2</c></rc>
    <rc><c>O </c><c>   2</c></rc>
    <rc><c>O </c><c>   2</c></rc>
    <rc><c>O </c><c>   2</c></rc>
    <rc><c>O </c><c>   2</c></rc>
    <rc><c>O </c><c>   2</c></rc>
    <rc><c>O </c><c>   2</c></rc>
    <rc><c>O </c><c>   2</c></rc>
    <rc><c>Pd</c><c>   3</c></rc>
    <rc><c>Pd</c><c>   3</c></rc>
    <rc><c>Pd</c><c>   3</c></rc>
    <rc><c>Pd</c><c>   3</c></rc>
    <rc><c>Pd</c><c>   3</c></rc>
    <rc><c>Pd</c><c>   3</c></rc>
    <rc><c>Pd</c><c>   3</c></rc>
    <rc><c>Pd</c><c>   3</c></rc>
    <rc><c>Pd</c><c>   3</c></rc>
    <rc><c>Pd</c><c>   3</c></rc>
    <rc><c>Pd</c><c>   3</c></rc>
    <rc><c>Pd</c><c>   3</c></rc>
    <rc><c>Pd</c><c>   3</c></rc>
    <rc><c>Pd</c><c>   3</c></rc>
    <rc><c>Pd</c><c>   3</c></rc>
    <rc><c>Pd</c><c>   3</c></rc>
    <rc><c>Pd</c><c>   3</c></rc>
    <rc><c>Pd</c><c>   3</c></rc>
    <rc><c>Pd</c><c>   3</c></rc>
    <rc><c>Pd</c><c>   3</c></rc>
    <rc><c>Pd</c><c>   3</c></rc>
    <rc><c>Pd</c><c>   3</c></rc>
    <rc><c>Pd</c><c>   3</c></rc>
    <rc><c>Pd</c><c>   3</c></rc>
   </set>
  </array>
  <array name="atomtypes" >
   <dimension dim="1">type</dimension>
   <field type="int">atomspertype</field>
   <field type="string">element</field>
   <field>mass</field>
   <field>valence</field>
   <field type="string">pseudopotential</field>
   <set>
    <rc><c>  24</c><c>Au</c><c>    196.96600000</c><c>     11.00000000</c><c>  PAW_PBE Au 04Oct2007                  </c></rc>
    <rc><c>   8</c><c>O </c><c>     16.00000000</c><c>      6.00000000</c><c>  PAW_PBE O 08Apr2002                   </c></rc>
    <rc><c>  24</c><c>Pd</c><c>    106.42000000</c><c>     10.00000000</c><c>  PAW_PBE Pd 04Jan2005                  </c></rc>
   </set>
  </array>
 </atominfo>
 <structure name="initialpos" >
  <crystal>
   <varray name="basis" >
    <v>      11.00258152       0.00000000       0.00000000 </v>
    <v>       5.50129076       9.52851510       0.00000000 </v>
    <v>       0.00000000       0.00000000      26.19178509 </v>
   </varray>
   <i name="volume">   2745.90128299 </i>
   <varray name="rec_basis" >
    <v>       0.09088776      -0.05247407       0.00000000 </v>
    <v>       0.00000000       0.10494815       0.00000000 </v>
    <v>       0.00000000       0.00000000       0.03817991 </v>
   </varray>
  </crystal>
  <varray name="positions" >
   <v>       0.25000000       0.00000000       0.55329505 </v>
   <v>       0.83333333       0.83333333       0.38179910 </v>
   <v>       0.00000000       0.25000000       0.55329505 </v>
   <v>       0.75000000       0.50000000       0.55329505 </v>
   <v>       0.91666667       0.16666667       0.46754708 </v>
   <v>       0.00000000       0.50000000       0.55329505 </v>
   <v>       0.66666667       0.66666667       0.46754708 </v>
   <v>       0.83333333       0.58333333       0.38179910 </v>
   <v>       0.75000000       0.25000000       0.55329505 </v>
   <v>       0.91666667       0.41666667       0.46754708 </v>
   <v>       0.41666667       0.41666667       0.46754708 </v>
   <v>       0.58333333       0.33333333       0.38179910 </v>
   <v>       0.66666667       0.16666667       0.46754708 </v>
   <v>       0.33333333       0.33333333       0.38179910 </v>
   <v>       0.25000000       0.25000000       0.55329505 </v>
   <v>       0.50000000       0.75000000       0.55329505 </v>
   <v>       0.41666667       0.91666667       0.46754708 </v>
   <v>       0.58333333       0.83333333       0.38179910 </v>
   <v>       0.25000000       0.50000000       0.55329505 </v>
   <v>       0.50000000       0.50000000       0.55329505 </v>
   <v>       0.16666667       0.91666667       0.46754708 </v>
   <v>       0.41666667       0.16666667       0.46754708 </v>
   <v>       0.50000000       0.25000000       0.55329505 </v>
   <v>       0.83333333       0.08333333       0.38179910 </v>
   <v>       0.83333333       0.58333333       0.61820090 </v>
   <v>       0.58333333       0.58333333       0.61820090 </v>
   <v>       0.58333333       0.83333333       0.61820090 </v>
   <v>       0.08333333       0.33333333       0.61820090 </v>
   <v>       0.83333333       0.83333333       0.61820090 </v>
   <v>       0.08333333       0.08333333       0.61820090 </v>
   <v>       0.58333333       0.33333333       0.61820090 </v>
   <v>       0.58333333       0.08333333       0.61820090 </v>
   <v>       0.25000000       0.75000000       0.55329505 </v>
   <v>       0.33333333       0.83333333       0.38179910 </v>
   <v>       0.00000000       0.00000000       0.55329505 </v>
   <v>       0.16666667       0.66666667       0.46754708 </v>
   <v>       0.33333333       0.58333333       0.38179910 </v>
   <v>       0.08333333       0.33333333       0.38179910 </v>
   <v>       0.16666667       0.41666667       0.46754708 </v>
   <v>       0.08333333       0.58333333       0.38179910 </v>
   <v>       0.16666667       0.16666667       0.46754708 </v>
   <v>       0.33333333       0.08333333       0.38179910 </v>
   <v>       0.50000000       0.00000000       0.55329505 </v>
   <v>       0.91666667       0.66666667       0.46754708 </v>
   <v>       0.00000000       0.75000000       0.55329505 </v>
   <v>       0.91666667       0.91666667       0.46754708 </v>
   <v>       0.58333333       0.08333333       0.38179910 </v>
   <v>       0.08333333       0.08333333       0.38179910 </v>
   <v>       0.83333333       0.33333333       0.38179910 </v>
   <v>       0.75000000       0.00000000       0.55329505 </v>
   <v>       0.66666667       0.91666667       0.46754708 </v>
   <v>       0.58333333       0.58333333       0.38179910 </v>
   <v>       0.41666667       0.66666667       0.46754708 </v>
   <v>       0.66666667       0.41666667       0.46754708 </v>
   <v>       0.75000000       0.75000000       0.55329505 </v>
   <v>       0.08333333       0.83333333       0.38179910 </v>
  </varray>
  <varray name="selective"  type="logical" >
   <v type="logical" >  T  T  T </v>
   <v type="logical" >  F  F  F </v>
   <v type="logical" >  T  T  T </v>
   <v type="logical" >  T  T  T </v>
   <v type="logical" >  T  T  T </v>
   <v type="logical" >  T  T  T </v>
   <v type="logical" >  T  T  T </v>
   <v type="logical" >  F  F  F </v>
   <v type="logical" >  T  T  T </v>
   <v type="logical" >  T  T  T </v>
   <v type="logical" >  T  T  T </v>
   <v type="logical" >  F  F  F </v>
   <v type="logical" >  T  T  T </v>
   <v type="logical" >  F  F  F </v>
   <v type="logical" >  T  T  T </v>
   <v type="logical" >  T  T  T </v>
   <v type="logical" >  T  T  T </v>
   <v type="logical" >  F  F  F </v>
   <v type="logical" >  T  T  T </v>
   <v type="logical" >  T  T  T </v>
   <v type="logical" >  T  T  T </v>
   <v type="logical" >  T  T  T </v>
   <v type="logical" >  T  T  T </v>
   <v type="logical" >  F  F  F </v>
   <v type="logical" >  T  T  T </v>
   <v type="logical" >  T  T  T </v>
   <v type="logical" >  T  T  T </v>
   <v type="logical" >  T  T  T </v>
   <v type="logical" >  T  T  T </v>
   <v type="logical" >  T  T  T </v>
   <v type="logical" >  T  T  T </v>
   <v type="logical" >  T  T  T </v>
   <v type="logical" >  T  T  T </v>
   <v type="logical" >  F  F  F </v>
   <v type="logical" >  T  T  T </v>
   <v type="logical" >  T  T  T </v>
   <v type="logical" >  F  F  F </v>
   <v type="logical" >  F  F  F </v>
   <v type="logical" >  T  T  T </v>
   <v type="logical" >  F  F  F </v>
   <v type="logical" >  T  T  T </v>
   <v type="logical" >  F  F  F </v>
   <v type="logical" >  T  T  T </v>
   <v type="logical" >  T  T  T </v>
   <v type="logical" >  T  T  T </v>
   <v type="logical" >  T  T  T </v>
   <v type="logical" >  F  F  F </v>
   <v type="logical" >  F  F  F </v>
   <v type="logical" >  F  F  F </v>
   <v type="logical" >  T  T  T </v>
   <v type="logical" >  T  T  T </v>
   <v type="logical" >  F  F  F </v>
   <v type="logical" >  T  T  T </v>
   <v type="logical" >  T  T  T </v>
   <v type="logical" >  T  T  T </v>
   <v type="logical" >  F  F  F </v>
  </varray>
  <nose>
   <v>      -3.00000000       0.00000000       0.00010000       0.00010000 </v>
  </nose>
 </structure>
 <calculation>
  <scstep>
   <time name="dav">   11.53   11.53</time>
   <time name="total">   11.60   11.61</time>
   <dipole>
    <v name="dipole">      0.00000000       0.00000000       0.00013197 </v>
    <i name="Tr[quadrupol]"> -11367.60168072 </i>
    <i name="Echarged">      0.00000000 </i>
    <i name="Edipol_quadrupol">      0.00000000 </i>
    <i name="Eion">      0.00000000 </i>
   </dipole>
   <energy>
    <i name="alphaZ">    862.57883654 </i>
    <i name="ewald"> 255727.98353993 </i>
    <i name="hartreedc">-301304.97740888 </i>
    <i name="XCdc">   -109.64890519 </i>
    <i name="pawpsdc">  43112.45544455 </i>
    <i name="pawaedc"> -41079.41300390 </i>
    <i name="eentropy">     -0.13968425 </i>
    <i name="bandstr">   1336.52123027 </i>
    <i name="atom">  45117.89144060 </i>
    <i name="e_fr_energy">   3663.25148967 </i>
    <i name="e_wo_entrp">   3663.39117392 </i>
    <i name="e_0_energy">   3663.32133180 </i>
   </energy>
  </scstep>
  <scstep>
   <time name="dav">   13.66   13.66</time>
   <time name="total">   13.66   13.67</time>
   <dipole>
    <v name="dipole">      0.00000000       0.00000000       0.00013197 </v>
    <i name="Tr[quadrupol]"> -11367.60168072 </i>
    <i name="Echarged">      0.00000000 </i>
    <i name="Edipol_quadrupol">      0.00000000 </i>
    <i name="Eion">      0.00000000 </i>
   </dipole>
   <energy>
    <i name="e_fr_energy">     57.63866298 </i>
    <i name="e_wo_entrp">     57.79574035 </i>
    <i name="e_0_energy">     57.71720166 </i>
   </energy>
  </scstep>
  <scstep>
   <time name="dav">   13.28   13.35</time>
   <time name="total">   13.29   13.36</time>
   <dipole>
    <v name="dipole">      0.00000000       0.00000000       0.00013197 </v>
    <i name="Tr[quadrupol]"> -11367.60168072 </i>
    <i name="Echarged">      0.00000000 </i>
    <i name="Edipol_quadrupol">      0.00000000 </i>
    <i name="Eion">      0.00000000 </i>
   </dipole>
   <energy>
    <i name="e_fr_energy">   -250.14781873 </i>
    <i name="e_wo_entrp">   -249.72891583 </i>
    <i name="e_0_energy">   -249.93836728 </i>
   </energy>
  </scstep>
  <scstep>
   <time name="dav">   12.89   12.91</time>
   <time name="total">   12.89   12.98</time>
   <dipole>
    <v name="dipole">      0.00000000       0.00000000       0.00013197 </v>
    <i name="Tr[quadrupol]"> -11367.60168072 </i>
    <i name="Echarged">      0.00000000 </i>
    <i name="Edipol_quadrupol">      0.00000000 </i>
    <i name="Eion">      0.00000000 </i>
   </dipole>
   <energy>
    <i name="e_fr_energy">   -261.80524228 </i>
    <i name="e_wo_entrp">   -261.36374007 </i>
    <i name="e_0_energy">   -261.58449117 </i>
   </energy>
  </scstep>
  <scstep>
   <time name="dav">   13.24   14.06</time>
   <time name="total">   13.59   14.42</time>
   <dipole>
    <v name="dipole">      0.00000000       0.00000000       0.00013197 </v>
    <i name="Tr[quadrupol]"> -11367.60168072 </i>
    <i name="Echarged">      0.00000000 </i>
    <i name="Edipol_quadrupol">      0.00000000 </i>
    <i name="Eion">      0.00000000 </i>
   </dipole>
   <energy>
    <i name="e_fr_energy">   -262.14772666 </i>
    <i name="e_wo_entrp">   -261.70276236 </i>
    <i name="e_0_energy">   -261.92524451 </i>
   </energy>
  </scstep>
  <scstep>
   <time name="diag">    2.06    2.06</time>
   <time name="diis">    5.26    5.30</time>
   <time name="orth">    0.53    0.55</time>
   <time name="total">    8.26    8.33</time>
   <dipole>
    <v name="dipole">      0.00000000       0.00000000       2.61857665 </v>
    <i name="Tr[quadrupol]"> -11359.61858579 </i>
    <i name="Echarged">      0.00000000 </i>
    <i name="Edipol_quadrupol">      0.00000000 </i>
    <i name="Eion">      0.00000000 </i>
   </dipole>
   <energy>
    <i name="e_fr_energy">   -327.01757092 </i>
    <i name="e_wo_entrp">   -326.89696758 </i>
    <i name="e_0_energy">   -326.95726925 </i>
   </energy>
  </scstep>
  <scstep>
   <time name="diag">    2.08    2.08</time>
   <time name="diis">    5.34    5.36</time>
   <time name="orth">    0.55    0.55</time>
   <time name="total">    8.39    8.42</time>
   <dipole>
    <v name="dipole">      0.00000000       0.00000000      -1.75636007 </v>
    <i name="Tr[quadrupol]"> -11362.41169915 </i>
    <i name="Echarged">      0.00000000 </i>
    <i name="Edipol_quadrupol">      0.00000000 </i>
    <i name="Eion">      0.00000000 </i>
   </dipole>
   <energy>
    <i name="e_fr_energy">   -288.37077527 </i>
    <i name="e_wo_entrp">   -288.10411508 </i>
    <i name="e_0_energy">   -288.23744518 </i>
   </energy>
  </scstep>
  <scstep>
   <time name="diag">    2.08    2.08</time>
   <time name="diis">    5.45    5.46</time>
   <time name="orth">    0.55    0.55</time>
   <time name="total">    8.50    8.51</time>
   <dipole>
    <v name="dipole">      0.00000000       0.00000000       0.39482425 </v>
    <i name="Tr[quadrupol]"> -11365.69006486 </i>
    <i name="Echarged">      0.00000000 </i>
    <i name="Edipol_quadrupol">      0.00000000 </i>
    <i name="Eion">      0.00000000 </i>
   </dipole>
   <energy>
    <i name="e_fr_energy">   -233.19698634 </i>
    <i name="e_wo_entrp">   -232.90394778 </i>
    <i name="e_0_energy">   -233.05046706 </i>
   </energy>
  </scstep>
  <scstep>
   <time name="diag">    2.06    2.06</time>
   <time name="diis">    5.43    5.44</time>
   <time name="orth">    0.55    0.55</time>
   <time name="total">    8.45    8.46</time>
   <dipole>
    <v name="dipole">      0.00000000       0.00000000       0.50563096 </v>
    <i name="Tr[quadrupol]"> -11359.59090303 </i>
    <i name="Echarged">      0.00000000 </i>
    <i name="Edipol_quadrupol">      0.00000000 </i>
    <i name="Eion">      0.00000000 </i>
   </dipole>
   <energy>
    <i name="e_fr_energy">   -257.12090211 </i>
    <i name="e_wo_entrp">   -256.89142757 </i>
    <i name="e_0_energy">   -257.00616484 </i>
   </energy>
  </scstep>
  <scstep>
   <time name="diag">    2.06    2.06</time>
   <time name="diis">    5.48    5.48</time>
   <time name="orth">    0.55    0.55</time>
   <time name="total">    8.50    8.51</time>
   <dipole>
    <v name="dipole">      0.00000000       0.00000000       1.56290177 </v>
    <i name="Tr[quadrupol]"> -11361.03165126 </i>
    <i name="Echarged">      0.00000000 </i>
    <i name="Edipol_quadrupol">      0.00000000 </i>
    <i name="Eion">      0.00000000 </i>
   </dipole>
   <energy>
    <i name="e_fr_energy">   -276.16529150 </i>
    <i name="e_wo_entrp">   -276.04449417 </i>
    <i name="e_0_energy">   -276.10489284 </i>
   </energy>
  </scstep>
  <scstep>
   <time name="diag">    2.07    2.08</time>
   <time name="diis">    5.21    5.28</time>
   <time name="orth">    0.55    0.55</time>
   <time name="total">    8.23    8.32</time>
   <dipole>
    <v name="dipole">      0.00000000       0.00000000       1.50063021 </v>
    <i name="Tr[quadrupol]"> -11362.05848946 </i>
    <i name="Echarged">      0.00000000 </i>
    <i name="Edipol_quadrupol">      0.00000000 </i>
    <i name="Eion">      0.00000000 </i>
   </dipole>
   <energy>
    <i name="e_fr_energy">   -248.85420895 </i>
    <i name="e_wo_entrp">   -248.70342639 </i>
    <i name="e_0_energy">   -248.77881767 </i>
   </energy>
  </scstep>
  <scstep>
   <time name="diag">    2.21    2.35</time>
   <time name="diis">    5.45    5.45</time>
   <time name="orth">    0.55    0.55</time>
   <time name="total">    8.63    8.78</time>
   <dipole>
    <v name="dipole">      0.00000000       0.00000000       1.11810027 </v>
    <i name="Tr[quadrupol]"> -11363.55099927 </i>
    <i name="Echarged">      0.00000000 </i>
    <i name="Edipol_quadrupol">      0.00000000 </i>
    <i name="Eion">      0.00000000 </i>
   </dipole>
   <energy>
    <i name="e_fr_energy">   -232.94728260 </i>
    <i name="e_wo_entrp">   -232.73086691 </i>
    <i name="e_0_energy">   -232.83907476 </i>
   </energy>
  </scstep>
  <scstep>
   <time name="diag">    2.06    2.06</time>
   <time name="diis">    5.31    5.32</time>
   <time name="orth">    0.55    0.55</time>
   <time name="total">    8.33    8.35</time>
   <dipole>
    <v name="dipole">      0.00000000       0.00000000       1.01265281 </v>
    <i name="Tr[quadrupol]"> -11364.41924104 </i>
    <i name="Echarged">      0.00000000 </i>
    <i name="Edipol_quadrupol">      0.00000000 </i>
    <i name="Eion">      0.00000000 </i>
   </dipole>
   <energy>
    <i name="e_fr_energy">   -221.74799509 </i>
    <i name="e_wo_entrp">   -221.48092381 </i>
    <i name="e_0_energy">   -221.61445945 </i>
   </energy>
  </scstep>
  <scstep>
   <time name="diag">    2.07    2.07</time>
   <time name="diis">    5.37    5.38</time>
   <time name="orth">    0.54    0.54</time>
   <time name="total">    8.40    8.42</time>
   <dipole>
    <v name="dipole">      0.00000000       0.00000000       1.08551426 </v>
    <i name="Tr[quadrupol]"> -11364.51116747 </i>
    <i name="Echarged">      0.00000000 </i>
    <i name="Edipol_quadrupol">      0.00000000 </i>
    <i name="Eion">      0.00000000 </i>
   </dipole>
   <energy>
    <i name="e_fr_energy">   -219.89449463 </i>
    <i name="e_wo_entrp">   -219.61526507 </i>
    <i name="e_0_energy">   -219.75487985 </i>
   </energy>
  </scstep>
  <scstep>
   <time name="diag">    2.07    2.07</time>
   <time name="diis">    5.28    5.29</time>
   <time name="orth">    0.54    0.54</time>
   <time name="total">    8.31    8.36</time>
   <dipole>
    <v name="dipole">      0.00000000       0.00000000       1.14986565 </v>
    <i name="Tr[quadrupol]"> -11364.49241030 </i>
    <i name="Echarged">      0.00000000 </i>
    <i name="Edipol_quadrupol">      0.00000000 </i>
    <i name="Eion">      0.00000000 </i>
   </dipole>
   <energy>
    <i name="e_fr_energy">   -219.79984150 </i>
    <i name="e_wo_entrp">   -219.49429704 </i>
    <i name="e_0_energy">   -219.64706927 </i>
   </energy>
  </scstep>
  <scstep>
   <time name="diag">    2.08    2.09</time>
   <time name="diis">    5.21    5.28</time>
   <time name="orth">    0.54    0.54</time>
   <time name="total">    8.25    8.33</time>
   <dipole>
    <v name="dipole">      0.00000000       0.00000000       1.13188271 </v>
    <i name="Tr[quadrupol]"> -11364.42842134 </i>
    <i name="Echarged">      0.00000000 </i>
    <i name="Edipol_quadrupol">      0.00000000 </i>
    <i name="Eion">      0.00000000 </i>
   </dipole>
   <energy>
    <i name="e_fr_energy">   -219.70834426 </i>
    <i name="e_wo_entrp">   -219.43527795 </i>
    <i name="e_0_energy">   -219.57181110 </i>
   </energy>
  </scstep>
  <scstep>
   <time name="diag">    2.05    2.05</time>
   <time name="diis">    5.41    5.41</time>
   <time name="orth">    0.53    0.54</time>
   <time name="total">    8.41    8.42</time>
   <dipole>
    <v name="dipole">      0.00000000       0.00000000       1.14963832 </v>
    <i name="Tr[quadrupol]"> -11364.49335363 </i>
    <i name="Echarged">      0.00000000 </i>
    <i name="Edipol_quadrupol">      0.00000000 </i>
    <i name="Eion">      0.00000000 </i>
   </dipole>
   <energy>
    <i name="e_fr_energy">   -219.54255818 </i>
    <i name="e_wo_entrp">   -219.24543423 </i>
    <i name="e_0_energy">   -219.39399621 </i>
   </energy>
  </scstep>
  <scstep>
   <time name="diag">    2.05    2.07</time>
   <time name="diis">    5.38    5.38</time>
   <time name="orth">    0.53    0.53</time>
   <time name="total">    8.38    8.40</time>
   <dipole>
    <v name="dipole">      0.00000000       0.00000000       1.15273604 </v>
    <i name="Tr[quadrupol]"> -11364.60013889 </i>
    <i name="Echarged">      0.00000000 </i>
    <i name="Edipol_quadrupol">      0.00000000 </i>
    <i name="Eion">      0.00000000 </i>
   </dipole>
   <energy>
    <i name="e_fr_energy">   -219.45855637 </i>
    <i name="e_wo_entrp">   -219.13503920 </i>
    <i name="e_0_energy">   -219.29679779 </i>
   </energy>
  </scstep>
  <scstep>
   <time name="diag">    2.16    2.17</time>
   <time name="diis">    5.65    5.68</time>
   <time name="orth">    0.53    0.53</time>
   <time name="total">    8.76    8.84</time>
   <dipole>
    <v name="dipole">      0.00000000       0.00000000       1.16527681 </v>
    <i name="Tr[quadrupol]"> -11364.77165153 </i>
    <i name="Echarged">      0.00000000 </i>
    <i name="Edipol_quadrupol">      0.00000000 </i>
    <i name="Eion">      0.00000000 </i>
   </dipole>
   <energy>
    <i name="e_fr_energy">   -219.25118451 </i>
    <i name="e_wo_entrp">   -218.92254751 </i>
    <i name="e_0_energy">   -219.08686601 </i>
   </energy>
  </scstep>
  <scstep>
   <time name="diag">    2.08    2.08</time>
   <time name="diis">    5.28    5.28</time>
   <time name="orth">    0.53    0.53</time>
   <time name="total">    8.31    8.34</time>
   <dipole>
    <v name="dipole">      0.00000000       0.00000000       1.18867549 </v>
    <i name="Tr[quadrupol]"> -11364.89854814 </i>
    <i name="Echarged">      0.00000000 </i>
    <i name="Edipol_quadrupol">      0.00000000 </i>
    <i name="Eion">      0.00000000 </i>
   </dipole>
   <energy>
    <i name="e_fr_energy">   -219.13766670 </i>
    <i name="e_wo_entrp">   -218.78726485 </i>
    <i name="e_0_energy">   -218.96246578 </i>
   </energy>
  </scstep>
  <scstep>
   <time name="diag">    2.04    2.04</time>
   <time name="diis">    5.25    5.34</time>
   <time name="orth">    0.52    0.52</time>
   <time name="total">    8.23    8.34</time>
   <dipole>
    <v name="dipole">      0.00000000       0.00000000       1.19973727 </v>
    <i name="Tr[quadrupol]"> -11364.92212924 </i>
    <i name="Echarged">      0.00000000 </i>
    <i name="Edipol_quadrupol">      0.00000000 </i>
    <i name="Eion">      0.00000000 </i>
   </dipole>
   <energy>
    <i name="e_fr_energy">   -219.05818286 </i>
    <i name="e_wo_entrp">   -218.71270661 </i>
    <i name="e_0_energy">   -218.88544474 </i>
   </energy>
  </scstep>
  <scstep>
   <time name="diag">    2.04    2.04</time>
   <time name="diis">    5.42    5.42</time>
   <time name="orth">    0.52    0.52</time>
   <time name="total">    8.42    8.45</time>
   <dipole>
    <v name="dipole">      0.00000000       0.00000000       1.20774958 </v>
    <i name="Tr[quadrupol]"> -11364.95578758 </i>
    <i name="Echarged">      0.00000000 </i>
    <i name="Edipol_quadrupol">      0.00000000 </i>
    <i name="Eion">      0.00000000 </i>
   </dipole>
   <energy>
    <i name="e_fr_energy">   -219.06083552 </i>
    <i name="e_wo_entrp">   -218.71986982 </i>
    <i name="e_0_energy">   -218.89035267 </i>
   </energy>
  </scstep>
  <scstep>
   <time name="diag">    2.06    2.06</time>
   <time name="diis">    5.35    5.36</time>
   <time name="orth">    0.52    0.52</time>
   <time name="total">    8.34    8.35</time>
   <dipole>
    <v name="dipole">      0.00000000       0.00000000       1.21418133 </v>
    <i name="Tr[quadrupol]"> -11365.01579350 </i>
    <i name="Echarged">      0.00000000 </i>
    <i name="Edipol_quadrupol">      0.00000000 </i>
    <i name="Eion">      0.00000000 </i>
   </dipole>
   <energy>
    <i name="e_fr_energy">   -219.05458678 </i>
    <i name="e_wo_entrp">   -218.71301296 </i>
    <i name="e_0_energy">   -218.88379987 </i>
   </energy>
  </scstep>
  <scstep>
   <time name="diag">    2.06    2.06</time>
   <time name="diis">    5.43    5.44</time>
   <time name="orth">    0.52    0.52</time>
   <time name="total">    8.44    8.46</time>
   <dipole>
    <v name="dipole">      0.00000000       0.00000000       1.22547766 </v>
    <i name="Tr[quadrupol]"> -11365.10578063 </i>
    <i name="Echarged">      0.00000000 </i>
    <i name="Edipol_quadrupol">      0.00000000 </i>
    <i name="Eion">      0.00000000 </i>
   </dipole>
   <energy>
    <i name="e_fr_energy">   -219.04929227 </i>
    <i name="e_wo_entrp">   -218.70764799 </i>
    <i name="e_0_energy">   -218.87847013 </i>
   </energy>
  </scstep>
  <scstep>
   <time name="diag">    2.04    2.04</time>
   <time name="diis">    5.38    5.39</time>
   <time name="orth">    0.52    0.52</time>
   <time name="total">    8.35    8.37</time>
   <dipole>
    <v name="dipole">      0.00000000       0.00000000       1.23496932 </v>
    <i name="Tr[quadrupol]"> -11365.21680703 </i>
    <i name="Echarged">      0.00000000 </i>
    <i name="Edipol_quadrupol">      0.00000000 </i>
    <i name="Eion">      0.00000000 </i>
   </dipole>
   <energy>
    <i name="e_fr_energy">   -219.04580698 </i>
    <i name="e_wo_entrp">   -218.70170934 </i>
    <i name="e_0_energy">   -218.87375816 </i>
   </energy>
  </scstep>
  <scstep>
   <time name="diag">    2.02    2.05</time>
   <time name="diis">    5.70    5.77</time>
   <time name="orth">    0.52    0.52</time>
   <time name="total">    8.66    8.78</time>
   <dipole>
    <v name="dipole">      0.00000000       0.00000000       1.23563671 </v>
    <i name="Tr[quadrupol]"> -11365.25022179 </i>
    <i name="Echarged">      0.00000000 </i>
    <i name="Edipol_quadrupol">      0.00000000 </i>
    <i name="Eion">      0.00000000 </i>
   </dipole>
   <energy>
    <i name="e_fr_energy">   -219.04251633 </i>
    <i name="e_wo_entrp">   -218.69705111 </i>
    <i name="e_0_energy">   -218.86978372 </i>
   </energy>
  </scstep>
  <scstep>
   <time name="diag">    2.05    2.05</time>
   <time name="diis">    5.32    5.32</time>
   <time name="orth">    0.52    0.52</time>
   <time name="total">    8.31    8.32</time>
   <dipole>
    <v name="dipole">      0.00000000       0.00000000       1.23832479 </v>
    <i name="Tr[quadrupol]"> -11365.27723150 </i>
    <i name="Echarged">      0.00000000 </i>
    <i name="Edipol_quadrupol">      0.00000000 </i>
    <i name="Eion">      0.00000000 </i>
   </dipole>
   <energy>
    <i name="e_fr_energy">   -219.04241105 </i>
    <i name="e_wo_entrp">   -218.69816401 </i>
    <i name="e_0_energy">   -218.87028753 </i>
   </energy>
  </scstep>
  <scstep>
   <time name="diag">    2.06    2.06</time>
   <time name="diis">    5.38    5.39</time>
   <time name="orth">    0.52    0.52</time>
   <time name="total">    8.38    8.41</time>
   <dipole>
    <v name="dipole">      0.00000000       0.00000000       1.24358788 </v>
    <i name="Tr[quadrupol]"> -11365.31536648 </i>
    <i name="Echarged">      0.00000000 </i>
    <i name="Edipol_quadrupol">      0.00000000 </i>
    <i name="Eion">      0.00000000 </i>
   </dipole>
   <energy>
    <i name="e_fr_energy">   -219.04256665 </i>
    <i name="e_wo_entrp">   -218.69924776 </i>
    <i name="e_0_energy">   -218.87090721 </i>
   </energy>
  </scstep>
  <scstep>
   <time name="diag">    2.02    2.02</time>
   <time name="diis">    5.30    5.31</time>
   <time name="orth">    0.52    0.52</time>
   <time name="total">    8.27    8.28</time>
   <dipole>
    <v name="dipole">      0.00000000       0.00000000       1.25188462 </v>
    <i name="Tr[quadrupol]"> -11365.35770333 </i>
    <i name="Echarged">      0.00000000 </i>
    <i name="Edipol_quadrupol">      0.00000000 </i>
    <i name="Eion">      0.00000000 </i>
   </dipole>
   <energy>
    <i name="e_fr_energy">   -219.04318809 </i>
    <i name="e_wo_entrp">   -218.69865947 </i>
    <i name="e_0_energy">   -218.87092378 </i>
   </energy>
  </scstep>
  <scstep>
   <time name="diag">    2.03    2.04</time>
   <time name="diis">    5.50    5.50</time>
   <time name="orth">    0.51    0.53</time>
   <time name="total">    8.46    8.51</time>
   <dipole>
    <v name="dipole">      0.00000000       0.00000000       1.25816513 </v>
    <i name="Tr[quadrupol]"> -11365.39139201 </i>
    <i name="Echarged">      0.00000000 </i>
    <i name="Edipol_quadrupol">      0.00000000 </i>
    <i name="Eion">      0.00000000 </i>
   </dipole>
   <energy>
    <i name="e_fr_energy">   -219.04356952 </i>
    <i name="e_wo_entrp">   -218.69916072 </i>
    <i name="e_0_energy">   -218.87136512 </i>
   </energy>
  </scstep>
  <scstep>
   <time name="diag">    2.03    2.06</time>
   <time name="diis">    5.43    5.44</time>
   <time name="orth">    0.52    0.52</time>
   <time name="total">    8.40    8.43</time>
   <dipole>
    <v name="dipole">      0.00000000       0.00000000       1.26386485 </v>
    <i name="Tr[quadrupol]"> -11365.41954232 </i>
    <i name="Echarged">      0.00000000 </i>
    <i name="Edipol_quadrupol">      0.00000000 </i>
    <i name="Eion">      0.00000000 </i>
   </dipole>
   <energy>
    <i name="e_fr_energy">   -219.04387589 </i>
    <i name="e_wo_entrp">   -218.69904414 </i>
    <i name="e_0_energy">   -218.87146002 </i>
   </energy>
  </scstep>
  <scstep>
   <time name="diag">    2.05    2.06</time>
   <time name="diis">    5.46    5.47</time>
   <time name="orth">    0.52    0.52</time>
   <time name="total">    8.46    8.48</time>
   <dipole>
    <v name="dipole">      0.00000000       0.00000000       1.26988960 </v>
    <i name="Tr[quadrupol]"> -11365.44733557 </i>
    <i name="Echarged">      0.00000000 </i>
    <i name="Edipol_quadrupol">      0.00000000 </i>
    <i name="Eion">      0.00000000 </i>
   </dipole>
   <energy>
    <i name="e_fr_energy">   -219.04419377 </i>
    <i name="e_wo_entrp">   -218.69966556 </i>
    <i name="e_0_energy">   -218.87192967 </i>
   </energy>
  </scstep>
  <scstep>
   <time name="diag">    2.03    2.03</time>
   <time name="diis">    5.68    5.71</time>
   <time name="orth">    0.52    0.52</time>
   <time name="total">    8.64    8.68</time>
   <dipole>
    <v name="dipole">      0.00000000       0.00000000       1.27453431 </v>
    <i name="Tr[quadrupol]"> -11365.46707351 </i>
    <i name="Echarged">      0.00000000 </i>
    <i name="Edipol_quadrupol">      0.00000000 </i>
    <i name="Eion">      0.00000000 </i>
   </dipole>
   <energy>
    <i name="e_fr_energy">   -219.04440746 </i>
    <i name="e_wo_entrp">   -218.69989612 </i>
    <i name="e_0_energy">   -218.87215179 </i>
   </energy>
  </scstep>
  <scstep>
   <time name="diag">    2.03    2.03</time>
   <time name="diis">    5.28    5.28</time>
   <time name="orth">    0.52    0.52</time>
   <time name="total">    8.25    8.26</time>
   <dipole>
    <v name="dipole">      0.00000000       0.00000000       1.28208341 </v>
    <i name="Tr[quadrupol]"> -11365.49737423 </i>
    <i name="Echarged">      0.00000000 </i>
    <i name="Edipol_quadrupol">      0.00000000 </i>
    <i name="Eion">      0.00000000 </i>
   </dipole>
   <energy>
    <i name="e_fr_energy">   -219.04474675 </i>
    <i name="e_wo_entrp">   -218.70041729 </i>
    <i name="e_0_energy">   -218.87258202 </i>
   </energy>
  </scstep>
  <scstep>
   <time name="diag">    2.05    2.05</time>
   <time name="diis">    5.35    5.43</time>
   <time name="orth">    0.52    0.53</time>
   <time name="total">    8.35    8.44</time>
   <dipole>
    <v name="dipole">      0.00000000       0.00000000       1.29411269 </v>
    <i name="Tr[quadrupol]"> -11365.54446823 </i>
    <i name="Echarged">      0.00000000 </i>
    <i name="Edipol_quadrupol">      0.00000000 </i>
    <i name="Eion">      0.00000000 </i>
   </dipole>
   <energy>
    <i name="e_fr_energy">   -219.04523758 </i>
    <i name="e_wo_entrp">   -218.70091785 </i>
    <i name="e_0_energy">   -218.87307772 </i>
   </energy>
  </scstep>
  <scstep>
   <time name="diag">    2.06    2.07</time>
   <time name="diis">    5.03    5.04</time>
   <time name="orth">    0.52    0.52</time>
   <time name="total">    8.06    8.11</time>
   <dipole>
    <v name="dipole">      0.00000000       0.00000000       1.30011049 </v>
    <i name="Tr[quadrupol]"> -11365.56692601 </i>
    <i name="Echarged">      0.00000000 </i>
    <i name="Edipol_quadrupol">      0.00000000 </i>
    <i name="Eion">      0.00000000 </i>
   </dipole>
   <energy>
    <i name="e_fr_energy">   -219.04545590 </i>
    <i name="e_wo_entrp">   -218.70105679 </i>
    <i name="e_0_energy">   -218.87325635 </i>
   </energy>
  </scstep>
  <scstep>
   <time name="diag">    2.02    2.02</time>
   <time name="diis">    5.12    5.13</time>
   <time name="orth">    0.52    0.52</time>
   <time name="total">    8.09    8.09</time>
   <dipole>
    <v name="dipole">      0.00000000       0.00000000       1.30679593 </v>
    <i name="Tr[quadrupol]"> -11365.59172509 </i>
    <i name="Echarged">      0.00000000 </i>
    <i name="Edipol_quadrupol">      0.00000000 </i>
    <i name="Eion">      0.00000000 </i>
   </dipole>
   <energy>
    <i name="e_fr_energy">   -219.04566007 </i>
    <i name="e_wo_entrp">   -218.70125105 </i>
    <i name="e_0_energy">   -218.87345556 </i>
   </energy>
  </scstep>
  <scstep>
   <time name="diag">    2.04    2.04</time>
   <time name="diis">    4.71    4.72</time>
   <time name="orth">    0.52    0.52</time>
   <time name="total">    7.69    7.70</time>
   <dipole>
    <v name="dipole">      0.00000000       0.00000000       1.31286077 </v>
    <i name="Tr[quadrupol]"> -11365.61271876 </i>
    <i name="Echarged">      0.00000000 </i>
    <i name="Edipol_quadrupol">      0.00000000 </i>
    <i name="Eion">      0.00000000 </i>
   </dipole>
   <energy>
    <i name="e_fr_energy">   -219.04578590 </i>
    <i name="e_wo_entrp">   -218.70130078 </i>
    <i name="e_0_energy">   -218.87354334 </i>
   </energy>
  </scstep>
  <scstep>
   <time name="diag">    2.05    2.05</time>
   <time name="diis">    4.06    4.07</time>
   <time name="orth">    0.52    0.52</time>
   <time name="total">    7.04    7.06</time>
   <dipole>
    <v name="dipole">      0.00000000       0.00000000       1.31734958 </v>
    <i name="Tr[quadrupol]"> -11365.62676279 </i>
    <i name="Echarged">      0.00000000 </i>
    <i name="Edipol_quadrupol">      0.00000000 </i>
    <i name="Eion">      0.00000000 </i>
   </dipole>
   <energy>
    <i name="e_fr_energy">   -219.04585114 </i>
    <i name="e_wo_entrp">   -218.70134568 </i>
    <i name="e_0_energy">   -218.87359841 </i>
   </energy>
  </scstep>
  <scstep>
   <time name="diag">    2.06    2.06</time>
   <time name="diis">    3.51    3.52</time>
   <time name="orth">    0.52    0.52</time>
   <time name="total">    6.52    6.55</time>
   <dipole>
    <v name="dipole">      0.00000000       0.00000000       1.32002699 </v>
    <i name="Tr[quadrupol]"> -11365.63383382 </i>
    <i name="Echarged">      0.00000000 </i>
    <i name="Edipol_quadrupol">      0.00000000 </i>
    <i name="Eion">      0.00000000 </i>
   </dipole>
   <energy>
    <i name="e_fr_energy">   -219.04588958 </i>
    <i name="e_wo_entrp">   -218.70139257 </i>
    <i name="e_0_energy">   -218.87364107 </i>
   </energy>
  </scstep>
  <scstep>
   <time name="diag">    2.11    2.15</time>
   <time name="diis">    3.62    3.64</time>
   <time name="orth">    0.52    0.52</time>
   <time name="total">    6.68    6.79</time>
   <dipole>
    <v name="dipole">      0.00000000       0.00000000       1.32359422 </v>
    <i name="Tr[quadrupol]"> -11365.64193212 </i>
    <i name="Echarged">      0.00000000 </i>
    <i name="Edipol_quadrupol">      0.00000000 </i>
    <i name="Eion">      0.00000000 </i>
   </dipole>
   <energy>
    <i name="e_fr_energy">   -219.04594328 </i>
    <i name="e_wo_entrp">   -218.70146709 </i>
    <i name="e_0_energy">   -218.87370519 </i>
   </energy>
  </scstep>
  <scstep>
   <time name="diag">    2.03    2.03</time>
   <time name="diis">    3.29    3.29</time>
   <time name="orth">    0.52    0.52</time>
   <time name="total">    6.25    6.26</time>
   <dipole>
    <v name="dipole">      0.00000000       0.00000000       1.32586490 </v>
    <i name="Tr[quadrupol]"> -11365.64658208 </i>
    <i name="Echarged">      0.00000000 </i>
    <i name="Edipol_quadrupol">      0.00000000 </i>
    <i name="Eion">      0.00000000 </i>
   </dipole>
   <energy>
    <i name="e_fr_energy">   -219.04597573 </i>
    <i name="e_wo_entrp">   -218.70149451 </i>
    <i name="e_0_energy">   -218.87373512 </i>
   </energy>
  </scstep>
  <scstep>
   <time name="diag">    2.05    2.05</time>
   <time name="diis">    3.28    3.28</time>
   <time name="orth">    0.52    0.52</time>
   <time name="total">    6.26    6.27</time>
   <dipole>
    <v name="dipole">      0.00000000       0.00000000       1.32809214 </v>
    <i name="Tr[quadrupol]"> -11365.65080150 </i>
    <i name="Echarged">      0.00000000 </i>
    <i name="Edipol_quadrupol">      0.00000000 </i>
    <i name="Eion">      0.00000000 </i>
   </dipole>
   <energy>
    <i name="e_fr_energy">   -219.04600744 </i>
    <i name="e_wo_entrp">   -218.70153180 </i>
    <i name="e_0_energy">   -218.87376962 </i>
   </energy>
  </scstep>
  <scstep>
   <time name="diag">    2.06    2.06</time>
   <time name="diis">    3.31    3.32</time>
   <time name="orth">    0.52    0.52</time>
   <time name="total">    6.32    6.33</time>
   <dipole>
    <v name="dipole">      0.00000000       0.00000000       1.33168563 </v>
    <i name="Tr[quadrupol]"> -11365.65685031 </i>
    <i name="Echarged">      0.00000000 </i>
    <i name="Edipol_quadrupol">      0.00000000 </i>
    <i name="Eion">      0.00000000 </i>
   </dipole>
   <energy>
    <i name="e_fr_energy">   -219.04605003 </i>
    <i name="e_wo_entrp">   -218.70153551 </i>
    <i name="e_0_energy">   -218.87379277 </i>
   </energy>
  </scstep>
  <scstep>
   <time name="diag">    2.03    2.04</time>
   <time name="diis">    3.24    3.25</time>
   <time name="orth">    0.52    0.52</time>
   <time name="total">    6.22    6.23</time>
   <dipole>
    <v name="dipole">      0.00000000       0.00000000       1.33318225 </v>
    <i name="Tr[quadrupol]"> -11365.65910323 </i>
    <i name="Echarged">      0.00000000 </i>
    <i name="Edipol_quadrupol">      0.00000000 </i>
    <i name="Eion">      0.00000000 </i>
   </dipole>
   <energy>
    <i name="e_fr_energy">   -219.04606337 </i>
    <i name="e_wo_entrp">   -218.70155290 </i>
    <i name="e_0_energy">   -218.87380813 </i>
   </energy>
  </scstep>
  <scstep>
   <time name="diag">    2.03    2.03</time>
   <time name="diis">    3.13    3.13</time>
   <time name="orth">    0.52    0.52</time>
   <time name="total">    6.10    6.11</time>
   <dipole>
    <v name="dipole">      0.00000000       0.00000000       1.33429074 </v>
    <i name="Tr[quadrupol]"> -11365.66042653 </i>
    <i name="Echarged">      0.00000000 </i>
    <i name="Edipol_quadrupol">      0.00000000 </i>
    <i name="Eion">      0.00000000 </i>
   </dipole>
   <energy>
    <i name="e_fr_energy">   -219.04607197 </i>
    <i name="e_wo_entrp">   -218.70156345 </i>
    <i name="e_0_energy">   -218.87381771 </i>
   </energy>
  </scstep>
  <scstep>
   <time name="diag">    2.02    2.06</time>
   <time name="diis">    2.70    2.74</time>
   <time name="orth">    0.52    0.52</time>
   <time name="total">    5.67    5.74</time>
   <dipole>
    <v name="dipole">      0.00000000       0.00000000       1.33485640 </v>
    <i name="Tr[quadrupol]"> -11365.66091840 </i>
    <i name="Echarged">      0.00000000 </i>
    <i name="Edipol_quadrupol">      0.00000000 </i>
    <i name="Eion">      0.00000000 </i>
   </dipole>
   <energy>
    <i name="e_fr_energy">   -219.04607578 </i>
    <i name="e_wo_entrp">   -218.70156960 </i>
    <i name="e_0_energy">   -218.87382269 </i>
   </energy>
  </scstep>
  <scstep>
   <time name="diag">    2.05    2.05</time>
   <time name="diis">    2.64    2.64</time>
   <time name="orth">    0.52    0.52</time>
   <time name="total">    5.64    5.64</time>
   <dipole>
    <v name="dipole">      0.00000000       0.00000000       1.33515161 </v>
    <i name="Tr[quadrupol]"> -11365.66110656 </i>
    <i name="Echarged">      0.00000000 </i>
    <i name="Edipol_quadrupol">      0.00000000 </i>
    <i name="Eion">      0.00000000 </i>
   </dipole>
   <energy>
    <i name="e_fr_energy">   -219.04607776 </i>
    <i name="e_wo_entrp">   -218.70156903 </i>
    <i name="e_0_energy">   -218.87382339 </i>
   </energy>
  </scstep>
  <scstep>
   <time name="diag">    2.01    2.02</time>
   <time name="diis">    2.44    2.45</time>
   <time name="orth">    0.52    0.52</time>
   <time name="total">    5.40    5.41</time>
   <dipole>
    <v name="dipole">      0.00000000       0.00000000       1.33530788 </v>
    <i name="Tr[quadrupol]"> -11365.66112993 </i>
    <i name="Echarged">      0.00000000 </i>
    <i name="Edipol_quadrupol">      0.00000000 </i>
    <i name="Eion">      0.00000000 </i>
   </dipole>
   <energy>
    <i name="e_fr_energy">   -219.04607882 </i>
    <i name="e_wo_entrp">   -218.70156890 </i>
    <i name="e_0_energy">   -218.87382386 </i>
   </energy>
  </scstep>
  <scstep>
   <time name="diag">    2.02    2.02</time>
   <time name="diis">    2.43    2.43</time>
   <time name="orth">    0.51    0.52</time>
   <time name="total">    5.03    5.04</time>
   <dipole>
    <v name="dipole">      0.00000000       0.00000000       1.33540081 </v>
    <i name="Tr[quadrupol]"> -11365.66108808 </i>
    <i name="Echarged">      0.00000000 </i>
    <i name="Edipol_quadrupol">      0.00000000 </i>
    <i name="Eion">      0.00000000 </i>
   </dipole>
   <energy>
    <i name="alphaZ">    886.34991428 </i>
    <i name="ewald"> 255727.98353993 </i>
    <i name="hartreedc">-300734.46636994 </i>
    <i name="XCdc">   -123.86438509 </i>
    <i name="pawpsdc">  52945.26763484 </i>
    <i name="pawaedc"> -51043.07090953 </i>
    <i name="eentropy">     -0.34450931 </i>
    <i name="bandstr">  -2994.79243534 </i>
    <i name="atom">  45117.89144060 </i>
    <i name="e_fr_energy">   -219.04607956 </i>
    <i name="e_wo_entrp">   -218.70157024 </i>
    <i name="e_0_energy">   -218.87382490 </i>
   </energy>
  </scstep>
  <structure>
   <crystal>
    <varray name="basis" >
     <v>      11.00258152       0.00000000       0.00000000 </v>
     <v>       5.50129076       9.52851510       0.00000000 </v>
     <v>       0.00000000       0.00000000      26.19178509 </v>
    </varray>
    <i name="volume">   2745.90128299 </i>
    <varray name="rec_basis" >
     <v>       0.09088776      -0.05247407       0.00000000 </v>
     <v>       0.00000000       0.10494815       0.00000000 </v>
     <v>       0.00000000       0.00000000       0.03817991 </v>
    </varray>
   </crystal>
   <varray name="positions" >
    <v>       0.25000000       0.00000000       0.55329505 </v>
    <v>       0.83333333       0.83333333       0.38179910 </v>
    <v>       0.00000000       0.25000000       0.55329505 </v>
    <v>       0.75000000       0.50000000       0.55329505 </v>
    <v>       0.91666667       0.16666667       0.46754708 </v>
    <v>       0.00000000       0.50000000       0.55329505 </v>
    <v>       0.66666667       0.66666667       0.46754708 </v>
    <v>       0.83333333       0.58333333       0.38179910 </v>
    <v>       0.75000000       0.25000000       0.55329505 </v>
    <v>       0.91666667       0.41666667       0.46754708 </v>
    <v>       0.41666667       0.41666667       0.46754708 </v>
    <v>       0.58333333       0.33333333       0.38179910 </v>
    <v>       0.66666667       0.16666667       0.46754708 </v>
    <v>       0.33333333       0.33333333       0.38179910 </v>
    <v>       0.25000000       0.25000000       0.55329505 </v>
    <v>       0.50000000       0.75000000       0.55329505 </v>
    <v>       0.41666667       0.91666667       0.46754708 </v>
    <v>       0.58333333       0.83333333       0.38179910 </v>
    <v>       0.25000000       0.50000000       0.55329505 </v>
    <v>       0.50000000       0.50000000       0.55329505 </v>
    <v>       0.16666667       0.91666667       0.46754708 </v>
    <v>       0.41666667       0.16666667       0.46754708 </v>
    <v>       0.50000000       0.25000000       0.55329505 </v>
    <v>       0.83333333       0.08333333       0.38179910 </v>
    <v>       0.83333333       0.58333333       0.61820090 </v>
    <v>       0.58333333       0.58333333       0.61820090 </v>
    <v>       0.58333333       0.83333333       0.61820090 </v>
    <v>       0.08333333       0.33333333       0.61820090 </v>
    <v>       0.83333333       0.83333333       0.61820090 </v>
    <v>       0.08333333       0.08333333       0.61820090 </v>
    <v>       0.58333333       0.33333333       0.61820090 </v>
    <v>       0.58333333       0.08333333       0.61820090 </v>
    <v>       0.25000000       0.75000000       0.55329505 </v>
    <v>       0.33333333       0.83333333       0.38179910 </v>
    <v>       0.00000000       0.00000000       0.55329505 </v>
    <v>       0.16666667       0.66666667       0.46754708 </v>
    <v>       0.33333333       0.58333333       0.38179910 </v>
    <v>       0.08333333       0.33333333       0.38179910 </v>
    <v>       0.16666667       0.41666667       0.46754708 </v>
    <v>       0.08333333       0.58333333       0.38179910 </v>
    <v>       0.16666667       0.16666667       0.46754708 </v>
    <v>       0.33333333       0.08333333       0.38179910 </v>
    <v>       0.50000000       0.00000000       0.55329505 </v>
    <v>       0.91666667       0.66666667       0.46754708 </v>
    <v>       0.00000000       0.75000000       0.55329505 </v>
    <v>       0.91666667       0.91666667       0.46754708 </v>
    <v>       0.58333333       0.08333333       0.38179910 </v>
    <v>       0.08333333       0.08333333       0.38179910 </v>
    <v>       0.83333333       0.33333333       0.38179910 </v>
    <v>       0.75000000       0.00000000       0.55329505 </v>
    <v>       0.66666667       0.91666667       0.46754708 </v>
    <v>       0.58333333       0.58333333       0.38179910 </v>
    <v>       0.41666667       0.66666667       0.46754708 </v>
    <v>       0.66666667       0.41666667       0.46754708 </v>
    <v>       0.75000000       0.75000000       0.55329505 </v>
    <v>       0.08333333       0.83333333       0.38179910 </v>
   </varray>
  </structure>
  <varray name="forces" >
   <v>      -0.15992436      -0.14266755       2.11235697 </v>
   <v>       0.29729923      -0.03975778      -1.13382332 </v>
   <v>      -0.35551686      -0.40401011       2.43490595 </v>
   <v>      -0.02813185      -0.28745434       2.19618106 </v>
   <v>       0.19995563      -0.02819666      -0.01334041 </v>
   <v>       0.60521515       0.65853469       2.23156304 </v>
   <v>       0.04778910       0.02242868      -0.06054480 </v>
   <v>       0.16845232      -0.39233286      -1.52550474 </v>
   <v>       0.22273738      -0.42456711       1.96207671 </v>
   <v>       0.22074651      -0.26432512      -0.36235469 </v>
   <v>       0.08576304       0.71273538       0.00551223 </v>
   <v>       0.29717366       0.35398280      -1.54975193 </v>
   <v>       0.02559520      -0.71212292       0.03919495 </v>
   <v>      -0.40271395       0.11120409      -1.45120046 </v>
   <v>       0.12819597      -0.11987309       1.90981918 </v>
   <v>      -0.38379088       0.50723648       2.27526923 </v>
   <v>      -0.10205247       0.14554010       0.15818270 </v>
   <v>      -0.29311906       0.31767880      -1.52613724 </v>
   <v>      -0.17040526       0.66389522       1.16851066 </v>
   <v>      -0.44428079       0.44413866       2.15969843 </v>
   <v>      -0.32186858      -0.39570695      -0.37139247 </v>
   <v>      -0.32469831      -0.31224119       0.21954621 </v>
   <v>      -0.36877122      -0.22330199       2.55905176 </v>
   <v>       0.29127694      -0.13238016      -1.52512112 </v>
   <v>       0.23987188       0.14545115      -1.94736405 </v>
   <v>      -0.26998634       0.04399621      -1.56832652 </v>
   <v>      -0.07411278       0.33345749      -2.54891310 </v>
   <v>       0.39792071       0.09663405      -1.79243196 </v>
   <v>       0.79195896      -0.08857411      -3.25749214 </v>
   <v>      -0.46404951      -0.61513805      -2.41375924 </v>
   <v>       0.12656560      -0.04876652      -1.67081131 </v>
   <v>      -0.12799069      -0.24544423      -2.56391566 </v>
   <v>      -0.45133100      -0.02069104       0.55845749 </v>
   <v>      -0.14042657      -0.13391075      -0.71898919 </v>
   <v>       0.10936773      -0.33571437       1.75926986 </v>
   <v>      -0.30659803       0.24401242       0.09725296 </v>
   <v>       0.05209993       0.32764044      -0.60766261 </v>
   <v>      -0.06502562      -0.14359325      -0.61481233 </v>
   <v>      -0.36178894       0.34072114      -0.26922038 </v>
   <v>       0.14794410       0.09326636      -0.38456994 </v>
   <v>       0.10537328       0.15889277      -0.74963118 </v>
   <v>      -0.19946700       0.02728763      -0.69273973 </v>
   <v>       0.39470473      -0.21072548       2.79297722 </v>
   <v>       0.38520136       0.15338982       0.43797428 </v>
   <v>      -0.15549852       0.48078799       1.40727739 </v>
   <v>      -0.06984818      -0.34799434       0.70343031 </v>
   <v>      -0.19951237      -0.10683431      -0.85637982 </v>
   <v>       0.17693517       0.07652747      -0.76531832 </v>
   <v>       0.09445688       0.02770814      -0.83715365 </v>
   <v>       0.04936610      -0.66186061       2.60549516 </v>
   <v>       0.28238011      -0.15681069       0.32663445 </v>
   <v>      -0.26733179       0.00176075      -0.66078876 </v>
   <v>      -0.22138530      -0.11959425       0.05536099 </v>
   <v>       0.15872638       0.28064996      -0.33903287 </v>
   <v>       0.49580008       0.51289328       3.13707236 </v>
   <v>       0.13075311      -0.16786214      -0.53458763 </v>
  </varray>
  <energy>
   <i name="e_fr_energy">   -219.04607956 </i>
   <i name="e_wo_entrp">   -218.87382490 </i>
   <i name="e_0_energy">     -0.34450931 </i>
  </energy>
  <time name="totalsc">  418.26  420.93</time>
 </calculation>
 <calculation>
  <scstep>
   <time name="dav">   12.20   12.24</time>
   <time name="total">   12.64   12.68</time>
   <dipole>
    <v name="dipole">      0.00000000       0.00000000       1.33557079 </v>
    <i name="Tr[quadrupol]"> -11331.90523462 </i>
    <i name="Echarged">      0.00000000 </i>
    <i name="Edipol_quadrupol">      0.00000000 </i>
    <i name="Eion">      0.00000000 </i>
   </dipole>
   <energy>
    <i name="alphaZ">    885.62319323 </i>
    <i name="ewald"> 254671.34462476 </i>
    <i name="hartreedc">-299670.66814320 </i>
    <i name="XCdc">   -123.77445885 </i>
    <i name="pawpsdc">  52945.26506153 </i>
    <i name="pawaedc"> -51043.06823709 </i>
    <i name="eentropy">     -0.26478365 </i>
    <i name="bandstr">  -3003.43855023 </i>
    <i name="atom">  45117.89144060 </i>
    <i name="e_fr_energy">   -221.08985290 </i>
    <i name="e_wo_entrp">   -220.82506925 </i>
    <i name="e_0_energy">   -220.95746107 </i>
   </energy>
  </scstep>
  <scstep>
   <time name="diag">    2.04    2.04</time>
   <time name="diis">    5.20    5.29</time>
   <time name="orth">    0.51    0.51</time>
   <time name="total">    8.16    8.26</time>
   <dipole>
    <v name="dipole">      0.00000000       0.00000000       0.62422589 </v>
    <i name="Tr[quadrupol]"> -11331.51311768 </i>
    <i name="Echarged">      0.00000000 </i>
    <i name="Edipol_quadrupol">      0.00000000 </i>
    <i name="Eion">      0.00000000 </i>
   </dipole>
   <energy>
    <i name="e_fr_energy">   -232.69603203 </i>
    <i name="e_wo_entrp">   -232.34846279 </i>
    <i name="e_0_energy">   -232.52224741 </i>
   </energy>
  </scstep>
  <scstep>
   <time name="diag">    2.01    2.01</time>
   <time name="diis">    5.49    5.49</time>
   <time name="orth">    0.51    0.51</time>
   <time name="total">    8.44    8.45</time>
   <dipole>
    <v name="dipole">      0.00000000       0.00000000       1.20096927 </v>
    <i name="Tr[quadrupol]"> -11331.98961505 </i>
    <i name="Echarged">      0.00000000 </i>
    <i name="Edipol_quadrupol">      0.00000000 </i>
    <i name="Eion">      0.00000000 </i>
   </dipole>
   <energy>
    <i name="e_fr_energy">   -223.53751653 </i>
    <i name="e_wo_entrp">   -223.21539400 </i>
    <i name="e_0_energy">   -223.37645527 </i>
   </energy>
  </scstep>
  <scstep>
   <time name="diag">    2.01    2.01</time>
   <time name="diis">    5.37    5.37</time>
   <time name="orth">    0.50    0.50</time>
   <time name="total">    8.30    8.31</time>
   <dipole>
    <v name="dipole">      0.00000000       0.00000000       1.03286474 </v>
    <i name="Tr[quadrupol]"> -11331.90165229 </i>
    <i name="Echarged">      0.00000000 </i>
    <i name="Edipol_quadrupol">      0.00000000 </i>
    <i name="Eion">      0.00000000 </i>
   </dipole>
   <energy>
    <i name="e_fr_energy">   -223.74514421 </i>
    <i name="e_wo_entrp">   -223.38154819 </i>
    <i name="e_0_energy">   -223.56334620 </i>
   </energy>
  </scstep>
  <scstep>
   <time name="diag">    2.03    2.03</time>
   <time name="diis">    5.34    5.34</time>
   <time name="orth">    0.50    0.50</time>
   <time name="total">    8.28    8.29</time>
   <dipole>
    <v name="dipole">      0.00000000       0.00000000       1.05280134 </v>
    <i name="Tr[quadrupol]"> -11331.98288055 </i>
    <i name="Echarged">      0.00000000 </i>
    <i name="Edipol_quadrupol">      0.00000000 </i>
    <i name="Eion">      0.00000000 </i>
   </dipole>
   <energy>
    <i name="e_fr_energy">   -223.38840329 </i>
    <i name="e_wo_entrp">   -223.01598777 </i>
    <i name="e_0_energy">   -223.20219553 </i>
   </energy>
  </scstep>
  <scstep>
   <time name="diag">    2.03    2.04</time>
   <time name="diis">    5.40    5.40</time>
   <time name="orth">    0.50    0.50</time>
   <time name="total">    8.35    8.37</time>
   <dipole>
    <v name="dipole">      0.00000000       0.00000000       1.08614559 </v>
    <i name="Tr[quadrupol]"> -11332.27973154 </i>
    <i name="Echarged">      0.00000000 </i>
    <i name="Edipol_quadrupol">      0.00000000 </i>
    <i name="Eion">      0.00000000 </i>
   </dipole>
   <energy>
    <i name="e_fr_energy">   -223.02551911 </i>
    <i name="e_wo_entrp">   -222.68005724 </i>
    <i name="e_0_energy">   -222.85278817 </i>
   </energy>
  </scstep>
  <scstep>
   <time name="diag">    1.97    2.02</time>
   <time name="diis">    5.77    5.82</time>
   <time name="orth">    0.51    0.51</time>
   <time name="total">    8.67    8.77</time>
   <dipole>
    <v name="dipole">      0.00000000       0.00000000       1.09787651 </v>
    <i name="Tr[quadrupol]"> -11332.38513115 </i>
    <i name="Echarged">      0.00000000 </i>
    <i name="Edipol_quadrupol">      0.00000000 </i>
    <i name="Eion">      0.00000000 </i>
   </dipole>
   <energy>
    <i name="e_fr_energy">   -222.89513445 </i>
    <i name="e_wo_entrp">   -222.57381059 </i>
    <i name="e_0_energy">   -222.73447252 </i>
   </energy>
  </scstep>
  <scstep>
   <time name="diag">    2.01    2.02</time>
   <time name="diis">    5.37    5.38</time>
   <time name="orth">    0.50    0.50</time>
   <time name="total">    8.30    8.31</time>
   <dipole>
    <v name="dipole">      0.00000000       0.00000000       1.11465095 </v>
    <i name="Tr[quadrupol]"> -11332.45661011 </i>
    <i name="Echarged">      0.00000000 </i>
    <i name="Edipol_quadrupol">      0.00000000 </i>
    <i name="Eion">      0.00000000 </i>
   </dipole>
   <energy>
    <i name="e_fr_energy">   -222.75694400 </i>
    <i name="e_wo_entrp">   -222.42656264 </i>
    <i name="e_0_energy">   -222.59175332 </i>
   </energy>
  </scstep>
  <scstep>
   <time name="diag">    2.03    2.03</time>
   <time name="diis">    5.36    5.37</time>
   <time name="orth">    0.50    0.50</time>
   <time name="total">    8.30    8.32</time>
   <dipole>
    <v name="dipole">      0.00000000       0.00000000       1.11171491 </v>
    <i name="Tr[quadrupol]"> -11332.55331745 </i>
    <i name="Echarged">      0.00000000 </i>
    <i name="Edipol_quadrupol">      0.00000000 </i>
    <i name="Eion">      0.00000000 </i>
   </dipole>
   <energy>
    <i name="e_fr_energy">   -222.73835405 </i>
    <i name="e_wo_entrp">   -222.41649932 </i>
    <i name="e_0_energy">   -222.57742669 </i>
   </energy>
  </scstep>
  <scstep>
   <time name="diag">    2.03    2.04</time>
   <time name="diis">    5.43    5.44</time>
   <time name="orth">    0.51    0.51</time>
   <time name="total">    8.39    8.40</time>
   <dipole>
    <v name="dipole">      0.00000000       0.00000000       1.12417874 </v>
    <i name="Tr[quadrupol]"> -11332.64048203 </i>
    <i name="Echarged">      0.00000000 </i>
    <i name="Edipol_quadrupol">      0.00000000 </i>
    <i name="Eion">      0.00000000 </i>
   </dipole>
   <energy>
    <i name="e_fr_energy">   -222.72222909 </i>
    <i name="e_wo_entrp">   -222.40043660 </i>
    <i name="e_0_energy">   -222.56133285 </i>
   </energy>
  </scstep>
  <scstep>
   <time name="diag">    2.00    2.00</time>
   <time name="diis">    5.39    5.40</time>
   <time name="orth">    0.49    0.52</time>
   <time name="total">    8.30    8.36</time>
   <dipole>
    <v name="dipole">      0.00000000       0.00000000       1.12942721 </v>
    <i name="Tr[quadrupol]"> -11332.63061346 </i>
    <i name="Echarged">      0.00000000 </i>
    <i name="Edipol_quadrupol">      0.00000000 </i>
    <i name="Eion">      0.00000000 </i>
   </dipole>
   <energy>
    <i name="e_fr_energy">   -222.71731348 </i>
    <i name="e_wo_entrp">   -222.40293519 </i>
    <i name="e_0_energy">   -222.56012433 </i>
   </energy>
  </scstep>
  <scstep>
   <time name="diag">    2.00    2.01</time>
   <time name="diis">    5.44    5.44</time>
   <time name="orth">    0.50    0.50</time>
   <time name="total">    8.36    8.38</time>
   <dipole>
    <v name="dipole">      0.00000000       0.00000000       1.13243945 </v>
    <i name="Tr[quadrupol]"> -11332.67938238 </i>
    <i name="Echarged">      0.00000000 </i>
    <i name="Edipol_quadrupol">      0.00000000 </i>
    <i name="Eion">      0.00000000 </i>
   </dipole>
   <energy>
    <i name="e_fr_energy">   -222.71476430 </i>
    <i name="e_wo_entrp">   -222.40149325 </i>
    <i name="e_0_energy">   -222.55812878 </i>
   </energy>
  </scstep>
  <scstep>
   <time name="diag">    2.02    2.02</time>
   <time name="diis">    5.33    5.34</time>
   <time name="orth">    0.50    0.50</time>
   <time name="total">    8.27    8.29</time>
   <dipole>
    <v name="dipole">      0.00000000       0.00000000       1.12584186 </v>
    <i name="Tr[quadrupol]"> -11332.68431726 </i>
    <i name="Echarged">      0.00000000 </i>
    <i name="Edipol_quadrupol">      0.00000000 </i>
    <i name="Eion">      0.00000000 </i>
   </dipole>
   <energy>
    <i name="e_fr_energy">   -222.71180423 </i>
    <i name="e_wo_entrp">   -222.39399245 </i>
    <i name="e_0_energy">   -222.55289834 </i>
   </energy>
  </scstep>
  <scstep>
   <time name="diag">    2.03    2.03</time>
   <time name="diis">    5.79    5.82</time>
   <time name="orth">    0.57    0.58</time>
   <time name="total">    8.81    8.85</time>
   <dipole>
    <v name="dipole">      0.00000000       0.00000000       1.12754423 </v>
    <i name="Tr[quadrupol]"> -11332.69213677 </i>
    <i name="Echarged">      0.00000000 </i>
    <i name="Edipol_quadrupol">      0.00000000 </i>
    <i name="Eion">      0.00000000 </i>
   </dipole>
   <energy>
    <i name="e_fr_energy">   -222.71096721 </i>
    <i name="e_wo_entrp">   -222.39496786 </i>
    <i name="e_0_energy">   -222.55296754 </i>
   </energy>
  </scstep>
  <scstep>
   <time name="diag">    2.00    2.00</time>
   <time name="diis">    5.37    5.37</time>
   <time name="orth">    0.51    0.51</time>
   <time name="total">    8.30    8.31</time>
   <dipole>
    <v name="dipole">      0.00000000       0.00000000       1.12821344 </v>
    <i name="Tr[quadrupol]"> -11332.70567413 </i>
    <i name="Echarged">      0.00000000 </i>
    <i name="Edipol_quadrupol">      0.00000000 </i>
    <i name="Eion">      0.00000000 </i>
   </dipole>
   <energy>
    <i name="e_fr_energy">   -222.71040859 </i>
    <i name="e_wo_entrp">   -222.39491495 </i>
    <i name="e_0_energy">   -222.55266177 </i>
   </energy>
  </scstep>
  <scstep>
   <time name="diag">    2.02    2.02</time>
   <time name="diis">    5.29    5.37</time>
   <time name="orth">    0.51    0.51</time>
   <time name="total">    8.23    8.32</time>
   <dipole>
    <v name="dipole">      0.00000000       0.00000000       1.12785772 </v>
    <i name="Tr[quadrupol]"> -11332.71474467 </i>
    <i name="Echarged">      0.00000000 </i>
    <i name="Edipol_quadrupol">      0.00000000 </i>
    <i name="Eion">      0.00000000 </i>
   </dipole>
   <energy>
    <i name="e_fr_energy">   -222.71042544 </i>
    <i name="e_wo_entrp">   -222.39584453 </i>
    <i name="e_0_energy">   -222.55313498 </i>
   </energy>
  </scstep>
  <scstep>
   <time name="diag">    2.03    2.03</time>
   <time name="diis">    5.36    5.37</time>
   <time name="orth">    0.51    0.51</time>
   <time name="total">    8.32    8.33</time>
   <dipole>
    <v name="dipole">      0.00000000       0.00000000       1.12652986 </v>
    <i name="Tr[quadrupol]"> -11332.73076702 </i>
    <i name="Echarged">      0.00000000 </i>
    <i name="Edipol_quadrupol">      0.00000000 </i>
    <i name="Eion">      0.00000000 </i>
   </dipole>
   <energy>
    <i name="e_fr_energy">   -222.71048616 </i>
    <i name="e_wo_entrp">   -222.39512249 </i>
    <i name="e_0_energy">   -222.55280432 </i>
   </energy>
  </scstep>
  <scstep>
   <time name="diag">    2.04    2.04</time>
   <time name="diis">    5.42    5.43</time>
   <time name="orth">    0.50    0.50</time>
   <time name="total">    8.37    8.38</time>
   <dipole>
    <v name="dipole">      0.00000000       0.00000000       1.12535531 </v>
    <i name="Tr[quadrupol]"> -11332.74287702 </i>
    <i name="Echarged">      0.00000000 </i>
    <i name="Edipol_quadrupol">      0.00000000 </i>
    <i name="Eion">      0.00000000 </i>
   </dipole>
   <energy>
    <i name="e_fr_energy">   -222.71052514 </i>
    <i name="e_wo_entrp">   -222.39532759 </i>
    <i name="e_0_energy">   -222.55292636 </i>
   </energy>
  </scstep>
  <scstep>
   <time name="diag">    1.99    1.99</time>
   <time name="diis">    5.43    5.43</time>
   <time name="orth">    0.50    0.50</time>
   <time name="total">    8.34    8.35</time>
   <dipole>
    <v name="dipole">      0.00000000       0.00000000       1.12457609 </v>
    <i name="Tr[quadrupol]"> -11332.74900020 </i>
    <i name="Echarged">      0.00000000 </i>
    <i name="Edipol_quadrupol">      0.00000000 </i>
    <i name="Eion">      0.00000000 </i>
   </dipole>
   <energy>
    <i name="e_fr_energy">   -222.71059027 </i>
    <i name="e_wo_entrp">   -222.39573139 </i>
    <i name="e_0_energy">   -222.55316083 </i>
   </energy>
  </scstep>
  <scstep>
   <time name="diag">    2.00    2.01</time>
   <time name="diis">    5.18    5.20</time>
   <time name="orth">    0.50    0.50</time>
   <time name="total">    8.10    8.12</time>
   <dipole>
    <v name="dipole">      0.00000000       0.00000000       1.12414540 </v>
    <i name="Tr[quadrupol]"> -11332.75710654 </i>
    <i name="Echarged">      0.00000000 </i>
    <i name="Edipol_quadrupol">      0.00000000 </i>
    <i name="Eion">      0.00000000 </i>
   </dipole>
[...]
       <r>   -19.3835     9.9893    10.9842 </r>
       <r>   -19.2895    20.6990    12.9292 </r>
       <r>   -19.1956    20.3246    14.8390 </r>
       <r>   -19.1016    10.4489    15.8209 </r>
       <r>   -19.0076     1.8309    15.9929 </r>
       <r>   -18.9137     0.0748    15.9999 </r>
       <r>   -18.8197     0.0006    16.0000 </r>
       <r>   -18.7257     0.0000    16.0000 </r>
       <r>   -18.6318     0.0000    16.0000 </r>
       <r>   -18.5378     0.0000    16.0000 </r>
       <r>   -18.4438     0.0000    16.0000 </r>
       <r>   -18.3499     0.0000    16.0000 </r>
       <r>   -18.2559     0.0000    16.0000 </r>
       <r>   -18.1619     0.0000    16.0000 </r>
       <r>   -18.0680     0.0000    16.0000 </r>
       <r>   -17.9740     0.0000    16.0000 </r>
       <r>   -17.8800     0.0000    16.0000 </r>
       <r>   -17.7861     0.0000    16.0000 </r>
       <r>   -17.6921     0.0000    16.0000 </r>
       <r>   -17.5981     0.0000    16.0000 </r>
       <r>   -17.5042     0.0000    16.0000 </r>
       <r>   -17.4102     0.0000    16.0000 </r>
       <r>   -17.3162     0.0000    16.0000 </r>
       <r>   -17.2223     0.0000    16.0000 </r>
       <r>   -17.1283     0.0000    16.0000 </r>
       <r>   -17.0343     0.0000    16.0000 </r>
       <r>   -16.9404     0.0000    16.0000 </r>
       <r>   -16.8464     0.0000    16.0000 </r>
       <r>   -16.7524     0.0000    16.0000 </r>
       <r>   -16.6585     0.0000    16.0000 </r>
       <r>   -16.5645     0.0000    16.0000 </r>
       <r>   -16.4705     0.0000    16.0000 </r>
       <r>   -16.3766     0.0000    16.0000 </r>
       <r>   -16.2826     0.0000    16.0000 </r>
       <r>   -16.1886     0.0000    16.0000 </r>
       <r>   -16.0947     0.0000    16.0000 </r>
       <r>   -16.0007     0.0000    16.0000 </r>
       <r>   -15.9067     0.0000    16.0000 </r>
       <r>   -15.8128     0.0000    16.0000 </r>
       <r>   -15.7188     0.0000    16.0000 </r>
       <r>   -15.6248     0.0000    16.0000 </r>
       <r>   -15.5309     0.0000    16.0000 </r>
       <r>   -15.4369     0.0000    16.0000 </r>
       <r>   -15.3429     0.0000    16.0000 </r>
       <r>   -15.2490     0.0000    16.0000 </r>
       <r>   -15.1550     0.0000    16.0000 </r>
       <r>   -15.0610     0.0000    16.0000 </r>
       <r>   -14.9671     0.0000    16.0000 </r>
       <r>   -14.8731     0.0000    16.0000 </r>
       <r>   -14.7791     0.0000    16.0000 </r>
       <r>   -14.6852     0.0000    16.0000 </r>
       <r>   -14.5912     0.0000    16.0000 </r>
       <r>   -14.4972     0.0000    16.0000 </r>
       <r>   -14.4033     0.0000    16.0000 </r>
       <r>   -14.3093     0.0000    16.0000 </r>
       <r>   -14.2153     0.0000    16.0000 </r>
       <r>   -14.1214     0.0000    16.0000 </r>
       <r>   -14.0274     0.0000    16.0000 </r>
       <r>   -13.9334     0.0000    16.0000 </r>
       <r>   -13.8395     0.0000    16.0000 </r>
       <r>   -13.7455     0.0000    16.0000 </r>
       <r>   -13.6515     0.0000    16.0000 </r>
       <r>   -13.5576     0.0000    16.0000 </r>
       <r>   -13.4636     0.0000    16.0000 </r>
       <r>   -13.3696     0.0000    16.0000 </r>
       <r>   -13.2757     0.0000    16.0000 </r>
       <r>   -13.1817     0.0000    16.0000 </r>
       <r>   -13.0877     0.0000    16.0000 </r>
       <r>   -12.9938     0.0000    16.0000 </r>
       <r>   -12.8998     0.0000    16.0000 </r>
       <r>   -12.8058     0.0000    16.0000 </r>
       <r>   -12.7119     0.0000    16.0000 </r>
       <r>   -12.6179     0.0000    16.0000 </r>
       <r>   -12.5239     0.0000    16.0000 </r>
       <r>   -12.4300     0.0000    16.0000 </r>
       <r>   -12.3360     0.0000    16.0000 </r>
       <r>   -12.2420     0.0000    16.0000 </r>
       <r>   -12.1481     0.0000    16.0000 </r>
       <r>   -12.0541     0.0000    16.0000 </r>
       <r>   -11.9601     0.0000    16.0000 </r>
       <r>   -11.8662     0.0000    16.0000 </r>
       <r>   -11.7722     0.0000    16.0000 </r>
       <r>   -11.6782     0.0000    16.0000 </r>
       <r>   -11.5843     0.0000    16.0000 </r>
       <r>   -11.4903     0.0000    16.0000 </r>
       <r>   -11.3963     0.0000    16.0000 </r>
       <r>   -11.3024     0.0000    16.0000 </r>
       <r>   -11.2084     0.0000    16.0000 </r>
       <r>   -11.1144     0.0000    16.0000 </r>
       <r>   -11.0205     0.0000    16.0000 </r>
       <r>   -10.9265     0.0000    16.0000 </r>
       <r>   -10.8325     0.0000    16.0000 </r>
       <r>   -10.7386     0.0000    16.0000 </r>
       <r>   -10.6446     0.0000    16.0000 </r>
       <r>   -10.5506     0.0000    16.0000 </r>
       <r>   -10.4567     0.0000    16.0000 </r>
       <r>   -10.3627     0.0000    16.0000 </r>
       <r>   -10.2687     0.0000    16.0000 </r>
       <r>   -10.1748     0.0000    16.0000 </r>
       <r>   -10.0808     0.0000    16.0000 </r>
       <r>    -9.9868     0.0000    16.0000 </r>
       <r>    -9.8929     0.0000    16.0000 </r>
       <r>    -9.7989     0.0000    16.0000 </r>
       <r>    -9.7049     0.0000    16.0000 </r>
       <r>    -9.6110     0.0000    16.0000 </r>
       <r>    -9.5170     0.0000    16.0000 </r>
       <r>    -9.4230     0.0000    16.0000 </r>
       <r>    -9.3291     0.0000    16.0000 </r>
       <r>    -9.2351     0.0062    16.0006 </r>
       <r>    -9.1411     0.2853    16.0274 </r>
       <r>    -9.0472     2.6624    16.2776 </r>
       <r>    -8.9532     5.6343    16.8070 </r>
       <r>    -8.8592     5.2960    17.3046 </r>
       <r>    -8.7653     5.3274    17.8052 </r>
       <r>    -8.6713     2.3149    18.0228 </r>
       <r>    -8.5773     2.9127    18.2965 </r>
       <r>    -8.4834     5.6393    18.8264 </r>
       <r>    -8.3894     7.1969    19.5026 </r>
       <r>    -8.2954    12.6675    20.6930 </r>
       <r>    -8.2015    17.6745    22.3538 </r>
       <r>    -8.1075    18.7951    24.1199 </r>
       <r>    -8.0135    20.5470    26.0507 </r>
       <r>    -7.9195    20.6012    27.9865 </r>
       <r>    -7.8256    17.0785    29.5913 </r>
       <r>    -7.7316    20.2360    31.4928 </r>
       <r>    -7.6376    30.8554    34.3922 </r>
       <r>    -7.5437    36.5609    37.8277 </r>
       <r>    -7.4497    39.1755    41.5089 </r>
       <r>    -7.3557    40.8529    45.3477 </r>
       <r>    -7.2618    45.9340    49.6640 </r>
       <r>    -7.1678    53.8077    54.7201 </r>
       <r>    -7.0738    56.1429    59.9957 </r>
       <r>    -6.9799    55.8398    65.2428 </r>
       <r>    -6.8859    59.7450    70.8569 </r>
       <r>    -6.7919    66.5466    77.1100 </r>
       <r>    -6.6980    73.4094    84.0081 </r>
       <r>    -6.6040    74.6641    91.0241 </r>
       <r>    -6.5100    76.5146    98.2139 </r>
       <r>    -6.4161    83.0007   106.0132 </r>
       <r>    -6.3221    85.9079   114.0857 </r>
       <r>    -6.2281    83.1124   121.8955 </r>
       <r>    -6.1342    81.1884   129.5246 </r>
       <r>    -6.0402    78.8278   136.9318 </r>
       <r>    -5.9462    79.5566   144.4074 </r>
       <r>    -5.8523    85.5071   152.4423 </r>
       <r>    -5.7583    83.2452   160.2646 </r>
       <r>    -5.6643    77.6498   167.5611 </r>
       <r>    -5.5704    76.6847   174.7669 </r>
       <r>    -5.4764    75.7068   181.8809 </r>
       <r>    -5.3824    76.6559   189.0840 </r>
       <r>    -5.2885    78.9752   196.5050 </r>
       <r>    -5.1945    83.1879   204.3219 </r>
       <r>    -5.1005    90.5211   212.8279 </r>
       <r>    -5.0066    89.9950   221.2845 </r>
       <r>    -4.9126    88.2884   229.5807 </r>
       <r>    -4.8186    87.1866   237.7733 </r>
       <r>    -4.7247    86.3983   245.8919 </r>
       <r>    -4.6307    91.2975   254.4709 </r>
       <r>    -4.5367    95.4956   263.4443 </r>
       <r>    -4.4428    94.7930   272.3517 </r>
       <r>    -4.3488    91.7499   280.9732 </r>
       <r>    -4.2548    93.4253   289.7520 </r>
       <r>    -4.1609    95.1442   298.6924 </r>
       <r>    -4.0669    94.0128   307.5265 </r>
       <r>    -3.9729    97.4056   316.6794 </r>
       <r>    -3.8790   102.4934   326.3104 </r>
       <r>    -3.7850   104.9621   336.1734 </r>
       <r>    -3.6910   106.8900   346.2175 </r>
       <r>    -3.5971   104.2606   356.0146 </r>
       <r>    -3.5031   100.0538   365.4163 </r>
       <r>    -3.4091   100.0852   374.8210 </r>
       <r>    -3.3152    97.0653   383.9419 </r>
       <r>    -3.2212    94.0301   392.7776 </r>
       <r>    -3.1272    91.5425   401.3796 </r>
       <r>    -3.0333    90.4330   409.8773 </r>
       <r>    -2.9393    90.3810   418.3701 </r>
       <r>    -2.8453    88.8761   426.7216 </r>
       <r>    -2.7514    90.6772   435.2422 </r>
       <r>    -2.6574    90.5428   443.7502 </r>
       <r>    -2.5634    88.9187   452.1057 </r>
       <r>    -2.4695    87.8990   460.3653 </r>
       <r>    -2.3755    87.6752   468.6038 </r>
       <r>    -2.2815    87.6872   476.8435 </r>
       <r>    -2.1876    92.6708   485.5515 </r>
       <r>    -2.0936    97.9272   494.7534 </r>
       <r>    -1.9996   100.2612   504.1747 </r>
       <r>    -1.9057    95.3252   513.1321 </r>
       <r>    -1.8117    87.6661   521.3698 </r>
       <r>    -1.7177    84.3789   529.2986 </r>
       <r>    -1.6238    77.6222   536.5926 </r>
       <r>    -1.5298    67.5325   542.9384 </r>
       <r>    -1.4358    61.0341   548.6736 </r>
       <r>    -1.3419    52.9131   553.6457 </r>
       <r>    -1.2479    41.1007   557.5078 </r>
       <r>    -1.1539    30.6082   560.3839 </r>
       <r>    -1.0600    26.0488   562.8316 </r>
       <r>    -0.9660    22.7441   564.9688 </r>
       <r>    -0.8720    20.0674   566.8545 </r>
       <r>    -0.7781    18.9605   568.6362 </r>
       <r>    -0.6841    20.2629   570.5402 </r>
       <r>    -0.5901    23.7155   572.7687 </r>
       <r>    -0.4962    27.1371   575.3187 </r>
       <r>    -0.4022    27.5119   577.9039 </r>
       <r>    -0.3082    22.6658   580.0337 </r>
       <r>    -0.2143    16.1447   581.5508 </r>
       <r>    -0.1203    15.6507   583.0214 </r>
       <r>    -0.0263    15.7880   584.5050 </r>
       <r>     0.0676    12.1451   585.6462 </r>
       <r>     0.1616     7.5000   586.3510 </r>
       <r>     0.2556     6.9152   587.0008 </r>
       <r>     0.3495    11.4348   588.0753 </r>
       <r>     0.4435    15.3238   589.5152 </r>
       <r>     0.5375    17.0490   591.1172 </r>
       <r>     0.6314    18.4463   592.8506 </r>
       <r>     0.7254    21.4083   594.8623 </r>
       <r>     0.8194    22.0112   596.9306 </r>
       <r>     0.9133    17.7705   598.6004 </r>
       <r>     1.0073    12.6176   599.7861 </r>
       <r>     1.1013    10.7990   600.8008 </r>
       <r>     1.1952    10.7818   601.8139 </r>
       <r>     1.2892    11.3108   602.8768 </r>
       <r>     1.3832    11.5790   603.9648 </r>
       <r>     1.4771    11.3597   605.0323 </r>
       <r>     1.5711    12.7267   606.2282 </r>
       <r>     1.6651    14.5389   607.5943 </r>
       <r>     1.7590    18.3789   609.3213 </r>
       <r>     1.8530    16.9587   610.9149 </r>
       <r>     1.9470    14.8255   612.3080 </r>
       <r>     2.0409    17.7191   613.9730 </r>
       <r>     2.1349    20.9698   615.9435 </r>
       <r>     2.2289    17.8036   617.6164 </r>
       <r>     2.3228    14.3650   618.9663 </r>
       <r>     2.4168    14.3698   620.3166 </r>
       <r>     2.5108    12.4312   621.4847 </r>
       <r>     2.6047    12.3256   622.6429 </r>
       <r>     2.6987    11.9068   623.7617 </r>
       <r>     2.7927    13.1727   624.9995 </r>
       <r>     2.8866    13.3479   626.2538 </r>
       <r>     2.9806    11.8671   627.3689 </r>
       <r>     3.0746    12.4760   628.5412 </r>
       <r>     3.1685    14.9612   629.9471 </r>
       <r>     3.2625    17.4622   631.5880 </r>
       <r>     3.3565    16.8893   633.1750 </r>
       <r>     3.4504    16.4573   634.7214 </r>
       <r>     3.5444    19.3553   636.5402 </r>
       <r>     3.6384    20.7660   638.4915 </r>
       <r>     3.7323    20.6758   640.4343 </r>
       <r>     3.8263    19.4784   642.2647 </r>
       <r>     3.9203    16.9071   643.8534 </r>
       <r>     4.0142    19.2888   645.6659 </r>
       <r>     4.1082    21.5186   647.6879 </r>
       <r>     4.2022    19.7340   649.5423 </r>
       <r>     4.2961    16.9026   651.1306 </r>
       <r>     4.3901    13.8640   652.4333 </r>
       <r>     4.4841    15.3562   653.8763 </r>
       <r>     4.5781    20.8703   655.8374 </r>
       <r>     4.6720    27.0484   658.3791 </r>
       <r>     4.7660    30.0302   661.2009 </r>
       <r>     4.8600    27.6512   663.7992 </r>
       <r>     4.9539    26.2586   666.2666 </r>
       <r>     5.0479    28.6710   668.9608 </r>
       <r>     5.1419    21.4568   670.9770 </r>
       <r>     5.2358     9.0473   671.8271 </r>
       <r>     5.3298     1.7355   671.9902 </r>
       <r>     5.4238     0.1026   671.9999 </r>
       <r>     5.5177     0.0014   672.0000 </r>
       <r>     5.6117     0.0000   672.0000 </r>
       <r>     5.7057     0.0000   672.0000 </r>
       <r>     5.7996     0.0000   672.0000 </r>
       <r>     5.8936     0.0000   672.0000 </r>
       <r>     5.9876     0.0000   672.0000 </r>
       <r>     6.0815     0.0000   672.0000 </r>
       <r>     6.1755     0.0000   672.0000 </r>
       <r>     6.2695     0.0000   672.0000 </r>
       <r>     6.3634     0.0000   672.0000 </r>
       <r>     6.4574     0.0000   672.0000 </r>
      </set>
     </set>
    </array>
   </total>
  </dos>
 </calculation>
 <structure name="finalpos" >
  <crystal>
   <varray name="basis" >
    <v>      11.00258152       0.00000000       0.00000000 </v>
    <v>       5.50129076       9.52851510       0.00000000 </v>
    <v>       0.00000000       0.00000000      26.19178509 </v>
   </varray>
   <i name="volume">   2745.90128299 </i>
   <varray name="rec_basis" >
    <v>       0.09088776      -0.05247407       0.00000000 </v>
    <v>       0.00000000       0.10494815       0.00000000 </v>
    <v>       0.00000000       0.00000000       0.03817991 </v>
   </varray>
  </crystal>
  <varray name="positions" >
   <v>       0.25855960      -0.01618568       0.56434866 </v>
   <v>       0.83333333       0.83333333       0.38179910 </v>
   <v>      -0.02109195       0.24361069       0.60305876 </v>
   <v>       0.78381393       0.48926085       0.56452200 </v>
   <v>       0.91754997       0.16652838       0.47658205 </v>
   <v>       0.03780065       0.49820548       0.61571098 </v>
   <v>       0.67179779       0.66396021       0.47650499 </v>
   <v>       0.83333333       0.58333333       0.38179910 </v>
   <v>       0.74547789       0.25563633       0.56658682 </v>
   <v>       0.92555413       0.41104744       0.47317156 </v>
   <v>       0.41865320       0.41864857       0.47768026 </v>
   <v>       0.58333333       0.33333333       0.38179910 </v>
   <v>       0.66597130       0.16487417       0.47696608 </v>
   <v>       0.33333333       0.33333333       0.38179910 </v>
   <v>       0.26083968       0.23451398       0.56436845 </v>
   <v>       0.50854322       0.71288323       0.56550128 </v>
   <v>       0.41805433       0.91167199       0.47421118 </v>
   <v>       0.58333333       0.83333333       0.38179910 </v>
   <v>       0.24251327       0.49751847       0.56170504 </v>
   <v>       0.44645173       0.53862286       0.62964661 </v>
   <v>       0.16579354       0.91189508       0.47015650 </v>
   <v>       0.41926844       0.16227507       0.47737441 </v>
   <v>       0.45738916       0.28113265       0.60992583 </v>
   <v>       0.83333333       0.08333333       0.38179910 </v>
   <v>       0.82134653       0.53626178       0.63867871 </v>
   <v>       0.28105876       0.72536010       0.63341067 </v>
   <v>       0.57787043       0.81827873       0.62037974 </v>
   <v>       0.13358457       0.28332985       0.63291214 </v>
   <v>       0.84786602       0.86071610       0.61720486 </v>
   <v>       0.09150180       0.03377384       0.61909667 </v>
   <v>       0.60444065       0.34295035       0.63257586 </v>
   <v>       0.58277154       0.06684981       0.61088675 </v>
   <v>       0.24422849       0.73986381       0.56034434 </v>
   <v>       0.33333333       0.83333333       0.38179910 </v>
   <v>       0.00120337      -0.01349047       0.56250414 </v>
   <v>       0.16315097       0.66474419       0.47254940 </v>
   <v>       0.33333333       0.58333333       0.38179910 </v>
   <v>       0.08333333       0.33333333       0.38179910 </v>
   <v>       0.16913545       0.41349265       0.47187708 </v>
   <v>       0.08333333       0.58333333       0.38179910 </v>
   <v>       0.16875796       0.16338036       0.47198471 </v>
   <v>       0.33333333       0.08333333       0.38179910 </v>
   <v>       0.50883888      -0.02831221       0.56748983 </v>
   <v>       0.92011681       0.66306099       0.47472577 </v>
   <v>      -0.01262972       0.73872689       0.56448395 </v>
   <v>       0.91680412       0.91178488       0.47527449 </v>
   <v>       0.58333333       0.08333333       0.38179910 </v>
   <v>       0.08333333       0.08333333       0.38179910 </v>
   <v>       0.83333333       0.33333333       0.38179910 </v>
   <v>       0.75031300       0.00524496       0.56396634 </v>
   <v>       0.67008198       0.91285640       0.47447765 </v>
   <v>       0.58333333       0.58333333       0.38179910 </v>
   <v>       0.41795754       0.66177396       0.47289679 </v>
   <v>       0.66884885       0.41875102       0.47632412 </v>
   <v>       0.78760584       0.72434611       0.62499562 </v>
   <v>       0.08333333       0.83333333       0.38179910 </v>
  </varray>
  <varray name="selective"  type="logical" >
   <v type="logical" >  T  T  T </v>
   <v type="logical" >  F  F  F </v>
   <v type="logical" >  T  T  T </v>
   <v type="logical" >  T  T  T </v>
   <v type="logical" >  T  T  T </v>
   <v type="logical" >  T  T  T </v>
   <v type="logical" >  T  T  T </v>
   <v type="logical" >  F  F  F </v>
   <v type="logical" >  T  T  T </v>
   <v type="logical" >  T  T  T </v>
   <v type="logical" >  T  T  T </v>
   <v type="logical" >  F  F  F </v>
   <v type="logical" >  T  T  T </v>
   <v type="logical" >  F  F  F </v>
   <v type="logical" >  T  T  T </v>
   <v type="logical" >  T  T  T </v>
   <v type="logical" >  T  T  T </v>
   <v type="logical" >  F  F  F </v>
   <v type="logical" >  T  T  T </v>
   <v type="logical" >  T  T  T </v>
   <v type="logical" >  T  T  T </v>
   <v type="logical" >  T  T  T </v>
   <v type="logical" >  T  T  T </v>
   <v type="logical" >  F  F  F </v>
   <v type="logical" >  T  T  T </v>
   <v type="logical" >  T  T  T </v>
   <v type="logical" >  T  T  T </v>
   <v type="logical" >  T  T  T </v>
   <v type="logical" >  T  T  T </v>
   <v type="logical" >  T  T  T </v>
   <v type="logical" >  T  T  T </v>
   <v type="logical" >  T  T  T </v>
   <v type="logical" >  T  T  T </v>
   <v type="logical" >  F  F  F </v>
   <v type="logical" >  T  T  T </v>
   <v type="logical" >  T  T  T </v>
   <v type="logical" >  F  F  F </v>
   <v type="logical" >  F  F  F </v>
   <v type="logical" >  T  T  T </v>
   <v type="logical" >  F  F  F </v>
   <v type="logical" >  T  T  T </v>
   <v type="logical" >  F  F  F </v>
   <v type="logical" >  T  T  T </v>
   <v type="logical" >  T  T  T </v>
   <v type="logical" >  T  T  T </v>
   <v type="logical" >  T  T  T </v>
   <v type="logical" >  F  F  F </v>
   <v type="logical" >  F  F  F </v>
   <v type="logical" >  F  F  F </v>
   <v type="logical" >  T  T  T </v>
   <v type="logical" >  T  T  T </v>
   <v type="logical" >  F  F  F </v>
   <v type="logical" >  T  T  T </v>
   <v type="logical" >  T  T  T </v>
   <v type="logical" >  T  T  T </v>
   <v type="logical" >  F  F  F </v>
  </varray>
  <nose>
   <v>      -3.00000000       0.00000000       0.00010000       0.00010000 </v>
  </nose>
 </structure>
</modeling>
