unknown system                          
           1
    11.002582    0.000000    0.000000
     5.501291    9.528515    0.000000
     0.000000    0.000000   26.191785
   Au   O    Pd
  24   8  24
Direct configuration=     1
   0.25000000  0.00000000  0.55329505
   0.83333333  0.83333333  0.38179910
   0.00000000  0.25000000  0.55329505
   0.75000000  0.50000000  0.55329505
   0.91666667  0.16666667  0.46754708
   0.00000000  0.50000000  0.55329505
   0.66666667  0.66666667  0.46754708
   0.83333333  0.58333333  0.38179910
   0.75000000  0.25000000  0.55329505
   0.91666667  0.41666667  0.46754708
   0.41666667  0.41666667  0.46754708
   0.58333333  0.33333333  0.38179910
   0.66666667  0.16666667  0.46754708
   0.33333333  0.33333333  0.38179910
   0.25000000  0.25000000  0.55329505
   0.50000000  0.75000000  0.55329505
   0.41666667  0.91666667  0.46754708
   0.58333333  0.83333333  0.38179910
   0.25000000  0.50000000  0.55329505
   0.50000000  0.50000000  0.55329505
   0.16666667  0.91666667  0.46754708
   0.41666667  0.16666667  0.46754708
   0.50000000  0.25000000  0.55329505
   0.83333333  0.08333333  0.38179910
   0.83333333  0.58333333  0.61820090
   0.58333333  0.58333333  0.61820090
   0.58333333  0.83333333  0.61820090
   0.08333333  0.33333333  0.61820090
   0.83333333  0.83333333  0.61820090
   0.08333333  0.08333333  0.61820090
   0.58333333  0.33333333  0.61820090
   0.58333333  0.08333333  0.61820090
   0.25000000  0.75000000  0.55329505
   0.33333333  0.83333333  0.38179910
   0.00000000  0.00000000  0.55329505
   0.16666667  0.66666667  0.46754708
   0.33333333  0.58333333  0.38179910
   0.08333333  0.33333333  0.38179910
   0.16666667  0.41666667  0.46754708
   0.08333333  0.58333333  0.38179910
   0.16666667  0.16666667  0.46754708
   0.33333333  0.08333333  0.38179910
   0.50000000  0.00000000  0.55329505
   0.91666667  0.66666667  0.46754708
   0.00000000  0.75000000  0.55329505
   0.91666667  0.91666667  0.46754708
   0.58333333  0.08333333  0.38179910
   0.08333333  0.08333333  0.38179910
   0.83333333  0.33333333  0.38179910
   0.75000000  0.00000000  0.55329505
   0.66666667  0.91666667  0.46754708
   0.58333333  0.58333333  0.38179910
   0.41666667  0.66666667  0.46754708
   0.66666667  0.41666667  0.46754708
   0.75000000  0.75000000  0.55329505
   0.08333333  0.83333333  0.38179910
Direct configuration=     2
   0.24976196 -0.00050563  0.55601858
   0.83333333  0.83333333  0.38179910
  -0.00037525  0.24856815  0.55643445
   0.75042304  0.49898124  0.55612665
   0.91733035  0.16656674  0.46752988
   0.00069062  0.50233390  0.55617227
   0.66677360  0.66674616  0.46746901
   0.83333333  0.58333333  0.38179910
   0.75143599  0.24849530  0.55582482
   0.91781259  0.41572988  0.46707988
   0.41566690  0.41919266  0.46755418
   0.58333333  0.33333333  0.38179910
   0.66800714  0.16414284  0.46759761
   0.33333333  0.33333333  0.38179910
   0.25060589  0.24957516  0.55575744
   0.49792320  0.75179769  0.55622863
   0.41609554  0.91718247  0.46775103
   0.58333333  0.83333333  0.38179910
   0.24830053  0.50235290  0.55480165
   0.49784935  0.50157406  0.55607962
   0.16637998  0.91526425  0.46706823
   0.41622339  0.16556006  0.46783014
   0.49926384  0.24920860  0.55659451
   0.83333333  0.08333333  0.38179910
   0.83381182  0.58384882  0.61569010
   0.58242671  0.58348926  0.61617881
   0.58251496  0.83451513  0.61491451
   0.08438342  0.33367581  0.61588986
   0.83592102  0.83301942  0.61400092
   0.08299909  0.08115323  0.61508877
   0.58380821  0.33316050  0.61604667
   0.58337543  0.08246346  0.61489517
   0.24865141  0.74992667  0.55401509
   0.33333333  0.83333333  0.38179910
   0.00093058 -0.00118980  0.55556333
   0.16529324  0.66753147  0.46767247
   0.33333333  0.58333333  0.38179910
   0.08333333  0.33333333  0.38179910
   0.16495247  0.41787421  0.46719996
   0.08333333  0.58333333  0.38179910
   0.16670852  0.16722980  0.46658055
   0.33333333  0.08333333  0.38179910
   0.50158487 -0.00074683  0.55689612
   0.91757714  0.66721029  0.46811177
  -0.00132924  0.75170395  0.55510950
   0.91706894  0.91543335  0.46845403
   0.58333333  0.08333333  0.38179910
   0.08333333  0.08333333  0.38179910
   0.83333333  0.33333333  0.38179910
   0.75132436 -0.00234569  0.55665440
   0.66781124  0.91611092  0.46796822
   0.58333333  0.58333333  0.38179910
   0.41619910  0.66624281  0.46761846
   0.66665652  0.41766131  0.46710995
   0.75061287  0.75181774  0.55733977
   0.08333333  0.83333333  0.38179910
Direct configuration=     3
   0.24939668 -0.00128155  0.56019803
   0.83333333  0.83333333  0.38179910
  -0.00095111  0.24637088  0.56125208
   0.75107222  0.49741787  0.56047195
   0.91834882  0.16641338  0.46750348
   0.00175042  0.50591545  0.56058758
   0.66693770  0.66686814  0.46734922
   0.83333333  0.58333333  0.38179910
   0.75363962  0.24618622  0.55970692
   0.91957110  0.41429230  0.46636294
   0.41413268  0.42306898  0.46756509
   0.58333333  0.33333333  0.38179910
   0.67006419  0.16026985  0.46767516
   0.33333333  0.33333333  0.38179910
   0.25153567  0.24892321  0.55953615
   0.49473620  0.75455637  0.56073041
   0.41521910  0.91797402  0.46806400
   0.58333333  0.83333333  0.38179910
   0.24569257  0.50596360  0.55711363
   0.49454902  0.50398958  0.56035273
   0.16594003  0.91311213  0.46633340
   0.41554314  0.16386189  0.46826453
   0.49813416  0.24799414  0.56165778
   0.83333333  0.08333333  0.38179910
   0.83454609  0.58463988  0.61183711
   0.58103543  0.58372854  0.61307576
   0.58125911  0.83632869  0.60987130
   0.08599485  0.33420137  0.61234341
   0.83989202  0.83253770  0.60755574
   0.08248617  0.07780771  0.61031297
   0.58453695  0.33289528  0.61274085
   0.58344004  0.08112857  0.60982228
   0.24658190  0.74981414  0.55512004
   0.33333333  0.83333333  0.38179910
   0.00235862 -0.00301563  0.55904417
   0.16318560  0.66885857  0.46786489
   0.33333333  0.58333333  0.38179910
   0.08333333  0.33333333  0.38179910
   0.16232190  0.41972728  0.46666729
   0.08333333  0.58333333  0.38179910
   0.16677275  0.16809396  0.46509736
   0.33333333  0.08333333  0.38179910
   0.50401696 -0.00189289  0.56242223
   0.91897433  0.66804453  0.46897833
  -0.00336906  0.75431879  0.55789390
   0.91768627  0.91354072  0.46984582
   0.58333333  0.08333333  0.38179910
   0.08333333  0.08333333  0.38179910
   0.83333333  0.33333333  0.38179910
   0.75335669 -0.00594532  0.56180955
   0.66956768  0.91525808  0.46861449
   0.58333333  0.58333333  0.38179910
   0.41548159  0.66559238  0.46772799
   0.66664094  0.41918767  0.46643915
   0.75155337  0.75460719  0.56354669
   0.08333333  0.83333333  0.38179910
Direct configuration=     4
   0.24944148 -0.00118638  0.55968541
   0.83333333  0.83333333  0.38179910
  -0.00088048  0.24664038  0.56066120
   0.75099260  0.49760962  0.55993900
   0.91822390  0.16643219  0.46750672
   0.00162043  0.50547617  0.56004604
   0.66691757  0.66685318  0.46736391
   0.83333333  0.58333333  0.38179910
   0.75336935  0.24646943  0.55923078
   0.91935542  0.41446862  0.46645087
   0.41432086  0.42259355  0.46756375
   0.58333333  0.33333333  0.38179910
   0.66981189  0.16074488  0.46766565
   0.33333333  0.33333333  0.38179910
   0.25142163  0.24900317  0.55907269
   0.49512708  0.75421802  0.56017826
   0.41532659  0.91787693  0.46802562
   0.58333333  0.83333333  0.38179910
   0.24601244  0.50552074  0.55683006
   0.49495381  0.50369332  0.55982863
   0.16599399  0.91337609  0.46642353
   0.41562657  0.16407017  0.46821125
   0.49827271  0.24814309  0.56103677
   0.83333333  0.08333333  0.38179910
   0.83445603  0.58454286  0.61230968
   0.58120607  0.58369919  0.61345635
   0.58141314  0.83610626  0.61048986
   0.08579721  0.33413691  0.61277838
   0.83940498  0.83259678  0.60834624
   0.08254908  0.07821804  0.61089873
   0.58444757  0.33292781  0.61314631
   0.58343211  0.08129230  0.61044447
   0.24683573  0.74982794  0.55498451
   0.33333333  0.83333333  0.38179910
   0.00218347 -0.00279169  0.55861724
   0.16344411  0.66869580  0.46784129
   0.33333333  0.58333333  0.38179910
   0.08333333  0.33333333  0.38179910
   0.16264455  0.41950000  0.46673262
   0.08333333  0.58333333  0.38179910
   0.16676487  0.16798797  0.46527927
   0.33333333  0.08333333  0.38179910
   0.50371867 -0.00175233  0.56174444
   0.91880296  0.66794221  0.46887205
  -0.00311888  0.75399808  0.55755239
   0.91761055  0.91377286  0.46967511
   0.58333333  0.08333333  0.38179910
   0.08333333  0.08333333  0.38179910
   0.83333333  0.33333333  0.38179910
   0.75310743 -0.00550382  0.56117727
   0.66935225  0.91536268  0.46853522
   0.58333333  0.58333333  0.38179910
   0.41556959  0.66567216  0.46771456
   0.66664285  0.41900046  0.46652142
   0.75143802  0.75426506  0.56278541
   0.08333333  0.83333333  0.38179910
Direct configuration=     5
   0.25492733 -0.00454206  0.56035533
   0.83333333  0.83333333  0.38179910
  -0.00607411  0.25047626  0.56148124
   0.75354954  0.49288950  0.56002927
   0.91853065  0.16609083  0.46909921
   0.00461940  0.50713794  0.56084679
   0.66705757  0.66688465  0.46938378
   0.83333333  0.58333333  0.38179910
   0.75664503  0.24360045  0.56013513
   0.91961234  0.41452618  0.46837505
   0.41472863  0.42156395  0.46936741
   0.58333333  0.33333333  0.38179910
   0.66922410  0.16081307  0.46958871
   0.33333333  0.33333333  0.38179910
   0.25483965  0.24741346  0.55988252
   0.48987288  0.75603767  0.56087988
   0.41468427  0.91734503  0.46989619
   0.58333333  0.83333333  0.38179910
   0.24556574  0.50630851  0.55766691
   0.49006235  0.50518585  0.56077182
   0.16585310  0.91373521  0.46721964
   0.41583525  0.16495990  0.47010685
   0.49328185  0.25246302  0.56178463
   0.83333333  0.08333333  0.38179910
   0.83435576  0.58569614  0.61175255
   0.57916167  0.58483513  0.61318614
   0.57996277  0.83891063  0.60916883
   0.08757338  0.33399002  0.61219416
   0.84478047  0.83249159  0.60694006
   0.08155583  0.07394308  0.61061136
   0.58534244  0.33244995  0.61264000
   0.58375894  0.07906326  0.60925694
   0.24515741  0.75073592  0.55546500
   0.33333333  0.83333333  0.38179910
   0.00146100 -0.00507013  0.55952186
   0.16240380  0.66865466  0.46862596
   0.33333333  0.58333333  0.38179910
   0.08333333  0.33333333  0.38179910
   0.16231869  0.41998875  0.46789053
   0.08333333  0.58333333  0.38179910
   0.16671838  0.16786757  0.46616180
   0.33333333  0.08333333  0.38179910
   0.49900582  0.00009009  0.56373205
   0.91857836  0.66770808  0.47023748
   0.00030575  0.75364625  0.55820009
   0.91773890  0.91388327  0.47102600
   0.58333333  0.08333333  0.38179910
   0.08333333  0.08333333  0.38179910
   0.83333333  0.33333333  0.38179910
   0.75598719 -0.00256458  0.56254417
   0.66987895  0.91449754  0.46994784
   0.58333333  0.58333333  0.38179910
   0.41589356  0.66645694  0.46893608
   0.66704844  0.41876340  0.46792239
   0.75188203  0.75142992  0.56444025
   0.08333333  0.83333333  0.38179910
Direct configuration=     6
   0.25848677 -0.00671937  0.56079000
   0.83333333  0.83333333  0.38179910
  -0.00944394  0.25296512  0.56201331
   0.75520859  0.48982689  0.56008783
   0.91872967  0.16586934  0.47013247
   0.00656524  0.50821616  0.56136634
   0.66714841  0.66690507  0.47069435
   0.83333333  0.58333333  0.38179910
   0.75877042  0.24173894  0.56072190
   0.91977904  0.41456352  0.46962353
   0.41499321  0.42089590  0.47053770
   0.58333333  0.33333333  0.38179910
   0.66884272  0.16085732  0.47083647
   0.33333333  0.33333333  0.38179910
   0.25705739  0.24638199  0.56040797
   0.48646375  0.75721833  0.56133512
   0.41426750  0.91699991  0.47110990
   0.58333333  0.83333333  0.38179910
   0.24527591  0.50681965  0.55820989
   0.48688858  0.50615426  0.56138380
   0.16576169  0.91396821  0.46773619
   0.41597065  0.16553719  0.47133678
   0.49004358  0.25526596  0.56226987
   0.83333333  0.08333333  0.38179910
   0.83429070  0.58644443  0.61139106
   0.57783518  0.58557218  0.61301081
   0.57902171  0.84073022  0.60831170
   0.08872584  0.33389472  0.61181510
   0.84826830  0.83242333  0.60602768
   0.08091137  0.07116932  0.61042490
   0.58592306  0.33213990  0.61231148
   0.58397100  0.07761697  0.60848642
   0.24406846  0.75132505  0.55577676
   0.33333333  0.83333333  0.38179910
   0.00099224 -0.00654847  0.56010880
   0.16172880  0.66862796  0.46913508
   0.33333333  0.58333333  0.38179910
   0.08333333  0.33333333  0.38179910
   0.16210727  0.42030587  0.46864183
   0.08333333  0.58333333  0.38179910
   0.16668822  0.16778945  0.46673442
   0.33333333  0.08333333  0.38179910
   0.49594794  0.00128553  0.56502168
   0.91843263  0.66755616  0.47112342
   0.00252778  0.75341796  0.55862035
   0.91782217  0.91395491  0.47190251
   0.58333333  0.08333333  0.38179910
   0.08333333  0.08333333  0.38179910
   0.83333333  0.33333333  0.38179910
   0.75785570 -0.00065748  0.56343107
   0.67022069  0.91393620  0.47086441
   0.58333333  0.58333333  0.38179910
   0.41610376  0.66696613  0.46972865
   0.66731161  0.41860958  0.46883139
   0.75217012  0.74959037  0.56551398
   0.08333333  0.83333333  0.38179910
Direct configuration=     7
   0.25375984 -0.00289759  0.56181263
   0.83333333  0.83333333  0.38179910
  -0.00618492  0.25063220  0.56329656
   0.75231729  0.48994020  0.55995149
   0.91881401  0.16532603  0.47127883
   0.00879699  0.50918446  0.56199411
   0.66732692  0.66694156  0.47254388
   0.83333333  0.58333333  0.38179910
   0.75795266  0.24051229  0.56165844
   0.91991148  0.41499809  0.47103706
   0.41548004  0.42028553  0.47158842
   0.58333333  0.33333333  0.38179910
   0.66840589  0.16136013  0.47247945
   0.33333333  0.33333333  0.38179910
   0.25594550  0.24580288  0.56099590
   0.48690680  0.75249766  0.56213245
   0.41471070  0.91718647  0.47205005
   0.58333333  0.83333333  0.38179910
   0.24480573  0.50754640  0.55909618
   0.48442696  0.50793410  0.56242424
   0.16525936  0.91480379  0.46847185
   0.41631864  0.16548078  0.47255521
   0.48857058  0.25758964  0.56313837
   0.83333333  0.08333333  0.38179910
   0.83461990  0.58555695  0.61225772
   0.57600583  0.58679892  0.61276013
   0.57876740  0.84009574  0.60945416
   0.09093357  0.33270872  0.61179204
   0.85298012  0.83262883  0.60697857
   0.08107492  0.06749379  0.61031259
   0.58776874  0.33098510  0.61245491
   0.58550448  0.07745016  0.60879173
   0.24217324  0.75294900  0.55637062
   0.33333333  0.83333333  0.38179910
   0.00243054 -0.00836291  0.56059647
   0.16175237  0.66820314  0.46968826
   0.33333333  0.58333333  0.38179910
   0.08333333  0.33333333  0.38179910
   0.16256815  0.42006995  0.46975102
   0.08333333  0.58333333  0.38179910
   0.16682952  0.16753451  0.46803509
   0.33333333  0.08333333  0.38179910
   0.49086021  0.00510325  0.56472455
   0.91758951  0.66746177  0.47227678
   0.00756774  0.75128028  0.55829632
   0.91730971  0.91475926  0.47267956
   0.58333333  0.08333333  0.38179910
   0.08333333  0.08333333  0.38179910
   0.83333333  0.33333333  0.38179910
   0.75813139  0.00273077  0.56389164
   0.67011095  0.91342982  0.47259126
   0.58333333  0.58333333  0.38179910
   0.41625780  0.66679576  0.47066611
   0.66731249  0.41798888  0.47034889
   0.75177534  0.74944158  0.56509141
   0.08333333  0.83333333  0.38179910
Direct configuration=     8
   0.25353381 -0.00271485  0.56186153
   0.83333333  0.83333333  0.38179910
  -0.00602908  0.25052064  0.56335792
   0.75217904  0.48994562  0.55994497
   0.91881804  0.16530005  0.47133364
   0.00890371  0.50923076  0.56202413
   0.66733545  0.66694330  0.47263232
   0.83333333  0.58333333  0.38179910
   0.75791356  0.24045363  0.56170322
   0.91991782  0.41501887  0.47110466
   0.41550332  0.42025634  0.47163867
   0.58333333  0.33333333  0.38179910
   0.66838500  0.16138418  0.47255801
   0.33333333  0.33333333  0.38179910
   0.25589233  0.24577519  0.56102401
   0.48692799  0.75227193  0.56217058
   0.41473190  0.91719539  0.47209500
   0.58333333  0.83333333  0.38179910
   0.24478324  0.50758115  0.55913856
   0.48430925  0.50801921  0.56247400
   0.16523534  0.91484375  0.46850702
   0.41633528  0.16547808  0.47261347
   0.48850015  0.25770075  0.56317990
   0.83333333  0.08333333  0.38179910
   0.83463564  0.58551451  0.61229916
   0.57591836  0.58685758  0.61274815
   0.57875524  0.84006540  0.60950879
   0.09103914  0.33265201  0.61179094
   0.85320542  0.83263866  0.60702404
   0.08108274  0.06731804  0.61030722
   0.58785700  0.33092989  0.61246177
   0.58557781  0.07744218  0.60880633
   0.24208262  0.75302665  0.55639902
   0.33333333  0.83333333  0.38179910
   0.00249932 -0.00844968  0.56061979
   0.16175350  0.66818283  0.46971471
   0.33333333  0.58333333  0.38179910
   0.08333333  0.33333333  0.38179910
   0.16259019  0.42005867  0.46980406
   0.08333333  0.58333333  0.38179910
   0.16683627  0.16752232  0.46809729
   0.33333333  0.08333333  0.38179910
   0.49061693  0.00528580  0.56471034
   0.91754919  0.66745726  0.47233193
   0.00780874  0.75117806  0.55828082
   0.91728521  0.91479772  0.47271671
   0.58333333  0.08333333  0.38179910
   0.08333333  0.08333333  0.38179910
   0.83333333  0.33333333  0.38179910
   0.75814458  0.00289279  0.56391367
   0.67010571  0.91340561  0.47267383
   0.58333333  0.58333333  0.38179910
   0.41626517  0.66678762  0.47071094
   0.66731253  0.41795920  0.47042145
   0.75175646  0.74943447  0.56507121
   0.08333333  0.83333333  0.38179910
Direct configuration=     9
   0.25177662 -0.00194517  0.56233719
   0.83333333  0.83333333  0.38179910
  -0.00480959  0.24921851  0.56416952
   0.75168336  0.49016221  0.56014256
   0.91855466  0.16546998  0.47186250
   0.00727898  0.50988425  0.56302492
   0.66726567  0.66703672  0.47341012
   0.83333333  0.58333333  0.38179910
   0.75799648  0.24112291  0.56248591
   0.92009518  0.41498967  0.47176659
   0.41565455  0.42039245  0.47180085
   0.58333333  0.33333333  0.38179910
   0.66817524  0.16164908  0.47318859
   0.33333333  0.33333333  0.38179910
   0.25432956  0.24674739  0.56122773
   0.48623066  0.75414229  0.56284060
   0.41522177  0.91718076  0.47260037
   0.58333333  0.83333333  0.38179910
   0.24591000  0.50718318  0.55999350
   0.48300347  0.50815063  0.56331474
   0.16529478  0.91513973  0.46870505
   0.41645836  0.16525370  0.47286821
   0.48813897  0.25789431  0.56419412
   0.83333333  0.08333333  0.38179910
   0.83477997  0.58451863  0.61270915
   0.57530860  0.58683404  0.61362891
   0.57806228  0.84012658  0.60991436
   0.09214634  0.33222980  0.61263110
   0.85636518  0.83300191  0.60751263
   0.08118239  0.06490520  0.61163429
   0.58935150  0.33011794  0.61328164
   0.58649722  0.07750965  0.60915204
   0.24195187  0.75423350  0.55700379
   0.33333333  0.83333333  0.38179910
   0.00250370 -0.00926814  0.56048812
   0.16237979  0.66779531  0.46979086
   0.33333333  0.58333333  0.38179910
   0.08333333  0.33333333  0.38179910
   0.16329118  0.41954346  0.47032566
   0.08333333  0.58333333  0.38179910
   0.16685262  0.16752906  0.46886635
   0.33333333  0.08333333  0.38179910
   0.49106525  0.00387162  0.56501165
   0.91693062  0.66763929  0.47286770
   0.00770387  0.75134587  0.55832301
   0.91653049  0.91536822  0.47286890
   0.58333333  0.08333333  0.38179910
   0.08333333  0.08333333  0.38179910
   0.83333333  0.33333333  0.38179910
   0.75836865  0.00145582  0.56466433
   0.66987354  0.91345835  0.47395848
   0.58333333  0.58333333  0.38179910
   0.41600267  0.66635118  0.47093968
   0.66710993  0.41728204  0.47124280
   0.75158046  0.75134178  0.56501734
   0.08333333  0.83333333  0.38179910
Direct configuration=    10
   0.24927678 -0.00085021  0.56301388
   0.83333333  0.83333333  0.38179910
  -0.00307469  0.24736604  0.56532413
   0.75097818  0.49047033  0.56042367
   0.91817996  0.16571173  0.47261488
   0.00496757  0.51081394  0.56444869
   0.66716640  0.66716961  0.47451665
   0.83333333  0.58333333  0.38179910
   0.75811445  0.24207504  0.56359940
   0.92034752  0.41494813  0.47270828
   0.41586969  0.42058607  0.47203159
   0.58333333  0.33333333  0.38179910
   0.66787683  0.16202594  0.47408569
   0.33333333  0.33333333  0.38179910
   0.25210631  0.24813047  0.56151755
   0.48523861  0.75680315  0.56379379
   0.41591867  0.91715994  0.47331931
   0.58333333  0.83333333  0.38179910
   0.24751298  0.50661703  0.56120976
   0.48114582  0.50833759  0.56451082
   0.16537935  0.91556081  0.46898676
   0.41663347  0.16493450  0.47323060
   0.48762514  0.25816967  0.56563698
   0.83333333  0.08333333  0.38179910
   0.83498531  0.58310186  0.61329242
   0.57444114  0.58680054  0.61488191
   0.57707646  0.84021363  0.61049134
   0.09372148  0.33162916  0.61382634
   0.86086037  0.83351868  0.60820772
   0.08132416  0.06147261  0.61352223
   0.59147763  0.32896284  0.61444803
   0.58780520  0.07760562  0.60964386
   0.24176585  0.75595041  0.55786415
   0.33333333  0.83333333  0.38179910
   0.00250993 -0.01043252  0.56030081
   0.16327076  0.66724401  0.46989919
   0.33333333  0.58333333  0.38179910
   0.08333333  0.33333333  0.38179910
   0.16428844  0.41881049  0.47106771
   0.08333333  0.58333333  0.38179910
   0.16687587  0.16753865  0.46996045
   0.33333333  0.08333333  0.38179910
   0.49170304  0.00185976  0.56544031
   0.91605062  0.66789825  0.47362991
   0.00755468  0.75158460  0.55838303
   0.91545680  0.91617984  0.47308540
   0.58333333  0.08333333  0.38179910
   0.08333333  0.08333333  0.38179910
   0.83333333  0.33333333  0.38179910
   0.75868743 -0.00058846  0.56573224
   0.66954326  0.91353338  0.47578607
   0.58333333  0.58333333  0.38179910
   0.41562922  0.66573028  0.47126510
   0.66682170  0.41631869  0.47241129
   0.75133007  0.75405519  0.56494071
   0.08333333  0.83333333  0.38179910
Direct configuration=    11
   0.24869630 -0.00064199  0.56347789
   0.83333333  0.83333333  0.38179910
  -0.00328305  0.24673824  0.56610276
   0.75070193  0.49099211  0.56095680
   0.91793608  0.16610179  0.47291021
   0.00466742  0.51094791  0.56536854
   0.66685699  0.66706471  0.47483775
   0.83333333  0.58333333  0.38179910
   0.75888109  0.24182458  0.56429359
   0.92047437  0.41482150  0.47306047
   0.41587591  0.42048478  0.47211221
   0.58333333  0.33333333  0.38179910
   0.66762517  0.16214986  0.47453556
   0.33333333  0.33333333  0.38179910
   0.25235537  0.24837908  0.56155901
   0.48474793  0.75720417  0.56460303
   0.41595594  0.91701984  0.47352628
   0.58333333  0.83333333  0.38179910
   0.24637195  0.50682881  0.56187823
   0.48136894  0.50891138  0.56551031
   0.16556208  0.91555373  0.46898218
   0.41669726  0.16495297  0.47341562
   0.48743201  0.25765922  0.56659117
   0.83333333  0.08333333  0.38179910
   0.83401673  0.58334073  0.61345869
   0.57361379  0.58705179  0.61548309
   0.57720670  0.84004362  0.61096413
   0.09407118  0.33180572  0.61492434
   0.86330531  0.83356620  0.60913963
   0.08090746  0.05914517  0.61472657
   0.59249703  0.32840893  0.61542704
   0.58789563  0.07730171  0.61002360
   0.24231171  0.75608420  0.55832522
   0.33333333  0.83333333  0.38179910
   0.00204758 -0.00981431  0.56039767
   0.16348905  0.66713389  0.47004728
   0.33333333  0.58333333  0.38179910
   0.08333333  0.33333333  0.38179910
   0.16449166  0.41883272  0.47145212
   0.08333333  0.58333333  0.38179910
   0.16681127  0.16751858  0.47036549
   0.33333333  0.08333333  0.38179910
   0.49174961  0.00234495  0.56591576
   0.91604959  0.66784002  0.47388096
   0.00793549  0.75090680  0.55822075
   0.91506972  0.91632970  0.47301388
   0.58333333  0.08333333  0.38179910
   0.08333333  0.08333333  0.38179910
   0.83333333  0.33333333  0.38179910
   0.75902027 -0.00090285  0.56617885
   0.66940363  0.91387525  0.47652668
   0.58333333  0.58333333  0.38179910
   0.41554807  0.66570338  0.47146195
   0.66665175  0.41603689  0.47288040
   0.75167061  0.75416626  0.56548555
   0.08333333  0.83333333  0.38179910
Direct configuration=    12
   0.24695486 -0.00001734  0.56486992
   0.83333333  0.83333333  0.38179910
  -0.00390813  0.24485486  0.56843868
   0.74987319  0.49255745  0.56255620
   0.91720443  0.16727197  0.47379621
   0.00376696  0.51134982  0.56812807
   0.66592875  0.66674999  0.47580105
   0.83333333  0.58333333  0.38179910
   0.76118100  0.24107318  0.56637618
   0.92085493  0.41444161  0.47411702
   0.41589459  0.42018092  0.47235407
   0.58333333  0.33333333  0.38179910
   0.66687021  0.16252161  0.47588518
   0.33333333  0.33333333  0.38179910
   0.25310257  0.24912490  0.56168339
   0.48327591  0.75840725  0.56703072
   0.41606776  0.91659954  0.47414718
   0.58333333  0.83333333  0.38179910
   0.24294887  0.50746417  0.56388364
   0.48203829  0.51063278  0.56850878
   0.16611030  0.91553248  0.46896843
   0.41688862  0.16500838  0.47397066
   0.48685262  0.25612786  0.56945375
   0.83333333  0.08333333  0.38179910
   0.83111101  0.58405733  0.61395751
   0.57113174  0.58780554  0.61728663
   0.57759745  0.83953359  0.61238250
   0.09512031  0.33233539  0.61821835
   0.87064012  0.83370876  0.61193538
   0.07965736  0.05216288  0.61833958
   0.59555521  0.32674721  0.61836406
   0.58816689  0.07639000  0.61116280
   0.24394929  0.75648554  0.55970845
   0.33333333  0.83333333  0.38179910
   0.00066055 -0.00795970  0.56068825
   0.16414392  0.66680350  0.47049155
   0.33333333  0.58333333  0.38179910
   0.08333333  0.33333333  0.38179910
   0.16510134  0.41889943  0.47260535
   0.08333333  0.58333333  0.38179910
   0.16661747  0.16745838  0.47158060
   0.33333333  0.08333333  0.38179910
   0.49188931  0.00380050  0.56734214
   0.91604649  0.66766531  0.47463411
   0.00907789  0.74887342  0.55773394
   0.91390851  0.91677929  0.47279932
   0.58333333  0.08333333  0.38179910
   0.08333333  0.08333333  0.38179910
   0.83333333  0.33333333  0.38179910
   0.76001877 -0.00184601  0.56751868
   0.66898475  0.91490085  0.47874850
   0.58333333  0.58333333  0.38179910
   0.41530463  0.66562270  0.47205247
   0.66614189  0.41519147  0.47428772
   0.75269224  0.75449945  0.56712006
   0.08333333  0.83333333  0.38179910
Direct configuration=    13
   0.24654476  0.00043375  0.56548198
   0.83333333  0.83333333  0.38179910
  -0.00358004  0.24482520  0.56959924
   0.74982095  0.49265984  0.56305854
   0.91704069  0.16758631  0.47393756
   0.00455385  0.51039173  0.56917922
   0.66563597  0.66658265  0.47593165
   0.83333333  0.58333333  0.38179910
   0.76109674  0.24076285  0.56720425
   0.92085727  0.41447853  0.47439145
   0.41577611  0.42013683  0.47272916
   0.58333333  0.33333333  0.38179910
   0.66666081  0.16268371  0.47633636
   0.33333333  0.33333333  0.38179910
   0.25246309  0.24941400  0.56197422
   0.48283712  0.75863931  0.56799948
   0.41592953  0.91644654  0.47434090
   0.58333333  0.83333333  0.38179910
   0.24270920  0.50749923  0.56443314
   0.48185760  0.50979761  0.56954383
   0.16608347  0.91544841  0.46897582
   0.41691779  0.16506383  0.47408400
   0.48688012  0.25726016  0.57052323
   0.83333333  0.08333333  0.38179910
   0.82931795  0.58510667  0.61433683
   0.57028683  0.58858232  0.61815444
   0.57820357  0.83952702  0.61286179
   0.09549236  0.33246073  0.61906149
   0.87332247  0.83379632  0.61279363
   0.07914189  0.04946407  0.61927736
   0.59622248  0.32630630  0.61924649
   0.58840065  0.07550772  0.61182077
   0.24423312  0.75607799  0.56005853
   0.33333333  0.83333333  0.38179910
   0.00065063 -0.00751697  0.56097638
   0.16421534  0.66685662  0.47072367
   0.33333333  0.58333333  0.38179910
   0.08333333  0.33333333  0.38179910
   0.16490255  0.41923387  0.47288287
   0.08333333  0.58333333  0.38179910
   0.16651543  0.16742274  0.47178575
   0.33333333  0.08333333  0.38179910
   0.49141427  0.00430373  0.56798728
   0.91618435  0.66735258  0.47473538
   0.00869938  0.74918705  0.55768436
   0.91390833  0.91673934  0.47267919
   0.58333333  0.08333333  0.38179910
   0.08333333  0.08333333  0.38179910
   0.83333333  0.33333333  0.38179910
   0.76103171 -0.00234270  0.56808950
   0.66895427  0.91505770  0.47920028
   0.58333333  0.58333333  0.38179910
   0.41542669  0.66565563  0.47229107
   0.66598548  0.41525994  0.47466997
   0.75321573  0.75406707  0.56808091
   0.08333333  0.83333333  0.38179910
Direct configuration=    14
   0.24540841  0.00168368  0.56717794
   0.83333333  0.83333333  0.38179910
  -0.00267094  0.24474301  0.57281504
   0.74967621  0.49294355  0.56445047
   0.91658697  0.16845733  0.47432922
   0.00673426  0.50773697  0.57209184
   0.66482471  0.66611894  0.47629354
   0.83333333  0.58333333  0.38179910
   0.76086329  0.23990293  0.56949875
   0.92086374  0.41458084  0.47515187
   0.41544780  0.42001466  0.47376851
   0.58333333  0.33333333  0.38179910
   0.66608058  0.16313287  0.47758655
   0.33333333  0.33333333  0.38179910
   0.25069117  0.25021507  0.56278007
   0.48162126  0.75928233  0.57068382
   0.41554651  0.91602259  0.47487767
   0.58333333  0.83333333  0.38179910
   0.24204511  0.50759636  0.56595577
   0.48135693  0.50748344  0.57241185
   0.16600915  0.91521545  0.46899630
   0.41699861  0.16521747  0.47439803
   0.48695632  0.26039768  0.57348666
   0.83333333  0.08333333  0.38179910
   0.82434952  0.58801429  0.61538791
   0.56794566  0.59073472  0.62055905
   0.57988308  0.83950884  0.61418988
   0.09652326  0.33280804  0.62139776
   0.88075503  0.83403896  0.61517178
   0.07771359  0.04198592  0.62187585
   0.59807142  0.32508458  0.62169161
   0.58904838  0.07306303  0.61364395
   0.24501961  0.75494872  0.56102859
   0.33333333  0.83333333  0.38179910
   0.00062312 -0.00629019  0.56177479
   0.16441325  0.66700382  0.47136688
   0.33333333  0.58333333  0.38179910
   0.08333333  0.33333333  0.38179910
   0.16435173  0.42016056  0.47365185
   0.08333333  0.58333333  0.38179910
   0.16623268  0.16732397  0.47235419
   0.33333333  0.08333333  0.38179910
   0.49009797  0.00569811  0.56977491
   0.91656636  0.66648603  0.47501598
   0.00765058  0.75005609  0.55754697