       N       E                     dE             d eps       ncg     rms          rms(c)
DAV:   1     0.320059902876E+04    0.32006E+04   -0.18980E+05  3672   0.112E+03
DAV:   2     0.151537840325E+02   -0.31854E+04   -0.29306E+04  4380   0.263E+02
DAV:   3    -0.200979771726E+03   -0.21613E+03   -0.20075E+03  4152   0.651E+01
DAV:   4    -0.206798024243E+03   -0.58183E+01   -0.57546E+01  4212   0.109E+01
DAV:   5    -0.206998143710E+03   -0.20012E+00   -0.19950E+00  4392   0.203E+00    0.622E+01
RMM:   6    -0.211691538714E+03   -0.46934E+01   -0.10168E+02  3672   0.157E+01    0.595E+01
RMM:   7    -0.216539912883E+03   -0.48484E+01   -0.61784E+01  3681   0.122E+01    0.522E+01
RMM:   8    -0.215380338687E+03    0.11596E+01   -0.98401E+01  3672   0.144E+01    0.404E+01
RMM:   9    -0.208986017633E+03    0.63943E+01   -0.30549E+01  3675   0.891E+00    0.325E+01
RMM:  10    -0.201237653787E+03    0.77484E+01   -0.17905E+01  3681   0.699E+00    0.223E+01
RMM:  11    -0.197088890328E+03    0.41488E+01   -0.13789E+01  3679   0.591E+00    0.246E+01
RMM:  12    -0.191594079456E+03    0.54948E+01   -0.76268E+00  3682   0.441E+00    0.109E+01
RMM:  13    -0.190188467225E+03    0.14056E+01   -0.10865E+00  3680   0.160E+00    0.811E+00
RMM:  14    -0.190066872754E+03    0.12159E+00   -0.74352E-01  3681   0.129E+00    0.748E+00
RMM:  15    -0.189742949642E+03    0.32392E+00   -0.34742E-01  3680   0.859E-01    0.595E+00
RMM:  16    -0.189638062805E+03    0.10489E+00   -0.49523E-01  3679   0.108E+00    0.506E+00
RMM:  17    -0.189379802225E+03    0.25826E+00   -0.43552E-01  3680   0.989E-01    0.289E+00
RMM:  18    -0.189302720431E+03    0.77082E-01   -0.11083E-01  3680   0.503E-01    0.161E+00
RMM:  19    -0.189282607909E+03    0.20113E-01   -0.19380E-02  3686   0.210E-01    0.958E-01
RMM:  20    -0.189281027396E+03    0.15805E-02   -0.83150E-03  3683   0.143E-01    0.838E-01
RMM:  21    -0.189279061210E+03    0.19662E-02   -0.86832E-03  3681   0.140E-01    0.843E-01
RMM:  22    -0.189273781559E+03    0.52797E-02   -0.56858E-03  3681   0.114E-01    0.550E-01
RMM:  23    -0.189271030315E+03    0.27512E-02   -0.23014E-03  3680   0.713E-02    0.296E-01
RMM:  24    -0.189270661585E+03    0.36873E-03   -0.14223E-03  3680   0.555E-02    0.234E-01
RMM:  25    -0.189270298041E+03    0.36354E-03   -0.65897E-04  3680   0.391E-02    0.734E-02
RMM:  26    -0.189270568114E+03   -0.27007E-03   -0.18660E-04  3681   0.205E-02    0.650E-02
RMM:  27    -0.189270847321E+03   -0.27921E-03   -0.12134E-04  3678   0.165E-02    0.688E-02
RMM:  28    -0.189271171977E+03   -0.32466E-03   -0.69417E-05  3678   0.118E-02    0.428E-02
RMM:  29    -0.189271535329E+03   -0.36335E-03   -0.45365E-05  3672   0.944E-03    0.274E-02
RMM:  30    -0.189272065313E+03   -0.52998E-03   -0.30049E-05  3663   0.716E-03    0.218E-02
RMM:  31    -0.189272418422E+03   -0.35311E-03   -0.18311E-05  3518   0.595E-03    0.196E-02
RMM:  32    -0.189273290943E+03   -0.87252E-03   -0.63714E-05  3672   0.107E-02    0.187E-02
RMM:  33    -0.189273466488E+03   -0.17554E-03   -0.15367E-05  3085   0.481E-03    0.143E-02
RMM:  34    -0.189273614536E+03   -0.14805E-03   -0.94566E-06  2879   0.389E-03    0.660E-03
RMM:  35    -0.189273696637E+03   -0.82102E-04   -0.27507E-06  2428   0.210E-03    0.428E-03
RMM:  36    -0.189273776861E+03   -0.80224E-04   -0.18447E-06  2281   0.189E-03    0.248E-03
RMM:  37    -0.189273824870E+03   -0.48009E-04   -0.84768E-07  2162   0.125E-03    0.254E-03
RMM:  38    -0.189273850969E+03   -0.26099E-04   -0.46525E-07  2118   0.950E-04    0.226E-03
RMM:  39    -0.189273876506E+03   -0.25537E-04   -0.48904E-07  2132   0.957E-04    0.165E-03
RMM:  40    -0.189273884663E+03   -0.81568E-05   -0.23189E-07  1453   0.614E-04    0.128E-03
RMM:  41    -0.189273888292E+03   -0.36291E-05   -0.12088E-07  1335   0.507E-04    0.782E-04
RMM:  42    -0.189273889634E+03   -0.13417E-05   -0.36901E-08   884   0.385E-04    0.575E-04
RMM:  43    -0.189273891174E+03   -0.15405E-05   -0.36881E-08   908   0.377E-04    0.443E-04
RMM:  44    -0.189273892545E+03   -0.13707E-05   -0.46492E-08   920   0.362E-04    0.283E-04
RMM:  45    -0.189273893306E+03   -0.76149E-06   -0.70707E-09   489   0.313E-04
   1 F= -.18927389E+03 E0= -.18914948E+03  d E =-.189274E+03
       N       E                     dE             d eps       ncg     rms          rms(c)
DAV:   1    -0.189744195282E+03   -0.47030E+00   -0.14860E+02  3708   0.187E+01    0.183E+00
RMM:   2    -0.189913163491E+03   -0.16897E+00   -0.16385E+00  3684   0.273E+00    0.160E+00
RMM:   3    -0.189968639776E+03   -0.55476E-01   -0.14711E-01  3709   0.653E-01    0.269E+00
RMM:   4    -0.189895179158E+03    0.73461E-01   -0.49149E-02  3687   0.360E-01    0.979E-01
RMM:   5    -0.189894340415E+03    0.83874E-03   -0.27087E-02  3680   0.264E-01    0.835E-01
RMM:   6    -0.189889377360E+03    0.49631E-02   -0.16754E-02  3684   0.207E-01    0.438E-01
RMM:   7    -0.189888098304E+03    0.12791E-02   -0.42189E-03  3681   0.105E-01    0.308E-01
RMM:   8    -0.189887042506E+03    0.10558E-02   -0.13546E-03  3683   0.572E-02    0.161E-01
RMM:   9    -0.189886773307E+03    0.26920E-03   -0.57235E-04  3682   0.373E-02    0.874E-02
RMM:  10    -0.189886687404E+03    0.85903E-04   -0.26600E-04  3683   0.253E-02    0.537E-02
RMM:  11    -0.189886673998E+03    0.13406E-04   -0.62864E-05  3683   0.125E-02    0.379E-02
RMM:  12    -0.189886670138E+03    0.38602E-05   -0.20550E-05  3672   0.727E-03    0.277E-02
RMM:  13    -0.189886665689E+03    0.44495E-05   -0.95847E-06  3464   0.501E-03    0.156E-02
RMM:  14    -0.189886664857E+03    0.83175E-06   -0.33258E-06  2603   0.301E-03
   2 F= -.18988666E+03 E0= -.18976415E+03  d E =-.612772E+00
       N       E                     dE             d eps       ncg     rms          rms(c)
DAV:   1    -0.189565192949E+03    0.32147E+00   -0.13785E+03  3672   0.575E+01    0.477E+00
RMM:   2    -0.191021600278E+03   -0.14564E+01   -0.14622E+01  3683   0.817E+00    0.379E+00
RMM:   3    -0.191427837418E+03   -0.40624E+00   -0.10995E+00  3707   0.179E+00    0.687E+00
RMM:   4    -0.190909613881E+03    0.51822E+00   -0.31634E-01  3686   0.925E-01    0.254E+00
RMM:   5    -0.190893498307E+03    0.16116E-01   -0.16349E-01  3680   0.639E-01    0.215E+00
RMM:   6    -0.190865547225E+03    0.27951E-01   -0.15226E-01  3682   0.608E-01    0.129E+00
RMM:   7    -0.190852265774E+03    0.13281E-01   -0.41076E-02  3681   0.321E-01    0.912E-01
RMM:   8    -0.190843817442E+03    0.84483E-02   -0.13549E-02  3682   0.182E-01    0.523E-01
RMM:   9    -0.190840887518E+03    0.29299E-02   -0.48904E-03  3681   0.109E-01    0.264E-01
RMM:  10    -0.190840135042E+03    0.75248E-03   -0.21358E-03  3683   0.711E-02    0.158E-01
RMM:  11    -0.190840063891E+03    0.71151E-04   -0.65246E-04  3683   0.392E-02    0.127E-01
RMM:  12    -0.190839946075E+03    0.11782E-03   -0.28122E-04  3685   0.267E-02    0.551E-02
RMM:  13    -0.190839942722E+03    0.33529E-05   -0.78296E-05  3681   0.141E-02    0.331E-02
RMM:  14    -0.190839937264E+03    0.54582E-05   -0.22229E-05  3671   0.767E-03    0.138E-02
RMM:  15    -0.190839941724E+03   -0.44605E-05   -0.56931E-06  3042   0.377E-03    0.121E-02
RMM:  16    -0.190839944168E+03   -0.24435E-05   -0.23538E-06  2150   0.267E-03    0.412E-03
RMM:  17    -0.190839950169E+03   -0.60017E-05   -0.12932E-06  2080   0.200E-03    0.434E-03
RMM:  18    -0.190839955472E+03   -0.53027E-05   -0.67063E-07  2069   0.150E-03    0.214E-03
RMM:  19    -0.190839958615E+03   -0.31425E-05   -0.19179E-07  1958   0.751E-04    0.160E-03
RMM:  20    -0.190839961689E+03   -0.30739E-05   -0.64948E-08  1061   0.463E-04    0.126E-03
RMM:  21    -0.190839966321E+03   -0.46326E-05   -0.11057E-07  1473   0.516E-04    0.140E-03
RMM:  22    -0.190839971335E+03   -0.50140E-05   -0.14855E-07  1584   0.537E-04    0.134E-03
RMM:  23    -0.190839976780E+03   -0.54452E-05   -0.26771E-07  1640   0.602E-04    0.106E-03
RMM:  24    -0.190839978128E+03   -0.13479E-05   -0.64783E-08   784   0.395E-04    0.712E-04
RMM:  25    -0.190839979093E+03   -0.96465E-06   -0.61772E-08   921   0.421E-04
   3 F= -.19083998E+03 E0= -.19072298E+03  d E =-.156609E+01
       N       E                     dE             d eps       ncg     rms          rms(c)
DAV:   1    -0.190781183088E+03    0.58795E-01   -0.12899E+02  3684   0.173E+01    0.128E+00
RMM:   2    -0.190932601758E+03   -0.15142E+00   -0.14320E+00  3683   0.254E+00    0.151E+00
RMM:   3    -0.190938506537E+03   -0.59048E-02   -0.10297E-01  3712   0.555E-01    0.161E+00
RMM:   4    -0.190911767891E+03    0.26739E-01   -0.21286E-02  3686   0.245E-01    0.724E-01
RMM:   5    -0.190910171770E+03    0.15961E-02   -0.12880E-02  3680   0.181E-01    0.634E-01
RMM:   6    -0.190907942556E+03    0.22292E-02   -0.18761E-02  3681   0.212E-01    0.374E-01
RMM:   7    -0.190906564348E+03    0.13782E-02   -0.38321E-03  3681   0.962E-02    0.265E-01
RMM:   8    -0.190905791158E+03    0.77319E-03   -0.11148E-03  3683   0.531E-02    0.142E-01
RMM:   9    -0.190905576327E+03    0.21483E-03   -0.48624E-04  3681   0.343E-02    0.924E-02
RMM:  10    -0.190905466325E+03    0.11000E-03   -0.24718E-04  3680   0.238E-02    0.471E-02
RMM:  11    -0.190905457883E+03    0.84416E-05   -0.66310E-05  3681   0.124E-02    0.366E-02
RMM:  12    -0.190905452062E+03    0.58206E-05   -0.34843E-05  3673   0.915E-03    0.232E-02
RMM:  13    -0.190905449413E+03    0.26499E-05   -0.10872E-05  3521   0.524E-03    0.132E-02
RMM:  14    -0.190905449154E+03    0.25822E-06   -0.26315E-06  2317   0.278E-03
   4 F= -.19090545E+03 E0= -.19079013E+03  d E =-.163156E+01
       N       E                     dE             d eps       ncg     rms          rms(c)
DAV:   1    -0.191239830380E+03   -0.33438E+00   -0.20888E+02  3672   0.223E+01    0.173E+00
RMM:   2    -0.191481532971E+03   -0.24170E+00   -0.22530E+00  3683   0.322E+00    0.181E+00
RMM:   3    -0.191516507632E+03   -0.34975E-01   -0.17738E-01  3698   0.718E-01    0.272E+00
RMM:   4    -0.191447038564E+03    0.69469E-01   -0.31432E-02  3686   0.309E-01    0.963E-01
RMM:   5    -0.191448160148E+03   -0.11216E-02   -0.23348E-02  3680   0.245E-01    0.954E-01
RMM:   6    -0.191442065139E+03    0.60950E-02   -0.26655E-02  3681   0.256E-01    0.563E-01
RMM:   7    -0.191439486601E+03    0.25785E-02   -0.68447E-03  3681   0.131E-01    0.379E-01
RMM:   8    -0.191438044071E+03    0.14425E-02   -0.18846E-03  3684   0.694E-02    0.189E-01
RMM:   9    -0.191437643906E+03    0.40016E-03   -0.69679E-04  3681   0.425E-02    0.908E-02
RMM:  10    -0.191437557956E+03    0.85951E-04   -0.22298E-04  3681   0.231E-02    0.566E-02
RMM:  11    -0.191437531585E+03    0.26371E-04   -0.96422E-05  3682   0.152E-02    0.384E-02
RMM:  12    -0.191437524042E+03    0.75431E-05   -0.52074E-05  3681   0.111E-02    0.212E-02
RMM:  13    -0.191437522927E+03    0.11147E-05   -0.13215E-05  3670   0.576E-03    0.130E-02
RMM:  14    -0.191437523772E+03   -0.84528E-06   -0.23726E-06  2282   0.269E-03
   5 F= -.19143752E+03 E0= -.19132411E+03  d E =-.532075E+00
       N       E                     dE             d eps       ncg     rms          rms(c)
DAV:   1    -0.190542111997E+03    0.89541E+00   -0.17976E+03  3672   0.663E+01    0.427E+00
RMM:   2    -0.192456479116E+03   -0.19144E+01   -0.18505E+01  3683   0.930E+00    0.446E+00
RMM:   3    -0.192638878845E+03   -0.18240E+00   -0.12135E+00  3700   0.189E+00    0.633E+00
RMM:   4    -0.192257313649E+03    0.38157E+00   -0.19424E-01  3685   0.764E-01    0.258E+00
RMM:   5    -0.192236419529E+03    0.20894E-01   -0.11013E-01  3681   0.526E-01    0.238E+00
RMM:   6    -0.192210179883E+03    0.26240E-01   -0.23580E-01  3680   0.749E-01    0.169E+00
RMM:   7    -0.192184599731E+03    0.25580E-01   -0.82270E-02  3680   0.445E-01    0.122E+00
RMM:   8    -0.192170023326E+03    0.14576E-01   -0.20264E-02  3683   0.229E-01    0.589E-01
RMM:   9    -0.192166338339E+03    0.36850E-02   -0.58444E-03  3680   0.123E-01    0.318E-01
RMM:  10    -0.192165372029E+03    0.96631E-03   -0.23193E-03  3679   0.751E-02    0.223E-01
RMM:  11    -0.192165060147E+03    0.31188E-03   -0.16107E-03  3681   0.616E-02    0.186E-01
RMM:  12    -0.192164740765E+03    0.31938E-03   -0.90159E-04  3682   0.466E-02    0.831E-02
RMM:  13    -0.192164733004E+03    0.77607E-05   -0.21930E-04  3682   0.234E-02    0.622E-02
RMM:  14    -0.192164702317E+03    0.30687E-04   -0.51509E-05  3682   0.118E-02    0.247E-02
RMM:  15    -0.192164702720E+03   -0.40270E-06   -0.11411E-05  3666   0.541E-03    0.151E-02
RMM:  16    -0.192164705514E+03   -0.27940E-05   -0.63380E-06  3444   0.397E-03    0.606E-03
RMM:  17    -0.192164711646E+03   -0.61322E-05   -0.18058E-06  2127   0.228E-03    0.545E-03
RMM:  18    -0.192164717515E+03   -0.58685E-05   -0.10599E-06  2082   0.188E-03    0.241E-03
RMM:  19    -0.192164721898E+03   -0.43837E-05   -0.40594E-07  2043   0.113E-03    0.175E-03
RMM:  20    -0.192164726201E+03   -0.43032E-05   -0.18540E-07  2047   0.694E-04    0.109E-03
RMM:  21    -0.192164731856E+03   -0.56544E-05   -0.14227E-07  1294   0.525E-04    0.128E-03
RMM:  22    -0.192164736538E+03   -0.46820E-05   -0.15843E-07  1592   0.550E-04    0.120E-03
RMM:  23    -0.192164743536E+03   -0.69984E-05   -0.38173E-07  1854   0.698E-04    0.953E-04
RMM:  24    -0.192164744826E+03   -0.12897E-05   -0.10354E-07  1073   0.408E-04    0.673E-04
RMM:  25    -0.192164746031E+03   -0.12053E-05   -0.81279E-08   954   0.394E-04    0.393E-04
RMM:  26    -0.192164746450E+03   -0.41859E-06   -0.35125E-08   692   0.357E-04
   6 F= -.19216475E+03 E0= -.19205638E+03  d E =-.125930E+01
       N       E                     dE             d eps       ncg     rms          rms(c)
DAV:   1    -0.192143434640E+03    0.21311E-01   -0.34234E+01  3720   0.900E+00    0.559E-01
RMM:   2    -0.192184520638E+03   -0.41086E-01   -0.37798E-01  3683   0.132E+00    0.789E-01
RMM:   3    -0.192184061122E+03    0.45952E-03   -0.26521E-02  3708   0.282E-01    0.775E-01
RMM:   4    -0.192177986786E+03    0.60743E-02   -0.32884E-03  3684   0.102E-01    0.325E-01
RMM:   5    -0.192177903139E+03    0.83647E-04   -0.19836E-03  3681   0.717E-02    0.321E-01
RMM:   6    -0.192177124890E+03    0.77825E-03   -0.50974E-03  3681   0.111E-01    0.194E-01
RMM:   7    -0.192176897873E+03    0.22702E-03   -0.11816E-03  3681   0.536E-02    0.151E-01
RMM:   8    -0.192176670239E+03    0.22763E-03   -0.27114E-04  3685   0.267E-02    0.678E-02
RMM:   9    -0.192176627684E+03    0.42555E-04   -0.92829E-05  3678   0.154E-02    0.434E-02
RMM:  10    -0.192176606858E+03    0.20826E-04   -0.42882E-05  3681   0.100E-02    0.249E-02
RMM:  11    -0.192176602426E+03    0.44325E-05   -0.19533E-05  3672   0.678E-03    0.171E-02
RMM:  12    -0.192176600860E+03    0.15653E-05   -0.14386E-05  3672   0.578E-03    0.986E-03
RMM:  13    -0.192176600604E+03    0.25612E-06   -0.28149E-06  2316   0.281E-03
   7 F= -.19217660E+03 E0= -.19206883E+03  d E =-.127115E+01
       N       E                     dE             d eps       ncg     rms          rms(c)
DAV:   1    -0.192214759529E+03   -0.38159E-01   -0.23416E+02  3672   0.237E+01    0.168E+00
RMM:   2    -0.192484240509E+03   -0.26948E+00   -0.25627E+00  3683   0.343E+00    0.177E+00
RMM:   3    -0.192524994748E+03   -0.40754E-01   -0.18901E-01  3696   0.734E-01    0.278E+00
RMM:   4    -0.192451647844E+03    0.73347E-01   -0.29927E-02  3684   0.302E-01    0.966E-01
RMM:   5    -0.192451541814E+03    0.10603E-03   -0.17932E-02  3680   0.214E-01    0.931E-01
RMM:   6    -0.192443984503E+03    0.75573E-02   -0.28776E-02  3681   0.264E-01    0.421E-01
RMM:   7    -0.192442759887E+03    0.12246E-02   -0.67168E-03  3681   0.127E-01    0.359E-01
RMM:   8    -0.192441349242E+03    0.14106E-02   -0.16756E-03  3682   0.675E-02    0.159E-01
RMM:   9    -0.192441122648E+03    0.22659E-03   -0.46535E-04  3681   0.343E-02    0.957E-02
RMM:  10    -0.192441020805E+03    0.10184E-03   -0.19537E-04  3679   0.215E-02    0.568E-02
RMM:  11    -0.192440996166E+03    0.24639E-04   -0.11931E-04  3681   0.167E-02    0.408E-02
RMM:  12    -0.192440985619E+03    0.10547E-04   -0.74700E-05  3682   0.132E-02    0.242E-02
RMM:  13    -0.192440983883E+03    0.17358E-05   -0.15851E-05  3672   0.635E-03    0.151E-02
RMM:  14    -0.192440983223E+03    0.65980E-06   -0.26649E-06  2372   0.288E-03
   8 F= -.19244098E+03 E0= -.19233311E+03  d E =-.264383E+00
       N       E                     dE             d eps       ncg     rms          rms(c)
DAV:   1    -0.192342817741E+03    0.98166E-01   -0.16541E+02  3672   0.199E+01    0.133E+00
RMM:   2    -0.192536653280E+03   -0.19384E+00   -0.18230E+00  3683   0.289E+00    0.158E+00
RMM:   3    -0.192552554033E+03   -0.15901E-01   -0.13014E-01  3699   0.612E-01    0.209E+00
RMM:   4    -0.192510779341E+03    0.41775E-01   -0.18612E-02  3684   0.240E-01    0.770E-01
RMM:   5    -0.192510510557E+03    0.26878E-03   -0.11003E-02  3680   0.168E-01    0.756E-01
RMM:   6    -0.192505192153E+03    0.53184E-02   -0.21554E-02  3681   0.229E-01    0.347E-01
RMM:   7    -0.192504582601E+03    0.60955E-03   -0.48139E-03  3681   0.108E-01    0.307E-01
RMM:   8    -0.192503570123E+03    0.10125E-02   -0.11445E-03  3683   0.558E-02    0.129E-01
RMM:   9    -0.192503424954E+03    0.14517E-03   -0.31068E-04  3681   0.280E-02    0.835E-02
RMM:  10    -0.192503347070E+03    0.77884E-04   -0.15075E-04  3679   0.188E-02    0.497E-02
RMM:  11    -0.192503326975E+03    0.20095E-04   -0.92866E-05  3680   0.147E-02    0.347E-02
RMM:  12    -0.192503320640E+03    0.63353E-05   -0.60245E-05  3683   0.118E-02    0.209E-02
RMM:  13    -0.192503319847E+03    0.79266E-06   -0.12085E-05  3671   0.554E-03    0.128E-02
RMM:  14    -0.192503319715E+03    0.13213E-06   -0.17955E-06  2111   0.241E-03
   9 F= -.19250332E+03 E0= -.19239525E+03  d E =-.326719E+00
       N       E                     dE             d eps       ncg     rms          rms(c)
DAV:   1    -0.192503043498E+03    0.27635E-03   -0.50785E-01  3768   0.110E+00    0.735E-02
RMM:   2    -0.192503627352E+03   -0.58385E-03   -0.56808E-03  3683   0.161E-01    0.836E-02
RMM:   3    -0.192503683318E+03   -0.55967E-04   -0.40639E-04  3699   0.343E-02    0.116E-01
RMM:   4    -0.192503553247E+03    0.13007E-03   -0.60753E-05  3684   0.138E-02    0.402E-02
RMM:   5    -0.192503564555E+03   -0.11309E-04   -0.33423E-05  3680   0.930E-03    0.408E-02
RMM:   6    -0.192503562375E+03    0.21805E-05   -0.64601E-05  3681   0.126E-02    0.174E-02
RMM:   7    -0.192503562043E+03    0.33218E-06   -0.12253E-05  3624   0.549E-03    0.147E-02
RMM:   8    -0.192503559784E+03    0.22584E-05   -0.27004E-06  2359   0.282E-03    0.617E-03
RMM:   9    -0.192503559759E+03    0.25488E-07   -0.82161E-07  1961   0.159E-03
  10 F= -.19250356E+03 E0= -.19239551E+03  d E =-.326959E+00
       N       E                     dE             d eps       ncg     rms          rms(c)
DAV:   1    -0.192509346693E+03   -0.57869E-02   -0.26012E+01  3684   0.781E+00    0.551E-01
RMM:   2    -0.192542348484E+03   -0.33002E-01   -0.31566E-01  3683   0.116E+00    0.688E-01
RMM:   3    -0.192544574963E+03   -0.22265E-02   -0.23601E-02  3699   0.253E-01    0.823E-01
RMM:   4    -0.192537626715E+03    0.69482E-02   -0.33662E-03  3683   0.101E-01    0.289E-01
RMM:   5    -0.192537581167E+03    0.45549E-04   -0.14997E-03  3680   0.624E-02    0.265E-01
RMM:   6    -0.192537214707E+03    0.36646E-03   -0.37431E-03  3679   0.939E-02    0.160E-01
RMM:   7    -0.192537004973E+03    0.20973E-03   -0.87302E-04  3679   0.455E-02    0.112E-01
RMM:   8    -0.192536861303E+03    0.14367E-03   -0.18125E-04  3682   0.217E-02    0.543E-02
RMM:   9    -0.192536829924E+03    0.31379E-04   -0.52874E-05  3677   0.115E-02    0.318E-02
RMM:  10    -0.192536819079E+03    0.10845E-04   -0.22375E-05  3672   0.712E-03    0.192E-02
RMM:  11    -0.192536816021E+03    0.30579E-05   -0.14937E-05  3670   0.575E-03    0.124E-02
RMM:  12    -0.192536815648E+03    0.37313E-06   -0.99770E-06  3650   0.473E-03
  11 F= -.19253682E+03 E0= -.19242908E+03  d E =-.332559E-01
       N       E                     dE             d eps       ncg     rms          rms(c)
DAV:   1    -0.192528927694E+03    0.78883E-02   -0.13450E+01  3672   0.562E+00    0.389E-01
RMM:   2    -0.192546203705E+03   -0.17276E-01   -0.16382E-01  3683   0.836E-01    0.517E-01
RMM:   3    -0.192546783827E+03   -0.58012E-03   -0.12225E-02  3699   0.182E-01    0.564E-01
RMM:   4    -0.192543531337E+03    0.32525E-02   -0.16568E-03  3683   0.708E-02    0.207E-01
RMM:   5    -0.192543508138E+03    0.23199E-04   -0.72981E-04  3680   0.437E-02    0.188E-01
RMM:   6    -0.192543359593E+03    0.14855E-03   -0.19819E-03  3679   0.684E-02    0.118E-01
RMM:   7    -0.192543248876E+03    0.11072E-03   -0.45820E-04  3679   0.330E-02    0.788E-02
RMM:   8    -0.192543177640E+03    0.71237E-04   -0.89814E-05  3681   0.153E-02    0.384E-02
RMM:   9    -0.192543162359E+03    0.15280E-04   -0.26403E-05  3672   0.814E-03    0.232E-02
RMM:  10    -0.192543156730E+03    0.56291E-05   -0.11775E-05  3647   0.517E-03    0.137E-02
RMM:  11    -0.192543155381E+03    0.13493E-05   -0.79798E-06  3508   0.422E-03    0.899E-03
RMM:  12    -0.192543155399E+03   -0.18255E-07   -0.51033E-06  2875   0.349E-03
  12 F= -.19254316E+03 E0= -.19243566E+03  d E =-.395956E-01
       N       E                     dE             d eps       ncg     rms          rms(c)
DAV:   1    -0.192544358398E+03   -0.12030E-02   -0.78004E+00  3672   0.425E+00    0.315E-01
RMM:   2    -0.192555540707E+03   -0.11182E-01   -0.98526E-02  3682   0.640E-01    0.494E-01
RMM:   3    -0.192554488298E+03    0.10524E-02   -0.77050E-03  3698   0.144E-01    0.365E-01
RMM:   4    -0.192553190516E+03    0.12978E-02   -0.10956E-03  3683   0.562E-02    0.187E-01
RMM:   5    -0.192552997736E+03    0.19278E-03   -0.42746E-04  3680   0.338E-02    0.132E-01
RMM:   6    -0.192553009341E+03   -0.11605E-04   -0.14528E-03  3680   0.577E-02    0.107E-01
RMM:   7    -0.192552913734E+03    0.95607E-04   -0.32450E-04  3680   0.278E-02    0.649E-02
RMM:   8    -0.192552867070E+03    0.46664E-04   -0.63830E-05  3677   0.126E-02    0.380E-02
RMM:   9    -0.192552849609E+03    0.17461E-04   -0.25566E-05  3673   0.793E-03    0.200E-02
RMM:  10    -0.192552845989E+03    0.36196E-05   -0.10019E-05  3618   0.475E-03    0.128E-02
RMM:  11    -0.192552844716E+03    0.12729E-05   -0.60579E-06  2990   0.368E-03    0.844E-03
RMM:  12    -0.192552844633E+03    0.82611E-07   -0.38440E-06  2633   0.311E-03
  13 F= -.19255284E+03 E0= -.19244605E+03  d E =-.968923E-02
       N       E                     dE             d eps       ncg     rms          rms(c)
DAV:   1    -0.192547957809E+03    0.48869E-02   -0.63964E+00  3672   0.384E+00    0.281E-01
RMM:   2    -0.192557123857E+03   -0.91660E-02   -0.80859E-02  3682   0.580E-01    0.448E-01
RMM:   3    -0.192556212397E+03    0.91146E-03   -0.62857E-03  3698   0.130E-01    0.324E-01
RMM:   4    -0.192555195495E+03    0.10169E-02   -0.87627E-04  3683   0.503E-02    0.167E-01
RMM:   5    -0.192555042431E+03    0.15306E-03   -0.33787E-04  3680   0.301E-02    0.119E-01
RMM:   6    -0.192555055553E+03   -0.13122E-04   -0.11969E-03  3680   0.522E-02    0.933E-02
RMM:   7    -0.192554976680E+03    0.78873E-04   -0.26586E-04  3680   0.250E-02    0.572E-02
RMM:   8    -0.192554939723E+03    0.36957E-04   -0.50325E-05  3678   0.113E-02    0.325E-02
RMM:   9    -0.192554926817E+03    0.12906E-04   -0.19900E-05  3672   0.697E-03    0.178E-02
RMM:  10    -0.192554923835E+03    0.29828E-05   -0.78007E-06  3286   0.420E-03    0.111E-02
RMM:  11    -0.192554922985E+03    0.85000E-06   -0.54152E-06  2896   0.355E-03
  14 F= -.19255492E+03 E0= -.19244874E+03  d E =-.117676E-01
       N       E                     dE             d eps       ncg     rms          rms(c)
DAV:   1    -0.192552572415E+03    0.23514E-02   -0.58892E+00  3672   0.372E+00    0.251E-01
RMM:   2    -0.192560986773E+03   -0.84144E-02   -0.72868E-02  3682   0.557E-01    0.440E-01
RMM:   3    -0.192559865858E+03    0.11209E-02   -0.56347E-03  3699   0.124E-01    0.292E-01
RMM:   4    -0.192559102641E+03    0.76322E-03   -0.76105E-04  3683   0.467E-02    0.162E-01
RMM:   5    -0.192558912825E+03    0.18982E-03   -0.29459E-04  3679   0.281E-02    0.114E-01
RMM:   6    -0.192558887360E+03    0.25465E-04   -0.10610E-03  3678   0.495E-02    0.907E-02
RMM:   7    -0.192558839762E+03    0.47599E-04   -0.26352E-04  3678   0.251E-02    0.543E-02
RMM:   8    -0.192558811523E+03    0.28238E-04   -0.45827E-05  3676   0.108E-02    0.352E-02
RMM:   9    -0.192558796563E+03    0.14960E-04   -0.17511E-05  3672   0.666E-03    0.180E-02
RMM:  10    -0.192558793492E+03    0.30718E-05   -0.81112E-06  3537   0.429E-03    0.125E-02
RMM:  11    -0.192558791832E+03    0.16596E-05   -0.62079E-06  3091   0.376E-03    0.681E-03
RMM:  12    -0.192558791809E+03    0.22919E-07   -0.35412E-06  2468   0.301E-03
  15 F= -.19255879E+03 E0= -.19245304E+03  d E =-.386882E-02
       N       E                     dE             d eps       ncg     rms          rms(c)
DAV:   1    -0.192558779806E+03    0.12026E-04   -0.18676E-02  3876   0.209E-01    0.145E-02
RMM:   2    -0.192558809372E+03   -0.29566E-04   -0.23431E-04  3683   0.316E-02    0.316E-02
RMM:   3    -0.192558801135E+03    0.82373E-05   -0.19251E-05  3669   0.729E-03    0.151E-02
RMM:   4    -0.192558799539E+03    0.15960E-05   -0.21244E-06  2149   0.265E-03    0.947E-03
RMM:   5    -0.192558799162E+03    0.37643E-06   -0.99722E-07  1993   0.190E-03
  16 F= -.19255880E+03 E0= -.19245307E+03  d E =-.387618E-02
       N       E                     dE             d eps       ncg     rms          rms(c)
DAV:   1    -0.192558907820E+03   -0.10828E-03   -0.15943E+00  3672   0.195E+00    0.130E-01
RMM:   2    -0.192560813311E+03   -0.19055E-02   -0.18461E-02  3683   0.286E-01    0.172E-01
RMM:   3    -0.192560798314E+03    0.14997E-04   -0.13277E-03  3696   0.611E-02    0.161E-01
RMM:   4    -0.192560597650E+03    0.20066E-03   -0.19649E-04  3684   0.234E-02    0.825E-02
RMM:   5    -0.192560576544E+03    0.21105E-04   -0.14856E-04  3680   0.190E-02    0.808E-02
RMM:   6    -0.192560547131E+03    0.29413E-04   -0.24994E-04  3679   0.245E-02    0.491E-02
RMM:   7    -0.192560528678E+03    0.18453E-04   -0.81228E-05  3679   0.141E-02    0.199E-02
RMM:   8    -0.192560526628E+03    0.20497E-05   -0.91347E-06  3416   0.492E-03    0.179E-02
RMM:   9    -0.192560522530E+03    0.40987E-05   -0.38584E-06  2736   0.324E-03    0.921E-03
RMM:  10    -0.192560521492E+03    0.10374E-05   -0.27880E-06  2106   0.276E-03    0.682E-03
RMM:  11    -0.192560520929E+03    0.56317E-06   -0.23926E-06  1959   0.269E-03
  17 F= -.19256052E+03 E0= -.19245483E+03  d E =-.172177E-02
       N       E                     dE             d eps       ncg     rms          rms(c)
DAV:   1    -0.192560398375E+03    0.12312E-03   -0.23370E-01  3672   0.746E-01    0.500E-02
RMM:   2    -0.192560687319E+03   -0.28894E-03   -0.27267E-03  3683   0.110E-01    0.719E-02
RMM:   3    -0.192560672736E+03    0.14583E-04   -0.19917E-04  3696   0.236E-02    0.613E-02
RMM:   4    -0.192560642708E+03    0.30028E-04   -0.28620E-05  3682   0.897E-03    0.313E-02
RMM:   5    -0.192560640835E+03    0.18733E-05   -0.21736E-05  3672   0.734E-03    0.312E-02
RMM:   6    -0.192560638615E+03    0.22198E-05   -0.37920E-05  3672   0.955E-03    0.199E-02
RMM:   7    -0.192560635439E+03    0.31758E-05   -0.12697E-05  3634   0.558E-03    0.822E-03
RMM:   8    -0.192560635089E+03    0.34981E-06   -0.14389E-06  2075   0.203E-03
  18 F= -.19256064E+03 E0= -.19245497E+03  d E =-.183593E-02
       N       E                     dE             d eps       ncg     rms          rms(c)
DAV:   1    -0.192560506901E+03    0.12854E-03   -0.60230E-01  3672   0.119E+00    0.755E-02
RMM:   2    -0.192561221147E+03   -0.71425E-03   -0.71927E-03  3683   0.177E-01    0.942E-02
RMM:   3    -0.192561221783E+03   -0.63662E-06   -0.50456E-04  3697   0.376E-02    0.919E-02
RMM:   4    -0.192561158779E+03    0.63005E-04   -0.69630E-05  3685   0.139E-02    0.499E-02
RMM:   5    -0.192561149509E+03    0.92698E-05   -0.41057E-05  3679   0.101E-02    0.460E-02
RMM:   6    -0.192561144002E+03    0.55063E-05   -0.87527E-05  3680   0.144E-02    0.321E-02
RMM:   7    -0.192561137902E+03    0.61001E-05   -0.40571E-05  3675   0.985E-03    0.129E-02
RMM:   8    -0.192561137511E+03    0.39118E-06   -0.37394E-06  2730   0.320E-03
  19 F= -.19256114E+03 E0= -.19245555E+03  d E =-.502422E-03
       N       E                     dE             d eps       ncg     rms          rms(c)
DAV:   1    -0.192560807705E+03    0.33020E-03   -0.27615E-01  3672   0.808E-01    0.535E-02
RMM:   2    -0.192561133513E+03   -0.32581E-03   -0.33739E-03  3683   0.121E-01    0.623E-02
RMM:   3    -0.192561141787E+03   -0.82738E-05   -0.24323E-04  3696   0.260E-02    0.660E-02
RMM:   4    -0.192561110748E+03    0.31039E-04   -0.36335E-05  3686   0.100E-02    0.349E-02
RMM:   5    -0.192561105682E+03    0.50655E-05   -0.20035E-05  3671   0.701E-03    0.300E-02
RMM:   6    -0.192561104041E+03    0.16410E-05   -0.34298E-05  3673   0.901E-03    0.199E-02
RMM:   7    -0.192561102114E+03    0.19269E-05   -0.16633E-05  3663   0.632E-03    0.816E-03
RMM:   8    -0.192561101810E+03    0.30447E-06   -0.14051E-06  2039   0.204E-03
  20 F= -.19256110E+03 E0= -.19245555E+03  d E =-.466720E-03
       N       E                     dE             d eps       ncg     rms          rms(c)
DAV:   1    -0.192561078205E+03    0.23909E-04   -0.77626E-02  3684   0.429E-01    0.257E-02
RMM:   2    -0.192561170236E+03   -0.92031E-04   -0.89712E-04  3683   0.632E-02    0.367E-02
RMM:   3    -0.192561164897E+03    0.53398E-05   -0.61510E-05  3698   0.132E-02    0.304E-02
RMM:   4    -0.192561158165E+03    0.67313E-05   -0.71592E-06  3287   0.458E-03    0.175E-02
RMM:   5    -0.192561157850E+03    0.31551E-06   -0.47015E-06  2811   0.355E-03
  21 F= -.19256116E+03 E0= -.19245561E+03  d E =-.522760E-03
       N       E                     dE             d eps       ncg     rms          rms(c)
DAV:   1    -0.192561047177E+03    0.11099E-03   -0.37503E-01  3672   0.939E-01    0.579E-02
RMM:   2    -0.192561517392E+03   -0.47022E-03   -0.45270E-03  3682   0.140E-01    0.820E-02
RMM:   3    -0.192561497403E+03    0.19989E-04   -0.32731E-04  3699   0.300E-02    0.728E-02
RMM:   4    -0.192561448875E+03    0.48528E-04   -0.48772E-05  3684   0.115E-02    0.404E-02
RMM:   5    -0.192561438337E+03    0.10538E-04   -0.13983E-05  3647   0.622E-03    0.276E-02
RMM:   6    -0.192561443211E+03   -0.48743E-05   -0.33020E-05  3672   0.891E-03    0.325E-02
RMM:   7    -0.192561437053E+03    0.61578E-05   -0.44907E-05  3681   0.102E-02    0.128E-02
RMM:   8    -0.192561436469E+03    0.58426E-06   -0.50227E-06  2826   0.359E-03
  22 F= -.19256144E+03 E0= -.19245597E+03  d E =-.278619E-03
