 vasp.5.4.1 24Jun15 (build Mar 14 2019 10:18:33) complex                        
  
 executed on INTEL-19.0.2+OPENMPI date 2022.07.11  15:55:18
 running on   36 total cores
 distrk:  each k-point on   36 cores,    1 groups
 distr:  one band on NCORES_PER_BAND=   6 cores,    6 groups


--------------------------------------------------------------------------------------------------------


 INCAR:
 POTCAR:    PAW_PBE Au 04Oct2007                  
 POTCAR:    PAW_PBE Pd 04Jan2005                  
 POTCAR:    PAW_PBE Au 04Oct2007                  
  local pseudopotential read in
  partial core-charges read in
  partial kinetic energy density read in
  atomic valenz-charges read in
  non local Contribution for L=           2  read in
    real space projection operators read in
  non local Contribution for L=           2  read in
    real space projection operators read in
  non local Contribution for L=           0  read in
    real space projection operators read in
  non local Contribution for L=           0  read in
    real space projection operators read in
  non local Contribution for L=           1  read in
    real space projection operators read in
  non local Contribution for L=           1  read in
    real space projection operators read in
    PAW grid and wavefunctions read in
 
   number of l-projection  operators is LMAX  =           6
   number of lm-projection operators is LMMAX =          18
 
 POTCAR:    PAW_PBE Pd 04Jan2005                  
  local pseudopotential read in
  partial core-charges read in
  partial kinetic energy density read in
  atomic valenz-charges read in
  non local Contribution for L=           2  read in
    real space projection operators read in
  non local Contribution for L=           2  read in
    real space projection operators read in
  non local Contribution for L=           0  read in
    real space projection operators read in
  non local Contribution for L=           0  read in
    real space projection operators read in
  non local Contribution for L=           1  read in
    real space projection operators read in
  non local Contribution for L=           1  read in
    real space projection operators read in
    PAW grid and wavefunctions read in
 
   number of l-projection  operators is LMAX  =           6
   number of lm-projection operators is LMMAX =          18
 
 Optimization of the real space projectors (new method)

 maximal supplied QI-value         = 15.12
 optimisation between [QCUT,QGAM] = [ 10.13, 20.41] = [ 28.73,116.64] Ry 
 Optimized for a Real-space Cutoff    1.51 Angstroem

   l    n(q)    QCUT    max X(q) W(low)/X(q) W(high)/X(q)  e(spline) 
   2      8    10.129    60.898    0.46E-03    0.46E-03    0.14E-06
   2      8    10.129    58.894    0.47E-03    0.47E-03    0.14E-06
   0      9    10.129   109.617    0.16E-03    0.11E-03    0.54E-07
   0      9    10.129    75.026    0.15E-03    0.11E-03    0.52E-07
   1      9    10.129    16.344    0.96E-04    0.15E-03    0.14E-06
   1      9    10.129    10.160    0.81E-04    0.12E-03    0.11E-06
 Optimization of the real space projectors (new method)

 maximal supplied QI-value         = 14.36
 optimisation between [QCUT,QGAM] = [ 10.20, 20.39] = [ 29.12,116.47] Ry 
 Optimized for a Real-space Cutoff    1.51 Angstroem

   l    n(q)    QCUT    max X(q) W(low)/X(q) W(high)/X(q)  e(spline) 
   2      8    10.197    59.108    0.26E-03    0.14E-03    0.96E-07
   2      8    10.197    58.101    0.27E-03    0.14E-03    0.98E-07
   0      9    10.197   102.235    0.54E-04    0.60E-05    0.72E-07
   0      9    10.197    58.388    0.52E-04    0.60E-05    0.68E-07
   1      9    10.197    22.191    0.18E-03    0.25E-03    0.79E-07
   1      9    10.197    15.590    0.15E-03    0.21E-03    0.69E-07
  PAW_PBE Au 04Oct2007                  :
 energy of atom  1       EATOM= -926.0867
 kinetic energy error for atom=    0.0062 (will be added to EATOM!!)
  PAW_PBE Pd 04Jan2005                  :
 energy of atom  2       EATOM= -809.7530
 kinetic energy error for atom=    0.0091 (will be added to EATOM!!)
 
 
 POSCAR: Au Pd                                   
  positions in cartesian coordinates
  No initial velocities read in
 exchange correlation table for  LEXCH =        8
   RHO(1)=    0.500       N(1)  =     2000
   RHO(2)=  100.500       N(2)  =     4000

 VTST: version 3.2, (02/03/18)

 CHAIN: initializing optimizer
 
 OPT: Using VASP Conjugate-Gradient optimizer
 CHAIN: Read ICHAIN            0
 
 POSCAR: Au Pd                                   
  positions in cartesian coordinates
  No initial velocities read in
 


--------------------------------------------------------------------------------------------------------


 ion  position               nearest neighbor table
   1  0.333  0.333  0.408-  33 2.75  20 2.75   4 2.75  38 2.75  41 2.75   2 2.75  45 2.75  35 2.75
                            40 2.75
   2  0.583  0.333  0.408-  19 2.75  14 2.75   4 2.75  25 2.75  38 2.75   1 2.75  10 2.75   9 2.75
                            33 2.75
   3  0.583  0.833  0.408-  36 2.75  14 2.75  22 2.75   4 2.75  41 2.75  16 2.75   7 2.75  26 2.75
                            29 2.75
   4  0.583  0.083  0.408-   9 2.75   2 2.75   3 2.75   1 2.75  16 2.75  25 2.75  41 2.75  36 2.75
                            35 2.75
   5  0.500  0.750  0.592-  29 2.75  26 2.75  28 2.75  12 2.75  30 2.75  34 2.75  32 2.75  48 2.75
                            11 2.75
   6  0.167  0.917  0.500-  43 2.75  32 2.75  17 2.75  13 2.75  37 2.75  11 2.75  46 2.75  23 2.75
                            29 2.75  31 2.75  12 2.75   7 2.75
   7  0.333  0.833  0.408-  29 2.75  14 2.75  31 2.75  38 2.75  41 2.75   3 2.75  43 2.75  11 2.75
                             6 2.75
   8  0.250  0.500  0.592-  37 2.75  33 2.75  32 2.75  39 2.75  42 2.75  47 2.75  44 2.75  30 2.75
                            40 2.75
   9  0.667  0.167  0.500-   4 2.75  27 2.75  47 2.75  19 2.75  33 2.75  36 2.75  23 2.75  46 2.75
                            35 2.75   2 2.75  15 2.75  25 2.75
  10  0.833  0.333  0.408-  18 2.75  14 2.75  22 2.75  25 2.75  31 2.75   2 2.75  45 2.75  46 2.75
                            19 2.75
  11  0.417  0.667  0.500-  38 2.75  30 2.75  32 2.75   6 2.75  19 2.75  33 2.75  29 2.75  37 2.75
                            26 2.75   7 2.75   5 2.75  14 2.75
  12  0.250  0.000  0.592-  13 2.75  29 2.75  21 2.75   5 2.75  32 2.75  39 2.75  34 2.75  17 2.75
                             6 2.75
  13  0.167  0.167  0.500-  31 2.75  12 2.75  21 2.75   6 2.75  29 2.75  18 2.75  40 2.75  35 2.75
                            46 2.75  45 2.75  39 2.75  41 2.75
  14  0.583  0.583  0.408-  26 2.75   3 2.75   7 2.75  10 2.75   2 2.75  22 2.75  38 2.75  19 2.75
                            11 2.75
  15  0.750  0.250  0.592-  19 2.75  46 2.75  27 2.75  28 2.75  30 2.75  17 2.75  21 2.75  47 2.75
                             9 2.75
  16  0.833  0.833  0.408-  23 2.75  20 2.75  22 2.75   4 2.75  25 2.75   3 2.75  43 2.75  24 2.75
                            36 2.75
  17  0.000  0.000  0.592-  46 2.75   6 2.75  21 2.75  32 2.75  42 2.75  15 2.75  27 2.75  12 2.75
                            23 2.75
  18  0.917  0.417  0.500-  10 2.75  21 2.75  28 2.75  24 2.75  26 2.75  13 2.75  46 2.75  40 2.75
                            19 2.75  22 2.75  45 2.75  44 2.75
  19  0.667  0.417  0.500-   2 2.75  15 2.75  30 2.75   9 2.75  26 2.75  11 2.75  46 2.75  33 2.75
                            18 2.75  14 2.75  28 2.75  10 2.75
  20  0.083  0.583  0.408-  37 2.75  16 2.75   1 2.75  43 2.75  45 2.75  22 2.75  38 2.75  40 2.75
                            24 2.75
  21  0.000  0.250  0.592-  18 2.75  13 2.75  17 2.75  12 2.75  28 2.75  44 2.75  39 2.75  15 2.75
                            46 2.75
  22  0.833  0.583  0.408-  24 2.75  10 2.75  16 2.75   3 2.75  45 2.75  14 2.75  20 2.75  18 2.75
                            26 2.75
  23  0.917  0.917  0.500-  16 2.75  42 2.75  27 2.75   9 2.75  37 2.75  24 2.75  46 2.75  36 2.75
                             6 2.75  25 2.75  43 2.75  17 2.75
  24  0.917  0.667  0.500-  22 2.75  44 2.75  48 2.75  36 2.75  40 2.75  18 2.75  23 2.75  37 2.75
                            26 2.75  16 2.75  20 2.75  42 2.75
  25  0.833  0.083  0.408-  46 2.75  10 2.75  16 2.75  43 2.75   2 2.75   4 2.75  31 2.75  23 2.75
                             9 2.75
  26  0.667  0.667  0.500-  14 2.75  28 2.75   5 2.75  19 2.75  18 2.75  29 2.75  36 2.75  24 2.75
                            11 2.75   3 2.75  22 2.75  48 2.75
  27  0.750  0.000  0.592-   9 2.75  23 2.75  15 2.75  42 2.75  47 2.75  48 2.75  34 2.75  17 2.75
                            36 2.75
  28  0.750  0.500  0.592-  26 2.75  18 2.75   5 2.75  21 2.75  15 2.75  48 2.75  44 2.75  30 2.75
                            19 2.75
  29  0.417  0.917  0.500-   7 2.75   5 2.75  12 2.75  11 2.75  13 2.75  26 2.75  35 2.75   6 2.75
                            36 2.75  41 2.75  34 2.75   3 2.75
  30  0.500  0.500  0.592-  11 2.75  19 2.75  15 2.75   5 2.75  32 2.75  47 2.75   8 2.75  28 2.75
                            33 2.75
  31  0.083  0.083  0.408-  13 2.75  10 2.75   7 2.75  43 2.75  45 2.75  25 2.75  41 2.75   6 2.75
                            46 2.75
  32  0.250  0.750  0.592-   6 2.75  11 2.75   8 2.75  12 2.75  17 2.75  30 2.75   5 2.75  42 2.75
                            37 2.75
  33  0.417  0.417  0.500-   1 2.75  47 2.75   8 2.75  11 2.75  35 2.75  37 2.75   9 2.75  40 2.75
                            19 2.75  38 2.75  30 2.75   2 2.75
  34  0.500  0.000  0.592-  35 2.75  36 2.75   5 2.75  39 2.75  47 2.75  48 2.75  27 2.75  12 2.75
                            29 2.75
  35  0.417  0.167  0.500-  41 2.75  34 2.75  39 2.75  36 2.75  33 2.75  40 2.75  29 2.75  13 2.75
                             9 2.75   1 2.75   4 2.75  47 2.75
  36  0.667  0.917  0.500-   3 2.75  48 2.75  34 2.75  26 2.75   9 2.75  35 2.75  24 2.75  29 2.75
                            23 2.75   4 2.75  16 2.75  27 2.75
  37  0.167  0.667  0.500-  20 2.75   8 2.75  42 2.75  23 2.75  33 2.75  40 2.75   6 2.75  24 2.75
                            11 2.75  43 2.75  38 2.75  32 2.75
  38  0.333  0.583  0.408-  11 2.75   2 2.75   7 2.75   1 2.75  43 2.75  20 2.75  14 2.75  33 2.75
                            37 2.75
  39  0.250  0.250  0.592-  40 2.75  35 2.75  34 2.75   8 2.75  12 2.75  44 2.75  21 2.75  47 2.75
                            13 2.75
  40  0.167  0.417  0.500-  45 2.75  39 2.75  44 2.75  37 2.75  13 2.75  24 2.75  35 2.75  33 2.75
                            18 2.75  20 2.75   1 2.75   8 2.75
  41  0.333  0.083  0.408-  35 2.75   3 2.75   7 2.75   1 2.75  45 2.75   4 2.75  31 2.75  29 2.75
                            13 2.75
  42  0.000  0.750  0.592-  23 2.75  37 2.75   8 2.75  27 2.75  17 2.75  44 2.75  32 2.75  48 2.75
                            24 2.75
  43  0.083  0.833  0.408-   6 2.75  20 2.75  25 2.75  31 2.75  38 2.75   7 2.75  16 2.75  37 2.75
                            23 2.75
  44  0.000  0.500  0.592-  24 2.75  40 2.75  39 2.75  21 2.75  42 2.75  48 2.75   8 2.75  28 2.75
                            18 2.75
  45  0.083  0.333  0.408-  40 2.75  22 2.75  31 2.75  20 2.75  41 2.75  10 2.75   1 2.75  13 2.75
                            18 2.75
  46  0.917  0.167  0.500-  25 2.75  17 2.75  15 2.75  18 2.75  19 2.75  23 2.75   6 2.75   9 2.75
                            13 2.75  10 2.75  21 2.75  31 2.75
  47  0.500  0.250  0.592-  33 2.75   9 2.75  27 2.75  30 2.75   8 2.75  34 2.75  15 2.75  39 2.75
                            35 2.75
  48  0.750  0.750  0.592-  36 2.75  24 2.75  28 2.75  34 2.75  27 2.75  44 2.75  42 2.75   5 2.75
                            26 2.75
 
  LATTYP: Found a hexagonal cell.
 ALAT       =    11.0025815153
 C/A-ratio  =     2.2260035120
  
  Lattice vectors:
  
 A1 = (   5.5012907576,  -9.5285150994,   0.0000000000)
 A2 = ( -11.0025815153,   0.0000000000,   0.0000000000)
 A3 = (   0.0000000000,   0.0000000000, -24.4917850943)


Analysis of symmetry for initial positions (statically):
=====================================================================
 Subroutine PRICEL returns:
 Original cell was already a primitive cell.
 

 Routine SETGRP: Setting up the symmetry group for a 
 hexagonal supercell.


 Subroutine GETGRP returns: Found  1 space group operations
 (whereof  1 operations were pure point group operations)
 out of a pool of 24 trial point group operations.


The static configuration has the point symmetry C_1 .


Analysis of symmetry for dynamics (positions and initial velocities):
=====================================================================
 Subroutine PRICEL returns:
 Original cell was already a primitive cell.
 

 Routine SETGRP: Setting up the symmetry group for a 
 hexagonal supercell.


 Subroutine GETGRP returns: Found  1 space group operations
 (whereof  1 operations were pure point group operations)
 out of a pool of 24 trial point group operations.


The dynamic configuration has the point symmetry C_1 .
 
 
 KPOINTS: Automatic mesh                          

Automatic generation of k-mesh.
Space group operators:
 irot       det(A)        alpha          n_x          n_y          n_z        tau_x        tau_y        tau_z
    1     1.000000     0.000000     1.000000     0.000000     0.000000     0.000000     0.000000     0.000000
 
 Subroutine IBZKPT returns following result:
 ===========================================
 
 Found      6 irreducible k-points:
 
 Following reciprocal coordinates:
            Coordinates               Weight
  0.250000  0.250000  0.000000     16.000000
  0.000000  0.250000  0.000000     16.000000
 -0.250000  0.000000  0.000000     16.000000
 -0.250000  0.250000  0.000000     16.000000
  0.500000 -0.250000  0.000000     16.000000
 -0.250000  0.500000  0.000000     16.000000
 
 Following cartesian coordinates:
            Coordinates               Weight
  0.022722  0.013119  0.000000     16.000000
  0.000000  0.026237  0.000000     16.000000
 -0.022722  0.013119  0.000000     16.000000
 -0.022722  0.039356  0.000000     16.000000
  0.045444 -0.052474  0.000000     16.000000
 -0.022722  0.065593  0.000000     16.000000
 


--------------------------------------------------------------------------------------------------------




 Dimension of arrays:
   k-points           NKPTS =      6   k-points in BZ     NKDIM =      6   number of bands    NBANDS=    306
   number of dos      NEDOS =    301   number of ions     NIONS =     48
   non local maximal  LDIM  =      6   non local SUM 2l+1 LMDIM =     18
   total plane-waves  NPLWV = 349920
   max r-space proj   IRMAX =   2009   max aug-charges    IRDMAX=   8532
   dimension x,y,z NGX =    54 NGY =   54 NGZ =  120
   dimension x,y,z NGXF=   108 NGYF=  108 NGZF=  240
   support grid    NGXF=   108 NGYF=  108 NGZF=  240
   ions per type =              24  24
 NGX,Y,Z   is equivalent  to a cutoff of   8.16,  8.16,  8.15 a.u.
 NGXF,Y,Z  is equivalent  to a cutoff of  16.32, 16.32, 16.29 a.u.


 I would recommend the setting:
   dimension x,y,z NGX =    54 NGY =   54 NGZ =  120
 SYSTEM =  unknown system                          
 POSCAR =  Au Pd                                   

 Startparameter for this run:
   NWRITE =      1    write-flag & timer
   PREC   = normal    normal or accurate (medium, high low for compatibility)
   ISTART =      0    job   : 0-new  1-cont  2-samecut
   ICHARG =      2    charge: 1-file 2-atom 10-const
   ISPIN  =      1    spin polarized calculation?
   LNONCOLLINEAR =      F non collinear calculations
   LSORBIT =      F    spin-orbit coupling
   INIWAV =      1    electr: 0-lowe 1-rand  2-diag
   LASPH  =      F    aspherical Exc in radial PAW
   METAGGA=      F    non-selfconsistent MetaGGA calc.

 Electronic Relaxation 1
   ENCUT  =  400.0 eV  29.40 Ry    5.42 a.u.  17.94 17.94 39.94*2*pi/ulx,y,z
   ENINI  =  400.0     initial cutoff
   ENAUG  =  416.2 eV  augmentation charge cutoff
   NELM   =    500;   NELMIN=  2; NELMDL= -5     # of ELM steps 
   EDIFF  = 0.1E-05   stopping-criterion for ELM
   LREAL  =      T    real-space projection
   NLSPLINE    = F    spline interpolate recip. space projectors
   LCOMPAT=      F    compatible to vasp.4.4
   GGA_COMPAT  = T    GGA compatible to vasp.4.4-vasp.4.6
   LMAXPAW     = -100 max onsite density
   LMAXMIX     =    2 max onsite mixed and CHGCAR
   VOSKOWN=      1    Vosko Wilk Nusair interpolation
   ROPT   =   -0.00050  -0.00050
 Ionic relaxation
   EDIFFG = -.2E-01   stopping-criterion for IOM
   NSW    =    500    number of steps for IOM
   NBLOCK =      1;   KBLOCK =    500    inner block; outer block 
   IBRION =      2    ionic relax: 0-MD 1-quasi-New 2-CG
   NFREE  =      2    steps in history (QN), initial steepest desc. (CG)
   ISIF   =      0    stress and relaxation
   IWAVPR =     11    prediction:  0-non 1-charg 2-wave 3-comb
   ISYM   =      2    0-nonsym 1-usesym 2-fastsym
   LCORR  =      T    Harris-Foulkes like correction to forces

   POTIM  = 0.3500    time-step for ionic-motion
   TEIN   =    0.0    initial temperature
   TEBEG  =    0.0;   TEEND  =   0.0 temperature during run
   SMASS  =  -3.00    Nose mass-parameter (am)
   estimated Nose-frequenzy (Omega)   =  0.10E-29 period in steps =****** mass=  -0.277E-26a.u.
   SCALEE = 1.0000    scale energy and forces
   NPACO  =    256;   APACO  = 16.0  distance and # of slots for P.C.
   PSTRESS=    0.0 pullay stress

  Mass of Ions in am
   POMASS = 196.97106.42
  Ionic Valenz
   ZVAL   =  11.00 10.00
  Atomic Wigner-Seitz radii
   RWIGS  =  -1.00 -1.00
  virtual crystal weights 
   VCA    =   1.00  1.00
   NELECT =     504.0000    total number of electrons
   NUPDOWN=      -1.0000    fix difference up-down

 DOS related values:
   EMIN   =  10.00;   EMAX   =-10.00  energy-range for DOS
   EFERMI =   0.00
   ISMEAR =     0;   SIGMA  =   0.10  broadening in eV -4-tet -1-fermi 0-gaus

 Electronic relaxation 2 (details)
   IALGO  =     68    algorithm
   LDIAG  =      T    sub-space diagonalisation (order eigenvalues)
   LSUBROT=      F    optimize rotation matrix (better conditioning)
   TURBO    =      0    0=normal 1=particle mesh
   IRESTART =      0    0=no restart 2=restart with 2 vectors
   NREBOOT  =      0    no. of reboots
   NMIN     =      0    reboot dimension
   EREF     =   0.00    reference energy to select bands
   IMIX   =      4    mixing-type and parameters
     AMIX     =   0.40;   BMIX     =  1.00
     AMIX_MAG =   1.60;   BMIX_MAG =  1.00
     AMIN     =   0.10
     WC   =   100.;   INIMIX=   1;  MIXPRE=   1;  MAXMIX= -45

 Intra band minimization:
   WEIMIN = 0.0010     energy-eigenvalue tresh-hold
   EBREAK =  0.82E-09  absolut break condition
   DEPER  =   0.30     relativ break condition  

   TIME   =   0.40     timestep for ELM

  volume/ion in A,a.u.               =      53.49       360.99
  Fermi-wavevector in a.u.,A,eV,Ry     =   0.951418  1.797920 12.315955  0.905197
  Thomas-Fermi vector in A             =   2.079887
 
 Write flags
   LWAVE  =      F    write WAVECAR
   LCHARG =      F    write CHGCAR
   LVTOT  =      F    write LOCPOT, total local potential
   LVHAR  =      F    write LOCPOT, Hartree potential only
   LELF   =      F    write electronic localiz. function (ELF)
   LORBIT =      0    0 simple, 1 ext, 2 COOP (PROOUT)


 Dipole corrections
   LMONO  =      F    monopole corrections only (constant potential shift)
   LDIPOL =      T    correct potential (dipole corrections)
   IDIPOL =      3    1-x, 2-y, 3-z, 4-all directions 
   EPSILON=  1.0000000 bulk dielectric constant

 Exchange correlation treatment:
   GGA     =    PE    GGA type
   LEXCH   =     8    internal setting for exchange type
   VOSKOWN=      1    Vosko Wilk Nusair interpolation
   LHFCALC =     F    Hartree Fock is set to
   LHFONE  =     F    Hartree Fock one center treatment
   AEXX    =    0.0000 exact exchange contribution

 Linear response parameters
   LEPSILON=     F    determine dielectric tensor
   LRPA    =     F    only Hartree local field effects (RPA)
   LNABLA  =     F    use nabla operator in PAW spheres
   LVEL    =     F    velocity operator in full k-point grid
   LINTERFAST=   F  fast interpolation
   KINTER  =     0    interpolate to denser k-point grid
   CSHIFT  =0.1000    complex shift for real part using Kramers Kronig
   OMEGAMAX=  -1.0    maximum frequency
   DEG_THRESHOLD= 0.2000000E-02 threshold for treating states as degnerate
   RTIME   =    0.100 relaxation time in fs

 Orbital magnetization related:
   ORBITALMAG=     F  switch on orbital magnetization
   LCHIMAG   =     F  perturbation theory with respect to B field
   DQ        =  0.001000  dq finite difference perturbation B field



--------------------------------------------------------------------------------------------------------


 conjugate gradient relaxation of ions
 charge density and potential will be updated during run
 non-spin polarized calculation
 RMM-DIIS sequential band-by-band and
  variant of blocked Davidson during initial phase
 perform sub-space diagonalisation
    before iterative eigenvector-optimisation
 modified Broyden-mixing scheme, WC =      100.0
 initial mixing is a Kerker type mixing with AMIX =  0.4000 and BMIX =      1.0000
 Hartree-type preconditioning will be used
 using additional bands           54
 real space projection scheme for non local part
 use partial core corrections
 calculate Harris-corrections to forces 
   (improved forces if not selfconsistent)
 use gradient corrections 
 use of overlap-Matrix (Vanderbilt PP)
 Gauss-broadening in eV      SIGMA  =   0.10


--------------------------------------------------------------------------------------------------------


  energy-cutoff  :      400.00
  volume of cell :     2567.68
      direct lattice vectors                 reciprocal lattice vectors
    11.002581515  0.000000000  0.000000000     0.090887761 -0.052474073  0.000000000
     5.501290758  9.528515099  0.000000000     0.000000000  0.104948147  0.000000000
     0.000000000  0.000000000 24.491785094     0.000000000  0.000000000  0.040830017

  length of vectors
    11.002581515 11.002581515 24.491785094     0.104948147  0.104948147  0.040830017


 
 k-points in units of 2pi/SCALE and weight: Automatic mesh                          
   0.02272194  0.01311852  0.00000000       0.167
   0.00000000  0.02623704  0.00000000       0.167
  -0.02272194  0.01311852  0.00000000       0.167
  -0.02272194  0.03935555  0.00000000       0.167
   0.04544388 -0.05247407  0.00000000       0.167
  -0.02272194  0.06559259  0.00000000       0.167
 
 k-points in reciprocal lattice and weights: Automatic mesh                          
   0.25000000  0.25000000  0.00000000       0.167
   0.00000000  0.25000000  0.00000000       0.167
  -0.25000000  0.00000000  0.00000000       0.167
  -0.25000000  0.25000000  0.00000000       0.167
   0.50000000 -0.25000000  0.00000000       0.167
  -0.25000000  0.50000000  0.00000000       0.167
 
 position of ions in fractional coordinates (direct lattice) 
   0.33333333  0.33333333  0.40830017
   0.58333333  0.33333333  0.40830017
   0.58333333  0.83333333  0.40830017
   0.58333333  0.08333333  0.40830017
   0.50000000  0.75000000  0.59169983
   0.16666667  0.91666667  0.50000000
   0.33333333  0.83333333  0.40830017
   0.25000000  0.50000000  0.59169983
   0.66666667  0.16666667  0.50000000
   0.83333333  0.33333333  0.40830017
   0.41666667  0.66666667  0.50000000
   0.25000000  0.00000000  0.59169983
   0.16666667  0.16666667  0.50000000
   0.58333333  0.58333333  0.40830017
   0.75000000  0.25000000  0.59169983
   0.83333333  0.83333333  0.40830017
   0.00000000  0.00000000  0.59169983
   0.91666667  0.41666667  0.50000000
   0.66666667  0.41666667  0.50000000
   0.08333333  0.58333333  0.40830017
   0.00000000  0.25000000  0.59169983
   0.83333333  0.58333333  0.40830017
   0.91666667  0.91666667  0.50000000
   0.91666667  0.66666667  0.50000000
   0.83333333  0.08333333  0.40830017
   0.66666667  0.66666667  0.50000000
   0.75000000  0.00000000  0.59169983
   0.75000000  0.50000000  0.59169983
   0.41666667  0.91666667  0.50000000
   0.50000000  0.50000000  0.59169983
   0.08333333  0.08333333  0.40830017
   0.25000000  0.75000000  0.59169983
   0.41666667  0.41666667  0.50000000
   0.50000000  0.00000000  0.59169983
   0.41666667  0.16666667  0.50000000
   0.66666667  0.91666667  0.50000000
   0.16666667  0.66666667  0.50000000
   0.33333333  0.58333333  0.40830017
   0.25000000  0.25000000  0.59169983
   0.16666667  0.41666667  0.50000000
   0.33333333  0.08333333  0.40830017
   0.00000000  0.75000000  0.59169983
   0.08333333  0.83333333  0.40830017
   0.00000000  0.50000000  0.59169983
   0.08333333  0.33333333  0.40830017
   0.91666667  0.16666667  0.50000000
   0.50000000  0.25000000  0.59169983
   0.75000000  0.75000000  0.59169983
 
 position of ions in cartesian coordinates  (Angst):
   5.50129076  3.17617170 10.00000000
   8.25193614  3.17617170 10.00000000
  11.00258152  7.94042925 10.00000000
   6.87661345  0.79404292 10.00000000
   9.62725883  7.14638632 14.49178509
   6.87661345  8.73447217 12.24589255
   8.25193614  7.94042925 10.00000000
   5.50129076  4.76425755 14.49178509
   8.25193614  1.58808585 12.24589255
  11.00258152  3.17617170 10.00000000
   8.25193614  6.35234340 12.24589255
   2.75064538  0.00000000 14.49178509
   2.75064538  1.58808585 12.24589255
   9.62725883  5.55830047 10.00000000
   9.62725883  2.38212877 14.49178509
  13.75322689  7.94042925 10.00000000
   0.00000000  0.00000000 14.49178509
  12.37790420  3.97021462 12.24589255
   9.62725883  3.97021462 12.24589255
   4.12596807  5.55830047 10.00000000
   1.37532269  2.38212877 14.49178509
  12.37790420  5.55830047 10.00000000
  15.12854958  8.73447217 12.24589255
  13.75322689  6.35234340 12.24589255
   9.62725883  0.79404292 10.00000000
  11.00258152  6.35234340 12.24589255
   8.25193614  0.00000000 14.49178509
  11.00258152  4.76425755 14.49178509
   9.62725883  8.73447217 12.24589255
   8.25193614  4.76425755 14.49178509
   1.37532269  0.79404292 10.00000000
   6.87661345  7.14638632 14.49178509
   6.87661345  3.97021462 12.24589255
   5.50129076  0.00000000 14.49178509
   5.50129076  1.58808585 12.24589255
  12.37790420  8.73447217 12.24589255
   5.50129076  6.35234340 12.24589255
   6.87661345  5.55830047 10.00000000
   4.12596807  2.38212877 14.49178509
   4.12596807  3.97021462 12.24589255
   4.12596807  0.79404292 10.00000000
   4.12596807  7.14638632 14.49178509
   5.50129076  7.94042925 10.00000000
   2.75064538  4.76425755 14.49178509
   2.75064538  3.17617170 10.00000000
  11.00258152  1.58808585 12.24589255
   6.87661345  2.38212877 14.49178509
  12.37790420  7.14638632 14.49178509
 


--------------------------------------------------------------------------------------------------------


 k-point  1 :   0.2500 0.2500 0.0000  plane waves:   46635
 k-point  2 :   0.0000 0.2500 0.0000  plane waves:   46635
 k-point  3 :  -0.2500 0.0000 0.0000  plane waves:   46635
 k-point  4 :  -0.2500 0.2500 0.0000  plane waves:   46644
 k-point  5 :   0.5000-0.2500 0.0000  plane waves:   46644
 k-point  6 :  -0.2500 0.5000 0.0000  plane waves:   46644

 maximum and minimum number of plane-waves per node :      7818     7732

 maximum number of plane-waves:     46644
 maximum index in each direction: 
   IXMAX=   18   IYMAX=   18   IZMAX=   39
   IXMIN=  -18   IYMIN=  -18   IZMIN=  -39

 WARNING: aliasing errors must be expected set NGX to  74 to avoid them
 WARNING: aliasing errors must be expected set NGY to  74 to avoid them
 WARNING: aliasing errors must be expected set NGZ to 158 to avoid them
 aliasing errors are usually negligible using standard VASP settings
 and one can safely disregard these warnings

 real space projection operators:
  total allocation   :      12803.06 KBytes
  max/ min on nodes  :       2145.66       2127.94


 parallel 3D FFT for wavefunctions:
    minimum data exchange during FFTs selected (reduces bandwidth)
 parallel 3D FFT for charge:
    minimum data exchange during FFTs selected (reduces bandwidth)


 total amount of memory used by VASP on root node    84353. kBytes
========================================================================

   base      :      30000. kBytes
   nonlr-proj:       4285. kBytes
   fftplans  :       4447. kBytes
   grid      :       6721. kBytes
   one-center:        124. kBytes
   wavefun   :      38776. kBytes
 
     INWAV:  cpu time    0.0000: real time    0.0000
 Broyden mixing: mesh for mixing (old mesh)
   NGX = 35   NGY = 35   NGZ = 79
  (NGX  =108   NGY  =108   NGZ  =240)
  gives a total of  96775 points

 initial charge density was supplied:
 charge density of overlapping atoms calculated
 number of electron     504.0000000 magnetization 
 keeping initial charge density in first step


--------------------------------------------------------------------------------------------------------


 Maximum index for non-local projection operator          355
 Maximum index for augmentation-charges          437 (set IRDMAX)


--------------------------------------------------------------------------------------------------------


 First call to EWALD:  gamma=   0.129
 Maximum number of real-space cells 4x 4x 2
 Maximum number of reciprocal cells 2x 2x 5

 FEWALD executed in parallel
    FEWALD:  cpu time    0.0021: real time    0.0021


----------------------------------------- Iteration    1(   1)  ---------------------------------------


    POTLOK:  cpu time    0.0458: real time    0.0460
    SETDIJ:  cpu time    0.0060: real time    0.0060
     EDDAV:  cpu time    7.2198: real time    7.2389
       DOS:  cpu time    0.0014: real time    0.0014
    --------------------------------------------
      LOOP:  cpu time    7.2758: real time    7.2999

 eigenvalue-minimisations  :  3672
 total energy-change (2. order) : 0.3201359E+04  (-0.1898208E+05)
 number of electron     504.0000000 magnetization 
 augmentation part      504.0000000 magnetization 

 DIPCOR: dipole corrections for dipol
 direction  3 min pos     1,
 dipolmoment           0.000000      0.000000      0.000003 electrons x Angstroem
 Tr[quadrupol]    -10257.145984

 energy correction for charged system         0.000000 eV
 dipol+quadrupol energy correction           -0.000000 eV
 added-field ion interaction          0.000002 eV  (added to PSCEN)


 Free energy of the ion-electron system (eV)
  ---------------------------------------------------
  alpha Z        PSCENC =       805.86936616
  Ewald energy   TEWEN  =    200170.64357981
  -Hartree energ DENC   =   -242584.99794846
  -exchange      EXHF   =         0.00000000
  -V(xc)+E(xc)   XCENC  =      -327.62878382
  PAW double counting   =     40340.05962942   -38292.62782345
  entropy T*S    EENTRO =        -0.13360595
  eigenvalues    EBANDS =      1430.38914762
  atomic energy  EATOM  =     41659.78587232
  Solvation  Ediel_sol  =         0.00000000
  ---------------------------------------------------
  free energy    TOTEN  =      3201.35943364 eV

  energy without entropy =     3201.49303959  energy(sigma->0) =     3201.42623661


--------------------------------------------------------------------------------------------------------




----------------------------------------- Iteration    1(   2)  ---------------------------------------


     EDDAV:  cpu time    8.5108: real time    8.6057
       DOS:  cpu time    0.0014: real time    0.0014
    --------------------------------------------
      LOOP:  cpu time    8.5131: real time    8.6124

 eigenvalue-minimisations  :  4368
 total energy-change (2. order) :-0.3185968E+04  (-0.2931875E+04)
 number of electron     504.0000000 magnetization 
 augmentation part      504.0000000 magnetization 

 DIPCOR: dipole corrections for dipol
 direction  3 min pos     1,
 dipolmoment           0.000000      0.000000      0.000003 electrons x Angstroem
 Tr[quadrupol]    -10257.145984

 energy correction for charged system         0.000000 eV
 dipol+quadrupol energy correction           -0.000000 eV
 added-field ion interaction          0.000002 eV  (added to PSCEN)


 Free energy of the ion-electron system (eV)
  ---------------------------------------------------
  alpha Z        PSCENC =       805.86936616
  Ewald energy   TEWEN  =    200170.64357981
  -Hartree energ DENC   =   -242584.99794846
  -exchange      EXHF   =         0.00000000
  -V(xc)+E(xc)   XCENC  =      -327.62878382
  PAW double counting   =     40340.05962942   -38292.62782345
  entropy T*S    EENTRO =        -0.12817329
  eigenvalues    EBANDS =     -1755.58468878
  atomic energy  EATOM  =     41659.78587232
  Solvation  Ediel_sol  =         0.00000000
  ---------------------------------------------------
  free energy    TOTEN  =        15.39102991 eV

  energy without entropy =       15.51920320  energy(sigma->0) =       15.45511655


--------------------------------------------------------------------------------------------------------




----------------------------------------- Iteration    1(   3)  ---------------------------------------


     EDDAV:  cpu time    8.2896: real time    8.3114
       DOS:  cpu time    0.0015: real time    0.0015
    --------------------------------------------
      LOOP:  cpu time    8.2919: real time    8.3171

 eigenvalue-minimisations  :  4152
 total energy-change (2. order) :-0.2161244E+03  (-0.2010057E+03)
 number of electron     504.0000000 magnetization 
 augmentation part      504.0000000 magnetization 

 DIPCOR: dipole corrections for dipol
 direction  3 min pos     1,
 dipolmoment           0.000000      0.000000      0.000003 electrons x Angstroem
 Tr[quadrupol]    -10257.145984

 energy correction for charged system         0.000000 eV
 dipol+quadrupol energy correction           -0.000000 eV
 added-field ion interaction          0.000002 eV  (added to PSCEN)


 Free energy of the ion-electron system (eV)
  ---------------------------------------------------
  alpha Z        PSCENC =       805.86936616
  Ewald energy   TEWEN  =    200170.64357981
  -Hartree energ DENC   =   -242584.99794846
  -exchange      EXHF   =         0.00000000
  -V(xc)+E(xc)   XCENC  =      -327.62878382
  PAW double counting   =     40340.05962942   -38292.62782345
  entropy T*S    EENTRO =        -0.19142817
  eigenvalues    EBANDS =     -1971.64580883
  atomic energy  EATOM  =     41659.78587232
  Solvation  Ediel_sol  =         0.00000000
  ---------------------------------------------------
  free energy    TOTEN  =      -200.73334503 eV

  energy without entropy =     -200.54191685  energy(sigma->0) =     -200.63763094


--------------------------------------------------------------------------------------------------------




----------------------------------------- Iteration    1(   4)  ---------------------------------------


     EDDAV:  cpu time    8.3333: real time    8.3610
       DOS:  cpu time    0.0015: real time    0.0015
    --------------------------------------------
      LOOP:  cpu time    8.3358: real time    8.3656

 eigenvalue-minimisations  :  4176
 total energy-change (2. order) :-0.5777341E+01  (-0.5709166E+01)
 number of electron     504.0000000 magnetization 
 augmentation part      504.0000000 magnetization 

 DIPCOR: dipole corrections for dipol
 direction  3 min pos     1,
 dipolmoment           0.000000      0.000000      0.000003 electrons x Angstroem
 Tr[quadrupol]    -10257.145984

 energy correction for charged system         0.000000 eV
 dipol+quadrupol energy correction           -0.000000 eV
 added-field ion interaction          0.000002 eV  (added to PSCEN)


 Free energy of the ion-electron system (eV)
  ---------------------------------------------------
  alpha Z        PSCENC =       805.86936616
  Ewald energy   TEWEN  =    200170.64357981
  -Hartree energ DENC   =   -242584.99794846
  -exchange      EXHF   =         0.00000000
  -V(xc)+E(xc)   XCENC  =      -327.62878382
  PAW double counting   =     40340.05962942   -38292.62782345
  entropy T*S    EENTRO =        -0.20304131
  eigenvalues    EBANDS =     -1977.41153703
  atomic energy  EATOM  =     41659.78587232
  Solvation  Ediel_sol  =         0.00000000
  ---------------------------------------------------
  free energy    TOTEN  =      -206.51068636 eV

  energy without entropy =     -206.30764505  energy(sigma->0) =     -206.40916571


--------------------------------------------------------------------------------------------------------




----------------------------------------- Iteration    1(   5)  ---------------------------------------


     EDDAV:  cpu time    8.6708: real time    8.6958
       DOS:  cpu time    0.0015: real time    0.0015
    CHARGE:  cpu time    0.2184: real time    0.2190
    MIXING:  cpu time    0.0021: real time    0.0021
    --------------------------------------------
      LOOP:  cpu time    8.8937: real time    8.9228

 eigenvalue-minimisations  :  4404
 total energy-change (2. order) :-0.2018421E+00  (-0.2010477E+00)
 number of electron     503.9998404 magnetization 
 augmentation part      191.3041049 magnetization 

 DIPCOR: dipole corrections for dipol
 direction  3 min pos     1,
 dipolmoment           0.000000      0.000000      0.000003 electrons x Angstroem
 Tr[quadrupol]    -10257.145984

 energy correction for charged system         0.000000 eV
 dipol+quadrupol energy correction           -0.000000 eV
 added-field ion interaction          0.000002 eV  (added to PSCEN)


 Broyden mixing:
  rms(total) = 0.62419E+01    rms(broyden)= 0.62419E+01
  rms(prec ) = 0.63803E+01
  weight for this iteration     100.00

 Free energy of the ion-electron system (eV)
  ---------------------------------------------------
  alpha Z        PSCENC =       805.86936616
  Ewald energy   TEWEN  =    200170.64357981
  -Hartree energ DENC   =   -242584.99794846
  -exchange      EXHF   =         0.00000000
  -V(xc)+E(xc)   XCENC  =      -327.62878382
  PAW double counting   =     40340.05962942   -38292.62782345
  entropy T*S    EENTRO =        -0.20292892
  eigenvalues    EBANDS =     -1977.61349155
  atomic energy  EATOM  =     41659.78587232
  Solvation  Ediel_sol  =         0.00000000
  ---------------------------------------------------
  free energy    TOTEN  =      -206.71252849 eV

  energy without entropy =     -206.50959957  energy(sigma->0) =     -206.61106403


--------------------------------------------------------------------------------------------------------




----------------------------------------- Iteration    1(   6)  ---------------------------------------


    POTLOK:  cpu time    0.0415: real time    0.0417
    SETDIJ:  cpu time    0.0056: real time    0.0057
    EDDIAG:  cpu time    1.2866: real time    1.2898
  RMM-DIIS:  cpu time    3.3751: real time    3.3840
    ORTHCH:  cpu time    0.3562: real time    0.3570
       DOS:  cpu time    0.0014: real time    0.0014
    CHARGE:  cpu time    0.2205: real time    0.2211
    MIXING:  cpu time    0.0019: real time    0.0020
    --------------------------------------------
      LOOP:  cpu time    5.2895: real time    5.3064

 eigenvalue-minimisations  :  3676
 total energy-change (2. order) :-0.1663848E+01  (-0.1007518E+02)
 number of electron     503.9998433 magnetization 
 augmentation part      190.6300463 magnetization 

 DIPCOR: dipole corrections for dipol
 direction  3 min pos     1,
 dipolmoment           0.000000      0.000000      1.346542 electrons x Angstroem
 Tr[quadrupol]    -10258.559023

 energy correction for charged system         0.000000 eV
 dipol+quadrupol energy correction           -0.063891 eV
 added-field ion interaction          0.852515 eV  (added to PSCEN)


 Broyden mixing:
  rms(total) = 0.59655E+01    rms(broyden)= 0.59654E+01
  rms(prec ) = 0.64919E+01
  weight for this iteration     100.00

 eigenvalues of (default mixing * dielectric matrix)
  average eigenvalue GAMMA=   0.5952
  0.5952

 Free energy of the ion-electron system (eV)
  ---------------------------------------------------
  alpha Z        PSCENC =       806.65798765
  Ewald energy   TEWEN  =    200170.64357981
  -Hartree energ DENC   =   -242334.33958905
  -exchange      EXHF   =         0.00000000
  -V(xc)+E(xc)   XCENC  =      -340.19519541
  PAW double counting   =     43919.01783846   -41930.87585804
  entropy T*S    EENTRO =        -0.24651999
  eigenvalues    EBANDS =     -2158.82449183
  atomic energy  EATOM  =     41659.78587232
  Solvation  Ediel_sol  =         0.00000000
  ---------------------------------------------------
  free energy    TOTEN  =      -208.37637608 eV

  energy without entropy =     -208.12985610  energy(sigma->0) =     -208.25311609


--------------------------------------------------------------------------------------------------------




----------------------------------------- Iteration    1(   7)  ---------------------------------------


    POTLOK:  cpu time    0.0412: real time    0.0414
    SETDIJ:  cpu time    0.0051: real time    0.0051
    EDDIAG:  cpu time    1.2921: real time    1.2975
  RMM-DIIS:  cpu time    3.3724: real time    3.4627
    ORTHCH:  cpu time    0.3550: real time    0.3559
       DOS:  cpu time    0.0014: real time    0.0015
    CHARGE:  cpu time    0.2192: real time    0.2198
    MIXING:  cpu time    0.0020: real time    0.0020
    --------------------------------------------
      LOOP:  cpu time    5.2891: real time    5.3892

 eigenvalue-minimisations  :  3681
 total energy-change (2. order) :-0.1235597E+02  (-0.6342829E+01)
 number of electron     503.9998380 magnetization 
 augmentation part      193.6541080 magnetization 

 DIPCOR: dipole corrections for dipol
 direction  3 min pos     1,
 dipolmoment           0.000000      0.000000     -1.467517 electrons x Angstroem
 Tr[quadrupol]    -10258.003805

 energy correction for charged system         0.000000 eV
 dipol+quadrupol energy correction           -0.075887 eV
 added-field ion interaction         -0.929105 eV  (added to PSCEN)


 Broyden mixing:
  rms(total) = 0.55188E+01    rms(broyden)= 0.55185E+01
  rms(prec ) = 0.66196E+01
  weight for this iteration     100.00

 eigenvalues of (default mixing * dielectric matrix)
  average eigenvalue GAMMA=   0.6940
  1.1181  0.2700

 Free energy of the ion-electron system (eV)
  ---------------------------------------------------
  alpha Z        PSCENC =       804.86437165
  Ewald energy   TEWEN  =    200170.64357981
  -Hartree energ DENC   =   -242229.32581414
  -exchange      EXHF   =         0.00000000
  -V(xc)+E(xc)   XCENC  =      -342.33187341
  PAW double counting   =     44983.53881632   -43016.48960056
  entropy T*S    EENTRO =        -0.20326049
  eigenvalues    EBANDS =     -2251.21443715
  atomic energy  EATOM  =     41659.78587232
  Solvation  Ediel_sol  =         0.00000000
  ---------------------------------------------------
  free energy    TOTEN  =      -220.73234565 eV

  energy without entropy =     -220.52908517  energy(sigma->0) =     -220.63071541


--------------------------------------------------------------------------------------------------------




----------------------------------------- Iteration    1(   8)  ---------------------------------------


    POTLOK:  cpu time    0.0414: real time    0.0416
    SETDIJ:  cpu time    0.0058: real time    0.0058
    EDDIAG:  cpu time    1.2941: real time    1.2995
  RMM-DIIS:  cpu time    3.4943: real time    3.5033
    ORTHCH:  cpu time    0.3540: real time    0.3548
       DOS:  cpu time    0.0014: real time    0.0014
    CHARGE:  cpu time    0.2167: real time    0.2172
    MIXING:  cpu time    0.0019: real time    0.0019
    --------------------------------------------
      LOOP:  cpu time    5.4102: real time    5.4299

 eigenvalue-minimisations  :  3677
 total energy-change (2. order) : 0.5229620E+01  (-0.8928342E+01)
 number of electron     503.9998350 magnetization 
 augmentation part      197.3427264 magnetization 

 DIPCOR: dipole corrections for dipol
 direction  3 min pos     1,
 dipolmoment           0.000000      0.000000      1.192795 electrons x Angstroem
 Tr[quadrupol]    -10258.385702

 energy correction for charged system         0.000000 eV
 dipol+quadrupol energy correction           -0.050134 eV
 added-field ion interaction          0.755175 eV  (added to PSCEN)


 Broyden mixing:
  rms(total) = 0.41560E+01    rms(broyden)= 0.41557E+01
  rms(prec ) = 0.47178E+01
  weight for this iteration     100.00

 eigenvalues of (default mixing * dielectric matrix)
  average eigenvalue GAMMA=   0.8153
  1.8256  0.4083  0.2120

 Free energy of the ion-electron system (eV)
  ---------------------------------------------------
  alpha Z        PSCENC =       806.57440517
  Ewald energy   TEWEN  =    200170.64357981
  -Hartree energ DENC   =   -242157.27504478
  -exchange      EXHF   =         0.00000000
  -V(xc)+E(xc)   XCENC  =      -344.59288089
  PAW double counting   =     46334.15480748   -44391.93638386
  entropy T*S    EENTRO =        -0.23052489
  eigenvalues    EBANDS =     -2292.62655631
  atomic energy  EATOM  =     41659.78587232
  Solvation  Ediel_sol  =         0.00000000
  ---------------------------------------------------
  free energy    TOTEN  =      -215.50272596 eV

  energy without entropy =     -215.27220107  energy(sigma->0) =     -215.38746351


--------------------------------------------------------------------------------------------------------




----------------------------------------- Iteration    1(   9)  ---------------------------------------


    POTLOK:  cpu time    0.0396: real time    0.0397
    SETDIJ:  cpu time    0.0049: real time    0.0049
    EDDIAG:  cpu time    1.2850: real time    1.2882
  RMM-DIIS:  cpu time    3.4472: real time    3.4568
    ORTHCH:  cpu time    0.3538: real time    0.3546
       DOS:  cpu time    0.0014: real time    0.0014
    CHARGE:  cpu time    0.2182: real time    0.2187
    MIXING:  cpu time    0.0021: real time    0.0021
    --------------------------------------------
      LOOP:  cpu time    5.3529: real time    5.3696

 eigenvalue-minimisations  :  3680
 total energy-change (2. order) : 0.3945268E+01  (-0.5281906E+01)
 number of electron     503.9998332 magnetization 
 augmentation part      198.7110287 magnetization 

 DIPCOR: dipole corrections for dipol
 direction  3 min pos     1,
 dipolmoment           0.000000      0.000000     -0.156548 electrons x Angstroem
 Tr[quadrupol]    -10258.545288

 energy correction for charged system         0.000000 eV
 dipol+quadrupol energy correction           -0.000864 eV
 added-field ion interaction         -0.099113 eV  (added to PSCEN)


 Broyden mixing:
  rms(total) = 0.35450E+01    rms(broyden)= 0.35447E+01
  rms(prec ) = 0.38903E+01
  weight for this iteration     100.00

 eigenvalues of (default mixing * dielectric matrix)
  average eigenvalue GAMMA=   0.7856
  2.1618  0.3710  0.3710  0.2388

 Free energy of the ion-electron system (eV)
  ---------------------------------------------------
  alpha Z        PSCENC =       805.76938810
  Ewald energy   TEWEN  =    200170.64357981
  -Hartree energ DENC   =   -242122.29577216
  -exchange      EXHF   =         0.00000000
  -V(xc)+E(xc)   XCENC  =      -346.13439216
  PAW double counting   =     48056.64780265   -46139.38417373
  entropy T*S    EENTRO =        -0.21392625
  eigenvalues    EBANDS =     -2296.37583699
  atomic energy  EATOM  =     41659.78587232
  Solvation  Ediel_sol  =         0.00000000
  ---------------------------------------------------
  free energy    TOTEN  =      -211.55745842 eV

  energy without entropy =     -211.34353218  energy(sigma->0) =     -211.45049530


--------------------------------------------------------------------------------------------------------




----------------------------------------- Iteration    1(  10)  ---------------------------------------


    POTLOK:  cpu time    0.0402: real time    0.0403
    SETDIJ:  cpu time    0.0051: real time    0.0051
    EDDIAG:  cpu time    1.2902: real time    1.2934
  RMM-DIIS:  cpu time    3.4652: real time    3.4741
    ORTHCH:  cpu time    0.3541: real time    0.3550
       DOS:  cpu time    0.0014: real time    0.0014
    CHARGE:  cpu time    0.2165: real time    0.2170
    MIXING:  cpu time    0.0022: real time    0.0022
    --------------------------------------------
      LOOP:  cpu time    5.3755: real time    5.3921

 eigenvalue-minimisations  :  3682
 total energy-change (2. order) : 0.1275842E+02  (-0.1798781E+01)
 number of electron     503.9998339 magnetization 
 augmentation part      199.1741003 magnetization 

 DIPCOR: dipole corrections for dipol
 direction  3 min pos     1,
 dipolmoment           0.000000      0.000000      0.514801 electrons x Angstroem
 Tr[quadrupol]    -10258.422593

 energy correction for charged system         0.000000 eV
 dipol+quadrupol energy correction           -0.009339 eV
 added-field ion interaction          0.325927 eV  (added to PSCEN)


 Broyden mixing:
  rms(total) = 0.21173E+01    rms(broyden)= 0.21171E+01
  rms(prec ) = 0.24638E+01
  weight for this iteration     100.00

 eigenvalues of (default mixing * dielectric matrix)
  average eigenvalue GAMMA=   0.7543
  2.2496  0.4818  0.4818  0.2183  0.3398

 Free energy of the ion-electron system (eV)
  ---------------------------------------------------
  alpha Z        PSCENC =       806.18595312
  Ewald energy   TEWEN  =    200170.64357981
  -Hartree energ DENC   =   -242120.66238571
  -exchange      EXHF   =         0.00000000
  -V(xc)+E(xc)   XCENC  =      -346.31417074
  PAW double counting   =     48920.71650776   -47013.06725933
  entropy T*S    EENTRO =        -0.18916237
  eigenvalues    EBANDS =     -2275.89797626
  atomic energy  EATOM  =     41659.78587232
  Solvation  Ediel_sol  =         0.00000000
  ---------------------------------------------------
  free energy    TOTEN  =      -198.79904141 eV

  energy without entropy =     -198.60987904  energy(sigma->0) =     -198.70446023


--------------------------------------------------------------------------------------------------------




----------------------------------------- Iteration    1(  11)  ---------------------------------------


    POTLOK:  cpu time    0.0402: real time    0.0403
    SETDIJ:  cpu time    0.0051: real time    0.0051
    EDDIAG:  cpu time    1.2813: real time    1.2845
  RMM-DIIS:  cpu time    3.4503: real time    3.4613
    ORTHCH:  cpu time    0.3557: real time    0.3565
       DOS:  cpu time    0.0014: real time    0.0014
    CHARGE:  cpu time    0.2174: real time    0.2179
    MIXING:  cpu time    0.0024: real time    0.0024
    --------------------------------------------
      LOOP:  cpu time    5.3545: real time    5.3741

 eigenvalue-minimisations  :  3680
 total energy-change (2. order) : 0.4766821E+01  (-0.1472197E+01)
 number of electron     503.9998343 magnetization 
 augmentation part      198.6809202 magnetization 

 DIPCOR: dipole corrections for dipol
 direction  3 min pos     1,
 dipolmoment           0.000000      0.000000      0.236978 electrons x Angstroem
 Tr[quadrupol]    -10259.239877

 energy correction for charged system         0.000000 eV
 dipol+quadrupol energy correction           -0.001979 eV
 added-field ion interaction          0.150034 eV  (added to PSCEN)


 Broyden mixing:
  rms(total) = 0.15541E+01    rms(broyden)= 0.15538E+01
  rms(prec ) = 0.17776E+01
  weight for this iteration     100.00

 eigenvalues of (default mixing * dielectric matrix)
  average eigenvalue GAMMA=   0.7111
  2.2474  0.5809  0.5809  0.2253  0.3162  0.3162

 Free energy of the ion-electron system (eV)
  ---------------------------------------------------
  alpha Z        PSCENC =       806.01741979
  Ewald energy   TEWEN  =    200170.64357981
  -Hartree energ DENC   =   -242171.57286656
  -exchange      EXHF   =         0.00000000
  -V(xc)+E(xc)   XCENC  =      -345.86516917
  PAW double counting   =     49149.50889471   -47241.27452434
  entropy T*S    EENTRO =        -0.21904269
  eigenvalues    EBANDS =     -2221.05638448
  atomic energy  EATOM  =     41659.78587232
  Solvation  Ediel_sol  =         0.00000000
  ---------------------------------------------------
  free energy    TOTEN  =      -194.03222062 eV

  energy without entropy =     -193.81317793  energy(sigma->0) =     -193.92269927


--------------------------------------------------------------------------------------------------------




----------------------------------------- Iteration    1(  12)  ---------------------------------------


    POTLOK:  cpu time    0.0397: real time    0.0398
    SETDIJ:  cpu time    0.0051: real time    0.0051
    EDDIAG:  cpu time    1.2870: real time    1.2902
  RMM-DIIS:  cpu time    3.4568: real time    3.4656
    ORTHCH:  cpu time    0.3549: real time    0.3557
       DOS:  cpu time    0.0014: real time    0.0014
    CHARGE:  cpu time    0.2146: real time    0.2151
    MIXING:  cpu time    0.0025: real time    0.0025
    --------------------------------------------
      LOOP:  cpu time    5.3628: real time    5.3788

 eigenvalue-minimisations  :  3680
 total energy-change (2. order) : 0.3774548E+01  (-0.5147517E+00)
 number of electron     503.9998354 magnetization 
 augmentation part      198.0484742 magnetization 

 DIPCOR: dipole corrections for dipol
 direction  3 min pos     1,
 dipolmoment           0.000000      0.000000      0.235228 electrons x Angstroem
 Tr[quadrupol]    -10259.391604

 energy correction for charged system         0.000000 eV
 dipol+quadrupol energy correction           -0.001950 eV
 added-field ion interaction          0.148926 eV  (added to PSCEN)


 Broyden mixing:
  rms(total) = 0.11472E+01    rms(broyden)= 0.11470E+01
  rms(prec ) = 0.12948E+01
  weight for this iteration     100.00

 eigenvalues of (default mixing * dielectric matrix)
  average eigenvalue GAMMA=   0.6619
  2.2579  0.5561  0.5561  0.3675  0.3675  0.2179  0.3105

 Free energy of the ion-electron system (eV)
  ---------------------------------------------------
  alpha Z        PSCENC =       806.01634066
  Ewald energy   TEWEN  =    200170.64357981
  -Hartree energ DENC   =   -242205.50292247
  -exchange      EXHF   =         0.00000000
  -V(xc)+E(xc)   XCENC  =      -345.08841115
  PAW double counting   =     49241.99608898   -47330.64762635
  entropy T*S    EENTRO =        -0.20434613
  eigenvalues    EBANDS =     -2187.25624842
  atomic energy  EATOM  =     41659.78587232
  Solvation  Ediel_sol  =         0.00000000
  ---------------------------------------------------
  free energy    TOTEN  =      -190.25767276 eV

  energy without entropy =     -190.05332663  energy(sigma->0) =     -190.15549969


--------------------------------------------------------------------------------------------------------




----------------------------------------- Iteration    1(  13)  ---------------------------------------


    POTLOK:  cpu time    0.0401: real time    0.0402
    SETDIJ:  cpu time    0.0052: real time    0.0052
    EDDIAG:  cpu time    1.2854: real time    1.2898
  RMM-DIIS:  cpu time    3.4071: real time    3.4156
    ORTHCH:  cpu time    0.3504: real time    0.3513
       DOS:  cpu time    0.0014: real time    0.0014
    CHARGE:  cpu time    0.2186: real time    0.2191
    MIXING:  cpu time    0.0027: real time    0.0027
    --------------------------------------------
      LOOP:  cpu time    5.3115: real time    5.3290

 eigenvalue-minimisations  :  3680
 total energy-change (2. order) : 0.1036437E+01  (-0.1968126E+00)
 number of electron     503.9998355 magnetization 
 augmentation part      197.8550112 magnetization 

 DIPCOR: dipole corrections for dipol
 direction  3 min pos     1,
 dipolmoment           0.000000      0.000000      0.194445 electrons x Angstroem
 Tr[quadrupol]    -10259.696107

 energy correction for charged system         0.000000 eV
 dipol+quadrupol energy correction           -0.001332 eV
 added-field ion interaction          0.123106 eV  (added to PSCEN)


 Broyden mixing:
  rms(total) = 0.72476E+00    rms(broyden)= 0.72454E+00
  rms(prec ) = 0.79864E+00
  weight for this iteration     100.00

 eigenvalues of (default mixing * dielectric matrix)
  average eigenvalue GAMMA=   0.6756
  2.2301  0.7419  0.7419  0.5742  0.3285  0.3285  0.2299  0.2299

 Free energy of the ion-electron system (eV)
  ---------------------------------------------------
  alpha Z        PSCENC =       805.99113808
  Ewald energy   TEWEN  =    200170.64357981
  -Hartree energ DENC   =   -242223.98917382
  -exchange      EXHF   =         0.00000000
  -V(xc)+E(xc)   XCENC  =      -344.83852772
  PAW double counting   =     49279.48121063   -47366.85230261
  entropy T*S    EENTRO =        -0.23672102
  eigenvalues    EBANDS =     -2169.20631163
  atomic energy  EATOM  =     41659.78587232
  Solvation  Ediel_sol  =         0.00000000
  ---------------------------------------------------
  free energy    TOTEN  =      -189.22123596 eV

  energy without entropy =     -188.98451494  energy(sigma->0) =     -189.10287545


--------------------------------------------------------------------------------------------------------




----------------------------------------- Iteration    1(  14)  ---------------------------------------


    POTLOK:  cpu time    0.0402: real time    0.0411
    SETDIJ:  cpu time    0.0055: real time    0.0056
    EDDIAG:  cpu time    1.2799: real time    1.2839
  RMM-DIIS:  cpu time    3.3789: real time    3.4357
    ORTHCH:  cpu time    0.3425: real time    0.3677
       DOS:  cpu time    0.0016: real time    0.0016
    CHARGE:  cpu time    0.2142: real time    0.2166
    MIXING:  cpu time    0.0028: real time    0.0029
    --------------------------------------------
      LOOP:  cpu time    5.2663: real time    5.3585

 eigenvalue-minimisations  :  3680
 total energy-change (2. order) : 0.1456015E+00  (-0.7385071E-01)
 number of electron     503.9998359 magnetization 
 augmentation part      197.5417393 magnetization 

 DIPCOR: dipole corrections for dipol
 direction  3 min pos     1,
 dipolmoment           0.000000      0.000000      0.165939 electrons x Angstroem
 Tr[quadrupol]    -10259.956677

 energy correction for charged system         0.000000 eV
 dipol+quadrupol energy correction           -0.000970 eV
 added-field ion interaction          0.105059 eV  (added to PSCEN)


 Broyden mixing:
  rms(total) = 0.65544E+00    rms(broyden)= 0.65534E+00
  rms(prec ) = 0.71881E+00
  weight for this iteration     100.00

 eigenvalues of (default mixing * dielectric matrix)
  average eigenvalue GAMMA=   0.7161
  2.1726  1.0448  1.0448  0.6427  0.3948  0.3948  0.2867  0.2169  0.2468

 Free energy of the ion-electron system (eV)
  ---------------------------------------------------
  alpha Z        PSCENC =       805.97345253
  Ewald energy   TEWEN  =    200170.64357981
  -Hartree energ DENC   =   -242243.60214728
  -exchange      EXHF   =         0.00000000
  -V(xc)+E(xc)   XCENC  =      -344.48540960
  PAW double counting   =     49286.41028113   -47371.43472677
  entropy T*S    EENTRO =        -0.24009786
  eigenvalues    EBANDS =     -2152.12643872
  atomic energy  EATOM  =     41659.78587232
  Solvation  Ediel_sol  =         0.00000000
  ---------------------------------------------------
  free energy    TOTEN  =      -189.07563445 eV

  energy without entropy =     -188.83553659  energy(sigma->0) =     -188.95558552


--------------------------------------------------------------------------------------------------------




----------------------------------------- Iteration    1(  15)  ---------------------------------------


    POTLOK:  cpu time    0.0409: real time    0.0411
    SETDIJ:  cpu time    0.0053: real time    0.0055
    EDDIAG:  cpu time    1.2809: real time    1.2849
  RMM-DIIS:  cpu time    3.4645: real time    3.4750
    ORTHCH:  cpu time    0.3480: real time    0.3488
       DOS:  cpu time    0.0015: real time    0.0015
    CHARGE:  cpu time    0.2170: real time    0.2175
    MIXING:  cpu time    0.0028: real time    0.0028
    --------------------------------------------
      LOOP:  cpu time    5.3616: real time    5.3801

 eigenvalue-minimisations  :  3680
 total energy-change (2. order) : 0.2253784E-01  (-0.4840450E-01)
 number of electron     503.9998360 magnetization 
 augmentation part      197.3393831 magnetization 

 DIPCOR: dipole corrections for dipol
 direction  3 min pos     1,
 dipolmoment           0.000000      0.000000      0.147474 electrons x Angstroem
 Tr[quadrupol]    -10260.283120

 energy correction for charged system         0.000000 eV
 dipol+quadrupol energy correction           -0.000766 eV
 added-field ion interaction          0.093368 eV  (added to PSCEN)


 Broyden mixing:
  rms(total) = 0.60756E+00    rms(broyden)= 0.60751E+00
  rms(prec ) = 0.68794E+00
  weight for this iteration     100.00

 eigenvalues of (default mixing * dielectric matrix)
  average eigenvalue GAMMA=   0.7231
  2.1597  1.2621  1.2621  0.6305  0.4356  0.4356  0.2982  0.2982  0.2246  0.2246

 Free energy of the ion-electron system (eV)
  ---------------------------------------------------
  alpha Z        PSCENC =       805.96196557
  Ewald energy   TEWEN  =    200170.64357981
  -Hartree energ DENC   =   -242264.31676217
  -exchange      EXHF   =         0.00000000
  -V(xc)+E(xc)   XCENC  =      -344.12161969
  PAW double counting   =     49282.56923511   -47364.85552849
  entropy T*S    EENTRO =        -0.23590778
  eigenvalues    EBANDS =     -2134.48393129
  atomic energy  EATOM  =     41659.78587232
  Solvation  Ediel_sol  =         0.00000000
  ---------------------------------------------------
  free energy    TOTEN  =      -189.05309662 eV

  energy without entropy =     -188.81718884  energy(sigma->0) =     -188.93514273


--------------------------------------------------------------------------------------------------------




----------------------------------------- Iteration    1(  16)  ---------------------------------------


    POTLOK:  cpu time    0.0398: real time    0.0399
    SETDIJ:  cpu time    0.0052: real time    0.0052
    EDDIAG:  cpu time    1.2812: real time    1.2902
  RMM-DIIS:  cpu time    3.4735: real time    3.4823
    ORTHCH:  cpu time    0.3484: real time    0.3494
       DOS:  cpu time    0.0015: real time    0.0015
    CHARGE:  cpu time    0.2144: real time    0.2149
    MIXING:  cpu time    0.0028: real time    0.0029
    --------------------------------------------
      LOOP:  cpu time    5.3675: real time    5.3885

 eigenvalue-minimisations  :  3680
 total energy-change (2. order) : 0.2497902E+00  (-0.3996127E-01)
 number of electron     503.9998361 magnetization 
 augmentation part      197.3560250 magnetization 

 DIPCOR: dipole corrections for dipol
 direction  3 min pos     1,
 dipolmoment           0.000000      0.000000      0.141471 electrons x Angstroem
 Tr[quadrupol]    -10260.598182

 energy correction for charged system         0.000000 eV
 dipol+quadrupol energy correction           -0.000705 eV
 added-field ion interaction          0.089567 eV  (added to PSCEN)


 Broyden mixing:
  rms(total) = 0.37223E+00    rms(broyden)= 0.37217E+00
  rms(prec ) = 0.43412E+00
  weight for this iteration     100.00

 eigenvalues of (default mixing * dielectric matrix)
  average eigenvalue GAMMA=   0.7519
  2.1917  1.5368  1.5368  0.5618  0.5618  0.4170  0.4170  0.3170  0.2791  0.2172
  0.2352

 Free energy of the ion-electron system (eV)
  ---------------------------------------------------
  alpha Z        PSCENC =       805.95822641
  Ewald energy   TEWEN  =    200170.64357981
  -Hartree energ DENC   =   -242280.00406166
  -exchange      EXHF   =         0.00000000
  -V(xc)+E(xc)   XCENC  =      -343.92775165
  PAW double counting   =     49297.87972501   -47378.67759071
  entropy T*S    EENTRO =        -0.24760719
  eigenvalues    EBANDS =     -2120.21369873
  atomic energy  EATOM  =     41659.78587232
  Solvation  Ediel_sol  =         0.00000000
  ---------------------------------------------------
  free energy    TOTEN  =      -188.80330640 eV

  energy without entropy =     -188.55569921  energy(sigma->0) =     -188.67950281


--------------------------------------------------------------------------------------------------------




----------------------------------------- Iteration    1(  17)  ---------------------------------------


    POTLOK:  cpu time    0.0403: real time    0.0405
    SETDIJ:  cpu time    0.0051: real time    0.0051
    EDDIAG:  cpu time    1.2770: real time    1.2801
  RMM-DIIS:  cpu time    3.4548: real time    3.4642
    ORTHCH:  cpu time    0.3480: real time    0.3489
       DOS:  cpu time    0.0014: real time    0.0014
    CHARGE:  cpu time    0.2186: real time    0.2191
    MIXING:  cpu time    0.0031: real time    0.0031
    --------------------------------------------
      LOOP:  cpu time    5.3489: real time    5.3659

 eigenvalue-minimisations  :  3682
 total energy-change (2. order) : 0.3439659E-01  (-0.2251160E-01)
 number of electron     503.9998360 magnetization 
 augmentation part      197.2251497 magnetization 

 DIPCOR: dipole corrections for dipol
 direction  3 min pos     1,
 dipolmoment           0.000000      0.000000      0.125910 electrons x Angstroem
 Tr[quadrupol]    -10261.090053

 energy correction for charged system         0.000000 eV
 dipol+quadrupol energy correction           -0.000559 eV
 added-field ion interaction          0.079715 eV  (added to PSCEN)


 Broyden mixing:
  rms(total) = 0.31925E+00    rms(broyden)= 0.31918E+00
  rms(prec ) = 0.37622E+00
  weight for this iteration     100.00

 eigenvalues of (default mixing * dielectric matrix)
  average eigenvalue GAMMA=   0.7331
  2.2109  1.5936  1.5936  0.6360  0.6360  0.4217  0.4217  0.3101  0.3101  0.2400
  0.2136  0.2101

 Free energy of the ion-electron system (eV)
  ---------------------------------------------------
  alpha Z        PSCENC =       805.94852111
  Ewald energy   TEWEN  =    200170.64357981
  -Hartree energ DENC   =   -242303.73725447
  -exchange      EXHF   =         0.00000000
  -V(xc)+E(xc)   XCENC  =      -343.68348227
  PAW double counting   =     49338.24372717   -47417.27027873
  entropy T*S    EENTRO =        -0.26610081
  eigenvalues    EBANDS =     -2098.43349393
  atomic energy  EATOM  =     41659.78587232
  Solvation  Ediel_sol  =         0.00000000
  ---------------------------------------------------
  free energy    TOTEN  =      -188.76890981 eV

  energy without entropy =     -188.50280900  energy(sigma->0) =     -188.63585940


--------------------------------------------------------------------------------------------------------




----------------------------------------- Iteration    1(  18)  ---------------------------------------


    POTLOK:  cpu time    0.0399: real time    0.0399
    SETDIJ:  cpu time    0.0049: real time    0.0050
    EDDIAG:  cpu time    1.2781: real time    1.2812
  RMM-DIIS:  cpu time    3.4345: real time    3.4431
    ORTHCH:  cpu time    0.3566: real time    0.3575
       DOS:  cpu time    0.0014: real time    0.0014
    CHARGE:  cpu time    0.2166: real time    0.2171
    MIXING:  cpu time    0.0031: real time    0.0031
    --------------------------------------------
      LOOP:  cpu time    5.3357: real time    5.3507

 eigenvalue-minimisations  :  3681
 total energy-change (2. order) : 0.1240795E+00  (-0.8726739E-02)
 number of electron     503.9998362 magnetization 
 augmentation part      197.1719664 magnetization 

 DIPCOR: dipole corrections for dipol
 direction  3 min pos     1,
 dipolmoment           0.000000      0.000000      0.113444 electrons x Angstroem
 Tr[quadrupol]    -10261.248787

 energy correction for charged system         0.000000 eV
 dipol+quadrupol energy correction           -0.000453 eV
 added-field ion interaction          0.071823 eV  (added to PSCEN)


 Broyden mixing:
  rms(total) = 0.13244E+00    rms(broyden)= 0.13237E+00
  rms(prec ) = 0.15318E+00
  weight for this iteration     100.00

 eigenvalues of (default mixing * dielectric matrix)
  average eigenvalue GAMMA=   0.7132
  2.2798  1.6161  1.6161  0.6520  0.6520  0.4146  0.4146  0.3757  0.2858  0.2858
  0.2150  0.2321  0.2321

 Free energy of the ion-electron system (eV)
  ---------------------------------------------------
  alpha Z        PSCENC =       805.94073405
  Ewald energy   TEWEN  =    200170.64357981
  -Hartree energ DENC   =   -242312.90826828
  -exchange      EXHF   =         0.00000000
  -V(xc)+E(xc)   XCENC  =      -343.55191511
  PAW double counting   =     49354.84408798   -47433.08934473
  entropy T*S    EENTRO =        -0.25838707
  eigenvalues    EBANDS =     -2090.05118931
  atomic energy  EATOM  =     41659.78587232
  Solvation  Ediel_sol  =         0.00000000
  ---------------------------------------------------
  free energy    TOTEN  =      -188.64483035 eV

  energy without entropy =     -188.38644328  energy(sigma->0) =     -188.51563681


--------------------------------------------------------------------------------------------------------




----------------------------------------- Iteration    1(  19)  ---------------------------------------


    POTLOK:  cpu time    0.0399: real time    0.0400
    SETDIJ:  cpu time    0.0053: real time    0.0053
    EDDIAG:  cpu time    1.2789: real time    1.2820
  RMM-DIIS:  cpu time    3.4592: real time    3.4681
    ORTHCH:  cpu time    0.3486: real time    0.3495
       DOS:  cpu time    0.0014: real time    0.0014
    CHARGE:  cpu time    0.2174: real time    0.2179
    MIXING:  cpu time    0.0033: real time    0.0033
    --------------------------------------------
      LOOP:  cpu time    5.3546: real time    5.3697

 eigenvalue-minimisations  :  3681
 total energy-change (2. order) : 0.1631383E-01  (-0.2478279E-02)
 number of electron     503.9998361 magnetization 
 augmentation part      197.1549163 magnetization 

 DIPCOR: dipole corrections for dipol
 direction  3 min pos     1,
 dipolmoment           0.000000      0.000000      0.093002 electrons x Angstroem
 Tr[quadrupol]    -10261.357079

 energy correction for charged system         0.000000 eV
 dipol+quadrupol energy correction           -0.000305 eV
 added-field ion interaction          0.058881 eV  (added to PSCEN)


 Broyden mixing:
  rms(total) = 0.98763E-01    rms(broyden)= 0.98743E-01
  rms(prec ) = 0.11047E+00
  weight for this iteration     100.00

 eigenvalues of (default mixing * dielectric matrix)
  average eigenvalue GAMMA=   0.7073
  2.2725  1.6274  1.6274  0.7148  0.7148  0.5253  0.4334  0.4334  0.3238  0.2940
  0.2940  0.2302  0.2187  0.1924

 Free energy of the ion-electron system (eV)
  ---------------------------------------------------
  alpha Z        PSCENC =       805.92794067
  Ewald energy   TEWEN  =    200170.64357981
  -Hartree energ DENC   =   -242317.43727712
  -exchange      EXHF   =         0.00000000
  -V(xc)+E(xc)   XCENC  =      -343.53169143
  PAW double counting   =     49363.76479936   -47441.89954982
  entropy T*S    EENTRO =        -0.26761764
  eigenvalues    EBANDS =     -2085.61457267
  atomic energy  EATOM  =     41659.78587232
  Solvation  Ediel_sol  =         0.00000000
  ---------------------------------------------------
  free energy    TOTEN  =      -188.62851652 eV

  energy without entropy =     -188.36089888  energy(sigma->0) =     -188.49470770


--------------------------------------------------------------------------------------------------------




----------------------------------------- Iteration    1(  20)  ---------------------------------------


    POTLOK:  cpu time    0.0400: real time    0.0401
    SETDIJ:  cpu time    0.0052: real time    0.0052
    EDDIAG:  cpu time    1.2811: real time    1.2842
  RMM-DIIS:  cpu time    3.4231: real time    3.4319
    ORTHCH:  cpu time    0.3488: real time    0.3497
       DOS:  cpu time    0.0014: real time    0.0014
    CHARGE:  cpu time    0.2148: real time    0.2153
    MIXING:  cpu time    0.0036: real time    0.0036
    --------------------------------------------
      LOOP:  cpu time    5.3186: real time    5.3337

 eigenvalue-minimisations  :  3685
 total energy-change (2. order) : 0.5265354E-02  (-0.6793624E-03)
 number of electron     503.9998362 magnetization 
 augmentation part      197.1284211 magnetization 

 DIPCOR: dipole corrections for dipol
 direction  3 min pos     1,
 dipolmoment           0.000000      0.000000      0.077145 electrons x Angstroem
 Tr[quadrupol]    -10261.448705

 energy correction for charged system         0.000000 eV
 dipol+quadrupol energy correction           -0.000210 eV
 added-field ion interaction          0.048842 eV  (added to PSCEN)


 Broyden mixing:
  rms(total) = 0.71736E-01    rms(broyden)= 0.71728E-01
  rms(prec ) = 0.79399E-01
  weight for this iteration     100.00

 eigenvalues of (default mixing * dielectric matrix)
  average eigenvalue GAMMA=   0.7100
  2.2722  1.6350  1.6350  0.8555  0.8555  0.4851  0.4851  0.4442  0.4442  0.3568
  0.2710  0.2710  0.2208  0.2208  0.1986

 Free energy of the ion-electron system (eV)
  ---------------------------------------------------
  alpha Z        PSCENC =       805.91799639
  Ewald energy   TEWEN  =    200170.64357981
  -Hartree energ DENC   =   -242321.55730671
  -exchange      EXHF   =         0.00000000
  -V(xc)+E(xc)   XCENC  =      -343.50266059
  PAW double counting   =     49367.86297279   -47445.86389798
  entropy T*S    EENTRO =        -0.26484684
  eigenvalues    EBANDS =     -2081.64496035
  atomic energy  EATOM  =     41659.78587232
  Solvation  Ediel_sol  =         0.00000000
  ---------------------------------------------------
  free energy    TOTEN  =      -188.62325116 eV

  energy without entropy =     -188.35840432  energy(sigma->0) =     -188.49082774


--------------------------------------------------------------------------------------------------------




----------------------------------------- Iteration    1(  21)  ---------------------------------------


    POTLOK:  cpu time    0.0403: real time    0.0404
    SETDIJ:  cpu time    0.0051: real time    0.0051
    EDDIAG:  cpu time    1.2768: real time    1.2800
  RMM-DIIS:  cpu time    3.4679: real time    3.4767
    ORTHCH:  cpu time    0.3496: real time    0.3506
       DOS:  cpu time    0.0015: real time    0.0015
    CHARGE:  cpu time    0.2185: real time    0.2190
    MIXING:  cpu time    0.0039: real time    0.0039
    --------------------------------------------
      LOOP:  cpu time    5.3643: real time    5.3804

 eigenvalue-minimisations  :  3680
 total energy-change (2. order) : 0.1996126E-02  (-0.4234926E-03)
 number of electron     503.9998362 magnetization 
 augmentation part      197.1128302 magnetization 

 DIPCOR: dipole corrections for dipol
 direction  3 min pos     1,
 dipolmoment           0.000000      0.000000      0.073184 electrons x Angstroem
 Tr[quadrupol]    -10261.548936

 energy correction for charged system         0.000000 eV
 dipol+quadrupol energy correction           -0.000189 eV
 added-field ion interaction          0.046334 eV  (added to PSCEN)


 Broyden mixing:
  rms(total) = 0.60212E-01    rms(broyden)= 0.60207E-01
  rms(prec ) = 0.67459E-01
  weight for this iteration     100.00

 eigenvalues of (default mixing * dielectric matrix)
  average eigenvalue GAMMA=   0.7541
  2.3647  1.8402  1.8402  0.9685  0.9685  0.7496  0.6110  0.4292  0.4292  0.4040
  0.2885  0.2885  0.2414  0.2288  0.2182  0.1953

 Free energy of the ion-electron system (eV)
  ---------------------------------------------------
  alpha Z        PSCENC =       805.91550964
  Ewald energy   TEWEN  =    200170.64357981
  -Hartree energ DENC   =   -242325.64387665
  -exchange      EXHF   =         0.00000000
  -V(xc)+E(xc)   XCENC  =      -343.48239086
  PAW double counting   =     49371.49624829   -47449.42175682
  entropy T*S    EENTRO =        -0.26394533
  eigenvalues    EBANDS =     -2077.65049544
  atomic energy  EATOM  =     41659.78587232
  Solvation  Ediel_sol  =         0.00000000
  ---------------------------------------------------
  free energy    TOTEN  =      -188.62125504 eV

  energy without entropy =     -188.35730971  energy(sigma->0) =     -188.48928237


--------------------------------------------------------------------------------------------------------




----------------------------------------- Iteration    1(  22)  ---------------------------------------


    POTLOK:  cpu time    0.0408: real time    0.0410
    SETDIJ:  cpu time    0.0054: real time    0.0054
    EDDIAG:  cpu time    1.2783: real time    1.2858
  RMM-DIIS:  cpu time    3.3337: real time    3.4204
    ORTHCH:  cpu time    0.3502: real time    0.3519
       DOS:  cpu time    0.0014: real time    0.0014
    CHARGE:  cpu time    0.2162: real time    0.2167
    MIXING:  cpu time    0.0039: real time    0.0039
    --------------------------------------------
      LOOP:  cpu time    5.2305: real time    5.3305

 eigenvalue-minimisations  :  3681
 total energy-change (2. order) : 0.2767940E-02  (-0.6203709E-03)
 number of electron     503.9998363 magnetization 
 augmentation part      197.0839620 magnetization 

 DIPCOR: dipole corrections for dipol
 direction  3 min pos     1,
 dipolmoment           0.000000      0.000000      0.065315 electrons x Angstroem
 Tr[quadrupol]    -10261.804864

 energy correction for charged system         0.000000 eV
 dipol+quadrupol energy correction           -0.000150 eV
 added-field ion interaction          0.041352 eV  (added to PSCEN)


 Broyden mixing:
  rms(total) = 0.45764E-01    rms(broyden)= 0.45755E-01
  rms(prec ) = 0.53057E-01
  weight for this iteration     100.00

 eigenvalues of (default mixing * dielectric matrix)
  average eigenvalue GAMMA=   0.7536
  2.2958  1.9689  1.9689  1.1070  0.8541  0.8541  0.5861  0.5861  0.4191  0.4191
  0.3032  0.3032  0.2679  0.2422  0.2208  0.2208  0.1938

 Free energy of the ion-electron system (eV)
  ---------------------------------------------------
  alpha Z        PSCENC =       805.91056571
  Ewald energy   TEWEN  =    200170.64357981
  -Hartree energ DENC   =   -242335.69466448
  -exchange      EXHF   =         0.00000000
  -V(xc)+E(xc)   XCENC  =      -343.44193312
  PAW double counting   =     49381.28896015   -47459.12040280
  entropy T*S    EENTRO =        -0.26344032
  eigenvalues    EBANDS =     -2067.72702436
  atomic energy  EATOM  =     41659.78587232
  Solvation  Ediel_sol  =         0.00000000
  ---------------------------------------------------
  free energy    TOTEN  =      -188.61848710 eV

  energy without entropy =     -188.35504677  energy(sigma->0) =     -188.48676693


--------------------------------------------------------------------------------------------------------




----------------------------------------- Iteration    1(  23)  ---------------------------------------


    POTLOK:  cpu time    0.0412: real time    0.0413
    SETDIJ:  cpu time    0.0051: real time    0.0051
    EDDIAG:  cpu time    1.2941: real time    1.2982
  RMM-DIIS:  cpu time    3.4732: real time    3.4848
    ORTHCH:  cpu time    0.3522: real time    0.3531
       DOS:  cpu time    0.0015: real time    0.0015
    CHARGE:  cpu time    0.2178: real time    0.2184
    MIXING:  cpu time    0.0041: real time    0.0041
    --------------------------------------------
      LOOP:  cpu time    5.3900: real time    5.4107

 eigenvalue-minimisations  :  3680
 total energy-change (2. order) : 0.1245159E-02  (-0.2438294E-03)
 number of electron     503.9998363 magnetization 
 augmentation part      197.0875660 magnetization 

 DIPCOR: dipole corrections for dipol
 direction  3 min pos     1,
 dipolmoment           0.000000      0.000000      0.063603 electrons x Angstroem
 Tr[quadrupol]    -10261.879585

 energy correction for charged system         0.000000 eV
 dipol+quadrupol energy correction           -0.000143 eV
[...]
    297       4.6727      0.00000
    298       4.7571      0.00000
    299       4.8527      0.00000
    300       4.9070      0.00000
    301       4.9497      0.00000
    302       5.0003      0.00000
    303       5.0588      0.00000
    304       5.0759      0.00000
    305       5.1416      0.00000
    306       5.2349      0.00000


--------------------------------------------------------------------------------------------------------


 soft charge-density along one line, spin component           1
         0         1         2         3         4         5         6         7         8         9
 total charge-density along one line
 
 pseudopotential strength for first ion, spin component:           1
 -8.041   0.004  -0.007  -0.004  -0.001  -8.187   0.004  -0.007
  0.004  -7.964  -0.001   0.005  -0.001   0.004  -8.112  -0.001
 -0.007  -0.001  -7.957   0.000   0.000  -0.007  -0.001  -8.106
 -0.004   0.005   0.000  -7.964   0.005  -0.004   0.005   0.000
 -0.001  -0.001   0.000   0.005  -8.040  -0.001  -0.001   0.000
 -8.187   0.004  -0.007  -0.004  -0.001  -8.318   0.003  -0.007
  0.004  -8.112  -0.001   0.005  -0.001   0.003  -8.244  -0.001
 -0.007  -0.001  -8.106   0.000   0.000  -0.007  -0.001  -8.238
 -0.004   0.005   0.000  -8.113   0.005  -0.004   0.005   0.000
 -0.001  -0.001   0.000   0.005  -8.187  -0.001  -0.001   0.000
 -0.003   0.001  -0.025  -0.002  -0.000  -0.003   0.001  -0.025
 -0.005   0.001  -0.036  -0.004  -0.000  -0.005   0.001  -0.036
  0.002  -0.007   0.000  -0.000   0.000   0.002  -0.007   0.000
 -0.000  -0.000  -0.010   0.003   0.000  -0.000  -0.000  -0.009
 -0.000  -0.000  -0.002  -0.007   0.003  -0.000  -0.000  -0.002
  0.003  -0.007   0.000  -0.000   0.000   0.003  -0.007   0.000
 -0.000  -0.000  -0.011   0.003   0.000  -0.000  -0.000  -0.010
 -0.000  -0.000  -0.002  -0.007   0.004  -0.000  -0.000  -0.002
 total augmentation occupancy for first ion, spin component:           1
  4.389  -0.010   0.181  -0.036   0.183  -2.576   0.021  -0.200  -0.011  -0.194   0.224  -0.106   0.014  -0.007  -0.017   0.002
 -0.010   4.094  -0.017   0.007  -0.002   0.022  -1.848   0.015   0.005  -0.033  -0.010   0.004  -0.143   0.002  -0.020  -0.000
  0.181  -0.017   4.475  -0.016   0.021  -0.200   0.015  -2.360  -0.003  -0.021   1.019  -0.167   0.005  -0.221   0.021  -0.000
 -0.036   0.007  -0.016   4.064   0.019  -0.010   0.005  -0.003  -1.819   0.017   0.093  -0.018  -0.021   0.003  -0.138   0.000
  0.183  -0.002   0.021   0.019   4.401  -0.194  -0.034  -0.021   0.018  -2.585   0.025  -0.002  -0.015  -0.002  -0.057   0.000
 -2.576   0.022  -0.200  -0.010  -0.194   2.645  -0.030   0.213   0.046   0.200  -0.202   0.099  -0.014   0.011   0.017  -0.000
  0.021  -1.848   0.015   0.005  -0.034  -0.030   1.570  -0.013  -0.016   0.061   0.006  -0.002   0.137  -0.002   0.020  -0.004
 -0.200   0.015  -2.360  -0.003  -0.021   0.213  -0.013   2.192   0.018   0.020  -0.948   0.179  -0.005   0.234  -0.016   0.000
 -0.011   0.005  -0.003  -1.819   0.018   0.046  -0.016   0.018   1.542  -0.045  -0.082   0.017   0.021  -0.003   0.131  -0.000
 -0.194  -0.033  -0.021   0.017  -2.585   0.200   0.061   0.020  -0.045   2.651  -0.023   0.004   0.014   0.001   0.047  -0.000
  0.224  -0.010   1.019   0.093   0.025  -0.202   0.006  -0.948  -0.082  -0.023   2.439  -0.506   0.003   0.118   0.008  -0.000
 -0.106   0.004  -0.167  -0.018  -0.002   0.099  -0.002   0.179   0.017   0.004  -0.506   0.140  -0.001  -0.046  -0.013   0.000
  0.014  -0.143   0.005  -0.021  -0.015  -0.014   0.137  -0.005   0.021   0.014   0.003  -0.001   0.198   0.000  -0.008  -0.006
 -0.007   0.002  -0.221   0.003  -0.002   0.011  -0.002   0.234  -0.003   0.001   0.118  -0.046   0.000   0.095  -0.005  -0.000
 -0.017  -0.020   0.021  -0.138  -0.057   0.017   0.020  -0.016   0.131   0.047   0.008  -0.013  -0.008  -0.005   0.194   0.001
  0.002  -0.000  -0.000   0.000   0.000  -0.000  -0.004   0.000  -0.000  -0.000  -0.000   0.000  -0.006  -0.000   0.001   0.000
 -0.000  -0.000  -0.005   0.003   0.000  -0.000   0.000  -0.004  -0.000   0.000  -0.008   0.002  -0.000  -0.003   0.000   0.000
  0.000   0.000  -0.003  -0.000   0.005  -0.001  -0.000   0.001  -0.004  -0.003  -0.000   0.000   0.001   0.000  -0.006  -0.000


------------------------ aborting loop because EDIFF is reached ----------------------------------------


    CHARGE:  cpu time    0.2095: real time    0.2102
    FORLOC:  cpu time    0.0158: real time    0.0159
    FORNL :  cpu time    1.3057: real time    1.3116
    FORCOR:  cpu time    0.0556: real time    0.0569
    FORHAR:  cpu time    0.0240: real time    0.0240
    MIXING:  cpu time    0.0030: real time    0.0030
    OFIELD:  cpu time    0.0000: real time    0.0000

 VOLUME and BASIS-vectors are now :
 -----------------------------------------------------------------------------
  energy-cutoff  :      400.00
  volume of cell :     2567.68
      direct lattice vectors                 reciprocal lattice vectors
    11.002581515  0.000000000  0.000000000     0.090887761 -0.052474073  0.000000000
     5.501290758  9.528515099  0.000000000     0.000000000  0.104948147  0.000000000
     0.000000000  0.000000000 24.491785094     0.000000000  0.000000000  0.040830017

  length of vectors
    11.002581515 11.002581515 24.491785094     0.104948147  0.104948147  0.040830017


 FORCES acting on ions
    electron-ion (+dipol)            ewald-force                    non-local-force                 convergence-correction
 -----------------------------------------------------------------------------------------------
   0.146E+02 0.684E+00 0.222E+04   -.151E+02 -.662E+00 -.222E+04   0.551E+00 -.247E-01 -.650E+00   0.127E-03 0.280E-02 0.116E-03
   -.218E+01 0.398E+01 0.227E+04   0.222E+01 -.377E+01 -.227E+04   -.389E-01 -.204E+00 0.182E+00   -.186E-02 0.351E-02 -.780E-03
   0.116E+02 -.876E+01 0.219E+04   -.117E+02 0.908E+01 -.219E+04   0.138E+00 -.322E+00 -.678E+00   0.135E-02 0.126E-02 -.141E-02
   0.141E+01 -.312E+01 0.227E+04   -.165E+01 0.284E+01 -.227E+04   0.229E+00 0.298E+00 -.171E+00   -.139E-02 -.168E-02 0.689E-03
   -.170E+02 0.720E+01 -.225E+04   0.175E+02 -.745E+01 0.225E+04   -.491E+00 0.247E+00 0.394E+00   -.291E-02 0.815E-03 0.228E-02
   -.512E+01 -.619E+01 -.786E+02   0.486E+01 0.607E+01 0.781E+02   0.270E+00 0.114E+00 0.507E+00   -.293E-02 -.232E-02 0.968E-03
   0.189E+02 -.204E+02 0.225E+04   -.194E+02 0.209E+02 -.225E+04   0.509E+00 -.504E+00 0.187E-02   -.198E-02 -.303E-02 0.704E-03
   0.552E+00 0.505E+01 -.225E+04   -.639E+00 -.500E+01 0.225E+04   0.825E-01 -.547E-01 0.672E+00   -.611E-03 0.340E-02 -.516E-03
   -.420E+01 -.751E+01 -.176E+02   0.377E+01 0.735E+01 0.180E+02   0.433E+00 0.177E+00 -.430E+00   -.159E-02 -.289E-02 0.240E-02
   -.130E+02 0.293E+02 0.222E+04   0.135E+02 -.304E+02 -.222E+04   -.592E+00 0.110E+01 0.130E+00   0.239E-04 0.153E-02 -.501E-03
   -.140E+02 -.617E+01 -.132E+02   0.135E+02 0.584E+01 0.137E+02   0.421E+00 0.341E+00 -.478E+00   -.611E-02 -.272E-03 -.244E-02
   -.265E+02 0.767E+01 -.231E+04   0.271E+02 -.772E+01 0.231E+04   -.612E+00 0.483E-01 0.785E-01   -.294E-02 -.838E-04 0.779E-03
   0.943E+01 0.418E+01 -.823E+02   -.881E+01 -.407E+01 0.813E+02   -.617E+00 -.102E+00 0.101E+01   0.823E-03 -.130E-02 0.145E-02
   0.839E+01 -.215E+01 0.226E+04   -.867E+01 0.226E+01 -.226E+04   0.291E+00 -.105E+00 0.200E-01   -.300E-02 0.547E-03 -.119E-02
   0.257E+02 -.130E+02 -.232E+04   -.261E+02 0.132E+02 0.232E+04   0.369E+00 -.203E+00 0.113E+00   -.111E-02 -.317E-02 0.902E-03
   -.192E+02 -.865E+01 0.228E+04   0.198E+02 0.926E+01 -.228E+04   -.579E+00 -.607E+00 -.782E-02   0.760E-03 -.203E-02 0.728E-03
   0.149E+02 0.180E+02 -.234E+04   -.155E+02 -.188E+02 0.234E+04   0.535E+00 0.752E+00 0.802E-01   -.227E-02 -.415E-02 -.105E-03
   0.829E+01 0.371E+00 -.243E+02   -.819E+01 -.182E+00 0.249E+02   -.826E-01 -.186E+00 -.562E+00   0.818E-03 0.350E-03 -.526E-03
   -.281E+01 0.514E+01 -.925E+01   0.285E+01 -.483E+01 0.104E+02   -.504E-01 -.324E+00 -.113E+01   -.581E-03 0.795E-04 -.604E-03
   -.117E+02 0.219E+01 0.223E+04   0.124E+02 -.226E+01 -.223E+04   -.624E+00 0.673E-01 -.342E+00   0.231E-02 0.193E-02 0.880E-03
   -.119E+02 -.239E+02 -.233E+04   0.122E+02 0.246E+02 0.233E+04   -.313E+00 -.734E+00 0.228E+00   0.615E-03 -.221E-02 0.872E-03
   -.507E+01 0.122E+02 0.228E+04   0.508E+01 -.126E+02 -.228E+04   -.203E-01 0.361E+00 0.745E-01   0.197E-02 0.138E-02 -.589E-03
   -.796E+00 -.306E+01 -.496E+02   0.811E+00 0.311E+01 0.495E+02   -.159E-01 -.369E-01 0.735E-01   0.899E-03 -.454E-02 0.345E-02
   0.611E+01 0.316E+00 0.157E+02   -.628E+01 -.256E+00 -.140E+02   0.161E+00 -.730E-01 -.168E+01   0.552E-02 0.221E-02 0.841E-03
   -.268E+02 0.291E+01 0.192E+04   0.272E+02 -.305E+01 -.192E+04   -.413E+00 0.145E+00 -.137E+01   -.855E-03 -.228E-02 0.822E-03
   0.266E+01 0.302E+00 0.192E+02   -.241E+01 0.171E+00 -.182E+02   -.250E+00 -.474E+00 -.974E+00   0.204E-02 -.205E-02 -.422E-02
   0.262E+02 0.100E+02 -.200E+04   -.268E+02 -.104E+02 0.200E+04   0.533E+00 0.366E+00 0.158E+01   0.229E-02 -.130E-02 0.273E-03
   -.202E+01 -.232E+02 -.199E+04   0.223E+01 0.236E+02 0.199E+04   -.206E+00 -.319E+00 0.153E+01   0.362E-03 -.953E-03 0.918E-03
   0.538E+01 0.102E+02 -.248E+02   -.441E+01 -.976E+01 0.247E+02   -.977E+00 -.409E+00 -.355E-02   -.859E-03 0.311E-02 -.304E-02
   0.627E+01 -.168E+01 -.200E+04   -.640E+01 0.152E+01 0.200E+04   0.132E+00 0.154E+00 0.144E+01   -.383E-02 0.855E-03 0.128E-02
   0.422E+01 0.390E+00 0.192E+04   -.436E+01 -.289E+00 -.192E+04   0.147E+00 -.106E+00 -.152E+01   0.450E-03 -.137E-02 0.203E-02
   0.362E+00 0.219E+02 -.201E+04   -.746E+00 -.220E+02 0.201E+04   0.386E+00 0.838E-01 0.147E+01   -.377E-02 -.796E-03 0.158E-02
   -.204E+01 0.275E+01 -.194E+01   0.164E+01 -.266E+01 0.232E+01   0.412E+00 -.992E-01 -.379E+00   -.448E-02 0.258E-02 -.137E-02
   -.147E+02 0.503E+00 -.196E+04   0.151E+02 -.290E+00 0.195E+04   -.468E+00 -.207E+00 0.191E+01   0.204E-02 0.137E-03 0.477E-03
   -.417E+01 -.201E+00 0.150E+02   0.400E+01 0.796E-02 -.142E+02   0.172E+00 0.188E+00 -.792E+00   0.982E-03 0.771E-03 -.419E-03
   -.672E+00 0.541E+01 0.324E+02   -.828E-01 -.541E+01 -.310E+02   0.739E+00 -.165E-01 -.133E+01   0.216E-02 0.217E-02 -.185E-02
   0.223E+01 0.370E+01 -.224E+02   -.204E+01 -.394E+01 0.223E+02   -.195E+00 0.249E+00 0.765E-01   -.665E-03 0.105E-02 0.413E-03
   0.776E+01 -.113E+02 0.195E+04   -.799E+01 0.114E+02 -.195E+04   0.229E+00 -.753E-01 -.155E+01   -.125E-02 0.235E-02 -.109E-02
   -.243E+02 -.626E+01 -.199E+04   0.245E+02 0.626E+01 0.199E+04   -.232E+00 0.671E-03 0.168E+01   0.109E-02 0.117E-02 0.169E-02
   -.173E+01 -.520E+01 -.146E+02   0.205E+01 0.495E+01 0.149E+02   -.328E+00 0.252E+00 -.321E+00   0.408E-02 0.233E-02 -.420E-03
   0.221E+02 -.429E+01 0.195E+04   -.221E+02 0.439E+01 -.195E+04   0.305E-01 -.886E-01 -.171E+01   0.603E-03 0.129E-03 -.866E-03
   0.144E+02 0.137E+02 -.201E+04   -.144E+02 -.136E+02 0.201E+04   0.942E-02 -.820E-01 0.161E+01   0.164E-02 0.260E-03 -.996E-03
   -.113E+02 -.129E+02 0.196E+04   0.113E+02 0.130E+02 -.195E+04   -.144E-01 -.783E-01 -.136E+01   0.210E-04 -.507E-02 0.265E-02
   -.490E+01 -.156E+02 -.200E+04   0.484E+01 0.157E+02 0.200E+04   0.645E-01 -.516E-01 0.148E+01   0.372E-02 0.333E-02 0.845E-03
   0.429E+00 0.202E+02 0.195E+04   -.454E+00 -.205E+02 -.195E+04   0.180E-01 0.246E+00 -.139E+01   0.143E-02 0.192E-02 -.162E-02
   0.143E+00 -.347E+01 -.128E+03   -.140E+00 0.331E+01 0.127E+03   -.510E-02 0.168E+00 0.991E+00   0.463E-03 -.224E-02 0.279E-02
   0.120E+02 0.217E+01 -.198E+04   -.123E+02 -.239E+01 0.198E+04   0.256E+00 0.217E+00 0.198E+01   -.133E-02 -.646E-03 0.117E-02
   0.193E+01 -.336E+01 -.198E+04   -.189E+01 0.351E+01 0.198E+04   -.522E-01 -.154E+00 0.184E+01   0.605E-02 0.240E-02 -.985E-04
 -----------------------------------------------------------------------------------------------
   0.748E-01 0.744E-01 -.230E+01   0.207E-12 -.325E-12 0.455E-12   -.595E-01 -.653E-01 0.232E+01   -.172E-02 -.229E-04 0.935E-02
 
 
 POSITION                                       TOTAL-FORCE (eV/Angst)
 -----------------------------------------------------------------------------------
      5.48769      3.17870      9.76317         0.002537      0.000274     -0.009862
      8.25201      3.17669      9.66840        -0.005098      0.006805      0.007684
     10.98685      7.95410      9.76467         0.002472      0.000477     -0.033327
      6.87057      0.79657      9.68379        -0.009031      0.010903      0.005099
      9.65485      7.13278     14.72523         0.002998     -0.006789     -0.000715
      6.87386      8.73122     12.31248         0.006675     -0.003360      0.016574
      8.22061      7.96600      9.73072         0.005333      0.007641      0.018672
      5.50330      4.76253     14.70110        -0.005491      0.002617      0.009982
      8.23354      1.58904     12.25501         0.005958      0.012695      0.005870
     11.01664      3.13749      9.75459        -0.002644     -0.001370     -0.006424
      8.24171      6.34743     12.25129        -0.006010      0.005155     -0.001681
      2.78314     -0.00635     14.84613         0.000013      0.001671      0.009141
      2.77358      1.58706     12.31118         0.005343     -0.000061      0.004509
      9.61528      5.56014      9.65588         0.008840      0.006039     -0.005274
      9.59750      2.39119     14.85257         0.001160     -0.001627      0.007578
     13.78092      7.96120      9.66316         0.000466     -0.006164     -0.008707
     -0.02316     -0.02454     14.91042        -0.003724     -0.003886      0.004990
     12.38491      3.97222     12.26665         0.018510      0.002635      0.001164
      9.62034      3.97290     12.25594        -0.010602     -0.011492      0.007332
      4.14989      5.56349      9.74052         0.006210      0.001454     -0.013256
      1.39222      2.40524     14.88565        -0.004983      0.000165      0.000482
     12.38959      5.54073      9.63217        -0.010199      0.005392     -0.001527
     15.12333      8.73126     12.28516        -0.000792      0.001127      0.000125
     13.74948      6.35435     12.22943        -0.005206     -0.011277      0.003940
      9.64587      0.79311      9.92104        -0.000472     -0.000569     -0.004947
     10.99979      6.36959     12.21789         0.003413     -0.002697     -0.013351
      8.22383     -0.01723     14.63445        -0.000756      0.003404      0.001964
     11.01450      4.77047     14.62677         0.002709      0.005461     -0.000685
      9.64877      8.73360     12.25650         0.000700     -0.003758     -0.016315
      8.24715      4.75646     14.62933         0.003369     -0.001483      0.007398
      1.36708      0.80062      9.96123         0.003896     -0.007340     -0.001189
      6.87022      7.13927     14.66755        -0.002152     -0.004064      0.013051
      6.85323      3.96281     12.23386         0.007582     -0.009244     -0.000067
      5.52560      0.00709     14.55975        -0.004074      0.005865      0.013666
      5.50714      1.58850     12.21038         0.004181     -0.004528     -0.005726
     12.35214      8.74307     12.19528        -0.014615     -0.010671     -0.001302
      5.49336      6.32680     12.25394        -0.000647      0.009788      0.000920
      6.87315      5.56939      9.87912        -0.004726     -0.005227     -0.007490
      4.14465      2.38499     14.62915         0.001693     -0.006923      0.008590
      4.16156      3.96713     12.24507        -0.007247      0.006251     -0.008461
      4.10144      0.80571      9.90561         0.001999      0.006540     -0.008864
      4.11331      7.14169     14.64802         0.011274     -0.001853      0.000586
      5.50518      7.95807      9.89595         0.001087     -0.002291      0.000304
      2.75163      4.77347     14.63047         0.003076     -0.000315      0.007196
      2.74896      3.16005      9.89898        -0.005381      0.005598      0.000320
     11.00083      1.59496     12.38338        -0.001605      0.006100     -0.015861
      6.86377      2.36633     14.59636        -0.005659     -0.008378      0.005086
     12.39340      7.14997     14.57749        -0.000379      0.001313      0.002806
 -----------------------------------------------------------------------------------
    total drift:                                0.013576      0.009072      0.032549


--------------------------------------------------------------------------------------------------------



  FREE ENERGIE OF THE ION-ELECTRON SYSTEM (eV)
  ---------------------------------------------------
  free  energy   TOTEN  =      -192.36203807 eV

  energy  without entropy=     -192.11962033  energy(sigma->0) =     -192.24082920
 
 d Force = 0.1286847E-02[ 0.493E-03, 0.208E-02]  d Energy = 0.1269163E-02 0.177E-04
 d Force = 0.3666364E+01[ 0.372E+01, 0.361E+01]  d Ewald  = 0.3666365E+01-0.133E-05


--------------------------------------------------------------------------------------------------------


    POTLOK:  cpu time    0.0471: real time    0.0481


--------------------------------------------------------------------------------------------------------


 stress matrix after NEB project (eV)
      0.00000      0.00000      0.00000
      0.00000      0.00000      0.00000
      0.00000      0.00000      0.00000
  FORCES: max atom, RMS     0.033422    0.012550
  FORCE total and by dimension    0.086948    0.033327
  Stress total and by dimension    0.000000    0.000000
 Conjugate gradient step on ions:
 trial-energy change:   -0.001269  1 .order   -0.001287   -0.002081   -0.000493
  (g-gl).g = 0.592E-03      g.g   = 0.735E-03  gl.gl    = 0.194E-02
 g(Force)  = 0.735E-03   g(Stress)= 0.000E+00 ortho     = 0.115E-03
 gamma     =   0.30443
 trial     =   2.70262
 opt step  =   3.62370  (harmonic =   3.54119) maximal distance =0.00847504
 next E    =  -192.362121   (d E  =  -0.00135)


--------------------------------------------------------------------------------------------------------


    WAVPRE:  cpu time    0.0184: real time    0.0186
 FEWALD executed in parallel
    FEWALD:  cpu time    0.0011: real time    0.0011

 real space projection operators:
  total allocation   :      12817.27 KBytes
  max/ min on nodes  :       2141.58       2125.27

    ORTHCH:  cpu time    0.7694: real time    0.7713
     LOOP+:  cpu time   65.7150: real time   66.1066


----------------------------------------- Iteration   23(   1)  ---------------------------------------


    POTLOK:  cpu time    0.0409: real time    0.0411
    SETDIJ:  cpu time    0.0051: real time    0.0052
     EDDAV:  cpu time    7.2126: real time    7.2414
       DOS:  cpu time    0.0016: real time    0.0016
    CHARGE:  cpu time    0.2124: real time    0.2129
    MIXING:  cpu time    0.0015: real time    0.0016
    --------------------------------------------
      LOOP:  cpu time    7.4760: real time    7.5121

 eigenvalue-minimisations  :  3672
 total energy-change (2. order) : 0.1488972E-03  (-0.2525638E-01)
 number of electron     503.9999464 magnetization 
 augmentation part      197.3322092 magnetization 

 DIPCOR: dipole corrections for dipol
 direction  3 min pos     1,
 dipolmoment           0.000000      0.000000      0.006414 electrons x Angstroem
 Tr[quadrupol]    -10254.845153

 energy correction for charged system         0.000000 eV
 dipol+quadrupol energy correction           -0.000001 eV
 added-field ion interaction          0.004409 eV  (added to PSCEN)


  free energy =  -0.192361889232E+03  energy without entropy=  -0.192119467828E+03


--------------------------------------------------------------------------------------------------------




----------------------------------------- Iteration   23(   2)  ---------------------------------------


    POTLOK:  cpu time    0.0410: real time    0.0411
    SETDIJ:  cpu time    0.0052: real time    0.0054
    EDDIAG:  cpu time    1.2758: real time    1.2790
