unknown system                          
           1
    11.002582    0.000000    0.000000
     5.501291    9.528515    0.000000
     0.000000    0.000000   24.491785
   Au   Pd
  24  24
Direct configuration=     1
   0.33333333  0.33333333  0.40830017
   0.58333333  0.33333333  0.40830017
   0.58333333  0.83333333  0.40830017
   0.58333333  0.08333333  0.40830017
   0.50000000  0.75000000  0.59169983
   0.16666667  0.91666667  0.50000000
   0.33333333  0.83333333  0.40830017
   0.25000000  0.50000000  0.59169983
   0.66666667  0.16666667  0.50000000
   0.83333333  0.33333333  0.40830017
   0.41666667  0.66666667  0.50000000
   0.25000000  0.00000000  0.59169983
   0.16666667  0.16666667  0.50000000
   0.58333333  0.58333333  0.40830017
   0.75000000  0.25000000  0.59169983
   0.83333333  0.83333333  0.40830017
   0.00000000  0.00000000  0.59169983
   0.91666667  0.41666667  0.50000000
   0.66666667  0.41666667  0.50000000
   0.08333333  0.58333333  0.40830017
   0.00000000  0.25000000  0.59169983
   0.83333333  0.58333333  0.40830017
   0.91666667  0.91666667  0.50000000
   0.91666667  0.66666667  0.50000000
   0.83333333  0.08333333  0.40830017
   0.66666667  0.66666667  0.50000000
   0.75000000  0.00000000  0.59169983
   0.75000000  0.50000000  0.59169983
   0.41666667  0.91666667  0.50000000
   0.50000000  0.50000000  0.59169983
   0.08333333  0.08333333  0.40830017
   0.25000000  0.75000000  0.59169983
   0.41666667  0.41666667  0.50000000
   0.50000000  0.00000000  0.59169983
   0.41666667  0.16666667  0.50000000
   0.66666667  0.91666667  0.50000000
   0.16666667  0.66666667  0.50000000
   0.33333333  0.58333333  0.40830017
   0.25000000  0.25000000  0.59169983
   0.16666667  0.41666667  0.50000000
   0.33333333  0.08333333  0.40830017
   0.00000000  0.75000000  0.59169983
   0.08333333  0.83333333  0.40830017
   0.00000000  0.50000000  0.59169983
   0.08333333  0.33333333  0.40830017
   0.91666667  0.16666667  0.50000000
   0.50000000  0.25000000  0.59169983
   0.75000000  0.75000000  0.59169983
Direct configuration=     2
   0.33258154  0.33350878  0.40675558
   0.58286999  0.33349606  0.40607969
   0.58245022  0.83425676  0.40670423
   0.58295425  0.08311539  0.40641703
   0.50104994  0.74959334  0.59351660
   0.16628593  0.91622956  0.49952056
   0.33217198  0.83432826  0.40617424
   0.25003453  0.49990899  0.59313960
   0.66610824  0.16591788  0.50045452
   0.83511682  0.33123903  0.40608079
   0.41585020  0.66589146  0.50041104
   0.25131173 -0.00023456  0.59392857
   0.16804439  0.16703460  0.49927715
   0.58279107  0.58364274  0.40602474
   0.74897804  0.25052411  0.59390098
   0.83362278  0.83437257  0.40608947
  -0.00031993 -0.00103337  0.59398584
   0.91720193  0.41704290  0.50045488
   0.66612185  0.41739293  0.50079671
   0.08479033  0.58299807  0.40642321
  -0.00030100  0.25128184  0.59398045
   0.83366638  0.58276827  0.40601167
   0.91671028  0.91661760  0.50002769
   0.91667024  0.66668112  0.50120616
   0.83445274  0.08296257  0.40701624
   0.66656815  0.66769670  0.50065528
   0.74925569 -0.00056411  0.59284138
   0.74992250  0.50066819  0.59290847
   0.41790427  0.91760414  0.50004024
   0.49987594  0.49984855  0.59286083
   0.08309466  0.08352672  0.40712384
   0.24984130  0.74935190  0.59293770
   0.41565346  0.41682701  0.50034396
   0.50051489  0.00041788  0.59240958
   0.41641692  0.16643154  0.50049752
   0.66520006  0.91691066  0.50082166
   0.16725384  0.66607247  0.49999020
   0.33259458  0.58354133  0.40729912
   0.25066368  0.25015516  0.59263531
   0.16768436  0.41606268  0.50024572
   0.33269952  0.08375396  0.40742946
  -0.00022247  0.74986963  0.59284070
   0.08343469  0.83359377  0.40709970
  -0.00030069  0.50042073  0.59283665
   0.08396562  0.33236973  0.40714992
   0.91689205  0.16621235  0.49950888
   0.49965156  0.24952396  0.59254049
   0.75022090  0.75016815  0.59260575
Direct configuration=     3
   0.33032616  0.33403513  0.40212180
   0.58147995  0.33398424  0.39941823
   0.57980089  0.83702706  0.40191643
   0.58181700  0.08246155  0.40076762
   0.50419977  0.74837335  0.59896693
   0.16514373  0.91491823  0.49808224
   0.32868794  0.83731303  0.39979644
   0.25013811  0.49963597  0.59745891
   0.66443296  0.16367152  0.50181808
   0.84046726  0.32495610  0.39942267
   0.41340081  0.66356583  0.50164416
   0.25524693 -0.00093823  0.60061479
   0.17217755  0.16813842  0.49710860
   0.58116430  0.58457096  0.39919845
   0.74591216  0.25209644  0.60050442
   0.83449113  0.83749029  0.39945739
  -0.00127970 -0.00413349  0.60084386
   0.91880773  0.41817160  0.50181954
   0.66448740  0.41957171  0.50318682
   0.08916134  0.58199228  0.40079235
  -0.00120401  0.25512735  0.60082231
   0.83466551  0.58107307  0.39914618
   0.91684111  0.91647042  0.50011076
   0.91668096  0.66672449  0.50482464
   0.83781098  0.08185026  0.40316444
   0.66627259  0.67078680  0.50262111
   0.74702278 -0.00225645  0.59626603
   0.74968998  0.50267277  0.59653439
   0.42161709  0.92041655  0.50016097
   0.49950376  0.49939421  0.59634382
   0.08237866  0.08410688  0.40359485
   0.24936519  0.74740761  0.59665132
   0.41261384  0.41730806  0.50137582
   0.50205957  0.00167151  0.59453883
   0.41566768  0.16572616  0.50199007
   0.66080026  0.91764263  0.50328664
   0.16901537  0.66428989  0.49996080
   0.33037830  0.58416534  0.40429597
   0.25265473  0.25062062  0.59544175
   0.17073746  0.41425072  0.50098290
   0.33079807  0.08501583  0.40481732
  -0.00088986  0.74947854  0.59626331
   0.08373877  0.83437507  0.40349830
  -0.00120275  0.50168290  0.59624712
   0.08586248  0.32947893  0.40369916
   0.91756821  0.16484939  0.49803550
   0.49860623  0.24809586  0.59506248
   0.75088359  0.75067261  0.59532350
Direct configuration=     4
   0.33179513  0.33276399  0.40106696
   0.58239997  0.33360137  0.39841758
   0.58100388  0.83551074  0.40092060
   0.58189544  0.08364963  0.39969925
   0.50310738  0.74886688  0.60036137
   0.16713647  0.91602744  0.49880956
   0.32933438  0.83660083  0.39845395
   0.24962701  0.49988372  0.59897052
   0.66445812  0.16532294  0.50115140
   0.83818379  0.32747927  0.39819753
   0.41450754  0.66589138  0.50124887
   0.25376884 -0.00049638  0.60163485
   0.16991459  0.16667705  0.49824979
   0.58157725  0.58403249  0.39816330
   0.74695055  0.25102995  0.60212038
   0.83498307  0.83561831  0.39834924
  -0.00102712 -0.00280146  0.60228679
   0.91820392  0.41707105  0.50122210
   0.66589289  0.41800342  0.50234437
   0.08585177  0.58331616  0.39981168
  -0.00008357  0.25294930  0.60213362
   0.83525051  0.58141784  0.39806973
   0.91571761  0.91590785  0.50006244
   0.91739023  0.66728479  0.50323129
   0.83640781  0.08208295  0.40240495
   0.66514524  0.67024349  0.50172778
   0.74784066 -0.00221472  0.59749931
   0.75006627  0.50236044  0.59782812
   0.41977372  0.91821065  0.50018618
   0.49909773  0.49950654  0.59777682
   0.08367595  0.08302825  0.40245489
   0.24931801  0.74846716  0.59759445
   0.41394806  0.41530430  0.50090549
   0.50160380  0.00150019  0.59606832
   0.41680362  0.16692877  0.50123867
   0.66283174  0.91721534  0.50223082
   0.16701624  0.66396660  0.49985883
   0.33185333  0.58446290  0.40360418
   0.25156045  0.25049152  0.59642874
   0.17033948  0.41587901  0.50070232
   0.33130536  0.08466157  0.40358165
  -0.00053968  0.74966408  0.59759583
   0.08346762  0.83424369  0.40240232
  -0.00043432  0.50120346  0.59789049
   0.08455324  0.33118465  0.40272458
   0.91691201  0.16673341  0.49885663
   0.49889212  0.24834023  0.59623720
   0.75072189  0.75092698  0.59722427
Direct configuration=     5
   0.33250966  0.33214568  0.40055386
   0.58284748  0.33341514  0.39793084
   0.58158904  0.83477317  0.40043620
   0.58193359  0.08422753  0.39917957
   0.50257602  0.74910695  0.60103965
   0.16810577  0.91656698  0.49916334
   0.32964881  0.83625440  0.39780095
   0.24937840  0.50000423  0.59970579
   0.66447036  0.16612622  0.50082711
   0.83707308  0.32870659  0.39760160
   0.41504587  0.66702257  0.50105660
   0.25304986 -0.00028145  0.60213103
   0.16881384  0.16596622  0.49880489
   0.58177812  0.58377056  0.39765978
   0.74745564  0.25051120  0.60290641
   0.83522236  0.83470775  0.39781022
  -0.00090426 -0.00215353  0.60298866
   0.91791022  0.41653572  0.50093149
   0.66657655  0.41724058  0.50193459
   0.08424194  0.58396012  0.39933467
   0.00046143  0.25188985  0.60277147
   0.83553506  0.58158554  0.39754612
   0.91517112  0.91563420  0.50003893
   0.91773524  0.66755734  0.50245626
   0.83572529  0.08219613  0.40203552
   0.66459688  0.66997922  0.50129324
   0.74823850 -0.00219443  0.59809920
   0.75024930  0.50220852  0.59845742
   0.41887708  0.91713765  0.50019844
   0.49890022  0.49956118  0.59847385
   0.08430698  0.08250358  0.40190040
   0.24929506  0.74898255  0.59805321
   0.41459704  0.41432964  0.50067671
   0.50138210  0.00141686  0.59681230
   0.41735616  0.16751374  0.50087318
   0.66381989  0.91700750  0.50171725
   0.16604382  0.66380934  0.49980923
   0.33257081  0.58460764  0.40326768
   0.25102817  0.25042872  0.59690884
   0.17014589  0.41667104  0.50056584
   0.33155212  0.08448925  0.40298059
  -0.00036934  0.74975432  0.59824399
   0.08333572  0.83417978  0.40186922
  -0.00006055  0.50097025  0.59868985
   0.08391640  0.33201434  0.40225053
   0.91659282  0.16764984  0.49925605
   0.49903118  0.24845910  0.59680861
   0.75064324  0.75105070  0.59814884
Direct configuration=     6
   0.33188999  0.33319883  0.40017387
   0.58323681  0.33358179  0.39757068
   0.58213941  0.83448844  0.40020130
   0.58280666  0.08338955  0.39874855
   0.50227098  0.74919266  0.60150823
   0.16687635  0.91647391  0.49951009
   0.33027756  0.83559185  0.39729667
   0.24951407  0.50010868  0.60021008
   0.66563786  0.16639325  0.50062434
   0.83646164  0.32939229  0.39728218
   0.41553739  0.66611833  0.50092717
   0.25255792 -0.00026955  0.60252739
   0.16877341  0.16653564  0.49930256
   0.58236576  0.58346809  0.39732176
   0.74763634  0.25045031  0.60346950
   0.83442687  0.83478623  0.39737644
  -0.00078414 -0.00187762  0.60341501
   0.91768885  0.41735999  0.50083901
   0.66606084  0.41738692  0.50167427
   0.08479973  0.58348812  0.39896799
   0.00035857  0.25154865  0.60325133
   0.83492338  0.58177812  0.39717061
   0.91588896  0.91683641  0.50009257
   0.91654232  0.66651520  0.50207005
   0.83545900  0.08228384  0.40208541
   0.66541600  0.66913884  0.50100656
   0.74853170 -0.00187885  0.59835151
   0.75052961  0.50172023  0.59862158
   0.41885141  0.91717090  0.50025131
   0.49911659  0.49957636  0.59863986
   0.08387287  0.08283152  0.40170389
   0.24927953  0.74943297  0.59815004
   0.41506159  0.41543451  0.50050611
   0.50120186  0.00126180  0.59710056
   0.41694777  0.16666754  0.50046715
   0.66370477  0.91690405  0.50119500
   0.16684310  0.66440395  0.49980114
   0.33250405  0.58442039  0.40331945
   0.25070988  0.25029331  0.59703992
   0.16949894  0.41639907  0.50037525
   0.33157964  0.08431052  0.40285102
  -0.00048334  0.75001944  0.59864577
   0.08332003  0.83436046  0.40178235
  -0.00031765  0.50089794  0.59893282
   0.08381889  0.33203982  0.40223147
   0.91638109  0.16714303  0.49971419
   0.49936180  0.24848203  0.59721471
   0.75092335  0.75075023  0.59848128
Direct configuration=     7
   0.33178668  0.33337442  0.40011052
   0.58330171  0.33360957  0.39751064
   0.58223117  0.83444097  0.40016214
   0.58295222  0.08324984  0.39867669
   0.50222012  0.74920695  0.60158635
   0.16667138  0.91645839  0.49956790
   0.33038239  0.83548139  0.39721259
   0.24953669  0.50012610  0.60029415
   0.66583251  0.16643776  0.50059053
   0.83635971  0.32950661  0.39722893
   0.41561934  0.66596758  0.50090560
   0.25247590 -0.00026757  0.60259347
   0.16876667  0.16663057  0.49938554
   0.58246373  0.58341766  0.39726540
   0.74766647  0.25044016  0.60356338
   0.83429425  0.83479931  0.39730412
  -0.00076411 -0.00183162  0.60348609
   0.91765194  0.41749741  0.50082359
   0.66597486  0.41741132  0.50163087
   0.08489273  0.58340943  0.39890686
   0.00034142  0.25149176  0.60333133
   0.83482140  0.58181023  0.39710801
   0.91600863  0.91703684  0.50010151
   0.91634343  0.66634146  0.50200566
   0.83541460  0.08229846  0.40209373
   0.66555256  0.66899874  0.50095876
   0.74858058 -0.00182624  0.59839358
   0.75057634  0.50163882  0.59864895
   0.41884713  0.91717644  0.50026013
   0.49915266  0.49957890  0.59866754
   0.08380049  0.08288619  0.40167113
   0.24927694  0.74950807  0.59816618
   0.41513904  0.41561871  0.50047767
   0.50117182  0.00123595  0.59714862
   0.41687968  0.16652646  0.50039946
   0.66368558  0.91688681  0.50110793
   0.16697636  0.66450309  0.49979980
   0.33249292  0.58438917  0.40332808
   0.25065682  0.25027073  0.59706178
   0.16939108  0.41635373  0.50034348
   0.33158422  0.08428073  0.40282941
  -0.00050235  0.75006364  0.59871276
   0.08331742  0.83439059  0.40176786
  -0.00036051  0.50088589  0.59897332
   0.08380263  0.33204407  0.40222830
   0.91634579  0.16705853  0.49979057
   0.49941692  0.24848586  0.59728241
   0.75097005  0.75070013  0.59853670
Direct configuration=     8
   0.33186160  0.33360288  0.39993438
   0.58321345  0.33357669  0.39721929
   0.58198410  0.83453196  0.40004115
   0.58291746  0.08328787  0.39839681
   0.50241285  0.74906133  0.60175393
   0.16649561  0.91637603  0.49966135
   0.33059618  0.83527256  0.39701039
   0.24964817  0.50010941  0.60045469
   0.66561508  0.16643566  0.50063126
   0.83663156  0.32928378  0.39712374
   0.41573937  0.66592104  0.50087284
   0.25249004 -0.00034624  0.60286916
   0.16869071  0.16679615  0.49957928
   0.58249429  0.58346518  0.39699368
   0.74750389  0.25074591  0.60391196
   0.83446310  0.83471173  0.39707352
  -0.00079801 -0.00194454  0.60384333
   0.91744017  0.41720693  0.50086732
   0.66604036  0.41753633  0.50159607
   0.08515056  0.58347903  0.39871422
   0.00001932  0.25177333  0.60366351
   0.83474173  0.58174786  0.39675550
   0.91626489  0.91659562  0.50023559
   0.91603064  0.66682514  0.50197613
   0.83554576  0.08237083  0.40221550
   0.66559594  0.66872192  0.50095138
   0.74853132 -0.00168771  0.59832602
   0.75060958  0.50137378  0.59855379
   0.41886147  0.91707950  0.50031863
   0.49942991  0.49957405  0.59861139
   0.08339898  0.08326028  0.40182886
   0.24935229  0.74954354  0.59815241
   0.41509595  0.41588443  0.50048338
   0.50126553  0.00111428  0.59708797
   0.41703570  0.16623599  0.50019366
   0.66367010  0.91702399  0.50095071
   0.16696318  0.66465778  0.49986562
   0.33236484  0.58433803  0.40339835
   0.25074883  0.25031469  0.59704446
   0.16946169  0.41632185  0.50029405
   0.33146767  0.08427343  0.40292944
  -0.00068537  0.75012033  0.59867137
   0.08321879  0.83451984  0.40183110
  -0.00052145  0.50089347  0.59893877
   0.08380979  0.33170701  0.40236796
   0.91649613  0.16733427  0.50008266
   0.49954992  0.24837714  0.59726586
   0.75108634  0.75059567  0.59845755
Direct configuration=     9
   0.33198299  0.33397301  0.39964902
   0.58307044  0.33352341  0.39674728
   0.58158383  0.83467938  0.39984514
   0.58286114  0.08334947  0.39794338
   0.50272508  0.74882541  0.60202540
   0.16621084  0.91624259  0.49981274
   0.33094253  0.83493425  0.39668280
   0.24982876  0.50008236  0.60071477
   0.66526284  0.16643224  0.50069724
   0.83707199  0.32892277  0.39695333
   0.41593383  0.66584564  0.50081977
   0.25251293 -0.00047368  0.60331580
   0.16856763  0.16706441  0.49989316
   0.58254379  0.58354217  0.39655347
   0.74724050  0.25124123  0.60447669
   0.83473665  0.83456984  0.39669994
  -0.00085293 -0.00212750  0.60442209
   0.91709710  0.41673633  0.50093816
   0.66614648  0.41773884  0.50153969
   0.08556828  0.58359178  0.39840213
  -0.00050250  0.25222949  0.60420167
   0.83461267  0.58164682  0.39618443
   0.91668004  0.91588082  0.50045281
   0.91552389  0.66760873  0.50192828
   0.83575824  0.08248807  0.40241277
   0.66566622  0.66827345  0.50093943
   0.74845152 -0.00146328  0.59821657
   0.75066343  0.50094440  0.59839963
   0.41888471  0.91692246  0.50041342
   0.49987907  0.49956621  0.59852042
   0.08274851  0.08386631  0.40208440
   0.24947437  0.74960102  0.59813009
   0.41502614  0.41631490  0.50049262
   0.50141735  0.00091716  0.59698972
   0.41728844  0.16576542  0.49986025
   0.66364502  0.91724622  0.50069601
   0.16694183  0.66490840  0.49997226
   0.33215733  0.58425517  0.40351220
   0.25089791  0.25038590  0.59701642
   0.16957609  0.41627022  0.50021398
   0.33127885  0.08426161  0.40309149
  -0.00098187  0.75021217  0.59860432
   0.08305901  0.83472925  0.40193354
  -0.00078217  0.50090575  0.59888279
   0.08382138  0.33116094  0.40259422
   0.91673971  0.16778098  0.50055588
   0.49976538  0.24820103  0.59723904
   0.75127474  0.75042643  0.59832932
Direct configuration=    10
   0.33201679  0.33389587  0.39951217
   0.58313376  0.33350491  0.39649328
   0.58150645  0.83476445  0.39975761
   0.58281382  0.08339340  0.39768765
   0.50290456  0.74874423  0.60213537
   0.16632006  0.91634804  0.49987037
   0.33069656  0.83503614  0.39656528
   0.24989033  0.50007521  0.60079337
   0.66523164  0.16649573  0.50071261
   0.83700467  0.32889669  0.39687519
   0.41592052  0.66605974  0.50078367
   0.25250298 -0.00043995  0.60355880
   0.16868234  0.16690244  0.50009473
   0.58256218  0.58340347  0.39628936
   0.74713599  0.25128845  0.60478320
   0.83486148  0.83455105  0.39650662
  -0.00094364 -0.00213366  0.60479324
   0.91712705  0.41685401  0.50094829
   0.66614281  0.41754612  0.50145653
   0.08547776  0.58361940  0.39826705
  -0.00048805  0.25224348  0.60452942
   0.83478277  0.58157084  0.39587730
   0.91655151  0.91597280  0.50054730
   0.91552081  0.66753098  0.50184205
   0.83575871  0.08250865  0.40260489
   0.66560395  0.66833444  0.50091667
   0.74838162 -0.00137026  0.59813442
   0.75061794  0.50092968  0.59833086
   0.41881905  0.91678343  0.50048018
   0.49995108  0.49960804  0.59845705
   0.08277140  0.08379507  0.40231744
   0.24956667  0.74954421  0.59812435
   0.41496518  0.41626481  0.50052031
   0.50151484  0.00082314  0.59687320
   0.41736032  0.16578263  0.49968649
   0.66359136  0.91728609  0.50054699
   0.16692109  0.66474972  0.50005025
   0.33220271  0.58432204  0.40356650
   0.25098658  0.25039706  0.59697488
   0.16957079  0.41645346  0.50017782
   0.33112643  0.08431457  0.40321669
  -0.00099522  0.75011634  0.59856987
   0.08306367  0.83487206  0.40201437
  -0.00077796  0.50092236  0.59877963
   0.08388946  0.33116042  0.40274950
   0.91671207  0.16772691  0.50086674
   0.49977583  0.24815788  0.59715703
   0.75126726  0.75039342  0.59820339
Direct configuration=    11
   0.33211753  0.33366594  0.39910431
   0.58332246  0.33344978  0.39573624
   0.58127582  0.83501800  0.39949675
   0.58267280  0.08352435  0.39692544
   0.50343951  0.74850230  0.60246313
   0.16664558  0.91666233  0.50004212
   0.32996344  0.83533981  0.39621504
   0.25007382  0.50005389  0.60102765
   0.66513867  0.16668495  0.50075844
   0.83680403  0.32881895  0.39664228
   0.41588082  0.66669787  0.50067606
   0.25247331 -0.00033940  0.60428302
   0.16902424  0.16641969  0.50069550
   0.58261699  0.58299009  0.39550219
   0.74682451  0.25142919  0.60569675
   0.83523354  0.83449504  0.39593041
  -0.00121398 -0.00215204  0.60589943
   0.91721631  0.41720475  0.50097849
   0.66613186  0.41697171  0.50120869
   0.08520797  0.58370173  0.39786445
  -0.00044501  0.25228519  0.60550626
   0.83528975  0.58134438  0.39496190
   0.91616844  0.91624694  0.50082889
   0.91551160  0.66729926  0.50158505
   0.83576012  0.08256997  0.40317752
   0.66541836  0.66851622  0.50084883
   0.74817331 -0.00109301  0.59788957
   0.75048236  0.50088581  0.59812592
   0.41862336  0.91636906  0.50067915
   0.50016569  0.49973270  0.59826818
   0.08283963  0.08358273  0.40301202
   0.24984178  0.74937488  0.59810726
   0.41478348  0.41611550  0.50060284
   0.50180541  0.00054294  0.59652589
   0.41757454  0.16583392  0.49916862
   0.66343144  0.91740492  0.50010284
   0.16685929  0.66427679  0.50028270
   0.33233796  0.58452131  0.40372835
   0.25125087  0.25043031  0.59685107
   0.16955501  0.41699962  0.50007005
   0.33067216  0.08447240  0.40358983
  -0.00103499  0.74983073  0.59846720
   0.08307758  0.83529771  0.40225528
  -0.00076539  0.50097187  0.59847215
   0.08409238  0.33115887  0.40321229
   0.91662972  0.16756577  0.50179325
   0.49980697  0.24802927  0.59691261
   0.75124498  0.75029501  0.59782807
Direct configuration=    12
   0.33215492  0.33358058  0.39895289
   0.58339252  0.33342931  0.39545520
   0.58119019  0.83511212  0.39939990
   0.58262044  0.08357296  0.39664247
   0.50363811  0.74841248  0.60258481
   0.16676643  0.91677901  0.50010589
   0.32969128  0.83545255  0.39608502
   0.25014194  0.50004598  0.60111462
   0.66510416  0.16675520  0.50077545
   0.83672954  0.32879009  0.39655582
   0.41586609  0.66693478  0.50063612
   0.25246229 -0.00030208  0.60455188
   0.16915116  0.16624047  0.50091853
   0.58263733  0.58283663  0.39520996
   0.74670888  0.25148143  0.60603590
   0.83537166  0.83447425  0.39571650
  -0.00131435 -0.00215886  0.60631010
   0.91724945  0.41733497  0.50098970
   0.66612780  0.41675846  0.50111668
   0.08510781  0.58373229  0.39771499
  -0.00042902  0.25230068  0.60586891
   0.83547797  0.58126031  0.39462207
   0.91602622  0.91634872  0.50093343
   0.91550818  0.66721324  0.50148964
   0.83576064  0.08259273  0.40339010
   0.66534947  0.66858370  0.50082364
   0.74809597 -0.00099009  0.59779867
   0.75043203  0.50086952  0.59804983
   0.41855071  0.91621523  0.50075302
   0.50024537  0.49977898  0.59819806
   0.08286496  0.08350390  0.40326988
   0.24994391  0.74931201  0.59810092
   0.41471603  0.41606006  0.50063348
   0.50191328  0.00043892  0.59639695
   0.41765407  0.16585297  0.49897636
   0.66337207  0.91744904  0.49993795
   0.16683634  0.66410122  0.50036899
   0.33238817  0.58459530  0.40378843
   0.25134898  0.25044266  0.59680511
   0.16954915  0.41720238  0.50003004
   0.33050352  0.08453099  0.40372836
  -0.00104976  0.74972469  0.59842908
   0.08308275  0.83545572  0.40234472
  -0.00076072  0.50099024  0.59835800
   0.08416771  0.33115829  0.40338410
   0.91659914  0.16750595  0.50213721
   0.49981853  0.24798152  0.59682188
   0.75123671  0.75025848  0.59768874
Direct configuration=    13
   0.33209820  0.33360529  0.39884268
   0.58336378  0.33331129  0.39519492
   0.58138011  0.83473284  0.39935224
   0.58280982  0.08348603  0.39631806
   0.50334729  0.74868376  0.60263403
   0.16658632  0.91665585  0.50036522
   0.32967316  0.83557740  0.39600687
   0.25019861  0.49998741  0.60112660
   0.66517785  0.16687548  0.50065313
   0.83676898  0.32891906  0.39660013
   0.41600179  0.66661179  0.50055494
   0.25253150 -0.00035065  0.60485647
   0.16899975  0.16648339  0.50127499
   0.58263686  0.58311817  0.39493919
   0.74668762  0.25128426  0.60636456
   0.83514234  0.83478337  0.39550151
  -0.00119834 -0.00224477  0.60681858
   0.91742672  0.41723079  0.50091408
   0.66599359  0.41670291  0.50092342
   0.08519809  0.58371542  0.39764445
  -0.00010753  0.25213603  0.60627896
   0.83539298  0.58128769  0.39429296
   0.91611338  0.91654998  0.50098371
   0.91557995  0.66707196  0.50113657
   0.83538556  0.08265321  0.40375231
   0.66527930  0.66869989  0.50059429
   0.74811994 -0.00116043  0.59774135
   0.75060913  0.50083877  0.59797939
   0.41873371  0.91625812  0.50082885
   0.50005110  0.49970429  0.59806841
   0.08291899  0.08354299  0.40371058
   0.24984064  0.74947801  0.59810509
   0.41470259  0.41596171  0.50057693
   0.50182529  0.00054085  0.59612674
   0.41750822  0.16617485  0.49881492
   0.66333175  0.91731669  0.49963459
   0.16678779  0.66424884  0.50038788
   0.33247261  0.58452255  0.40387217
   0.25136864  0.25036254  0.59673305
   0.16970673  0.41702093  0.49997817
   0.33056148  0.08441535  0.40390074
  -0.00089299  0.74969606  0.59842280
   0.08301826  0.83523793  0.40256183
  -0.00045227  0.50079622  0.59823343
   0.08402266  0.33148844  0.40362495
   0.91648064  0.16742293  0.50264811
   0.49963546  0.24812322  0.59666546
   0.75118195  0.75044131  0.59745968
Direct configuration=    14
   0.33203323  0.33363360  0.39871645
   0.58333086  0.33317613  0.39489683
   0.58159762  0.83429846  0.39929765
   0.58302671  0.08338646  0.39594653
   0.50301423  0.74899444  0.60269040
   0.16638006  0.91651481  0.50066223
   0.32965241  0.83572038  0.39591737
   0.25026351  0.49992032  0.60114031
   0.66526224  0.16701323  0.50051304
   0.83681416  0.32906677  0.39665087
   0.41615721  0.66624189  0.50046197
   0.25261077 -0.00040628  0.60520530
   0.16882634  0.16676159  0.50168323
   0.58263633  0.58344061  0.39462909
   0.74666328  0.25105844  0.60674096
   0.83487971  0.83513738  0.39525529
  -0.00106548 -0.00234316  0.60740092
   0.91762975  0.41711147  0.50082748
   0.66583988  0.41663928  0.50070209
   0.08530147  0.58369609  0.39756366
   0.00026066  0.25194746  0.60674857
   0.83529564  0.58131905  0.39391605
   0.91621319  0.91678048  0.50104129
   0.91566215  0.66691015  0.50073221
   0.83495600  0.08272248  0.40416712
   0.66519895  0.66883296  0.50033162
   0.74814738 -0.00135552  0.59767570
   0.75081196  0.50080355  0.59789873
   0.41894328  0.91630723  0.50091570
   0.49982861  0.49961875  0.59791994
   0.08298087  0.08358775  0.40421530
   0.24972236  0.74966812  0.59810986
   0.41468719  0.41584906  0.50051217
   0.50172453  0.00065759  0.59581728
   0.41734119  0.16654350  0.49863002
   0.66328558  0.91716511  0.49928717
   0.16673219  0.66441790  0.50040952
   0.33256931  0.58443925  0.40396808
   0.25139117  0.25027077  0.59665053
   0.16988720  0.41681313  0.49991877
   0.33062785  0.08428291  0.40409817
  -0.00071346  0.74966327  0.59841560
   0.08294441  0.83498851  0.40281048
  -0.00009902  0.50057400  0.59809076
   0.08385655  0.33186655  0.40390078
   0.91634491  0.16732786  0.50323322
   0.49942580  0.24828550  0.59648633
   0.75111924  0.75065070  0.59719735
Direct configuration=    15
   0.33211052  0.33353904  0.39867293
   0.58322571  0.33339615  0.39477231
   0.58167045  0.83427178  0.39925799
   0.58282993  0.08325227  0.39575187
   0.50285491  0.74895795  0.60255067
   0.16664126  0.91637926  0.50103153
   0.32966576  0.83576008  0.39602254
   0.25012325  0.50001072  0.60103466
   0.66505040  0.16688453  0.50043647
   0.83687575  0.32898746  0.39688515
   0.41618885  0.66604480  0.50039137
   0.25271609 -0.00050262  0.60541528
   0.16864562  0.16658609  0.50191706
   0.58245972  0.58350407  0.39450153
   0.74677292  0.25095562  0.60683097
   0.83471639  0.83512112  0.39510477
  -0.00093975 -0.00237503  0.60776947
   0.91722269  0.41694105  0.50080327
   0.66605430  0.41689669  0.50057003
   0.08531681  0.58382224  0.39759265
   0.00026950  0.25194363  0.60703021
   0.83524656  0.58148688  0.39371482
   0.91616581  0.91649466  0.50115192
   0.91582040  0.66710312  0.50037315
   0.83492176  0.08301127  0.40442381
   0.66529151  0.66854092  0.50007692
   0.74823847 -0.00159164  0.59762738
   0.75093370  0.50071140  0.59775075
   0.41871316  0.91656414  0.50089206
   0.49983005  0.49953409  0.59778236
   0.08277751  0.08380150  0.40471773
   0.24954606  0.74979890  0.59817543
   0.41471339  0.41584754  0.50033966
   0.50159086  0.00100350  0.59550934
   0.41741959  0.16664574  0.49855529
   0.66353403  0.91729412  0.49898729
   0.16669743  0.66448634  0.50038746
   0.33272638  0.58426822  0.40396541
   0.25146038  0.25014352  0.59670412
   0.16999838  0.41675309  0.49990497
   0.33092665  0.08419225  0.40425244
  -0.00064521  0.74968547  0.59836256
   0.08287995  0.83477023  0.40304472
   0.00003683  0.50051220  0.59795500
   0.08377450  0.33198468  0.40404199
   0.91628035  0.16764373  0.50375733
   0.49944109  0.24829915  0.59633402
   0.75120933  0.75063809  0.59686935
Direct configuration=    16
   0.33214644  0.33349509  0.39865270
   0.58317684  0.33349842  0.39471444
   0.58170431  0.83425938  0.39923955
   0.58273846  0.08318990  0.39566139
   0.50278086  0.74894099  0.60248572
   0.16676266  0.91631625  0.50120317
   0.32967197  0.83577853  0.39607142
   0.25005806  0.50005273  0.60098555
   0.66495195  0.16682471  0.50040089
   0.83690438  0.32895059  0.39699404
   0.41620356  0.66595319  0.50035855
   0.25276504 -0.00054739  0.60551287
   0.16856162  0.16650452  0.50202575
   0.58237763  0.58353356  0.39444224
   0.74682388  0.25090782  0.60687280
   0.83464048  0.83511357  0.39503481
  -0.00088132 -0.00238983  0.60794076
   0.91703349  0.41686184  0.50079201
   0.66615396  0.41701633  0.50050865
   0.08532394  0.58388087  0.39760612
   0.00027361  0.25194185  0.60716111
   0.83522374  0.58156489  0.39362129
   0.91614378  0.91636181  0.50120334
   0.91589395  0.66719280  0.50020627
   0.83490585  0.08314550  0.40454312
   0.66533453  0.66840519  0.49995854
   0.74828081 -0.00170139  0.59760493
   0.75099028  0.50066856  0.59768197
   0.41860620  0.91668356  0.50088107
   0.49983072  0.49949475  0.59771842
   0.08268299  0.08390084  0.40495126
   0.24946412  0.74985969  0.59820591
   0.41472556  0.41584683  0.50025948
   0.50152873  0.00116427  0.59536621
   0.41745604  0.16669326  0.49852056
   0.66364951  0.91735409  0.49884791
   0.16668127  0.66451816  0.50037721
   0.33279938  0.58418872  0.40396417
   0.25149255  0.25008437  0.59672903
   0.17005005  0.41672519  0.49989855
   0.33106553  0.08415010  0.40432414
  -0.00061350  0.74969578  0.59833791
   0.08284998  0.83466878  0.40315359
   0.00009997  0.50048347  0.59789190
   0.08373637  0.33203959  0.40410763
   0.91625034  0.16779055  0.50400094
   0.49944820  0.24830550  0.59626323
   0.75125120  0.75063224  0.59671689
Direct configuration=    17
   0.33214339  0.33346038  0.39865455
   0.58318167  0.33357161  0.39470864
   0.58154626  0.83436688  0.39917622
   0.58255331  0.08332084  0.39555336