 vasp.5.4.1 24Jun15 (build Mar 14 2019 10:18:33) complex                        
  
 executed on INTEL-19.0.2+OPENMPI date 2022.07.15  15:12:30
 running on   36 total cores
 distrk:  each k-point on   36 cores,    1 groups
 distr:  one band on NCORES_PER_BAND=   6 cores,    6 groups


--------------------------------------------------------------------------------------------------------


 INCAR:
 POTCAR:    PAW_PBE Au 04Oct2007                  
 POTCAR:    PAW_PBE Pd 04Jan2005                  
 POTCAR:    PAW_PBE Au 04Oct2007                  
  local pseudopotential read in
  partial core-charges read in
  partial kinetic energy density read in
  atomic valenz-charges read in
  non local Contribution for L=           2  read in
    real space projection operators read in
  non local Contribution for L=           2  read in
    real space projection operators read in
  non local Contribution for L=           0  read in
    real space projection operators read in
  non local Contribution for L=           0  read in
    real space projection operators read in
  non local Contribution for L=           1  read in
    real space projection operators read in
  non local Contribution for L=           1  read in
    real space projection operators read in
    PAW grid and wavefunctions read in
 
   number of l-projection  operators is LMAX  =           6
   number of lm-projection operators is LMMAX =          18
 
 POTCAR:    PAW_PBE Pd 04Jan2005                  
  local pseudopotential read in
  partial core-charges read in
  partial kinetic energy density read in
  atomic valenz-charges read in
  non local Contribution for L=           2  read in
    real space projection operators read in
  non local Contribution for L=           2  read in
    real space projection operators read in
  non local Contribution for L=           0  read in
    real space projection operators read in
  non local Contribution for L=           0  read in
    real space projection operators read in
  non local Contribution for L=           1  read in
    real space projection operators read in
  non local Contribution for L=           1  read in
    real space projection operators read in
    PAW grid and wavefunctions read in
 
   number of l-projection  operators is LMAX  =           6
   number of lm-projection operators is LMMAX =          18
 
 Optimization of the real space projectors (new method)

 maximal supplied QI-value         = 15.12
 optimisation between [QCUT,QGAM] = [ 10.13, 20.41] = [ 28.73,116.64] Ry 
 Optimized for a Real-space Cutoff    1.51 Angstroem

   l    n(q)    QCUT    max X(q) W(low)/X(q) W(high)/X(q)  e(spline) 
   2      8    10.129    60.898    0.46E-03    0.46E-03    0.14E-06
   2      8    10.129    58.894    0.47E-03    0.47E-03    0.14E-06
   0      9    10.129   109.617    0.16E-03    0.11E-03    0.54E-07
   0      9    10.129    75.026    0.15E-03    0.11E-03    0.52E-07
   1      9    10.129    16.344    0.96E-04    0.15E-03    0.14E-06
   1      9    10.129    10.160    0.81E-04    0.12E-03    0.11E-06
 Optimization of the real space projectors (new method)

 maximal supplied QI-value         = 14.36
 optimisation between [QCUT,QGAM] = [ 10.20, 20.39] = [ 29.12,116.47] Ry 
 Optimized for a Real-space Cutoff    1.51 Angstroem

   l    n(q)    QCUT    max X(q) W(low)/X(q) W(high)/X(q)  e(spline) 
   2      8    10.197    59.108    0.26E-03    0.14E-03    0.96E-07
   2      8    10.197    58.101    0.27E-03    0.14E-03    0.98E-07
   0      9    10.197   102.235    0.54E-04    0.60E-05    0.72E-07
   0      9    10.197    58.388    0.52E-04    0.60E-05    0.68E-07
   1      9    10.197    22.191    0.18E-03    0.25E-03    0.79E-07
   1      9    10.197    15.590    0.15E-03    0.21E-03    0.69E-07
  PAW_PBE Au 04Oct2007                  :
 energy of atom  1       EATOM= -926.0867
 kinetic energy error for atom=    0.0062 (will be added to EATOM!!)
  PAW_PBE Pd 04Jan2005                  :
 energy of atom  2       EATOM= -809.7530
 kinetic energy error for atom=    0.0091 (will be added to EATOM!!)
 
 
 POSCAR: Au Pd                                   
  positions in cartesian coordinates
  No initial velocities read in
 exchange correlation table for  LEXCH =        8
   RHO(1)=    0.500       N(1)  =     2000
   RHO(2)=  100.500       N(2)  =     4000

 VTST: version 3.2, (02/03/18)

 CHAIN: initializing optimizer
 
 OPT: Using VASP Conjugate-Gradient optimizer
 CHAIN: Read ICHAIN            0
 
 POSCAR: Au Pd                                   
  positions in cartesian coordinates
  No initial velocities read in
 


--------------------------------------------------------------------------------------------------------


 ion  position               nearest neighbor table
   1  0.083  0.083  0.408-  13 2.75   7 2.75  16 2.75  21 2.75  26 2.75   6 2.75  40 2.75  37 2.75
                            46 2.75
   2  0.417  0.417  0.500-  14 2.75  33 2.75   8 2.75   4 2.75  25 2.75   9 2.75  47 2.75  39 2.75
                            22 2.75  10 2.75  28 2.75  34 2.75
   3  0.417  0.917  0.500-   7 2.75  27 2.75  12 2.75  13 2.75  20 2.75   4 2.75  47 2.75  37 2.75
                             5 2.75  40 2.75  35 2.75  30 2.75
   4  0.417  0.167  0.500-  40 2.75  35 2.75  38 2.75   2 2.75   3 2.75  39 2.75   5 2.75  13 2.75
                            25 2.75  14 2.75  36 2.75  33 2.75
   5  0.667  0.917  0.500-  30 2.75  48 2.75  35 2.75   4 2.75  20 2.75  43 2.75  25 2.75   3 2.75
                            41 2.75  36 2.75  31 2.75  11 2.75
   6  0.833  0.083  0.408-  46 2.75  26 2.75  31 2.75  34 2.75  21 2.75  36 2.75   1 2.75  41 2.75
                            25 2.75
   7  0.333  0.833  0.408-   3 2.75   1 2.75  10 2.75  24 2.75  40 2.75  30 2.75  21 2.75  47 2.75
                            37 2.75
   8  0.250  0.500  0.592-   9 2.75   2 2.75  15 2.75  32 2.75  33 2.75  38 2.75  28 2.75  42 2.75
                            39 2.75
   9  0.167  0.667  0.500-  18 2.75   8 2.75  15 2.75   2 2.75  37 2.75  39 2.75  41 2.75  43 2.75
                            47 2.75  21 2.75  32 2.75  10 2.75
  10  0.333  0.583  0.408-  47 2.75  14 2.75  21 2.75  34 2.75   7 2.75  18 2.75  24 2.75   2 2.75
                             9 2.75
  11  0.750  0.000  0.592-  25 2.75  41 2.75  15 2.75  33 2.75  23 2.75  48 2.75  45 2.75  35 2.75
                             5 2.75
  12  0.250  0.000  0.592-  13 2.75   3 2.75  27 2.75  32 2.75  38 2.75  44 2.75  35 2.75  45 2.75
                            37 2.75
  13  0.167  0.167  0.500-   1 2.75  12 2.75  44 2.75  17 2.75  37 2.75  39 2.75   3 2.75   4 2.75
                            46 2.75  16 2.75  38 2.75  40 2.75
  14  0.333  0.333  0.408-   2 2.75  10 2.75  18 2.75  36 2.75  40 2.75  16 2.75  34 2.75   4 2.75
                            39 2.75
  15  0.000  0.750  0.592-  41 2.75   9 2.75  11 2.75   8 2.75  42 2.75  45 2.75  32 2.75  48 2.75
                            43 2.75
  16  0.083  0.333  0.408-  39 2.75  18 2.75  19 2.75   1 2.75  40 2.75  14 2.75  26 2.75  13 2.75
                            17 2.75
  17  0.917  0.417  0.500-  26 2.75  44 2.75  29 2.75  20 2.75  43 2.75  13 2.75  46 2.75  39 2.75
                            22 2.75  19 2.75  42 2.75  16 2.75
  18  0.083  0.583  0.408-   9 2.75  14 2.75  16 2.75  21 2.75  31 2.75  10 2.75  19 2.75  39 2.75
                            43 2.75
  19  0.833  0.583  0.408-  43 2.75  26 2.75  30 2.75  31 2.75  16 2.75  18 2.75  24 2.75  17 2.75
                            20 2.75
  20  0.667  0.667  0.500-  24 2.75  29 2.75  27 2.75  22 2.75   3 2.75   5 2.75  17 2.75  43 2.75
                            47 2.75  30 2.75  19 2.75  48 2.75
  21  0.083  0.833  0.408-  37 2.75   6 2.75  10 2.75  18 2.75   1 2.75  31 2.75   7 2.75   9 2.75
                            41 2.75
  22  0.667  0.417  0.500-  34 2.75  23 2.75  28 2.75  20 2.75  25 2.75  46 2.75  47 2.75  17 2.75
                             2 2.75  24 2.75  29 2.75  26 2.75
  23  0.750  0.250  0.592-  22 2.75  46 2.75  28 2.75  29 2.75  45 2.75  11 2.75  33 2.75  44 2.75
                            25 2.75
  24  0.583  0.583  0.408-  20 2.75   7 2.75  26 2.75  30 2.75  34 2.75  10 2.75  19 2.75  22 2.75
                            47 2.75
  25  0.667  0.167  0.500-  36 2.75  11 2.75  33 2.75  22 2.75   5 2.75   2 2.75  41 2.75   4 2.75
                            46 2.75  34 2.75  23 2.75   6 2.75
  26  0.833  0.333  0.408-  17 2.75   6 2.75   1 2.75  19 2.75  24 2.75  16 2.75  34 2.75  46 2.75
                            22 2.75
  27  0.500  0.750  0.592-   3 2.75  20 2.75  12 2.75  28 2.75  29 2.75  35 2.75  32 2.75  48 2.75
                            47 2.75
  28  0.500  0.500  0.592-  47 2.75  22 2.75  27 2.75  32 2.75  33 2.75  23 2.75  29 2.75   8 2.75
                             2 2.75
  29  0.750  0.500  0.592-  20 2.75  17 2.75  23 2.75  27 2.75  44 2.75  48 2.75  28 2.75  42 2.75
                            22 2.75
  30  0.583  0.833  0.408-   5 2.75  19 2.75  24 2.75  36 2.75  40 2.75   7 2.75  31 2.75  20 2.75
                             3 2.75
  31  0.833  0.833  0.408-  41 2.75  18 2.75  19 2.75  36 2.75   6 2.75  21 2.75  30 2.75  43 2.75
                             5 2.75
  32  0.250  0.750  0.592-  37 2.75  47 2.75  28 2.75   8 2.75  45 2.75  12 2.75  15 2.75  27 2.75
                             9 2.75
  33  0.500  0.250  0.592-   2 2.75  25 2.75  11 2.75   8 2.75  28 2.75  35 2.75  23 2.75  38 2.75
                             4 2.75
  34  0.583  0.333  0.408-  22 2.75  10 2.75   6 2.75  24 2.75  36 2.75  26 2.75  14 2.75  25 2.75
                             2 2.75
  35  0.500  0.000  0.592-   4 2.75   5 2.75  27 2.75  33 2.75  38 2.75  48 2.75  11 2.75  12 2.75
                             3 2.75
  36  0.583  0.083  0.408-  25 2.75  14 2.75  30 2.75  31 2.75  34 2.75   6 2.75  40 2.75   5 2.75
                             4 2.75
  37  0.167  0.917  0.500-  21 2.75  32 2.75  45 2.75  13 2.75   9 2.75  46 2.75  47 2.75  41 2.75
                             3 2.75   1 2.75  12 2.75   7 2.75
  38  0.250  0.250  0.592-  39 2.75   4 2.75  12 2.75  35 2.75   8 2.75  42 2.75  33 2.75  44 2.75
                            13 2.75
  39  0.167  0.417  0.500-  16 2.75  38 2.75  42 2.75   4 2.75   9 2.75  13 2.75  43 2.75  17 2.75
                             2 2.75  18 2.75   8 2.75  14 2.75
  40  0.333  0.083  0.408-   4 2.75   7 2.75  14 2.75  16 2.75  30 2.75   1 2.75  36 2.75   3 2.75
                            13 2.75
  41  0.917  0.917  0.500-  31 2.75  15 2.75  11 2.75  25 2.75   9 2.75  43 2.75  46 2.75   5 2.75
                            37 2.75   6 2.75  45 2.75  21 2.75
  42  0.000  0.500  0.592-  43 2.75  39 2.75  15 2.75  38 2.75  44 2.75  48 2.75  29 2.75   8 2.75
                            17 2.75
  43  0.917  0.667  0.500-  19 2.75  42 2.75  48 2.75  39 2.75  41 2.75  17 2.75   5 2.75   9 2.75
                            20 2.75  31 2.75  18 2.75  15 2.75
  44  0.000  0.250  0.592-  17 2.75  13 2.75  12 2.75  29 2.75  42 2.75  45 2.75  23 2.75  38 2.75
                            46 2.75
  45  0.000  0.000  0.592-  46 2.75  37 2.75  32 2.75  15 2.75  44 2.75  23 2.75  11 2.75  12 2.75
                            41 2.75
  46  0.917  0.167  0.500-   6 2.75  45 2.75  23 2.75  17 2.75  37 2.75  41 2.75  22 2.75  25 2.75
                            13 2.75  26 2.75  44 2.75   1 2.75
  47  0.417  0.667  0.500-  10 2.75  28 2.75  32 2.75  22 2.75   3 2.75   2 2.75  37 2.75   9 2.75
                            20 2.75   7 2.75  27 2.75  24 2.75
  48  0.750  0.750  0.592-   5 2.75  43 2.75  29 2.75  35 2.75  42 2.75  11 2.75  15 2.75  27 2.75
                            20 2.75
 
  LATTYP: Found a hexagonal cell.
 ALAT       =    11.0025815153
 C/A-ratio  =     2.2260035120
  
  Lattice vectors:
  
 A1 = (   5.5012907576,  -9.5285150994,   0.0000000000)
 A2 = ( -11.0025815153,   0.0000000000,   0.0000000000)
 A3 = (   0.0000000000,   0.0000000000, -24.4917850943)


Analysis of symmetry for initial positions (statically):
=====================================================================
 Subroutine PRICEL returns:
 Original cell was already a primitive cell.
 

 Routine SETGRP: Setting up the symmetry group for a 
 hexagonal supercell.


 Subroutine GETGRP returns: Found  1 space group operations
 (whereof  1 operations were pure point group operations)
 out of a pool of 24 trial point group operations.


The static configuration has the point symmetry C_1 .


Analysis of symmetry for dynamics (positions and initial velocities):
=====================================================================
 Subroutine PRICEL returns:
 Original cell was already a primitive cell.
 

 Routine SETGRP: Setting up the symmetry group for a 
 hexagonal supercell.


 Subroutine GETGRP returns: Found  1 space group operations
 (whereof  1 operations were pure point group operations)
 out of a pool of 24 trial point group operations.


The dynamic configuration has the point symmetry C_1 .
 
 
 KPOINTS: Automatic mesh                          

Automatic generation of k-mesh.
Space group operators:
 irot       det(A)        alpha          n_x          n_y          n_z        tau_x        tau_y        tau_z
    1     1.000000     0.000000     1.000000     0.000000     0.000000     0.000000     0.000000     0.000000
 
 Subroutine IBZKPT returns following result:
 ===========================================
 
 Found      6 irreducible k-points:
 
 Following reciprocal coordinates:
            Coordinates               Weight
  0.250000  0.250000  0.000000     16.000000
  0.000000  0.250000  0.000000     16.000000
 -0.250000  0.000000  0.000000     16.000000
 -0.250000  0.250000  0.000000     16.000000
  0.500000 -0.250000  0.000000     16.000000
 -0.250000  0.500000  0.000000     16.000000
 
 Following cartesian coordinates:
            Coordinates               Weight
  0.022722  0.013119  0.000000     16.000000
  0.000000  0.026237  0.000000     16.000000
 -0.022722  0.013119  0.000000     16.000000
 -0.022722  0.039356  0.000000     16.000000
  0.045444 -0.052474  0.000000     16.000000
 -0.022722  0.065593  0.000000     16.000000
 


--------------------------------------------------------------------------------------------------------




 Dimension of arrays:
   k-points           NKPTS =      6   k-points in BZ     NKDIM =      6   number of bands    NBANDS=    306
   number of dos      NEDOS =    301   number of ions     NIONS =     48
   non local maximal  LDIM  =      6   non local SUM 2l+1 LMDIM =     18
   total plane-waves  NPLWV = 349920
   max r-space proj   IRMAX =   2009   max aug-charges    IRDMAX=   8532
   dimension x,y,z NGX =    54 NGY =   54 NGZ =  120
   dimension x,y,z NGXF=   108 NGYF=  108 NGZF=  240
   support grid    NGXF=   108 NGYF=  108 NGZF=  240
   ions per type =              24  24
 NGX,Y,Z   is equivalent  to a cutoff of   8.16,  8.16,  8.15 a.u.
 NGXF,Y,Z  is equivalent  to a cutoff of  16.32, 16.32, 16.29 a.u.


 I would recommend the setting:
   dimension x,y,z NGX =    54 NGY =   54 NGZ =  120
 SYSTEM =  unknown system                          
 POSCAR =  Au Pd                                   

 Startparameter for this run:
   NWRITE =      1    write-flag & timer
   PREC   = normal    normal or accurate (medium, high low for compatibility)
   ISTART =      0    job   : 0-new  1-cont  2-samecut
   ICHARG =      2    charge: 1-file 2-atom 10-const
   ISPIN  =      1    spin polarized calculation?
   LNONCOLLINEAR =      F non collinear calculations
   LSORBIT =      F    spin-orbit coupling
   INIWAV =      1    electr: 0-lowe 1-rand  2-diag
   LASPH  =      F    aspherical Exc in radial PAW
   METAGGA=      F    non-selfconsistent MetaGGA calc.

 Electronic Relaxation 1
   ENCUT  =  400.0 eV  29.40 Ry    5.42 a.u.  17.94 17.94 39.94*2*pi/ulx,y,z
   ENINI  =  400.0     initial cutoff
   ENAUG  =  416.2 eV  augmentation charge cutoff
   NELM   =    500;   NELMIN=  2; NELMDL= -5     # of ELM steps 
   EDIFF  = 0.1E-05   stopping-criterion for ELM
   LREAL  =      T    real-space projection
   NLSPLINE    = F    spline interpolate recip. space projectors
   LCOMPAT=      F    compatible to vasp.4.4
   GGA_COMPAT  = T    GGA compatible to vasp.4.4-vasp.4.6
   LMAXPAW     = -100 max onsite density
   LMAXMIX     =    2 max onsite mixed and CHGCAR
   VOSKOWN=      1    Vosko Wilk Nusair interpolation
   ROPT   =   -0.00050  -0.00050
 Ionic relaxation
   EDIFFG = -.2E-01   stopping-criterion for IOM
   NSW    =    500    number of steps for IOM
   NBLOCK =      1;   KBLOCK =    500    inner block; outer block 
   IBRION =      2    ionic relax: 0-MD 1-quasi-New 2-CG
   NFREE  =      2    steps in history (QN), initial steepest desc. (CG)
   ISIF   =      0    stress and relaxation
   IWAVPR =     11    prediction:  0-non 1-charg 2-wave 3-comb
   ISYM   =      2    0-nonsym 1-usesym 2-fastsym
   LCORR  =      T    Harris-Foulkes like correction to forces

   POTIM  = 0.3500    time-step for ionic-motion
   TEIN   =    0.0    initial temperature
   TEBEG  =    0.0;   TEEND  =   0.0 temperature during run
   SMASS  =  -3.00    Nose mass-parameter (am)
   estimated Nose-frequenzy (Omega)   =  0.10E-29 period in steps =****** mass=  -0.277E-26a.u.
   SCALEE = 1.0000    scale energy and forces
   NPACO  =    256;   APACO  = 16.0  distance and # of slots for P.C.
   PSTRESS=    0.0 pullay stress

  Mass of Ions in am
   POMASS = 196.97106.42
  Ionic Valenz
   ZVAL   =  11.00 10.00
  Atomic Wigner-Seitz radii
   RWIGS  =  -1.00 -1.00
  virtual crystal weights 
   VCA    =   1.00  1.00
   NELECT =     504.0000    total number of electrons
   NUPDOWN=      -1.0000    fix difference up-down

 DOS related values:
   EMIN   =  10.00;   EMAX   =-10.00  energy-range for DOS
   EFERMI =   0.00
   ISMEAR =     0;   SIGMA  =   0.10  broadening in eV -4-tet -1-fermi 0-gaus

 Electronic relaxation 2 (details)
   IALGO  =     68    algorithm
   LDIAG  =      T    sub-space diagonalisation (order eigenvalues)
   LSUBROT=      F    optimize rotation matrix (better conditioning)
   TURBO    =      0    0=normal 1=particle mesh
   IRESTART =      0    0=no restart 2=restart with 2 vectors
   NREBOOT  =      0    no. of reboots
   NMIN     =      0    reboot dimension
   EREF     =   0.00    reference energy to select bands
   IMIX   =      4    mixing-type and parameters
     AMIX     =   0.40;   BMIX     =  1.00
     AMIX_MAG =   1.60;   BMIX_MAG =  1.00
     AMIN     =   0.10
     WC   =   100.;   INIMIX=   1;  MIXPRE=   1;  MAXMIX= -45

 Intra band minimization:
   WEIMIN = 0.0010     energy-eigenvalue tresh-hold
   EBREAK =  0.82E-09  absolut break condition
   DEPER  =   0.30     relativ break condition  

   TIME   =   0.40     timestep for ELM

  volume/ion in A,a.u.               =      53.49       360.99
  Fermi-wavevector in a.u.,A,eV,Ry     =   0.951418  1.797920 12.315955  0.905197
  Thomas-Fermi vector in A             =   2.079887
 
 Write flags
   LWAVE  =      F    write WAVECAR
   LCHARG =      F    write CHGCAR
   LVTOT  =      F    write LOCPOT, total local potential
   LVHAR  =      F    write LOCPOT, Hartree potential only
   LELF   =      F    write electronic localiz. function (ELF)
   LORBIT =      0    0 simple, 1 ext, 2 COOP (PROOUT)


 Dipole corrections
   LMONO  =      F    monopole corrections only (constant potential shift)
   LDIPOL =      T    correct potential (dipole corrections)
   IDIPOL =      3    1-x, 2-y, 3-z, 4-all directions 
   EPSILON=  1.0000000 bulk dielectric constant

 Exchange correlation treatment:
   GGA     =    PE    GGA type
   LEXCH   =     8    internal setting for exchange type
   VOSKOWN=      1    Vosko Wilk Nusair interpolation
   LHFCALC =     F    Hartree Fock is set to
   LHFONE  =     F    Hartree Fock one center treatment
   AEXX    =    0.0000 exact exchange contribution

 Linear response parameters
   LEPSILON=     F    determine dielectric tensor
   LRPA    =     F    only Hartree local field effects (RPA)
   LNABLA  =     F    use nabla operator in PAW spheres
   LVEL    =     F    velocity operator in full k-point grid
   LINTERFAST=   F  fast interpolation
   KINTER  =     0    interpolate to denser k-point grid
   CSHIFT  =0.1000    complex shift for real part using Kramers Kronig
   OMEGAMAX=  -1.0    maximum frequency
   DEG_THRESHOLD= 0.2000000E-02 threshold for treating states as degnerate
   RTIME   =    0.100 relaxation time in fs

 Orbital magnetization related:
   ORBITALMAG=     F  switch on orbital magnetization
   LCHIMAG   =     F  perturbation theory with respect to B field
   DQ        =  0.001000  dq finite difference perturbation B field



--------------------------------------------------------------------------------------------------------


 conjugate gradient relaxation of ions
 charge density and potential will be updated during run
 non-spin polarized calculation
 RMM-DIIS sequential band-by-band and
  variant of blocked Davidson during initial phase
 perform sub-space diagonalisation
    before iterative eigenvector-optimisation
 modified Broyden-mixing scheme, WC =      100.0
 initial mixing is a Kerker type mixing with AMIX =  0.4000 and BMIX =      1.0000
 Hartree-type preconditioning will be used
 using additional bands           54
 real space projection scheme for non local part
 use partial core corrections
 calculate Harris-corrections to forces 
   (improved forces if not selfconsistent)
 use gradient corrections 
 use of overlap-Matrix (Vanderbilt PP)
 Gauss-broadening in eV      SIGMA  =   0.10


--------------------------------------------------------------------------------------------------------


  energy-cutoff  :      400.00
  volume of cell :     2567.68
      direct lattice vectors                 reciprocal lattice vectors
    11.002581515  0.000000000  0.000000000     0.090887761 -0.052474073  0.000000000
     5.501290758  9.528515099  0.000000000     0.000000000  0.104948147  0.000000000
     0.000000000  0.000000000 24.491785094     0.000000000  0.000000000  0.040830017

  length of vectors
    11.002581515 11.002581515 24.491785094     0.104948147  0.104948147  0.040830017


 
 k-points in units of 2pi/SCALE and weight: Automatic mesh                          
   0.02272194  0.01311852  0.00000000       0.167
   0.00000000  0.02623704  0.00000000       0.167
  -0.02272194  0.01311852  0.00000000       0.167
  -0.02272194  0.03935555  0.00000000       0.167
   0.04544388 -0.05247407  0.00000000       0.167
  -0.02272194  0.06559259  0.00000000       0.167
 
 k-points in reciprocal lattice and weights: Automatic mesh                          
   0.25000000  0.25000000  0.00000000       0.167
   0.00000000  0.25000000  0.00000000       0.167
  -0.25000000  0.00000000  0.00000000       0.167
  -0.25000000  0.25000000  0.00000000       0.167
   0.50000000 -0.25000000  0.00000000       0.167
  -0.25000000  0.50000000  0.00000000       0.167
 
 position of ions in fractional coordinates (direct lattice) 
   0.08333333  0.08333333  0.40830017
   0.41666667  0.41666667  0.50000000
   0.41666667  0.91666667  0.50000000
   0.41666667  0.16666667  0.50000000
   0.66666667  0.91666667  0.50000000
   0.83333333  0.08333333  0.40830017
   0.33333333  0.83333333  0.40830017
   0.25000000  0.50000000  0.59169983
   0.16666667  0.66666667  0.50000000
   0.33333333  0.58333333  0.40830017
   0.75000000  0.00000000  0.59169983
   0.25000000  0.00000000  0.59169983
   0.16666667  0.16666667  0.50000000
   0.33333333  0.33333333  0.40830017
   0.00000000  0.75000000  0.59169983
   0.08333333  0.33333333  0.40830017
   0.91666667  0.41666667  0.50000000
   0.08333333  0.58333333  0.40830017
   0.83333333  0.58333333  0.40830017
   0.66666667  0.66666667  0.50000000
   0.08333333  0.83333333  0.40830017
   0.66666667  0.41666667  0.50000000
   0.75000000  0.25000000  0.59169983
   0.58333333  0.58333333  0.40830017
   0.66666667  0.16666667  0.50000000
   0.83333333  0.33333333  0.40830017
   0.50000000  0.75000000  0.59169983
   0.50000000  0.50000000  0.59169983
   0.75000000  0.50000000  0.59169983
   0.58333333  0.83333333  0.40830017
   0.83333333  0.83333333  0.40830017
   0.25000000  0.75000000  0.59169983
   0.50000000  0.25000000  0.59169983
   0.58333333  0.33333333  0.40830017
   0.50000000  0.00000000  0.59169983
   0.58333333  0.08333333  0.40830017
   0.16666667  0.91666667  0.50000000
   0.25000000  0.25000000  0.59169983
   0.16666667  0.41666667  0.50000000
   0.33333333  0.08333333  0.40830017
   0.91666667  0.91666667  0.50000000
   0.00000000  0.50000000  0.59169983
   0.91666667  0.66666667  0.50000000
   0.00000000  0.25000000  0.59169983
   0.00000000  0.00000000  0.59169983
   0.91666667  0.16666667  0.50000000
   0.41666667  0.66666667  0.50000000
   0.75000000  0.75000000  0.59169983
 
 position of ions in cartesian coordinates  (Angst):
   1.37532269  0.79404292 10.00000000
   6.87661345  3.97021462 12.24589255
   9.62725883  8.73447217 12.24589255
   5.50129076  1.58808585 12.24589255
  12.37790420  8.73447217 12.24589255
   9.62725883  0.79404292 10.00000000
   8.25193614  7.94042925 10.00000000
   5.50129076  4.76425755 14.49178509
   5.50129076  6.35234340 12.24589255
   6.87661345  5.55830047 10.00000000
   8.25193614  0.00000000 14.49178509
   2.75064538  0.00000000 14.49178509
   2.75064538  1.58808585 12.24589255
   5.50129076  3.17617170 10.00000000
   4.12596807  7.14638632 14.49178509
   2.75064538  3.17617170 10.00000000
  12.37790420  3.97021462 12.24589255
   4.12596807  5.55830047 10.00000000
  12.37790420  5.55830047 10.00000000
  11.00258152  6.35234340 12.24589255
   5.50129076  7.94042925 10.00000000
   9.62725883  3.97021462 12.24589255
   9.62725883  2.38212877 14.49178509
   9.62725883  5.55830047 10.00000000
   8.25193614  1.58808585 12.24589255
  11.00258152  3.17617170 10.00000000
   9.62725883  7.14638632 14.49178509
   8.25193614  4.76425755 14.49178509
  11.00258152  4.76425755 14.49178509
  11.00258152  7.94042925 10.00000000
  13.75322689  7.94042925 10.00000000
   6.87661345  7.14638632 14.49178509
   6.87661345  2.38212877 14.49178509
   8.25193614  3.17617170 10.00000000
   5.50129076  0.00000000 14.49178509
   6.87661345  0.79404292 10.00000000
   6.87661345  8.73447217 12.24589255
   4.12596807  2.38212877 14.49178509
   4.12596807  3.97021462 12.24589255
   4.12596807  0.79404292 10.00000000
  15.12854958  8.73447217 12.24589255
   2.75064538  4.76425755 14.49178509
  13.75322689  6.35234340 12.24589255
   1.37532269  2.38212877 14.49178509
   0.00000000  0.00000000 14.49178509
  11.00258152  1.58808585 12.24589255
   8.25193614  6.35234340 12.24589255
  12.37790420  7.14638632 14.49178509
 


--------------------------------------------------------------------------------------------------------


 k-point  1 :   0.2500 0.2500 0.0000  plane waves:   46635
 k-point  2 :   0.0000 0.2500 0.0000  plane waves:   46635
 k-point  3 :  -0.2500 0.0000 0.0000  plane waves:   46635
 k-point  4 :  -0.2500 0.2500 0.0000  plane waves:   46644
 k-point  5 :   0.5000-0.2500 0.0000  plane waves:   46644
 k-point  6 :  -0.2500 0.5000 0.0000  plane waves:   46644

 maximum and minimum number of plane-waves per node :      7818     7732

 maximum number of plane-waves:     46644
 maximum index in each direction: 
   IXMAX=   18   IYMAX=   18   IZMAX=   39
   IXMIN=  -18   IYMIN=  -18   IZMIN=  -39

 WARNING: aliasing errors must be expected set NGX to  74 to avoid them
 WARNING: aliasing errors must be expected set NGY to  74 to avoid them
 WARNING: aliasing errors must be expected set NGZ to 158 to avoid them
 aliasing errors are usually negligible using standard VASP settings
 and one can safely disregard these warnings

 real space projection operators:
  total allocation   :      12803.06 KBytes
  max/ min on nodes  :       2145.66       2127.94


 parallel 3D FFT for wavefunctions:
    minimum data exchange during FFTs selected (reduces bandwidth)
 parallel 3D FFT for charge:
    minimum data exchange during FFTs selected (reduces bandwidth)


 total amount of memory used by VASP on root node    84353. kBytes
========================================================================

   base      :      30000. kBytes
   nonlr-proj:       4285. kBytes
   fftplans  :       4447. kBytes
   grid      :       6721. kBytes
   one-center:        124. kBytes
   wavefun   :      38776. kBytes
 
     INWAV:  cpu time    0.0000: real time    0.0000
 Broyden mixing: mesh for mixing (old mesh)
   NGX = 35   NGY = 35   NGZ = 79
  (NGX  =108   NGY  =108   NGZ  =240)
  gives a total of  96775 points

 initial charge density was supplied:
 charge density of overlapping atoms calculated
 number of electron     504.0000000 magnetization 
 keeping initial charge density in first step


--------------------------------------------------------------------------------------------------------


 Maximum index for non-local projection operator          355
 Maximum index for augmentation-charges          437 (set IRDMAX)


--------------------------------------------------------------------------------------------------------


 First call to EWALD:  gamma=   0.129
 Maximum number of real-space cells 4x 4x 2
 Maximum number of reciprocal cells 2x 2x 5

 FEWALD executed in parallel
    FEWALD:  cpu time    0.0023: real time    0.0023


----------------------------------------- Iteration    1(   1)  ---------------------------------------


    POTLOK:  cpu time    0.0472: real time    0.0474
    SETDIJ:  cpu time    0.0061: real time    0.0061
     EDDAV:  cpu time    6.8007: real time    6.8175
       DOS:  cpu time    0.0014: real time    0.0014
    --------------------------------------------
      LOOP:  cpu time    6.8581: real time    6.8790

 eigenvalue-minimisations  :  3672
 total energy-change (2. order) : 0.3201678E+04  (-0.1898070E+05)
 number of electron     504.0000000 magnetization 
 augmentation part      504.0000000 magnetization 

 DIPCOR: dipole corrections for dipol
 direction  3 min pos     1,
 dipolmoment           0.000000      0.000000      0.000004 electrons x Angstroem
 Tr[quadrupol]    -10256.305307

 energy correction for charged system         0.000000 eV
 dipol+quadrupol energy correction           -0.000000 eV
 added-field ion interaction          0.000003 eV  (added to PSCEN)


 Free energy of the ion-electron system (eV)
  ---------------------------------------------------
  alpha Z        PSCENC =       805.86936721
  Ewald energy   TEWEN  =    200403.85676319
  -Hartree energ DENC   =   -242818.90721156
  -exchange      EXHF   =         0.00000000
  -V(xc)+E(xc)   XCENC  =      -327.56224222
  PAW double counting   =     40340.05962942   -38292.62782345
  entropy T*S    EENTRO =        -0.13945888
  eigenvalues    EBANDS =      1431.34328207
  atomic energy  EATOM  =     41659.78587232
  Solvation  Ediel_sol  =         0.00000000
  ---------------------------------------------------
  free energy    TOTEN  =      3201.67817810 eV

  energy without entropy =     3201.81763698  energy(sigma->0) =     3201.74790754


--------------------------------------------------------------------------------------------------------




----------------------------------------- Iteration    1(   2)  ---------------------------------------


     EDDAV:  cpu time    8.3109: real time    8.4097
       DOS:  cpu time    0.0016: real time    0.0016
    --------------------------------------------
      LOOP:  cpu time    8.3129: real time    8.4151

 eigenvalue-minimisations  :  4368
 total energy-change (2. order) :-0.3185445E+04  (-0.2930761E+04)
 number of electron     504.0000000 magnetization 
 augmentation part      504.0000000 magnetization 

 DIPCOR: dipole corrections for dipol
 direction  3 min pos     1,
 dipolmoment           0.000000      0.000000      0.000004 electrons x Angstroem
 Tr[quadrupol]    -10256.305307

 energy correction for charged system         0.000000 eV
 dipol+quadrupol energy correction           -0.000000 eV
 added-field ion interaction          0.000003 eV  (added to PSCEN)


 Free energy of the ion-electron system (eV)
  ---------------------------------------------------
  alpha Z        PSCENC =       805.86936721
  Ewald energy   TEWEN  =    200403.85676319
  -Hartree energ DENC   =   -242818.90721156
  -exchange      EXHF   =         0.00000000
  -V(xc)+E(xc)   XCENC  =      -327.56224222
  PAW double counting   =     40340.05962942   -38292.62782345
  entropy T*S    EENTRO =        -0.14208041
  eigenvalues    EBANDS =     -1754.09877535
  atomic energy  EATOM  =     41659.78587232
  Solvation  Ediel_sol  =         0.00000000
  ---------------------------------------------------
  free energy    TOTEN  =        16.23349916 eV

  energy without entropy =       16.37557957  energy(sigma->0) =       16.30453936


--------------------------------------------------------------------------------------------------------




----------------------------------------- Iteration    1(   3)  ---------------------------------------


     EDDAV:  cpu time    7.9144: real time    7.9390
       DOS:  cpu time    0.0016: real time    0.0017
    --------------------------------------------
      LOOP:  cpu time    7.9166: real time    7.9427

 eigenvalue-minimisations  :  4128
 total energy-change (2. order) :-0.2161725E+03  (-0.2008772E+03)
 number of electron     504.0000000 magnetization 
 augmentation part      504.0000000 magnetization 

 DIPCOR: dipole corrections for dipol
 direction  3 min pos     1,
 dipolmoment           0.000000      0.000000      0.000004 electrons x Angstroem
 Tr[quadrupol]    -10256.305307

 energy correction for charged system         0.000000 eV
 dipol+quadrupol energy correction           -0.000000 eV
 added-field ion interaction          0.000003 eV  (added to PSCEN)


 Free energy of the ion-electron system (eV)
  ---------------------------------------------------
  alpha Z        PSCENC =       805.86936721
  Ewald energy   TEWEN  =    200403.85676319
  -Hartree energ DENC   =   -242818.90721156
  -exchange      EXHF   =         0.00000000
  -V(xc)+E(xc)   XCENC  =      -327.56224222
  PAW double counting   =     40340.05962942   -38292.62782345
  entropy T*S    EENTRO =        -0.19902057
  eigenvalues    EBANDS =     -1970.21432156
  atomic energy  EATOM  =     41659.78587232
  Solvation  Ediel_sol  =         0.00000000
  ---------------------------------------------------
  free energy    TOTEN  =      -199.93898721 eV

  energy without entropy =     -199.73996665  energy(sigma->0) =     -199.83947693


--------------------------------------------------------------------------------------------------------




----------------------------------------- Iteration    1(   4)  ---------------------------------------


     EDDAV:  cpu time    8.2007: real time    8.2215
       DOS:  cpu time    0.0017: real time    0.0017
    --------------------------------------------
      LOOP:  cpu time    8.2031: real time    8.2261

 eigenvalue-minimisations  :  4308
 total energy-change (2. order) :-0.5882771E+01  (-0.5814625E+01)
 number of electron     504.0000000 magnetization 
 augmentation part      504.0000000 magnetization 

 DIPCOR: dipole corrections for dipol
 direction  3 min pos     1,
 dipolmoment           0.000000      0.000000      0.000004 electrons x Angstroem
 Tr[quadrupol]    -10256.305307

 energy correction for charged system         0.000000 eV
 dipol+quadrupol energy correction           -0.000000 eV
 added-field ion interaction          0.000003 eV  (added to PSCEN)


 Free energy of the ion-electron system (eV)
  ---------------------------------------------------
  alpha Z        PSCENC =       805.86936721
  Ewald energy   TEWEN  =    200403.85676319
  -Hartree energ DENC   =   -242818.90721156
  -exchange      EXHF   =         0.00000000
  -V(xc)+E(xc)   XCENC  =      -327.56224222
  PAW double counting   =     40340.05962942   -38292.62782345
  entropy T*S    EENTRO =        -0.20797406
  eigenvalues    EBANDS =     -1976.08813868
  atomic energy  EATOM  =     41659.78587232
  Solvation  Ediel_sol  =         0.00000000
  ---------------------------------------------------
  free energy    TOTEN  =      -205.82175784 eV

  energy without entropy =     -205.61378377  energy(sigma->0) =     -205.71777080


--------------------------------------------------------------------------------------------------------




----------------------------------------- Iteration    1(   5)  ---------------------------------------


     EDDAV:  cpu time    8.3389: real time    8.3591
       DOS:  cpu time    0.0016: real time    0.0016
    CHARGE:  cpu time    0.2357: real time    0.2362
    MIXING:  cpu time    0.0021: real time    0.0023
    --------------------------------------------
      LOOP:  cpu time    8.5790: real time    8.6015

 eigenvalue-minimisations  :  4416
 total energy-change (2. order) :-0.1838607E+00  (-0.1833265E+00)
 number of electron     503.9998405 magnetization 
 augmentation part      191.3476221 magnetization 

 DIPCOR: dipole corrections for dipol
 direction  3 min pos     1,
 dipolmoment           0.000000      0.000000      0.000004 electrons x Angstroem
 Tr[quadrupol]    -10256.305307

 energy correction for charged system         0.000000 eV
 dipol+quadrupol energy correction           -0.000000 eV
 added-field ion interaction          0.000003 eV  (added to PSCEN)


 Broyden mixing:
  rms(total) = 0.62559E+01    rms(broyden)= 0.62558E+01
  rms(prec ) = 0.63893E+01
  weight for this iteration     100.00

 Free energy of the ion-electron system (eV)
  ---------------------------------------------------
  alpha Z        PSCENC =       805.86936721
  Ewald energy   TEWEN  =    200403.85676319
  -Hartree energ DENC   =   -242818.90721156
  -exchange      EXHF   =         0.00000000
  -V(xc)+E(xc)   XCENC  =      -327.56224222
  PAW double counting   =     40340.05962942   -38292.62782345
  entropy T*S    EENTRO =        -0.20770074
  eigenvalues    EBANDS =     -1976.27227271
  atomic energy  EATOM  =     41659.78587232
  Solvation  Ediel_sol  =         0.00000000
  ---------------------------------------------------
  free energy    TOTEN  =      -206.00561854 eV

  energy without entropy =     -205.79791780  energy(sigma->0) =     -205.90176817


--------------------------------------------------------------------------------------------------------




----------------------------------------- Iteration    1(   6)  ---------------------------------------


    POTLOK:  cpu time    0.0418: real time    0.0427
    SETDIJ:  cpu time    0.0063: real time    0.0063
    EDDIAG:  cpu time    1.2226: real time    1.2256
  RMM-DIIS:  cpu time    3.4166: real time    3.4248
    ORTHCH:  cpu time    0.2943: real time    0.2950
       DOS:  cpu time    0.0015: real time    0.0015
    CHARGE:  cpu time    0.2347: real time    0.2353
    MIXING:  cpu time    0.0020: real time    0.0020
    --------------------------------------------
      LOOP:  cpu time    5.2203: real time    5.2355

 eigenvalue-minimisations  :  3675
 total energy-change (2. order) :-0.4296455E+01  (-0.9976578E+01)
 number of electron     503.9998433 magnetization 
 augmentation part      190.5478135 magnetization 

 DIPCOR: dipole corrections for dipol
 direction  3 min pos     1,
 dipolmoment           0.000000      0.000000      1.683614 electrons x Angstroem
 Tr[quadrupol]    -10257.039602

 energy correction for charged system         0.000000 eV
 dipol+quadrupol energy correction           -0.099882 eV
 added-field ion interaction          1.332399 eV  (added to PSCEN)


 Broyden mixing:
  rms(total) = 0.60214E+01    rms(broyden)= 0.60212E+01
  rms(prec ) = 0.66146E+01
  weight for this iteration     100.00

 eigenvalues of (default mixing * dielectric matrix)
  average eigenvalue GAMMA=   0.5861
  0.5861

 Free energy of the ion-electron system (eV)
  ---------------------------------------------------
  alpha Z        PSCENC =       807.10188136
  Ewald energy   TEWEN  =    200403.85676319
  -Hartree energ DENC   =   -242546.48450329
  -exchange      EXHF   =         0.00000000
  -V(xc)+E(xc)   XCENC  =      -339.99303071
  PAW double counting   =     43930.75945685   -41942.42036332
  entropy T*S    EENTRO =        -0.31039933
  eigenvalues    EBANDS =     -2182.59775098
  atomic energy  EATOM  =     41659.78587232
  Solvation  Ediel_sol  =         0.00000000
  ---------------------------------------------------
  free energy    TOTEN  =      -210.30207390 eV

  energy without entropy =     -209.99167457  energy(sigma->0) =     -210.14687423


--------------------------------------------------------------------------------------------------------




----------------------------------------- Iteration    1(   7)  ---------------------------------------


    POTLOK:  cpu time    0.0419: real time    0.0420
    SETDIJ:  cpu time    0.0055: real time    0.0055
    EDDIAG:  cpu time    1.2259: real time    1.2289
  RMM-DIIS:  cpu time    3.3137: real time    3.3217
    ORTHCH:  cpu time    0.2903: real time    0.2911
       DOS:  cpu time    0.0015: real time    0.0015
    CHARGE:  cpu time    0.2365: real time    0.2372
    MIXING:  cpu time    0.0021: real time    0.0021
    --------------------------------------------
      LOOP:  cpu time    5.1180: real time    5.1321

 eigenvalue-minimisations  :  3681
 total energy-change (2. order) :-0.1199898E+02  (-0.6259889E+01)
 number of electron     503.9998383 magnetization 
 augmentation part      193.4027951 magnetization 

 DIPCOR: dipole corrections for dipol
 direction  3 min pos     1,
 dipolmoment           0.000000      0.000000     -1.589775 electrons x Angstroem
 Tr[quadrupol]    -10257.167290

 energy correction for charged system         0.000000 eV
 dipol+quadrupol energy correction           -0.089058 eV
 added-field ion interaction         -1.258136 eV  (added to PSCEN)


 Broyden mixing:
  rms(total) = 0.55907E+01    rms(broyden)= 0.55905E+01
  rms(prec ) = 0.67790E+01
  weight for this iteration     100.00

 eigenvalues of (default mixing * dielectric matrix)
  average eigenvalue GAMMA=   0.6898
  1.1208  0.2589

 Free energy of the ion-electron system (eV)
  ---------------------------------------------------
  alpha Z        PSCENC =       804.52217010
  Ewald energy   TEWEN  =    200403.85676319
  -Hartree energ DENC   =   -242466.93696886
  -exchange      EXHF   =         0.00000000
  -V(xc)+E(xc)   XCENC  =      -342.20769102
  PAW double counting   =     44959.08413885   -42991.25010194
  entropy T*S    EENTRO =        -0.20276120
  eigenvalues    EBANDS =     -2248.95247125
  atomic energy  EATOM  =     41659.78587232
  Solvation  Ediel_sol  =         0.00000000
  ---------------------------------------------------
  free energy    TOTEN  =      -222.30104980 eV

  energy without entropy =     -222.09828861  energy(sigma->0) =     -222.19966921


--------------------------------------------------------------------------------------------------------




----------------------------------------- Iteration    1(   8)  ---------------------------------------


    POTLOK:  cpu time    0.0417: real time    0.0428
    SETDIJ:  cpu time    0.0061: real time    0.0062
    EDDIAG:  cpu time    1.2303: real time    1.2347
  RMM-DIIS:  cpu time    3.3028: real time    3.4003
    ORTHCH:  cpu time    0.2874: real time    0.2881
       DOS:  cpu time    0.0016: real time    0.0016
    CHARGE:  cpu time    0.2425: real time    0.2431
    MIXING:  cpu time    0.0020: real time    0.0020
    --------------------------------------------
      LOOP:  cpu time    5.1150: real time    5.2228

 eigenvalue-minimisations  :  3678
 total energy-change (2. order) : 0.1153707E+02  (-0.9082054E+01)
 number of electron     503.9998346 magnetization 
 augmentation part      198.3195977 magnetization 

 DIPCOR: dipole corrections for dipol
 direction  3 min pos     1,
 dipolmoment           0.000000      0.000000      0.988138 electrons x Angstroem
 Tr[quadrupol]    -10257.502365

 energy correction for charged system         0.000000 eV
 dipol+quadrupol energy correction           -0.034406 eV
 added-field ion interaction          0.782005 eV  (added to PSCEN)


 Broyden mixing:
  rms(total) = 0.36965E+01    rms(broyden)= 0.36962E+01
  rms(prec ) = 0.40200E+01
  weight for this iteration     100.00

 eigenvalues of (default mixing * dielectric matrix)
  average eigenvalue GAMMA=   0.8460
  1.8989  0.4340  0.2052

 Free energy of the ion-electron system (eV)
  ---------------------------------------------------
  alpha Z        PSCENC =       806.61696296
  Ewald energy   TEWEN  =    200403.85676319
  -Hartree energ DENC   =   -242385.31586121
  -exchange      EXHF   =         0.00000000
  -V(xc)+E(xc)   XCENC  =      -344.67916903
  PAW double counting   =     46360.77380976   -44419.27479449
  entropy T*S    EENTRO =        -0.21729497
  eigenvalues    EBANDS =     -2292.31026763
  atomic energy  EATOM  =     41659.78587232
  Solvation  Ediel_sol  =         0.00000000
  ---------------------------------------------------
  free energy    TOTEN  =      -210.76397908 eV

  energy without entropy =     -210.54668411  energy(sigma->0) =     -210.65533159


--------------------------------------------------------------------------------------------------------




----------------------------------------- Iteration    1(   9)  ---------------------------------------


    POTLOK:  cpu time    0.0414: real time    0.0422
    SETDIJ:  cpu time    0.0053: real time    0.0053
    EDDIAG:  cpu time    1.2164: real time    1.2194
  RMM-DIIS:  cpu time    3.3865: real time    3.3947
    ORTHCH:  cpu time    0.2879: real time    0.2887
       DOS:  cpu time    0.0015: real time    0.0015
    CHARGE:  cpu time    0.2341: real time    0.2347
    MIXING:  cpu time    0.0021: real time    0.0022
    --------------------------------------------
      LOOP:  cpu time    5.1760: real time    5.1916

 eigenvalue-minimisations  :  3682
 total energy-change (2. order) : 0.5561393E+01  (-0.3166702E+01)
 number of electron     503.9998344 magnetization 
 augmentation part      198.5653636 magnetization 

 DIPCOR: dipole corrections for dipol
 direction  3 min pos     1,
 dipolmoment           0.000000      0.000000      0.544539 electrons x Angstroem
 Tr[quadrupol]    -10256.266066

 energy correction for charged system         0.000000 eV
 dipol+quadrupol energy correction           -0.010449 eV
 added-field ion interaction          0.430944 eV  (added to PSCEN)


 Broyden mixing:
  rms(total) = 0.30642E+01    rms(broyden)= 0.30640E+01
  rms(prec ) = 0.34978E+01
  weight for this iteration     100.00

 eigenvalues of (default mixing * dielectric matrix)
  average eigenvalue GAMMA=   0.8348
  2.2700  0.2321  0.4186  0.4186

 Free energy of the ion-electron system (eV)
  ---------------------------------------------------
  alpha Z        PSCENC =       806.28985945
  Ewald energy   TEWEN  =    200403.85676319
  -Hartree energ DENC   =   -242312.74913070
  -exchange      EXHF   =         0.00000000
  -V(xc)+E(xc)   XCENC  =      -345.80951994
  PAW double counting   =     48320.06686935   -46404.36509465
  entropy T*S    EENTRO =        -0.19062883
  eigenvalues    EBANDS =     -2332.08757674
  atomic energy  EATOM  =     41659.78587232
  Solvation  Ediel_sol  =         0.00000000
  ---------------------------------------------------
  free energy    TOTEN  =      -205.20258654 eV

  energy without entropy =     -205.01195772  energy(sigma->0) =     -205.10727213


--------------------------------------------------------------------------------------------------------




----------------------------------------- Iteration    1(  10)  ---------------------------------------


    POTLOK:  cpu time    0.0414: real time    0.0415
    SETDIJ:  cpu time    0.0053: real time    0.0053
    EDDIAG:  cpu time    1.2183: real time    1.2213
  RMM-DIIS:  cpu time    3.3476: real time    3.3557
    ORTHCH:  cpu time    0.2874: real time    0.2881
       DOS:  cpu time    0.0014: real time    0.0014
    CHARGE:  cpu time    0.2323: real time    0.2328
    MIXING:  cpu time    0.0022: real time    0.0022
    --------------------------------------------
      LOOP:  cpu time    5.1366: real time    5.1527

 eigenvalue-minimisations  :  3681
 total energy-change (2. order) : 0.6725312E+01  (-0.1757562E+01)
 number of electron     503.9998344 magnetization 
 augmentation part      198.6480349 magnetization 

 DIPCOR: dipole corrections for dipol
 direction  3 min pos     1,
 dipolmoment           0.000000      0.000000      0.489122 electrons x Angstroem
 Tr[quadrupol]    -10258.194871

 energy correction for charged system         0.000000 eV
 dipol+quadrupol energy correction           -0.008430 eV
 added-field ion interaction          0.387087 eV  (added to PSCEN)


 Broyden mixing:
  rms(total) = 0.19338E+01    rms(broyden)= 0.19336E+01
  rms(prec ) = 0.22643E+01
  weight for this iteration     100.00

 eigenvalues of (default mixing * dielectric matrix)
  average eigenvalue GAMMA=   0.8044
  2.3059  0.5971  0.5971  0.2245  0.2976

 Free energy of the ion-electron system (eV)
  ---------------------------------------------------
  alpha Z        PSCENC =       806.24802143
  Ewald energy   TEWEN  =    200403.85676319
  -Hartree energ DENC   =   -242383.10486796
  -exchange      EXHF   =         0.00000000
  -V(xc)+E(xc)   XCENC  =      -346.14579643
  PAW double counting   =     49139.82593535   -47232.84746220
  entropy T*S    EENTRO =        -0.21478039
  eigenvalues    EBANDS =     -2245.88095959
  atomic energy  EATOM  =     41659.78587232
  Solvation  Ediel_sol  =         0.00000000
  ---------------------------------------------------
  free energy    TOTEN  =      -198.47727427 eV

  energy without entropy =     -198.26249388  energy(sigma->0) =     -198.36988408


--------------------------------------------------------------------------------------------------------




----------------------------------------- Iteration    1(  11)  ---------------------------------------


    POTLOK:  cpu time    0.0407: real time    0.0408
    SETDIJ:  cpu time    0.0054: real time    0.0054
    EDDIAG:  cpu time    1.2184: real time    1.2214
  RMM-DIIS:  cpu time    3.3937: real time    3.4039
    ORTHCH:  cpu time    0.2873: real time    0.2880
       DOS:  cpu time    0.0013: real time    0.0013
    CHARGE:  cpu time    0.2314: real time    0.2320
    MIXING:  cpu time    0.0024: real time    0.0024
    --------------------------------------------
      LOOP:  cpu time    5.1812: real time    5.1974

 eigenvalue-minimisations  :  3682
 total energy-change (2. order) : 0.5727609E+01  (-0.1002129E+01)
 number of electron     503.9998343 magnetization 
 augmentation part      198.4470937 magnetization 

 DIPCOR: dipole corrections for dipol
 direction  3 min pos     1,
 dipolmoment           0.000000      0.000000      0.316482 electrons x Angstroem
 Tr[quadrupol]    -10258.531782

 energy correction for charged system         0.000000 eV
 dipol+quadrupol energy correction           -0.003529 eV
 added-field ion interaction          0.250461 eV  (added to PSCEN)


 Broyden mixing:
  rms(total) = 0.17939E+01    rms(broyden)= 0.17937E+01
  rms(prec ) = 0.20718E+01
  weight for this iteration     100.00

 eigenvalues of (default mixing * dielectric matrix)
  average eigenvalue GAMMA=   0.7297
  2.2932  0.6522  0.6522  0.2279  0.2764  0.2764

 Free energy of the ion-electron system (eV)
  ---------------------------------------------------
  alpha Z        PSCENC =       806.11629628
  Ewald energy   TEWEN  =    200403.85676319
  -Hartree energ DENC   =   -242421.76355969
  -exchange      EXHF   =         0.00000000
  -V(xc)+E(xc)   XCENC  =      -345.50712715
  PAW double counting   =     49306.41597913   -47398.06683370
  entropy T*S    EENTRO =        -0.17863313
  eigenvalues    EBANDS =     -2203.40842255
  atomic energy  EATOM  =     41659.78587232
  Solvation  Ediel_sol  =         0.00000000
  ---------------------------------------------------
  free energy    TOTEN  =      -192.74966529 eV

  energy without entropy =     -192.57103216  energy(sigma->0) =     -192.66034873


--------------------------------------------------------------------------------------------------------




----------------------------------------- Iteration    1(  12)  ---------------------------------------


    POTLOK:  cpu time    0.0422: real time    0.0423
    SETDIJ:  cpu time    0.0054: real time    0.0054
    EDDIAG:  cpu time    1.2148: real time    1.2196
  RMM-DIIS:  cpu time    3.3249: real time    3.3328
    ORTHCH:  cpu time    0.2879: real time    0.2885
       DOS:  cpu time    0.0014: real time    0.0014
    CHARGE:  cpu time    0.2384: real time    0.2390
    MIXING:  cpu time    0.0025: real time    0.0025
    --------------------------------------------
      LOOP:  cpu time    5.1183: real time    5.1340

 eigenvalue-minimisations  :  3681
 total energy-change (2. order) : 0.2776054E+01  (-0.4734388E+00)
 number of electron     503.9998355 magnetization 
 augmentation part      198.1018810 magnetization 

 DIPCOR: dipole corrections for dipol
 direction  3 min pos     1,
 dipolmoment           0.000000      0.000000      0.301908 electrons x Angstroem
 Tr[quadrupol]    -10258.330162

 energy correction for charged system         0.000000 eV
 dipol+quadrupol energy correction           -0.003212 eV
 added-field ion interaction          0.238928 eV  (added to PSCEN)


 Broyden mixing:
  rms(total) = 0.93830E+00    rms(broyden)= 0.93816E+00
  rms(prec ) = 0.10623E+01
  weight for this iteration     100.00

 eigenvalues of (default mixing * dielectric matrix)
  average eigenvalue GAMMA=   0.6681
  2.2672  0.6297  0.6297  0.4294  0.2081  0.2564  0.2564

 Free energy of the ion-electron system (eV)
  ---------------------------------------------------
  alpha Z        PSCENC =       806.10507999
  Ewald energy   TEWEN  =    200403.85676319
  -Hartree energ DENC   =   -242430.91983641
  -exchange      EXHF   =         0.00000000
  -V(xc)+E(xc)   XCENC  =      -344.99228605
  PAW double counting   =     49344.60326319   -47434.28528874
  entropy T*S    EENTRO =        -0.20817036
  eigenvalues    EBANDS =     -2193.91900792
  atomic energy  EATOM  =     41659.78587232
  Solvation  Ediel_sol  =         0.00000000
  ---------------------------------------------------
  free energy    TOTEN  =      -189.97361079 eV

  energy without entropy =     -189.76544043  energy(sigma->0) =     -189.86952561


--------------------------------------------------------------------------------------------------------




----------------------------------------- Iteration    1(  13)  ---------------------------------------


    POTLOK:  cpu time    0.0408: real time    0.0409
    SETDIJ:  cpu time    0.0053: real time    0.0053
    EDDIAG:  cpu time    1.2129: real time    1.2159
  RMM-DIIS:  cpu time    3.3024: real time    3.3118
    ORTHCH:  cpu time    0.2909: real time    0.2917
       DOS:  cpu time    0.0015: real time    0.0015
    CHARGE:  cpu time    0.2347: real time    0.2353
    MIXING:  cpu time    0.0028: real time    0.0028
    --------------------------------------------
      LOOP:  cpu time    5.0919: real time    5.1077

 eigenvalue-minimisations  :  3681
 total energy-change (2. order) : 0.9291658E+00  (-0.9911180E-01)
 number of electron     503.9998358 magnetization 
 augmentation part      197.9440854 magnetization 

 DIPCOR: dipole corrections for dipol
 direction  3 min pos     1,
 dipolmoment           0.000000      0.000000      0.251638 electrons x Angstroem
 Tr[quadrupol]    -10258.500914

 energy correction for charged system         0.000000 eV
 dipol+quadrupol energy correction           -0.002231 eV
 added-field ion interaction          0.199144 eV  (added to PSCEN)


 Broyden mixing:
  rms(total) = 0.67615E+00    rms(broyden)= 0.67608E+00
  rms(prec ) = 0.74410E+00
  weight for this iteration     100.00

 eigenvalues of (default mixing * dielectric matrix)
  average eigenvalue GAMMA=   0.6735
  2.2213  0.7808  0.7808  0.5560  0.2921  0.2921  0.2324  0.2324

 Free energy of the ion-electron system (eV)
  ---------------------------------------------------
  alpha Z        PSCENC =       806.06627749
  Ewald energy   TEWEN  =    200403.85676319
  -Hartree energ DENC   =   -242444.54425286
  -exchange      EXHF   =         0.00000000
  -V(xc)+E(xc)   XCENC  =      -344.74264559
  PAW double counting   =     49333.38312890   -47421.25849136
  entropy T*S    EENTRO =        -0.20356090
  eigenvalues    EBANDS =     -2181.38753620
  atomic energy  EATOM  =     41659.78587232
  Solvation  Ediel_sol  =         0.00000000
  ---------------------------------------------------
  free energy    TOTEN  =      -189.04444502 eV

  energy without entropy =     -188.84088412  energy(sigma->0) =     -188.94266457


--------------------------------------------------------------------------------------------------------




----------------------------------------- Iteration    1(  14)  ---------------------------------------


    POTLOK:  cpu time    0.0427: real time    0.0429
    SETDIJ:  cpu time    0.0057: real time    0.0057
    EDDIAG:  cpu time    1.2132: real time    1.2275
  RMM-DIIS:  cpu time    3.3275: real time    3.3540
    ORTHCH:  cpu time    0.2848: real time    0.2854
       DOS:  cpu time    0.0015: real time    0.0015
    CHARGE:  cpu time    0.2325: real time    0.2330
    MIXING:  cpu time    0.0030: real time    0.0030
    --------------------------------------------
      LOOP:  cpu time    5.1118: real time    5.1577

 eigenvalue-minimisations  :  3679
 total energy-change (2. order) : 0.1879512E+00  (-0.3785941E-01)
 number of electron     503.9998361 magnetization 
 augmentation part      197.6205835 magnetization 

 DIPCOR: dipole corrections for dipol
 direction  3 min pos     1,
 dipolmoment           0.000000      0.000000      0.227277 electrons x Angstroem
 Tr[quadrupol]    -10258.823375

 energy correction for charged system         0.000000 eV
 dipol+quadrupol energy correction           -0.001820 eV
 added-field ion interaction          0.179865 eV  (added to PSCEN)


 Broyden mixing:
  rms(total) = 0.59226E+00    rms(broyden)= 0.59224E+00
  rms(prec ) = 0.66710E+00
  weight for this iteration     100.00

 eigenvalues of (default mixing * dielectric matrix)
  average eigenvalue GAMMA=   0.7067
  2.1967  1.0484  1.0484  0.6154  0.3566  0.3566  0.2165  0.2609  0.2609

 Free energy of the ion-electron system (eV)
  ---------------------------------------------------
  alpha Z        PSCENC =       806.04740911
  Ewald energy   TEWEN  =    200403.85676319
  -Hartree energ DENC   =   -242466.30463741
  -exchange      EXHF   =         0.00000000
  -V(xc)+E(xc)   XCENC  =      -344.41635540
  PAW double counting   =     49311.49880546   -47396.68180456
  entropy T*S    EENTRO =        -0.20588055
  eigenvalues    EBANDS =     -2162.43666597
  atomic energy  EATOM  =     41659.78587232
  Solvation  Ediel_sol  =         0.00000000
  ---------------------------------------------------
  free energy    TOTEN  =      -188.85649381 eV

  energy without entropy =     -188.65061326  energy(sigma->0) =     -188.75355353


--------------------------------------------------------------------------------------------------------




----------------------------------------- Iteration    1(  15)  ---------------------------------------


    POTLOK:  cpu time    0.0411: real time    0.0412
    SETDIJ:  cpu time    0.0056: real time    0.0056
    EDDIAG:  cpu time    1.2164: real time    1.2211
  RMM-DIIS:  cpu time    3.3501: real time    3.3603
    ORTHCH:  cpu time    0.2836: real time    0.2843
       DOS:  cpu time    0.0015: real time    0.0015
    CHARGE:  cpu time    0.2316: real time    0.2321
    MIXING:  cpu time    0.0029: real time    0.0029
    --------------------------------------------
      LOOP:  cpu time    5.1335: real time    5.1514

 eigenvalue-minimisations  :  3680
 total energy-change (2. order) : 0.3353842E-01  (-0.3113873E-01)
 number of electron     503.9998362 magnetization 
 augmentation part      197.3592701 magnetization 

 DIPCOR: dipole corrections for dipol
 direction  3 min pos     1,
 dipolmoment           0.000000      0.000000      0.230914 electrons x Angstroem
 Tr[quadrupol]    -10259.277263

 energy correction for charged system         0.000000 eV
 dipol+quadrupol energy correction           -0.001879 eV
 added-field ion interaction          0.182744 eV  (added to PSCEN)


 Broyden mixing:
  rms(total) = 0.53545E+00    rms(broyden)= 0.53541E+00
  rms(prec ) = 0.62626E+00
  weight for this iteration     100.00

 eigenvalues of (default mixing * dielectric matrix)
  average eigenvalue GAMMA=   0.7533
  2.1917  1.3703  1.3703  0.7435  0.4273  0.4273  0.2790  0.2790  0.2223  0.2223

 Free energy of the ion-electron system (eV)
  ---------------------------------------------------
  alpha Z        PSCENC =       806.05022892
  Ewald energy   TEWEN  =    200403.85676319
  -Hartree energ DENC   =   -242492.20160989
  -exchange      EXHF   =         0.00000000
  -V(xc)+E(xc)   XCENC  =      -344.07005339
  PAW double counting   =     49316.16537352   -47398.62535256
  entropy T*S    EENTRO =        -0.21465963
  eigenvalues    EBANDS =     -2139.56951787
  atomic energy  EATOM  =     41659.78587232
  Solvation  Ediel_sol  =         0.00000000
  ---------------------------------------------------
  free energy    TOTEN  =      -188.82295539 eV

  energy without entropy =     -188.60829575  energy(sigma->0) =     -188.71562557


--------------------------------------------------------------------------------------------------------




----------------------------------------- Iteration    1(  16)  ---------------------------------------


    POTLOK:  cpu time    0.0413: real time    0.0417
    SETDIJ:  cpu time    0.0051: real time    0.0053
    EDDIAG:  cpu time    1.2106: real time    1.2135
  RMM-DIIS:  cpu time    3.3122: real time    3.4107
    ORTHCH:  cpu time    0.2837: real time    0.2844
       DOS:  cpu time    0.0015: real time    0.0015
    CHARGE:  cpu time    0.2385: real time    0.2391
    MIXING:  cpu time    0.0030: real time    0.0030
    --------------------------------------------
      LOOP:  cpu time    5.0967: real time    5.2020

 eigenvalue-minimisations  :  3678
 total energy-change (2. order) : 0.8924126E-01  (-0.4192299E-01)
 number of electron     503.9998363 magnetization 
 augmentation part      197.2472584 magnetization 

 DIPCOR: dipole corrections for dipol
 direction  3 min pos     1,
 dipolmoment           0.000000      0.000000      0.223470 electrons x Angstroem
 Tr[quadrupol]    -10259.745409

 energy correction for charged system         0.000000 eV
 dipol+quadrupol energy correction           -0.001760 eV
 added-field ion interaction          0.176853 eV  (added to PSCEN)


 Broyden mixing:
  rms(total) = 0.44038E+00    rms(broyden)= 0.44033E+00
  rms(prec ) = 0.52641E+00
  weight for this iteration     100.00

 eigenvalues of (default mixing * dielectric matrix)
  average eigenvalue GAMMA=   0.7794
  2.2738  1.5525  1.5525  0.6745  0.6745  0.5678  0.2804  0.2804  0.2764  0.2267
  0.2139

 Free energy of the ion-electron system (eV)
  ---------------------------------------------------
  alpha Z        PSCENC =       806.04445727
  Ewald energy   TEWEN  =    200403.85676319
  -Hartree energ DENC   =   -242517.64786471
  -exchange      EXHF   =         0.00000000
  -V(xc)+E(xc)   XCENC  =      -343.70643228
  PAW double counting   =     49345.95339636   -47425.83801456
  entropy T*S    EENTRO =        -0.22550154
  eigenvalues    EBANDS =     -2116.95639017
  atomic energy  EATOM  =     41659.78587232
  Solvation  Ediel_sol  =         0.00000000
  ---------------------------------------------------
  free energy    TOTEN  =      -188.73371413 eV

  energy without entropy =     -188.50821259  energy(sigma->0) =     -188.62096336


--------------------------------------------------------------------------------------------------------




----------------------------------------- Iteration    1(  17)  ---------------------------------------


    POTLOK:  cpu time    0.0408: real time    0.0409
    SETDIJ:  cpu time    0.0054: real time    0.0054
    EDDIAG:  cpu time    1.2102: real time    1.2131
  RMM-DIIS:  cpu time    3.3668: real time    3.3807
    ORTHCH:  cpu time    0.2837: real time    0.2844
       DOS:  cpu time    0.0015: real time    0.0015
    CHARGE:  cpu time    0.2340: real time    0.2346
    MIXING:  cpu time    0.0032: real time    0.0033
    --------------------------------------------
      LOOP:  cpu time    5.1464: real time    5.1662

 eigenvalue-minimisations  :  3678
 total energy-change (2. order) : 0.2118447E+00  (-0.2282992E-01)
 number of electron     503.9998362 magnetization 
 augmentation part      197.2725807 magnetization 

 DIPCOR: dipole corrections for dipol
 direction  3 min pos     1,
 dipolmoment           0.000000      0.000000      0.135329 electrons x Angstroem
 Tr[quadrupol]    -10260.128593

 energy correction for charged system         0.000000 eV
 dipol+quadrupol energy correction           -0.000645 eV
 added-field ion interaction          0.107099 eV  (added to PSCEN)


 Broyden mixing:
  rms(total) = 0.24619E+00    rms(broyden)= 0.24613E+00
  rms(prec ) = 0.27616E+00
  weight for this iteration     100.00

 eigenvalues of (default mixing * dielectric matrix)
  average eigenvalue GAMMA=   0.7595
  2.2825  1.6003  1.6003  0.7509  0.7509  0.5310  0.2786  0.2786  0.2993  0.2993
  0.2140  0.2287

 Free energy of the ion-electron system (eV)
  ---------------------------------------------------
  alpha Z        PSCENC =       805.97581765
  Ewald energy   TEWEN  =    200403.85676319
  -Hartree energ DENC   =   -242535.61445050
  -exchange      EXHF   =         0.00000000
  -V(xc)+E(xc)   XCENC  =      -343.50068893
  PAW double counting   =     49386.58165874   -47465.14185356
  entropy T*S    EENTRO =        -0.23155747
  eigenvalues    EBANDS =     -2100.23343085
  atomic energy  EATOM  =     41659.78587232
  Solvation  Ediel_sol  =         0.00000000
  ---------------------------------------------------
  free energy    TOTEN  =      -188.52186940 eV

  energy without entropy =     -188.29031194  energy(sigma->0) =     -188.40609067


--------------------------------------------------------------------------------------------------------




----------------------------------------- Iteration    1(  18)  ---------------------------------------


    POTLOK:  cpu time    0.0418: real time    0.0420
    SETDIJ:  cpu time    0.0056: real time    0.0056
    EDDIAG:  cpu time    1.2101: real time    1.2130
  RMM-DIIS:  cpu time    3.3503: real time    3.3584
    ORTHCH:  cpu time    0.2839: real time    0.2846
       DOS:  cpu time    0.0015: real time    0.0015
    CHARGE:  cpu time    0.2312: real time    0.2317
    MIXING:  cpu time    0.0033: real time    0.0034
    --------------------------------------------
      LOOP:  cpu time    5.1285: real time    5.1428

 eigenvalue-minimisations  :  3681
 total energy-change (2. order) : 0.6742469E-01  (-0.9828437E-02)
 number of electron     503.9998363 magnetization 
 augmentation part      197.1990305 magnetization 

 DIPCOR: dipole corrections for dipol
 direction  3 min pos     1,
 dipolmoment           0.000000      0.000000      0.097023 electrons x Angstroem
 Tr[quadrupol]    -10260.312374

 energy correction for charged system         0.000000 eV
 dipol+quadrupol energy correction           -0.000332 eV
 added-field ion interaction          0.076783 eV  (added to PSCEN)


 Broyden mixing:
  rms(total) = 0.12620E+00    rms(broyden)= 0.12616E+00
  rms(prec ) = 0.14134E+00
  weight for this iteration     100.00

 eigenvalues of (default mixing * dielectric matrix)
  average eigenvalue GAMMA=   0.7493
  2.3084  1.6367  1.6367  0.8007  0.8007  0.4937  0.4937  0.3233  0.2802  0.2802
  0.2469  0.2152  0.2241

 Free energy of the ion-electron system (eV)
  ---------------------------------------------------
  alpha Z        PSCENC =       805.94581584
  Ewald energy   TEWEN  =    200403.85676319
  -Hartree energ DENC   =   -242545.93270869
  -exchange      EXHF   =         0.00000000
  -V(xc)+E(xc)   XCENC  =      -343.36230745
  PAW double counting   =     49396.73389318   -47474.36464657
  entropy T*S    EENTRO =        -0.23110763
  eigenvalues    EBANDS =     -2090.88601890
  atomic energy  EATOM  =     41659.78587232
  Solvation  Ediel_sol  =         0.00000000
  ---------------------------------------------------
  free energy    TOTEN  =      -188.45444472 eV

  energy without entropy =     -188.22333708  energy(sigma->0) =     -188.33889090


--------------------------------------------------------------------------------------------------------




----------------------------------------- Iteration    1(  19)  ---------------------------------------


    POTLOK:  cpu time    0.0410: real time    0.0411
    SETDIJ:  cpu time    0.0054: real time    0.0054
    EDDIAG:  cpu time    1.2123: real time    1.2160
  RMM-DIIS:  cpu time    3.3469: real time    3.3551
    ORTHCH:  cpu time    0.2837: real time    0.2844
       DOS:  cpu time    0.0015: real time    0.0015
    CHARGE:  cpu time    0.2308: real time    0.2314
    MIXING:  cpu time    0.0035: real time    0.0035
    --------------------------------------------
      LOOP:  cpu time    5.1259: real time    5.1406

 eigenvalue-minimisations  :  3681
 total energy-change (2. order) : 0.1135615E-01  (-0.1476909E-02)
 number of electron     503.9998364 magnetization 
 augmentation part      197.1343723 magnetization 

 DIPCOR: dipole corrections for dipol
 direction  3 min pos     1,
 dipolmoment           0.000000      0.000000      0.090918 electrons x Angstroem
 Tr[quadrupol]    -10260.468929

 energy correction for charged system         0.000000 eV
 dipol+quadrupol energy correction           -0.000291 eV
 added-field ion interaction          0.071952 eV  (added to PSCEN)


 Broyden mixing:
  rms(total) = 0.86425E-01    rms(broyden)= 0.86420E-01
  rms(prec ) = 0.96479E-01
  weight for this iteration     100.00

 eigenvalues of (default mixing * dielectric matrix)
  average eigenvalue GAMMA=   0.7422
  2.3443  1.6447  1.6447  0.8784  0.8784  0.4994  0.4797  0.4797  0.2818  0.2818
  0.2686  0.2686  0.2142  0.2270

 Free energy of the ion-electron system (eV)
  ---------------------------------------------------
  alpha Z        PSCENC =       805.94102486
  Ewald energy   TEWEN  =    200403.85676319
  -Hartree energ DENC   =   -242553.09389295
  -exchange      EXHF   =         0.00000000
  -V(xc)+E(xc)   XCENC  =      -343.30508470
  PAW double counting   =     49405.10362469   -47482.37593220
  entropy T*S    EENTRO =        -0.22895692
  eigenvalues    EBANDS =     -2084.12650685
  atomic energy  EATOM  =     41659.78587232
  Solvation  Ediel_sol  =         0.00000000
  ---------------------------------------------------
  free energy    TOTEN  =      -188.44308856 eV

  energy without entropy =     -188.21413165  energy(sigma->0) =     -188.32861011


--------------------------------------------------------------------------------------------------------




----------------------------------------- Iteration    1(  20)  ---------------------------------------


    POTLOK:  cpu time    0.0408: real time    0.0409
    SETDIJ:  cpu time    0.0054: real time    0.0054
    EDDIAG:  cpu time    1.2095: real time    1.2125
  RMM-DIIS:  cpu time    3.3668: real time    3.3767
    ORTHCH:  cpu time    0.2837: real time    0.2843
       DOS:  cpu time    0.0016: real time    0.0016
    CHARGE:  cpu time    0.2394: real time    0.2399
    MIXING:  cpu time    0.0037: real time    0.0037
    --------------------------------------------
      LOOP:  cpu time    5.1514: real time    5.1674

 eigenvalue-minimisations  :  3684
 total energy-change (2. order) : 0.6242742E-02  (-0.5858254E-03)
 number of electron     503.9998364 magnetization 
 augmentation part      197.1120386 magnetization 

 DIPCOR: dipole corrections for dipol
 direction  3 min pos     1,
 dipolmoment           0.000000      0.000000      0.087882 electrons x Angstroem
 Tr[quadrupol]    -10260.578577

 energy correction for charged system         0.000000 eV
 dipol+quadrupol energy correction           -0.000272 eV
 added-field ion interaction          0.069549 eV  (added to PSCEN)


 Broyden mixing:
  rms(total) = 0.64408E-01    rms(broyden)= 0.64404E-01
  rms(prec ) = 0.70717E-01
  weight for this iteration     100.00

 eigenvalues of (default mixing * dielectric matrix)
  average eigenvalue GAMMA=   0.7629
  2.2578  1.5795  1.5795  1.1395  1.1395  0.7873  0.5530  0.5530  0.2788  0.2788
  0.3068  0.3068  0.2143  0.2408  0.2278

 Free energy of the ion-electron system (eV)
  ---------------------------------------------------
  alpha Z        PSCENC =       805.93864150
  Ewald energy   TEWEN  =    200403.85676319
  -Hartree energ DENC   =   -242557.27002086
  -exchange      EXHF   =         0.00000000
  -V(xc)+E(xc)   XCENC  =      -343.29101821
  PAW double counting   =     49411.73504163   -47488.97933525
  entropy T*S    EENTRO =        -0.22891346
  eigenvalues    EBANDS =     -2079.98387668
  atomic energy  EATOM  =     41659.78587232
  Solvation  Ediel_sol  =         0.00000000
  ---------------------------------------------------
  free energy    TOTEN  =      -188.43684582 eV

  energy without entropy =     -188.20793236  energy(sigma->0) =     -188.32238909


--------------------------------------------------------------------------------------------------------




----------------------------------------- Iteration    1(  21)  ---------------------------------------


    POTLOK:  cpu time    0.0446: real time    0.0448
    SETDIJ:  cpu time    0.0054: real time    0.0054
    EDDIAG:  cpu time    1.2124: real time    1.2155
  RMM-DIIS:  cpu time    3.3112: real time    3.3193
    ORTHCH:  cpu time    0.2838: real time    0.2845
       DOS:  cpu time    0.0016: real time    0.0016
    CHARGE:  cpu time    0.2345: real time    0.2351
    MIXING:  cpu time    0.0038: real time    0.0038
    --------------------------------------------
      LOOP:  cpu time    5.0981: real time    5.1203

 eigenvalue-minimisations  :  3681
 total energy-change (2. order) :-0.5551837E-03  (-0.7404293E-03)
 number of electron     503.9998365 magnetization 
 augmentation part      197.0963219 magnetization 

 DIPCOR: dipole corrections for dipol
 direction  3 min pos     1,
 dipolmoment           0.000000      0.000000      0.094311 electrons x Angstroem
 Tr[quadrupol]    -10260.727371

 energy correction for charged system         0.000000 eV
 dipol+quadrupol energy correction           -0.000313 eV
 added-field ion interaction          0.074637 eV  (added to PSCEN)


 Broyden mixing:
  rms(total) = 0.68706E-01    rms(broyden)= 0.68695E-01
  rms(prec ) = 0.80838E-01
  weight for this iteration     100.00

 eigenvalues of (default mixing * dielectric matrix)
  average eigenvalue GAMMA=   0.7654
  2.2673  1.6949  1.6949  1.1846  1.1846  0.8833  0.6055  0.6055  0.3342  0.3342
  0.2780  0.2780  0.2380  0.2380  0.2128  0.2128

 Free energy of the ion-electron system (eV)
  ---------------------------------------------------
  alpha Z        PSCENC =       805.94368778
  Ewald energy   TEWEN  =    200403.85676319
  -Hartree energ DENC   =   -242562.94110793
  -exchange      EXHF   =         0.00000000
  -V(xc)+E(xc)   XCENC  =      -343.26263868
  PAW double counting   =     49415.21291829   -47492.39753353
  entropy T*S    EENTRO =        -0.22390374
  eigenvalues    EBANDS =     -2074.41145870
  atomic energy  EATOM  =     41659.78587232
  Solvation  Ediel_sol  =         0.00000000
  ---------------------------------------------------
  free energy    TOTEN  =      -188.43740100 eV

  energy without entropy =     -188.21349726  energy(sigma->0) =     -188.32544913


--------------------------------------------------------------------------------------------------------




----------------------------------------- Iteration    1(  22)  ---------------------------------------


    POTLOK:  cpu time    0.0426: real time    0.0435
    SETDIJ:  cpu time    0.0053: real time    0.0054
    EDDIAG:  cpu time    1.2163: real time    1.2202
  RMM-DIIS:  cpu time    3.3138: real time    3.3223
    ORTHCH:  cpu time    0.2841: real time    0.2848
       DOS:  cpu time    0.0016: real time    0.0016
    CHARGE:  cpu time    0.2320: real time    0.2326
    MIXING:  cpu time    0.0041: real time    0.0041
    --------------------------------------------
      LOOP:  cpu time    5.1006: real time    5.1196

 eigenvalue-minimisations  :  3680
 total energy-change (2. order) : 0.4240248E-02  (-0.4442432E-03)
 number of electron     503.9998364 magnetization 
 augmentation part      197.1238337 magnetization 

 DIPCOR: dipole corrections for dipol
 direction  3 min pos     1,
 dipolmoment           0.000000      0.000000      0.090027 electrons x Angstroem
 Tr[quadrupol]    -10260.807906

 energy correction for charged system         0.000000 eV
 dipol+quadrupol energy correction           -0.000286 eV
 added-field ion interaction          0.071247 eV  (added to PSCEN)


 Broyden mixing:
  rms(total) = 0.30018E-01    rms(broyden)= 0.30009E-01
  rms(prec ) = 0.35870E-01
  weight for this iteration     100.00

 eigenvalues of (default mixing * dielectric matrix)
  average eigenvalue GAMMA=   0.7772
  2.2428  1.7536  1.7536  1.2947  1.2947  0.8221  0.8221  0.5597  0.5597  0.3416
  0.2798  0.2798  0.2995  0.2537  0.2284  0.2144  0.2123

 Free energy of the ion-electron system (eV)
  ---------------------------------------------------
  alpha Z        PSCENC =       805.94032548
  Ewald energy   TEWEN  =    200403.85676319
  -Hartree energ DENC   =   -242564.81523813
  -exchange      EXHF   =         0.00000000
  -V(xc)+E(xc)   XCENC  =      -343.28593408
  PAW double counting   =     49416.11466994   -47493.54339727
  entropy T*S    EENTRO =        -0.22680579
  eigenvalues    EBANDS =     -2072.25941640
  atomic energy  EATOM  =     41659.78587232
  Solvation  Ediel_sol  =         0.00000000
  ---------------------------------------------------
  free energy    TOTEN  =      -188.43316076 eV

  energy without entropy =     -188.20635496  energy(sigma->0) =     -188.31975786


--------------------------------------------------------------------------------------------------------




----------------------------------------- Iteration    1(  23)  ---------------------------------------


    POTLOK:  cpu time    0.0420: real time    0.0422
    SETDIJ:  cpu time    0.0054: real time    0.0055
    EDDIAG:  cpu time    1.2144: real time    1.2173
  RMM-DIIS:  cpu time    3.3469: real time    3.3552
    ORTHCH:  cpu time    0.2871: real time    0.2881
       DOS:  cpu time    0.0015: real time    0.0015
    CHARGE:  cpu time    0.2313: real time    0.2319
    MIXING:  cpu time    0.0043: real time    0.0043
    --------------------------------------------
      LOOP:  cpu time    5.1335: real time    5.1492

 eigenvalue-minimisations  :  3680
 total energy-change (2. order) : 0.8475211E-03  (-0.1896932E-03)
 number of electron     503.9998364 magnetization 
 augmentation part      197.1286193 magnetization 

 DIPCOR: dipole corrections for dipol
 direction  3 min pos     1,
 dipolmoment           0.000000      0.000000      0.078120 electrons x Angstroem
 Tr[quadrupol]    -10260.942653

 energy correction for charged system         0.000000 eV
 dipol+quadrupol energy correction           -0.000215 eV
[...]
    275       1.7424      0.00000
    276       1.8282      0.00000
    277       2.0937      0.00000
    278       2.2583      0.00000
    279       2.3226      0.00000
    280       2.3479      0.00000
    281       2.4633      0.00000
    282       2.5478      0.00000
    283       2.6536      0.00000
    284       3.0222      0.00000
    285       3.1574      0.00000
    286       3.2570      0.00000
    287       3.5238      0.00000
    288       3.6252      0.00000
    289       3.6965      0.00000
    290       3.9495      0.00000
    291       4.1043      0.00000
    292       4.2045      0.00000
    293       4.4908      0.00000
    294       4.5359      0.00000
    295       4.5579      0.00000
    296       4.6227      0.00000
    297       4.6641      0.00000
    298       4.8273      0.00000
    299       4.8671      0.00000
    300       4.9224      0.00000
    301       4.9572      0.00000
    302       5.0246      0.00000
    303       5.0615      0.00000
    304       5.0808      0.00000
    305       5.2020      0.00000
    306       5.2590      0.00000


--------------------------------------------------------------------------------------------------------


 soft charge-density along one line, spin component           1
         0         1         2         3         4         5         6         7         8         9
 total charge-density along one line
 
 pseudopotential strength for first ion, spin component:           1
 -8.061   0.002   0.003  -0.003   0.001  -8.208   0.002   0.003
  0.002  -7.986   0.001  -0.002  -0.002   0.002  -8.134   0.001
  0.003   0.001  -7.978  -0.001  -0.002   0.003   0.001  -8.126
 -0.003  -0.002  -0.001  -7.982  -0.001  -0.003  -0.002  -0.001
  0.001  -0.002  -0.002  -0.001  -8.059   0.001  -0.002  -0.002
 -8.208   0.002   0.003  -0.003   0.001  -8.338   0.002   0.003
  0.002  -8.134   0.001  -0.002  -0.002   0.002  -8.266   0.001
  0.003   0.001  -8.126  -0.001  -0.002   0.003   0.001  -8.258
 -0.003  -0.002  -0.001  -8.130  -0.001  -0.003  -0.002  -0.001
  0.001  -0.002  -0.002  -0.001  -8.206   0.001  -0.002  -0.002
  0.001  -0.000  -0.025  -0.000  -0.001   0.001  -0.000  -0.025
  0.002  -0.000  -0.037  -0.000  -0.002   0.002  -0.000  -0.037
 -0.000  -0.005   0.001   0.000   0.002  -0.000  -0.004   0.001
  0.000  -0.002  -0.007  -0.000   0.000   0.000  -0.002  -0.007
 -0.002   0.000   0.001  -0.005  -0.001  -0.002   0.000   0.001
 -0.000  -0.005   0.002   0.000   0.003  -0.000  -0.004   0.002
  0.000  -0.002  -0.008  -0.000   0.000   0.000  -0.002  -0.007
 -0.002   0.000   0.001  -0.005  -0.001  -0.002   0.000   0.001
 total augmentation occupancy for first ion, spin component:           1
  4.562   0.042  -0.101  -0.008  -0.079  -2.750  -0.011   0.107  -0.030   0.089  -0.120   0.067  -0.059   0.005  -0.006   0.002
  0.042   4.020   0.088   0.045   0.037  -0.012  -1.777  -0.070  -0.048  -0.066   0.001   0.016  -0.117  -0.022   0.013   0.002
 -0.101   0.088   4.482   0.046   0.112   0.107  -0.070  -2.367  -0.050  -0.117   1.069  -0.166  -0.018  -0.223  -0.014   0.003
 -0.008   0.045   0.046   4.129  -0.029  -0.029  -0.048  -0.050  -1.858   0.010  -0.012   0.022   0.012  -0.015  -0.155   0.000
 -0.079   0.037   0.112  -0.029   4.434   0.089  -0.066  -0.117   0.010  -2.595   0.080  -0.024  -0.039  -0.018   0.081   0.004
 -2.750  -0.012   0.107  -0.029   0.089   2.819  -0.012  -0.112   0.058  -0.095   0.113  -0.064   0.051  -0.007   0.009  -0.002
 -0.011  -1.777  -0.070  -0.048  -0.066  -0.012   1.503   0.056   0.050   0.088  -0.003  -0.012   0.108   0.018  -0.013  -0.004
  0.107  -0.070  -2.367  -0.050  -0.117  -0.112   0.056   2.196   0.053   0.120  -0.999   0.184   0.012   0.230   0.010  -0.001
 -0.030  -0.048  -0.050  -1.858   0.010   0.058   0.050   0.053   1.559   0.005   0.008  -0.018  -0.013   0.013   0.144  -0.000
  0.089  -0.066  -0.117   0.010  -2.595  -0.095   0.088   0.120   0.005   2.643  -0.078   0.025   0.033   0.018  -0.066  -0.002
 -0.120   0.001   1.069  -0.012   0.080   0.113  -0.003  -0.999   0.008  -0.078   2.447  -0.527  -0.004   0.109   0.002   0.000
  0.067   0.016  -0.166   0.022  -0.024  -0.064  -0.012   0.184  -0.018   0.025  -0.527   0.154   0.009  -0.048   0.003  -0.000
 -0.059  -0.117  -0.018   0.012  -0.039   0.051   0.108   0.012  -0.013   0.033  -0.004   0.009   0.201  -0.001   0.003  -0.006
  0.005  -0.022  -0.223  -0.015  -0.018  -0.007   0.018   0.230   0.013   0.018   0.109  -0.048  -0.001   0.092  -0.001  -0.000
 -0.006   0.013  -0.014  -0.155   0.081   0.009  -0.013   0.010   0.144  -0.066   0.002   0.003   0.003  -0.001   0.191  -0.000
  0.002   0.002   0.003   0.000   0.004  -0.002  -0.004  -0.001  -0.000  -0.002   0.000  -0.000  -0.006  -0.000  -0.000   0.000
  0.000  -0.001  -0.001   0.000   0.000  -0.000  -0.000  -0.005  -0.001  -0.001  -0.007   0.002  -0.000  -0.003  -0.000   0.000
 -0.002   0.000   0.002   0.003  -0.004   0.000   0.000  -0.001  -0.005   0.003  -0.000  -0.000  -0.000  -0.000  -0.006   0.000


------------------------ aborting loop because EDIFF is reached ----------------------------------------


    CHARGE:  cpu time    0.2260: real time    0.2265
    FORLOC:  cpu time    0.0165: real time    0.0165
    FORNL :  cpu time    1.3041: real time    1.3073
    FORCOR:  cpu time    0.0574: real time    0.0575
    FORHAR:  cpu time    0.0251: real time    0.0252
    MIXING:  cpu time    0.0029: real time    0.0029
    OFIELD:  cpu time    0.0000: real time    0.0000

 VOLUME and BASIS-vectors are now :
 -----------------------------------------------------------------------------
  energy-cutoff  :      400.00
  volume of cell :     2567.68
      direct lattice vectors                 reciprocal lattice vectors
    11.002581515  0.000000000  0.000000000     0.090887761 -0.052474073  0.000000000
     5.501290758  9.528515099  0.000000000     0.000000000  0.104948147  0.000000000
     0.000000000  0.000000000 24.491785094     0.000000000  0.000000000  0.040830017

  length of vectors
    11.002581515 11.002581515 24.491785094     0.104948147  0.104948147  0.040830017


 FORCES acting on ions
    electron-ion (+dipol)            ewald-force                    non-local-force                 convergence-correction
 -----------------------------------------------------------------------------------------------
   0.787E+01 -.950E-01 0.222E+04   -.763E+01 0.483E+00 -.222E+04   -.248E+00 -.385E+00 -.175E+00   0.471E-02 -.550E-02 -.379E-02
   0.132E+02 -.100E+02 -.355E+02   -.127E+02 0.989E+01 0.360E+02   -.462E+00 0.160E+00 -.507E+00   0.389E-02 -.275E-02 0.416E-03
   0.127E+02 0.122E+01 -.542E+02   -.132E+02 -.180E+01 0.541E+02   0.482E+00 0.581E+00 0.113E+00   -.249E-03 -.345E-02 -.266E-02
   0.290E+01 -.987E+01 -.469E+02   -.264E+01 0.102E+02 0.474E+02   -.279E+00 -.361E+00 -.483E+00   0.815E-02 -.211E-02 -.750E-02
   -.760E+01 -.207E-01 -.760E+02   0.848E+01 -.142E+00 0.755E+02   -.873E+00 0.152E+00 0.588E+00   -.535E-02 0.822E-02 -.171E-01
   0.176E+02 -.235E+00 0.218E+04   -.183E+02 0.895E+00 -.218E+04   0.719E+00 -.664E+00 -.679E+00   -.108E-01 -.190E-02 -.894E-02
   -.912E+01 -.112E+02 0.223E+04   0.957E+01 0.116E+02 -.223E+04   -.455E+00 -.343E+00 -.411E+00   0.361E-02 -.410E-03 0.578E-02
   0.389E+00 0.120E+01 -.230E+04   -.337E+00 -.194E+01 0.230E+04   -.585E-01 0.730E+00 0.111E-01   0.693E-02 0.250E-04 0.768E-02
   0.383E+01 0.512E+01 -.384E+02   -.372E+01 -.452E+01 0.389E+02   -.116E+00 -.603E+00 -.510E+00   0.379E-02 -.305E-02 0.372E-02
   0.283E+01 0.476E+01 0.226E+04   -.215E+01 -.520E+01 -.226E+04   -.677E+00 0.450E+00 0.675E-01   -.207E-02 -.288E-02 0.132E-02
   -.429E+00 0.127E+01 -.231E+04   -.504E-01 -.106E+01 0.231E+04   0.479E+00 -.213E+00 0.414E+00   -.201E-02 0.135E-02 -.104E-01
   0.419E+01 0.207E+01 -.231E+04   -.433E+01 -.228E+01 0.231E+04   0.143E+00 0.212E+00 0.581E-01   0.454E-02 -.236E-02 0.119E-02
   0.562E+01 -.728E+00 -.336E+02   -.595E+01 0.945E+00 0.341E+02   0.324E+00 -.217E+00 -.537E+00   0.603E-02 -.449E-02 -.334E-02
   -.124E+02 0.187E+02 0.226E+04   0.127E+02 -.194E+02 -.226E+04   -.253E+00 0.702E+00 -.310E-01   0.614E-02 -.713E-02 -.526E-02
   -.405E+01 0.660E+01 -.229E+04   0.376E+01 -.650E+01 0.229E+04   0.283E+00 -.975E-01 0.216E+00   0.516E-02 -.329E-02 0.448E-02
   -.108E+00 0.793E+01 0.228E+04   -.635E-01 -.832E+01 -.229E+04   0.170E+00 0.389E+00 0.147E+00   0.313E-02 -.352E-02 0.435E-02
   -.722E+01 -.160E+01 0.136E+02   0.773E+01 0.156E+01 -.125E+02   -.520E+00 0.396E-01 -.106E+01   -.156E-02 0.415E-02 0.344E-02
   0.166E+01 -.109E+02 0.220E+04   -.215E+01 0.114E+02 -.220E+04   0.495E+00 -.465E+00 -.368E+00   0.440E-02 -.990E-03 0.231E-02
   -.153E+01 -.156E+02 0.227E+04   0.124E+01 0.162E+02 -.227E+04   0.294E+00 -.535E+00 0.133E+00   -.527E-02 0.200E-02 0.117E-02
   0.148E+01 0.813E+01 -.534E+01   -.151E+01 -.791E+01 0.653E+01   0.350E-01 -.227E+00 -.119E+01   -.866E-02 -.239E-02 -.101E-02
   0.138E+02 -.884E+01 0.222E+04   -.144E+02 0.890E+01 -.222E+04   0.567E+00 -.536E-01 -.342E-01   0.106E-02 -.142E-02 -.533E-02
   -.417E+00 -.124E+01 -.327E+02   0.104E+00 0.841E+00 0.325E+02   0.325E+00 0.400E+00 0.166E+00   -.857E-02 0.819E-02 0.640E-02
   -.101E+02 -.119E+02 -.230E+04   0.103E+02 0.120E+02 0.230E+04   -.172E+00 -.109E+00 0.307E+00   -.750E-02 0.941E-02 -.194E-02
   -.380E+01 0.569E+01 0.228E+04   0.392E+01 -.592E+01 -.228E+04   -.108E+00 0.237E+00 0.263E-01   0.194E-02 0.258E-02 0.492E-02
   -.861E+01 0.240E+01 -.731E+02   0.877E+01 -.250E+01 0.727E+02   -.152E+00 0.881E-01 0.442E+00   -.792E-02 0.486E-02 -.143E-01
   0.135E+02 0.113E+02 0.197E+04   -.138E+02 -.114E+02 -.196E+04   0.238E+00 0.155E+00 -.145E+01   -.271E-02 0.142E-02 -.383E-03
   0.282E+01 0.930E+01 -.202E+04   -.292E+01 -.956E+01 0.202E+04   0.987E-01 0.263E+00 0.162E+01   -.198E-02 -.398E-02 -.610E-02
   -.496E+01 -.109E+02 -.201E+04   0.511E+01 0.114E+02 0.201E+04   -.155E+00 -.486E+00 0.155E+01   0.370E-02 0.312E-02 -.538E-02
   -.365E+01 -.327E+01 -.202E+04   0.368E+01 0.363E+01 0.202E+04   -.275E-01 -.359E+00 0.144E+01   -.705E-02 0.238E-02 -.274E-02
   -.120E+02 -.200E+02 0.197E+04   0.123E+02 0.203E+02 -.197E+04   -.271E+00 -.276E+00 -.125E+01   -.219E-02 0.189E-02 0.184E-02
   0.679E+01 -.162E+02 0.193E+04   -.694E+01 0.162E+02 -.193E+04   0.167E+00 -.225E-01 -.176E+01   -.627E-02 0.655E-02 -.677E-02
   -.859E+01 0.568E+00 -.198E+04   0.909E+01 -.435E+00 0.198E+04   -.513E+00 -.132E+00 0.170E+01   0.656E-02 -.469E-02 0.219E-05
   0.327E+01 -.711E+01 -.203E+04   -.350E+01 0.697E+01 0.203E+04   0.232E+00 0.131E+00 0.152E+01   0.376E-03 0.757E-02 -.132E-01
   -.296E+01 0.224E+02 0.195E+04   0.315E+01 -.227E+02 -.195E+04   -.189E+00 0.252E+00 -.134E+01   -.730E-02 -.426E-02 0.736E-02
   0.836E+01 0.290E+01 -.205E+04   -.829E+01 -.295E+01 0.205E+04   -.741E-01 0.543E-01 0.130E+01   -.273E-02 -.282E-03 -.851E-02
   -.680E+01 0.656E+01 0.196E+04   0.675E+01 -.671E+01 -.195E+04   0.523E-01 0.153E+00 -.154E+01   -.867E-03 0.343E-03 -.645E-02
   -.113E+00 0.135E+01 -.758E+01   -.457E+00 -.150E+01 0.848E+01   0.566E+00 0.158E+00 -.897E+00   0.972E-02 -.387E-02 -.213E-02
   0.719E+01 -.724E+01 -.202E+04   -.712E+01 0.743E+01 0.202E+04   -.629E-01 -.201E+00 0.155E+01   0.365E-02 0.131E-02 -.375E-02
   -.302E+01 -.521E+01 0.638E+01   0.262E+01 0.545E+01 -.548E+01   0.399E+00 -.238E+00 -.910E+00   0.670E-02 -.118E-02 0.409E-02
   -.180E+02 0.885E+01 0.196E+04   0.183E+02 -.902E+01 -.196E+04   -.330E+00 0.180E+00 -.129E+01   0.613E-02 -.489E-02 -.107E-02
   -.318E+01 0.312E+01 -.519E+02   0.347E+01 -.284E+01 0.520E+02   -.274E+00 -.286E+00 -.165E-01   -.711E-02 -.577E-03 -.150E-01
   0.488E+01 0.584E+01 -.199E+04   -.516E+01 -.590E+01 0.198E+04   0.280E+00 0.568E-01 0.186E+01   -.239E-03 0.770E-03 0.877E-03
   -.698E+01 0.545E+01 -.324E+02   0.723E+01 -.541E+01 0.328E+02   -.238E+00 -.438E-01 -.343E+00   -.367E-02 0.184E-02 -.272E-02
   -.165E+01 -.757E+01 -.201E+04   0.167E+01 0.754E+01 0.201E+04   -.277E-01 0.246E-01 0.165E+01   0.250E-02 0.293E-02 0.206E-02
   -.110E+02 0.589E+00 -.198E+04   0.112E+02 -.580E+00 0.198E+04   -.280E+00 -.927E-02 0.200E+01   0.126E-02 -.552E-03 -.788E-02
   0.178E+01 0.125E+01 -.374E+02   -.188E+01 -.185E+01 0.378E+02   0.100E+00 0.594E+00 -.417E+00   -.334E-02 0.409E-02 -.312E-02
   0.352E+01 -.161E+00 0.293E+02   -.378E+01 0.461E+00 -.280E+02   0.261E+00 -.295E+00 -.131E+01   0.597E-02 -.235E-02 -.479E-04
   0.795E+01 0.156E+02 -.203E+04   -.821E+01 -.159E+02 0.203E+04   0.257E+00 0.268E+00 0.158E+01   -.390E-02 -.164E-03 -.763E-02
 -----------------------------------------------------------------------------------------------
   -.145E+00 0.171E+00 -.184E+01   -.416E-12 -.107E-13 0.318E-11   0.149E+00 -.192E+00 0.195E+01   0.746E-03 0.595E-03 -.111E+00
 
 
 POSITION                                       TOTAL-FORCE (eV/Angst)
 -----------------------------------------------------------------------------------
      1.37038      0.81696      9.75402        -0.001595     -0.001671     -0.005135
      6.89039      3.97147     12.27365        -0.000677     -0.000477     -0.003509
      9.61569      8.71899     12.28234        -0.007246      0.001604     -0.004979
      5.52136      1.59764     12.28611        -0.003585     -0.001325      0.003754
     12.41986      8.73209     12.30846         0.008024     -0.001876     -0.005297
      9.59323      0.82842      9.83820         0.002921     -0.004910     -0.003618
      8.27108      7.95872      9.74153        -0.001100      0.000635     -0.007340
      5.48828      4.74071     14.78706         0.000880     -0.007400     -0.000377
      5.50766      6.37291     12.27509        -0.004143     -0.004514     -0.005461
      6.88586      5.55040      9.67395        -0.001581      0.003904     -0.000593
      8.23162     -0.00314     14.81374        -0.001957      0.000758      0.006107
      2.73346     -0.01480     14.79827         0.000301     -0.002907      0.004282
      2.74754      1.59119     12.26871        -0.001369     -0.003759      0.001028
      5.51660      3.14490      9.69016         0.000822      0.000491      0.009266
      4.10529      7.13560     14.79341        -0.000541      0.003721     -0.001750
      2.74839      3.17415      9.64152         0.001717      0.003702     -0.011531
     12.40747      3.96797     12.22318        -0.011357      0.002918      0.001244
      4.11168      5.57002      9.75776         0.005088      0.001568     -0.012002
     12.37102      5.59266      9.67120        -0.001781      0.004280     -0.002747
     11.01818      6.34869     12.24316        -0.001790     -0.007264      0.003771
      5.47601      7.96319      9.74720         0.002810      0.001678     -0.004203
      9.63718      3.95014     12.26117         0.003011      0.005110     -0.004809
      9.63318      2.38933     14.79376         0.002852     -0.002103      0.000156
      9.63611      5.55605      9.66190         0.006855      0.009009     -0.004617
      8.28335      1.57427     12.31341        -0.000841     -0.003008     -0.000966
     10.99547      3.18931      9.84804         0.004975      0.002214      0.001411
      9.61486      7.11814     14.63781        -0.001094     -0.004143      0.006883
      8.25185      4.78068     14.64380         0.000620     -0.001050      0.003259
     11.00398      4.76901     14.63925        -0.003472      0.002984     -0.001160
     11.01698      7.97060      9.86816        -0.002050      0.002071     -0.003788
     13.73914      7.95895      9.92525         0.005255      0.003021     -0.001391
      6.88938      7.13694     14.60648        -0.008258     -0.002545      0.005500
      6.85929      2.37612     14.68027        -0.005685      0.000390      0.005344
      8.24799      3.17837      9.89130        -0.003131     -0.002368     -0.010447
      5.48358     -0.01205     14.70456         0.002113      0.002021     -0.001883
      6.86943      0.78634      9.91528        -0.001381      0.001455      0.005022
      6.87273      8.73792     12.23804         0.005968     -0.001325      0.002888
      4.11315      2.37616     14.65181         0.007547     -0.005703      0.002971
      4.13992      3.97999     12.22715         0.002254      0.003992     -0.005388
      4.13305      0.79601      9.87182         0.001478      0.005290     -0.001232
     15.15040      8.74440     12.28928         0.001942     -0.003817     -0.000026
      2.72368      4.74678     14.60303        -0.004338      0.002291      0.003352
     13.78468      6.35542     12.26741         0.003207     -0.001023     -0.001854
      1.37215      2.38531     14.63949        -0.000544     -0.004547      0.004997
      0.00448     -0.01057     14.61927         0.000405     -0.000269      0.019014
     11.00132      1.55765     12.27340         0.001044     -0.001261      0.000183
      8.25103      6.35197     12.19524         0.002361      0.003166      0.006459
     12.34579      7.12535     14.66775        -0.004934      0.000989      0.009212
 -----------------------------------------------------------------------------------
    total drift:                                0.004118     -0.020438      0.005499


--------------------------------------------------------------------------------------------------------



  FREE ENERGIE OF THE ION-ELECTRON SYSTEM (eV)
  ---------------------------------------------------
  free  energy   TOTEN  =      -192.10211576 eV

  energy  without entropy=     -191.90492576  energy(sigma->0) =     -192.00352076
 
 d Force = 0.5599843E-03[ 0.241E-03, 0.879E-03]  d Energy = 0.5727136E-03-0.127E-04
 d Force = 0.4443974E+02[ 0.445E+02, 0.444E+02]  d Ewald  = 0.4443974E+02-0.278E-05


--------------------------------------------------------------------------------------------------------


    POTLOK:  cpu time    0.0480: real time    0.0481


--------------------------------------------------------------------------------------------------------


 stress matrix after NEB project (eV)
      0.00000      0.00000      0.00000
      0.00000      0.00000      0.00000
      0.00000      0.00000      0.00000
  FORCES: max atom, RMS     0.019020    0.007770
  FORCE total and by dimension    0.053835    0.019014
  Stress total and by dimension    0.000000    0.000000
 Conjugate gradient step on ions:
 trial-energy change:   -0.000573  1 .order   -0.000560   -0.000879   -0.000241
  (g-gl).g = 0.233E-03      g.g   = 0.309E-03  gl.gl    = 0.629E-03
 g(Force)  = 0.309E-03   g(Stress)= 0.000E+00 ortho     = 0.548E-04
 gamma     =   0.37010
 trial     =   2.66861
 opt step  =   3.54056  (harmonic =   3.67920) maximal distance =0.00410715
 next E    =  -192.102156   (d E  =  -0.00061)


--------------------------------------------------------------------------------------------------------


  
 reached required accuracy - stopping structural energy minimisation
     LOOP+:  cpu time   51.3104: real time   51.6436
    4ORBIT:  cpu time    0.0000: real time    0.0000

 total amount of memory used by VASP on root node    84353. kBytes
========================================================================

   base      :      30000. kBytes
   nonlr-proj:       4285. kBytes
   fftplans  :       4447. kBytes
   grid      :       6721. kBytes
   one-center:        124. kBytes
   wavefun   :      38776. kBytes
 
  
  
 General timing and accounting informations for this job:
 ========================================================
  
                  Total CPU time used (sec):     1870.464
                            User time (sec):     1780.117
                          System time (sec):       90.347
                         Elapsed time (sec):     1882.242
  
                   Maximum memory used (kb):      996080.
                   Average memory used (kb):           0.
  
                          Minor page faults:       952976
                          Major page faults:            0
                 Voluntary context switches:        11734
