unknown system                          
           1
    11.002582    0.000000    0.000000
     5.501291    9.528515    0.000000
     0.000000    0.000000   24.491785
   Au   Pd
  24  24
Direct configuration=     1
   0.08333333  0.08333333  0.40830017
   0.41666667  0.41666667  0.50000000
   0.41666667  0.91666667  0.50000000
   0.41666667  0.16666667  0.50000000
   0.66666667  0.91666667  0.50000000
   0.83333333  0.08333333  0.40830017
   0.33333333  0.83333333  0.40830017
   0.25000000  0.50000000  0.59169983
   0.16666667  0.66666667  0.50000000
   0.33333333  0.58333333  0.40830017
   0.75000000  0.00000000  0.59169983
   0.25000000  0.00000000  0.59169983
   0.16666667  0.16666667  0.50000000
   0.33333333  0.33333333  0.40830017
   0.00000000  0.75000000  0.59169983
   0.08333333  0.33333333  0.40830017
   0.91666667  0.41666667  0.50000000
   0.08333333  0.58333333  0.40830017
   0.83333333  0.58333333  0.40830017
   0.66666667  0.66666667  0.50000000
   0.08333333  0.83333333  0.40830017
   0.66666667  0.41666667  0.50000000
   0.75000000  0.25000000  0.59169983
   0.58333333  0.58333333  0.40830017
   0.66666667  0.16666667  0.50000000
   0.83333333  0.33333333  0.40830017
   0.50000000  0.75000000  0.59169983
   0.50000000  0.50000000  0.59169983
   0.75000000  0.50000000  0.59169983
   0.58333333  0.83333333  0.40830017
   0.83333333  0.83333333  0.40830017
   0.25000000  0.75000000  0.59169983
   0.50000000  0.25000000  0.59169983
   0.58333333  0.33333333  0.40830017
   0.50000000  0.00000000  0.59169983
   0.58333333  0.08333333  0.40830017
   0.16666667  0.91666667  0.50000000
   0.25000000  0.25000000  0.59169983
   0.16666667  0.41666667  0.50000000
   0.33333333  0.08333333  0.40830017
   0.91666667  0.91666667  0.50000000
   0.00000000  0.50000000  0.59169983
   0.91666667  0.66666667  0.50000000
   0.00000000  0.25000000  0.59169983
   0.00000000  0.00000000  0.59169983
   0.91666667  0.16666667  0.50000000
   0.41666667  0.66666667  0.50000000
   0.75000000  0.75000000  0.59169983
Direct configuration=     2
   0.08306181  0.08376657  0.40640273
   0.41828981  0.41578805  0.50044830
   0.41698032  0.91574013  0.50004359
   0.41715443  0.16682417  0.50034686
   0.66799248  0.91636882  0.49965414
   0.83189668  0.08413471  0.40680561
   0.33386099  0.83381549  0.40640185
   0.25042201  0.49904514  0.59382946
   0.16603534  0.66815111  0.50052130
   0.33443967  0.58280345  0.40605433
   0.74962900  0.00019133  0.59355881
   0.24970860 -0.00039861  0.59380224
   0.16611229  0.16711786  0.50047924
   0.33437329  0.33199402  0.40608904
  -0.00049094  0.75014445  0.59355967
   0.08359126  0.33283747  0.40603717
   0.91722470  0.41636206  0.50085337
   0.08218194  0.58386574  0.40638025
   0.83283098  0.58437540  0.40606017
   0.66636034  0.66745879  0.50079865
   0.08216611  0.83401407  0.40643162
   0.66667964  0.41574277  0.50011621
   0.75028964  0.25008508  0.59352295
   0.58355287  0.58291724  0.40604505
   0.66694625  0.16645560  0.49974085
   0.83300919  0.33295966  0.40701138
   0.50023092  0.74926529  0.59290637
   0.49980752  0.50089029  0.59293824
   0.75001267  0.50053273  0.59300869
   0.58343682  0.83420227  0.40689312
   0.83273347  0.83366160  0.40735304
   0.25066145  0.75019328  0.59268441
   0.49956291  0.24991182  0.59291725
   0.58395203  0.33258179  0.40708440
   0.50003174  0.00006008  0.59313566
   0.58364285  0.08295296  0.40714597
   0.16585513  0.91646980  0.50052368
   0.25000322  0.25020139  0.59293219
   0.16582722  0.41690787  0.50052514
   0.33403537  0.08298225  0.40681303
   0.91660791  0.91726615  0.50000074
  -0.00048758  0.49970028  0.59265426
   0.91669378  0.66698913  0.50026849
  -0.00007726  0.25032203  0.59283630
   0.00037484  0.00011008  0.59245945
   0.91691659  0.16554575  0.50030503
   0.41611763  0.66728486  0.50071574
   0.74976209  0.74940772  0.59290396
Direct configuration=     3
   0.08224724  0.08506629  0.40071043
   0.42315925  0.41315220  0.50179319
   0.41792128  0.91296051  0.50017437
   0.41861770  0.16729669  0.50138745
   0.67196992  0.91547527  0.49861655
   0.82758672  0.08653884  0.40232193
   0.33544395  0.83526195  0.40070688
   0.25168803  0.49618056  0.60021836
   0.16414136  0.67260444  0.50208519
   0.33775867  0.58121381  0.39931679
   0.74851601  0.00076531  0.59913576
   0.24883438 -0.00159443  0.60010947
   0.16444914  0.16847143  0.50191697
   0.33749317  0.32797607  0.39945566
  -0.00196376  0.75057778  0.59913921
   0.08436503  0.33134990  0.39924817
   0.91889882  0.41544824  0.50341349
   0.07872774  0.58546298  0.40062048
   0.83132391  0.58750161  0.39934016
   0.66544135  0.66983518  0.50319462
   0.07866445  0.83605627  0.40082596
   0.66671854  0.41297106  0.50046483
   0.75115858  0.25034031  0.59899232
   0.58421147  0.58166898  0.39927970
   0.66778499  0.16582242  0.49896340
   0.83203677  0.33183864  0.40314502
   0.50092368  0.74706117  0.59652597
   0.49923009  0.50356117  0.59665347
   0.75005069  0.50213090  0.59693525
   0.58374728  0.83680909  0.40267196
   0.83093389  0.83464640  0.40451166
   0.25264578  0.75077312  0.59563813
   0.49825162  0.24964728  0.59656949
   0.58580814  0.33032718  0.40343709
   0.50012696  0.00024030  0.59744313
   0.58457142  0.08181182  0.40368337
   0.16342053  0.91587920  0.50209473
   0.25001288  0.25080555  0.59662925
   0.16330888  0.41763150  0.50210057
   0.33614147  0.08192899  0.40235162
   0.91643163  0.91906462  0.50000295
  -0.00195034  0.49880111  0.59551755
   0.91677510  0.66795653  0.50107398
  -0.00030904  0.25128813  0.59624570
   0.00149937  0.00044033  0.59473832
   0.91766637  0.16218302  0.50122010
   0.41447050  0.66913942  0.50286296
   0.74904836  0.74763086  0.59651636
Direct configuration=     4
   0.08216260  0.08520134  0.40011893
   0.42366524  0.41287830  0.50193295
   0.41801906  0.91267167  0.50018796
   0.41876975  0.16734579  0.50149558
   0.67238322  0.91538242  0.49850873
   0.82713886  0.08678866  0.40185603
   0.33560844  0.83541226  0.40011510
   0.25181959  0.49588289  0.60088225
   0.16394455  0.67306719  0.50224770
   0.33810356  0.58104863  0.39861668
   0.74840036  0.00082496  0.59971527
   0.24874354 -0.00171869  0.60076487
   0.16427632  0.16861209  0.50206637
   0.33781736  0.32755856  0.39876637
  -0.00211680  0.75062281  0.59971899
   0.08444543  0.33119532  0.39854271
   0.91907278  0.41535328  0.50367951
   0.07836881  0.58562895  0.40002197
   0.83116731  0.58782646  0.39864187
   0.66534586  0.67008211  0.50344359
   0.07830059  0.83626849  0.40024346
   0.66672259  0.41268305  0.50050105
   0.75124887  0.25036683  0.59956065
   0.58427991  0.58153927  0.39857670
   0.66787214  0.16575662  0.49888262
   0.83193573  0.33172215  0.40274326
   0.50099567  0.74683214  0.59690209
   0.49917009  0.50383871  0.59703953
   0.75005464  0.50229697  0.59734327
   0.58377954  0.83707997  0.40223333
   0.83074689  0.83474873  0.40421640
   0.25285198  0.75083338  0.59594506
   0.49811537  0.24961979  0.59694901
   0.58600101  0.33009289  0.40305809
   0.50013686  0.00025903  0.59789073
   0.58466791  0.08169325  0.40332357
   0.16316754  0.91581783  0.50225798
   0.25001389  0.25086833  0.59701342
   0.16304719  0.41770669  0.50226428
   0.33636032  0.08181954  0.40188803
   0.91641331  0.91925150  0.50000318
  -0.00210233  0.49870767  0.59581508
   0.91678355  0.66805705  0.50115768
  -0.00033312  0.25138852  0.59659997
   0.00161622  0.00047464  0.59497512
   0.91774428  0.16183359  0.50131519
   0.41429935  0.66933213  0.50308608
   0.74897420  0.74744623  0.59689173
Direct configuration=     5
   0.08245608  0.08461710  0.39932168
   0.41873119  0.41604192  0.50146521
   0.41573381  0.91578439  0.50014941
   0.41777456  0.16654228  0.50111821
   0.67108023  0.91656620  0.49909570
   0.82860695  0.08590823  0.40069803
   0.33489987  0.83491618  0.39923790
   0.25108927  0.49740084  0.60218365
   0.16536601  0.66922226  0.50179822
   0.33623400  0.58126834  0.39784254
   0.74816613  0.00078299  0.60077576
   0.24981114 -0.00110198  0.60216952
   0.16650768  0.16583505  0.50151965
   0.33696123  0.32918412  0.39781693
  -0.00166304  0.75020523  0.60115403
   0.08380628  0.33201035  0.39750014
   0.91602415  0.41685359  0.50221861
   0.08101317  0.58444153  0.39935545
   0.83021121  0.58651432  0.39778181
   0.66702640  0.66688922  0.50227331
   0.07962288  0.83564906  0.39921239
   0.66882095  0.41438573  0.50027078
   0.75044954  0.25094506  0.60087831
   0.58543413  0.58199853  0.39768222
   0.66939866  0.16416082  0.49933185
   0.83244574  0.33304305  0.40249154
   0.50066010  0.74806953  0.59842553
   0.49974036  0.50289219  0.59822394
   0.74958482  0.50152825  0.59851314
   0.58376350  0.83631345  0.40156901
   0.83097626  0.83505519  0.40337854
   0.25208969  0.74999975  0.59743480
   0.49921578  0.24933177  0.59806498
   0.58451538  0.33138953  0.40225119
   0.49989273 -0.00062861  0.59854593
   0.58381933  0.08163704  0.40253762
   0.16439353  0.91761849  0.50137641
   0.25005903  0.24964188  0.59807821
   0.16528147  0.41901414  0.50151643
   0.33591215  0.08208370  0.40162694
   0.91603125  0.91930445  0.50006842
  -0.00177270  0.49935006  0.59723213
   0.91797525  0.66732562  0.50087934
  -0.00004100  0.25072700  0.59803442
   0.00091545  0.00028016  0.59603287
   0.91752883  0.16240754  0.50087865
   0.41483708  0.66782023  0.50190613
   0.74861350  0.74877424  0.59808250
Direct configuration=     6
   0.08251677  0.08449626  0.39915679
   0.41771071  0.41669623  0.50136847
   0.41526117  0.91642817  0.50014144
   0.41756873  0.16637609  0.50104016
   0.67081074  0.91681103  0.49921710
   0.82891059  0.08572614  0.40045853
   0.33475332  0.83481358  0.39905647
   0.25093822  0.49771479  0.60245282
   0.16566001  0.66842704  0.50170526
   0.33584733  0.58131378  0.39768243
   0.74811768  0.00077431  0.60099510
   0.25003194 -0.00097443  0.60246004
   0.16696918  0.16526070  0.50140658
   0.33678416  0.32952032  0.39762056
  -0.00156919  0.75011886  0.60145084
   0.08367409  0.33217892  0.39728451
   0.91539362  0.41716389  0.50191647
   0.08156009  0.58419594  0.39921760
   0.83001347  0.58624294  0.39760393
   0.66737397  0.66622885  0.50203127
   0.07989636  0.83552095  0.39899913
   0.66925495  0.41473789  0.50022315
   0.75028422  0.25106465  0.60115083
   0.58567285  0.58209352  0.39749722
   0.66971438  0.16383077  0.49942476
   0.83255122  0.33331625  0.40243948
   0.50059069  0.74832545  0.59874061
   0.49985831  0.50269643  0.59846890
   0.74948765  0.50136926  0.59875509
   0.58376018  0.83615491  0.40143162
   0.83102370  0.83511858  0.40320525
   0.25193203  0.74982734  0.59774292
   0.49944337  0.24927220  0.59829579
   0.58420811  0.33165770  0.40208430
   0.49984224 -0.00081220  0.59868145
   0.58364382  0.08162542  0.40237506
   0.16464709  0.91799091  0.50119408
   0.25006837  0.24938822  0.59829844
   0.16574358  0.41928455  0.50136176
   0.33581946  0.08213833  0.40157293
   0.91595223  0.91931540  0.50008191
  -0.00170453  0.49948292  0.59752521
   0.91822172  0.66717435  0.50082177
   0.00001942  0.25059019  0.59833110
   0.00077051  0.00023993  0.59625164
   0.91748427  0.16252625  0.50078836
   0.41494829  0.66750753  0.50166209
   0.74853890  0.74904891  0.59832878
Direct configuration=     7
   0.08261807  0.08450621  0.39889600
   0.41772995  0.41660293  0.50113467
   0.41622254  0.91530389  0.50023229
   0.41724684  0.16730394  0.50086954
   0.66993936  0.91607099  0.49968968
   0.82945757  0.08573762  0.39998259
   0.33466996  0.83398176  0.39880787
   0.25081375  0.49802887  0.60309679
   0.16559749  0.66871430  0.50147758
   0.33531671  0.58188389  0.39741846
   0.74816920  0.00059574  0.60146735
   0.25025240 -0.00103843  0.60313336
   0.16569014  0.16696379  0.50114419
   0.33625199  0.33004237  0.39733253
  -0.00136181  0.75008551  0.60205262
   0.08343667  0.33265388  0.39699700
   0.91770410  0.41625219  0.50124670
   0.08202062  0.58380851  0.39906093
   0.83093720  0.58577528  0.39730520
   0.66650613  0.66733938  0.50144184
   0.08083282  0.83483419  0.39868438
   0.66781512  0.41473696  0.50015704
   0.74991145  0.25129510  0.60167015
   0.58478292  0.58264388  0.39715760
   0.66906801  0.16522766  0.49975225
   0.83299195  0.33343855  0.40240428
   0.50043522  0.74880656  0.59909694
   0.49999230  0.50204359  0.59876541
   0.74944587  0.50114635  0.59926483
   0.58357872  0.83565892  0.40143063
   0.83158849  0.83457281  0.40294514
   0.25140144  0.74970776  0.59816504
   0.49952898  0.24950345  0.59852596
   0.58363684  0.33240936  0.40211358
   0.49987347 -0.00118193  0.59884714
   0.58315320  0.08193300  0.40216576
   0.16534157  0.91731436  0.50073540
   0.24997391  0.24926560  0.59858245
   0.16606287  0.41848038  0.50094062
   0.33511493  0.08260742  0.40161384
   0.91716627  0.91816626  0.50018419
  -0.00153577  0.49938062  0.59788406
   0.91843936  0.66704103  0.50063524
   0.00015769  0.25050399  0.59867613
   0.00069311 -0.00004121  0.59667478
   0.91764161  0.16307657  0.50058224
   0.41541374  0.66736116  0.50093468
   0.74827502  0.74945499  0.59862303
Direct configuration=     8
   0.08263325  0.08450770  0.39885693
   0.41773284  0.41658895  0.50109964
   0.41636657  0.91513546  0.50024590
   0.41719861  0.16744295  0.50084398
   0.66980881  0.91596012  0.49976048
   0.82953951  0.08573934  0.39991129
   0.33465747  0.83385714  0.39877062
   0.25079510  0.49807593  0.60319327
   0.16558812  0.66875733  0.50144347
   0.33523722  0.58196930  0.39737891
   0.74817692  0.00056898  0.60153810
   0.25028543 -0.00104802  0.60323424
   0.16549852  0.16721895  0.50110488
   0.33617226  0.33012059  0.39728938
  -0.00133074  0.75008051  0.60214278
   0.08340111  0.33272504  0.39695393
   0.91805026  0.41611560  0.50114636
   0.08208962  0.58375047  0.39903746
   0.83107560  0.58570522  0.39726045
   0.66637612  0.66750575  0.50135354
   0.08097312  0.83473130  0.39863722
   0.66759940  0.41473683  0.50014714
   0.74985560  0.25132962  0.60174796
   0.58464959  0.58272634  0.39710672
   0.66897117  0.16543694  0.49980132
   0.83305797  0.33345688  0.40239901
   0.50041192  0.74887864  0.59915032
   0.50001237  0.50194578  0.59880984
   0.74943961  0.50111295  0.59934120
   0.58355153  0.83558461  0.40143048
   0.83167310  0.83449104  0.40290617
   0.25132195  0.74968985  0.59822828
   0.49954180  0.24953810  0.59856045
   0.58355126  0.33252197  0.40211796
   0.49987815 -0.00123733  0.59887196
   0.58307970  0.08197909  0.40213440
   0.16544561  0.91721301  0.50066668
   0.24995976  0.24924723  0.59862500
   0.16611070  0.41835990  0.50087752
   0.33500938  0.08267770  0.40161997
   0.91734816  0.91799409  0.50019951
  -0.00151048  0.49936529  0.59793782
   0.91847197  0.66702106  0.50060730
   0.00017841  0.25049107  0.59872783
   0.00068152 -0.00008333  0.59673817
   0.91766518  0.16315901  0.50055136
   0.41548347  0.66733923  0.50082570
   0.74823548  0.74951583  0.59866712
Direct configuration=     9
   0.08275900  0.08450266  0.39871703
   0.41777757  0.41659687  0.50110500
   0.41598156  0.91520148  0.50038994
   0.41728366  0.16762302  0.50082911
   0.66997636  0.91613532  0.49995877
   0.82938335  0.08584790  0.39981117
   0.33458762  0.83401045  0.39864145
   0.25083235  0.49789049  0.60347873
   0.16568832  0.66907480  0.50149040
   0.33520185  0.58200597  0.39717055
   0.74824520  0.00055137  0.60174337
   0.25000226 -0.00120266  0.60349727
   0.16557646  0.16726118  0.50111957
   0.33609618  0.33012438  0.39710330
  -0.00138296  0.75001361  0.60243664
   0.08351871  0.33269356  0.39666990
   0.91815258  0.41651046  0.50109038
   0.08194830  0.58382703  0.39895750
   0.83140804  0.58583700  0.39707633
   0.66686524  0.66683029  0.50125264
   0.08094325  0.83467897  0.39846763
   0.66740501  0.41493110  0.50025111
   0.75004773  0.25122404  0.60198603
   0.58447708  0.58267276  0.39686228
   0.66899563  0.16542876  0.49997488
   0.83289389  0.33353570  0.40240958
   0.50037363  0.74859231  0.59911653
   0.49977542  0.50202183  0.59878001
   0.74955688  0.50125902  0.59924866
   0.58344837  0.83556602  0.40148839
   0.83179049  0.83440074  0.40294904
   0.25135780  0.74970680  0.59817675
   0.49921478  0.24968960  0.59855965
   0.58359256  0.33261509  0.40222350
   0.49978925 -0.00101023  0.59891026
   0.58318180  0.08199669  0.40223749
   0.16580246  0.91689048  0.50055962
   0.24997464  0.24943432  0.59861799
   0.16624030  0.41809442  0.50076625
   0.33462466  0.08272337  0.40177344
   0.91746533  0.91781893  0.50025520
  -0.00158156  0.49922238  0.59787782
   0.91837873  0.66701535  0.50060202
   0.00009824  0.25052405  0.59870776
   0.00079893 -0.00010650  0.59683046
   0.91761086  0.16322115  0.50055542
   0.41553087  0.66732635  0.50059798
   0.74831130  0.74919134  0.59867520
Direct configuration=    10
   0.08291308  0.08449649  0.39854561
   0.41783238  0.41660657  0.50111156
   0.41550980  0.91528237  0.50056642
   0.41738787  0.16784366  0.50081089
   0.67018167  0.91634999  0.50020173
   0.82919201  0.08598092  0.39968850
   0.33450204  0.83419830  0.39848319
   0.25087800  0.49766329  0.60382851
   0.16581109  0.66946379  0.50154790
   0.33515852  0.58205089  0.39691525
   0.74832888  0.00052979  0.60199489
   0.24965531 -0.00139215  0.60381956
   0.16567195  0.16731293  0.50113758
   0.33600296  0.33012903  0.39687530
  -0.00144694  0.74993162  0.60279671
   0.08366282  0.33265500  0.39632189
   0.91827797  0.41699426  0.50102180
   0.08177514  0.58392085  0.39885952
   0.83181539  0.58599846  0.39685074
   0.66746455  0.66600265  0.50112900
   0.08090664  0.83461484  0.39825984
   0.66716682  0.41516913  0.50037851
   0.75028315  0.25109467  0.60227774
   0.58426570  0.58260711  0.39656277
   0.66902560  0.16541875  0.50018755
   0.83269284  0.33363229  0.40242253
   0.50032670  0.74824147  0.59907513
   0.49948510  0.50211502  0.59874346
   0.74970057  0.50143799  0.59913527
   0.58332196  0.83554325  0.40155935
   0.83193431  0.83429008  0.40300157
   0.25140174  0.74972757  0.59811360
   0.49881408  0.24987523  0.59855866
   0.58364317  0.33272919  0.40235280
   0.49968033 -0.00073196  0.59895718
   0.58330689  0.08201826  0.40236380
   0.16623970  0.91649528  0.50042845
   0.24999287  0.24966355  0.59860940
   0.16639910  0.41776914  0.50062991
   0.33415327  0.08277934  0.40196148
   0.91760891  0.91760431  0.50032343
  -0.00166864  0.49904728  0.59780429
   0.91826448  0.66700836  0.50059556
   0.00000000  0.25056446  0.59868317
   0.00094280 -0.00013489  0.59694354
   0.91754430  0.16329728  0.50056040
   0.41558894  0.66731056  0.50031896
   0.74840420  0.74879374  0.59868511
Direct configuration=    11
   0.08267549  0.08461321  0.39841911
   0.41762005  0.41683327  0.50113029
   0.41569747  0.91522193  0.50076693
   0.41756607  0.16769328  0.50078646
   0.67018558  0.91633778  0.50037958
   0.82914143  0.08600461  0.39965966
   0.33448432  0.83432716  0.39832281
   0.25067622  0.49773098  0.60409280
   0.16583919  0.66930438  0.50165469
   0.33506076  0.58200824  0.39665548
   0.74837952  0.00050603  0.60223207
   0.24946831 -0.00135423  0.60407102
   0.16567172  0.16717594  0.50121292
   0.33611873  0.33004692  0.39666579
  -0.00142380  0.74975600  0.60308966
   0.08363454  0.33260165  0.39596840
   0.91835005  0.41691917  0.50093501
   0.08185424  0.58398476  0.39878292
   0.83171871  0.58608157  0.39661335
   0.66743755  0.66610222  0.50100856
   0.08073637  0.83476336  0.39808111
   0.66741168  0.41504952  0.50051710
   0.75037796  0.25107912  0.60252271
   0.58444119  0.58255765  0.39626442
   0.66930996  0.16531587  0.50038867
   0.83257674  0.33380147  0.40247011
   0.50030956  0.74800324  0.59894634
   0.49935734  0.50214026  0.59867226
   0.74973112  0.50142102  0.59900154
   0.58328786  0.83559696  0.40172576
   0.83181297  0.83446878  0.40311364
   0.25143167  0.74963025  0.59799692
   0.49872718  0.24991872  0.59855899
   0.58363349  0.33271893  0.40250932
   0.49950979 -0.00061344  0.59898130
   0.58332694  0.08198633  0.40255566
   0.16616258  0.91663538  0.50035548
   0.24989192  0.24967730  0.59857309
   0.16655042  0.41792890  0.50053434
   0.33407817  0.08277400  0.40215930
   0.91765748  0.91767462  0.50039248
  -0.00160449  0.49893701  0.59770570
   0.91844560  0.66712202  0.50063675
  -0.00001094  0.25056818  0.59859880
   0.00101018 -0.00020836  0.59696343
   0.91757168  0.16331639  0.50058540
   0.41574100  0.66724397  0.50009032
   0.74836843  0.74859768  0.59865154
Direct configuration=    12
   0.08223585  0.08482919  0.39818502
   0.41722715  0.41725277  0.50116496
   0.41604473  0.91511008  0.50113795
   0.41789580  0.16741501  0.50074123
   0.67019281  0.91631520  0.50070868
   0.82904782  0.08604843  0.39960629
   0.33445152  0.83456560  0.39802605
   0.25030283  0.49785626  0.60458184
   0.16589121  0.66900942  0.50185230
   0.33487985  0.58192932  0.39617479
   0.74847325  0.00046207  0.60267094
   0.24912229 -0.00128405  0.60453635
   0.16567129  0.16692245  0.50135234
   0.33633296  0.32989499  0.39627810
  -0.00138096  0.74943102  0.60363175
   0.08358223  0.33250294  0.39531431
   0.91848343  0.41678021  0.50077443
   0.08200062  0.58410303  0.39864117
   0.83153982  0.58623535  0.39617409
   0.66738757  0.66628647  0.50078570
   0.08042130  0.83503817  0.39775040
   0.66786480  0.41482818  0.50077356
   0.75055339  0.25105035  0.60297601
   0.58476592  0.58246611  0.39571236
   0.66983614  0.16512550  0.50076084
   0.83236190  0.33411452  0.40255817
   0.50027785  0.74756241  0.59870801
   0.49912095  0.50218698  0.59854051
   0.74978765  0.50138963  0.59875407
   0.58322477  0.83569635  0.40203370
   0.83158843  0.83479943  0.40332100
   0.25148705  0.74945017  0.59778100
   0.49856637  0.24999920  0.59855958
   0.58361558  0.33269994  0.40279895
   0.49919422 -0.00039412  0.59902594
   0.58336404  0.08192725  0.40291068
   0.16601989  0.91689460  0.50022045
   0.24970511  0.24970273  0.59850590
   0.16683042  0.41822452  0.50035751
   0.33393921  0.08276413  0.40252535
   0.91774735  0.91780473  0.50052027
  -0.00148579  0.49873296  0.59752325
   0.91878075  0.66733235  0.50071297
  -0.00003119  0.25057507  0.59844270
   0.00113487 -0.00034433  0.59700023
   0.91762234  0.16335175  0.50063167
   0.41602236  0.66712076  0.49966724
   0.74830224  0.74823490  0.59858943
Direct configuration=    13
   0.08208665  0.08490250  0.39810558
   0.41709380  0.41739514  0.50117672
   0.41616258  0.91507212  0.50126387
   0.41800771  0.16732057  0.50072589
   0.67019527  0.91630753  0.50082037
   0.82901605  0.08606331  0.39958818
   0.33444039  0.83464652  0.39792533
   0.25017611  0.49789877  0.60474782
   0.16590886  0.66890931  0.50191936
   0.33481846  0.58190253  0.39601164
   0.74850505  0.00044715  0.60281988
   0.24900486 -0.00126023  0.60469427
   0.16567114  0.16683642  0.50139966
   0.33640567  0.32984342  0.39614652
  -0.00136642  0.74932072  0.60381573
   0.08356447  0.33246944  0.39509232
   0.91852870  0.41673305  0.50071993
   0.08205029  0.58414317  0.39859306
   0.83147910  0.58628754  0.39602501
   0.66737061  0.66634900  0.50071006
   0.08031437  0.83513144  0.39763816
   0.66801858  0.41475306  0.50086060
   0.75061292  0.25104058  0.60312985
   0.58487612  0.58243504  0.39552499
   0.67001472  0.16506089  0.50088714
   0.83228899  0.33422077  0.40258805
   0.50026709  0.74741280  0.59862713
   0.49904072  0.50220283  0.59849580
   0.74980683  0.50137897  0.59867009
   0.58320336  0.83573008  0.40213821
   0.83151222  0.83491166  0.40339138
   0.25150584  0.74938906  0.59770772
   0.49851180  0.25002652  0.59855978
   0.58360950  0.33269349  0.40289724
   0.49908712 -0.00031969  0.59904109
   0.58337664  0.08190719  0.40303117
   0.16597146  0.91698258  0.50017462
   0.24964171  0.24971136  0.59848310
   0.16692545  0.41832485  0.50029750
   0.33389205  0.08276078  0.40264958
   0.91777785  0.91784889  0.50056364
  -0.00144551  0.49866371  0.59746133
   0.91889450  0.66740373  0.50073883
  -0.00003806  0.25057740  0.59838972
   0.00117719 -0.00039047  0.59701272
   0.91763953  0.16336375  0.50064737
   0.41611785  0.66707894  0.49952365
   0.74827978  0.74811178  0.59856835
Direct configuration=    14
   0.08179999  0.08510610  0.39804790
   0.41743308  0.41716034  0.50115757
   0.41617107  0.91500707  0.50142814
   0.41779816  0.16765331  0.50075636
   0.67055544  0.91606648  0.50100501
   0.82889734  0.08624389  0.39971964
   0.33444278  0.83446567  0.39785530
   0.25008579  0.49791327  0.60490454
   0.16577319  0.66914802  0.50195366
   0.33493790  0.58208871  0.39577875
   0.74845803  0.00027050  0.60307203
   0.24928639 -0.00128382  0.60483647
   0.16581661  0.16692168  0.50138810
   0.33654046  0.32959717  0.39597891
  -0.00150733  0.74941942  0.60403859
   0.08341591  0.33264294  0.39481337
   0.91889072  0.41659097  0.50045982
   0.08197411  0.58409487  0.39856198
   0.83149234  0.58627227  0.39582723
   0.66749025  0.66657698  0.50052110
   0.08034057  0.83521933  0.39755201
   0.66806526  0.41455821  0.50090870
   0.75040799  0.25109143  0.60336891
   0.58466117  0.58257854  0.39526490
   0.67001056  0.16520699  0.50110878
   0.83235961  0.33424466  0.40263591
   0.50014510  0.74756099  0.59847935
   0.49909811  0.50197376  0.59840536
   0.74975478  0.50109366  0.59856959
   0.58320056  0.83581484  0.40235077
   0.83133933  0.83501800  0.40361352
   0.25141923  0.74935051  0.59752959
   0.49870639  0.24997522  0.59855120
   0.58347808  0.33278366  0.40316675
   0.49903386 -0.00055157  0.59915997
   0.58326166  0.08195374  0.40329120
   0.16585737  0.91701341  0.50009716
   0.24954441  0.24958818  0.59839060
   0.16692730  0.41819498  0.50016681
   0.33399282  0.08284434  0.40284844
   0.91791008  0.91788158  0.50067123
  -0.00134112  0.49866485  0.59731178
   0.91903205  0.66739917  0.50077370
  -0.00005013  0.25053913  0.59833186
   0.00106518 -0.00064461  0.59694513
   0.91780803  0.16322110  0.50067212
   0.41609287  0.66706568  0.49918270
   0.74812664  0.74840435  0.59854751
Direct configuration=    15
   0.08168845  0.08518533  0.39802546
   0.41756510  0.41706897  0.50115012
   0.41617437  0.91498176  0.50149206
   0.41771662  0.16778278  0.50076822
   0.67069559  0.91597268  0.50107685
   0.82885114  0.08631416  0.39977079
   0.33444371  0.83439530  0.39782804
   0.25005064  0.49791891  0.60496552
   0.16572041  0.66924090  0.50196700
   0.33498438  0.58216116  0.39568813
   0.74843973  0.00020176  0.60317015
   0.24939594 -0.00129300  0.60489180
   0.16587322  0.16695486  0.50138360
   0.33659291  0.32950135  0.39591368
  -0.00156215  0.74945783  0.60412531
   0.08335810  0.33271046  0.39470483
   0.91903158  0.41653568  0.50035861
   0.08194447  0.58407608  0.39854988
   0.83149749  0.58626632  0.39575027
   0.66753680  0.66666569  0.50044757
   0.08035076  0.83525352  0.39751849
   0.66808342  0.41448239  0.50092742
   0.75032825  0.25111122  0.60346192
   0.58457754  0.58263438  0.39516370
   0.67000894  0.16526383  0.50119502
   0.83238709  0.33425395  0.40265453
   0.50009763  0.74761866  0.59842185
   0.49912044  0.50188462  0.59837017
   0.74973452  0.50098264  0.59853049
   0.58319947  0.83584782  0.40243347
   0.83127206  0.83505938  0.40369996
   0.25138553  0.74933551  0.59746027
   0.49878211  0.24995526  0.59854786
   0.58342694  0.33281875  0.40327162
   0.49901314 -0.00064180  0.59920623
   0.58321693  0.08197185  0.40339238
   0.16581297  0.91702541  0.50006701
   0.24950655  0.24954025  0.59835461
   0.16692801  0.41814445  0.50011596
   0.33403202  0.08287686  0.40292581
   0.91796153  0.91789430  0.50071310
  -0.00130050  0.49866529  0.59725360
   0.91908557  0.66739740  0.50078726
  -0.00005483  0.25052424  0.59830934
   0.00102160 -0.00074350  0.59691884
   0.91787360  0.16316559  0.50068176
   0.41608314  0.66706053  0.49905003
   0.74806705  0.74851820  0.59853939
Direct configuration=    16
   0.08186860  0.08520316  0.39805133
   0.41753614  0.41707911  0.50112488
   0.41592795  0.91511036  0.50151326
   0.41770337  0.16786580  0.50088245
   0.67078251  0.91621822  0.50124273
   0.82868048  0.08644367  0.39999517
   0.33430551  0.83458871  0.39785699
   0.25018810  0.49776191  0.60492314
   0.16580167  0.66917507  0.50188725
   0.33492740  0.58214302  0.39557811
   0.74823632  0.00017956  0.60336525
   0.24949721 -0.00136481  0.60487613
   0.16604868  0.16688463  0.50128478
   0.33649431  0.32963670  0.39583130
  -0.00164335  0.74954570  0.60419724
   0.08338600  0.33277089  0.39456621
   0.91900385  0.41661537  0.50011293
   0.08196386  0.58410645  0.39857921
   0.83139475  0.58632448  0.39563788
   0.66786878  0.66628420  0.50031936
   0.08034862  0.83519336  0.39755236
   0.66824649  0.41467523  0.50088697
   0.75024002  0.25095470  0.60360702
   0.58455567  0.58266340  0.39504981
   0.66996298  0.16512726  0.50137280
   0.83228515  0.33436381  0.40264614
   0.50010021  0.74763227  0.59831364
   0.49909797  0.50186617  0.59830061
   0.74969333  0.50088751  0.59841324
   0.58313505  0.83591729  0.40256497
   0.83128629  0.83503149  0.40390942
   0.25137159  0.74935036  0.59730944
   0.49888872  0.24978312  0.59857825
   0.58328398  0.33299282  0.40345825
   0.49912909 -0.00080748  0.59935019
   0.58322338  0.08201069  0.40360874
   0.16591287  0.91706014  0.50000662
   0.24957094  0.24949443  0.59829022
   0.16697443  0.41814386  0.50000129
   0.33396689  0.08287206  0.40302125
   0.91796416  0.91794518  0.50079988
  -0.00139993  0.49878400  0.59711486
   0.91925755  0.66718327  0.50079830
  -0.00012138  0.25041644  0.59827185
   0.00094008 -0.00084368  0.59684479
   0.91802212  0.16312891  0.50073454
   0.41606425  0.66698026  0.49880831
   0.74802734  0.74862090  0.59856064
Direct configuration=    17
   0.08196824  0.08521303  0.39806564
   0.41752012  0.41708471  0.50111091
   0.41579164  0.91518149  0.50152498
   0.41769604  0.16791172  0.50094564