  48  48   0   0
  0.5349325E+02  0.1100258E-08  0.1100258E-08  0.2449179E-08  0.3500000E-15
  1.000000000000000E-004
  CAR 
 unknown system                          
      6.35682304     -9.97519629  301     -1.11035205      1.00000000
     -9.975  0.0000E+00  0.0000E+00
     -9.921  0.0000E+00  0.0000E+00
     -9.866  0.0000E+00  0.0000E+00
     -9.812  0.0000E+00  0.0000E+00
     -9.757  0.0000E+00  0.0000E+00
     -9.703  0.0000E+00  0.0000E+00
     -9.649  0.0000E+00  0.0000E+00
     -9.594  0.0000E+00  0.0000E+00
     -9.540  0.1564E-16  0.8512E-18
     -9.485  0.6064E-14  0.3310E-15
     -9.431  0.1347E-11  0.7364E-13
     -9.376  0.1675E-09  0.9193E-11
     -9.322  0.1170E-07  0.6459E-09
     -9.267  0.4594E-06  0.2565E-07
     -9.213  0.1018E-04  0.5796E-06
     -9.159  0.1274E-03  0.7517E-05
     -9.104  0.9046E-03  0.5676E-04
     -9.050  0.3650E-02  0.2555E-03
     -8.995  0.8396E-02  0.7126E-03
     -8.941  0.1112E-01  0.1318E-02
     -8.886  0.9139E-02  0.1816E-02
     -8.832  0.7107E-02  0.2202E-02
     -8.778  0.8992E-02  0.2692E-02
     -8.723  0.1085E-01  0.3283E-02
     -8.669  0.8289E-02  0.3734E-02
     -8.614  0.3752E-02  0.3938E-02
     -8.560  0.1127E-02  0.4000E-02
     -8.505  0.9786E-03  0.4053E-02
     -8.451  0.2951E-02  0.4214E-02
     -8.396  0.6600E-02  0.4573E-02
     -8.342  0.9603E-02  0.5096E-02
     -8.288  0.9094E-02  0.5591E-02
     -8.233  0.6033E-02  0.5919E-02
     -8.179  0.5208E-02  0.6203E-02
     -8.124  0.9555E-02  0.6723E-02
     -8.070  0.1625E-01  0.7607E-02
     -8.015  0.1891E-01  0.8637E-02
     -7.961  0.1473E-01  0.9439E-02
     -7.906  0.8071E-02  0.9878E-02
     -7.852  0.5039E-02  0.1015E-01
     -7.798  0.7012E-02  0.1053E-01
     -7.743  0.1044E-01  0.1110E-01
     -7.689  0.1236E-01  0.1178E-01
     -7.634  0.1355E-01  0.1251E-01
     -7.580  0.1373E-01  0.1326E-01
     -7.525  0.1233E-01  0.1393E-01
     -7.471  0.1447E-01  0.1472E-01
     -7.417  0.2390E-01  0.1602E-01
     -7.362  0.3592E-01  0.1798E-01
     -7.308  0.4487E-01  0.2042E-01
     -7.253  0.4980E-01  0.2313E-01
     -7.199  0.5075E-01  0.2589E-01
     -7.144  0.4843E-01  0.2853E-01
     -7.090  0.4733E-01  0.3111E-01
     -7.035  0.5029E-01  0.3384E-01
     -6.981  0.5400E-01  0.3678E-01
     -6.927  0.5599E-01  0.3983E-01
     -6.872  0.5876E-01  0.4303E-01
     -6.818  0.6435E-01  0.4653E-01
     -6.763  0.7165E-01  0.5043E-01
     -6.709  0.7760E-01  0.5466E-01
     -6.654  0.8042E-01  0.5904E-01
     -6.600  0.8318E-01  0.6357E-01
     -6.545  0.8820E-01  0.6837E-01
     -6.491  0.9601E-01  0.7359E-01
     -6.437  0.1104E+00  0.7961E-01
     -6.382  0.1309E+00  0.8673E-01
     -6.328  0.1471E+00  0.9474E-01
     -6.273  0.1525E+00  0.1030E+00
     -6.219  0.1538E+00  0.1114E+00
     -6.164  0.1581E+00  0.1200E+00
     -6.110  0.1610E+00  0.1288E+00
     -6.056  0.1595E+00  0.1375E+00
     -6.001  0.1565E+00  0.1460E+00
     -5.947  0.1541E+00  0.1544E+00
     -5.892  0.1510E+00  0.1626E+00
     -5.838  0.1455E+00  0.1705E+00
     -5.783  0.1371E+00  0.1780E+00
     -5.729  0.1286E+00  0.1850E+00
     -5.674  0.1242E+00  0.1918E+00
     -5.620  0.1253E+00  0.1986E+00
     -5.566  0.1278E+00  0.2055E+00
     -5.511  0.1284E+00  0.2125E+00
     -5.457  0.1299E+00  0.2196E+00
     -5.402  0.1360E+00  0.2270E+00
     -5.348  0.1465E+00  0.2350E+00
     -5.293  0.1586E+00  0.2436E+00
     -5.239  0.1695E+00  0.2528E+00
     -5.184  0.1757E+00  0.2624E+00
     -5.130  0.1754E+00  0.2720E+00
     -5.076  0.1733E+00  0.2814E+00
     -5.021  0.1736E+00  0.2908E+00
     -4.967  0.1732E+00  0.3003E+00
     -4.912  0.1695E+00  0.3095E+00
     -4.858  0.1663E+00  0.3186E+00
     -4.803  0.1649E+00  0.3275E+00
     -4.749  0.1635E+00  0.3364E+00
     -4.695  0.1627E+00  0.3453E+00
     -4.640  0.1626E+00  0.3541E+00
     -4.586  0.1613E+00  0.3629E+00
     -4.531  0.1599E+00  0.3716E+00
     -4.477  0.1603E+00  0.3804E+00
     -4.422  0.1626E+00  0.3892E+00
     -4.368  0.1666E+00  0.3983E+00
     -4.313  0.1706E+00  0.4076E+00
     -4.259  0.1726E+00  0.4170E+00
     -4.205  0.1726E+00  0.4264E+00
     -4.150  0.1719E+00  0.4357E+00
     -4.096  0.1734E+00  0.4452E+00
     -4.041  0.1793E+00  0.4549E+00
     -3.987  0.1876E+00  0.4651E+00
     -3.932  0.1932E+00  0.4756E+00
     -3.878  0.1929E+00  0.4861E+00
     -3.823  0.1876E+00  0.4964E+00
     -3.769  0.1832E+00  0.5063E+00
     -3.715  0.1856E+00  0.5164E+00
     -3.660  0.1932E+00  0.5270E+00
     -3.606  0.2007E+00  0.5379E+00
     -3.551  0.2042E+00  0.5490E+00
     -3.497  0.2009E+00  0.5599E+00
     -3.442  0.1921E+00  0.5704E+00
     -3.388  0.1857E+00  0.5805E+00
     -3.334  0.1863E+00  0.5906E+00
     -3.279  0.1883E+00  0.6009E+00
     -3.225  0.1848E+00  0.6109E+00
     -3.170  0.1786E+00  0.6207E+00
     -3.116  0.1773E+00  0.6303E+00
     -3.061  0.1820E+00  0.6402E+00
     -3.007  0.1870E+00  0.6504E+00
     -2.952  0.1903E+00  0.6608E+00
     -2.898  0.1956E+00  0.6714E+00
     -2.844  0.2053E+00  0.6826E+00
     -2.789  0.2148E+00  0.6943E+00
     -2.735  0.2176E+00  0.7061E+00
     -2.680  0.2117E+00  0.7177E+00
     -2.626  0.2031E+00  0.7287E+00
     -2.571  0.1966E+00  0.7394E+00
     -2.517  0.1907E+00  0.7498E+00
     -2.462  0.1865E+00  0.7600E+00
     -2.408  0.1848E+00  0.7700E+00
     -2.354  0.1822E+00  0.7799E+00
     -2.299  0.1772E+00  0.7896E+00
     -2.245  0.1701E+00  0.7989E+00
     -2.190  0.1661E+00  0.8079E+00
     -2.136  0.1720E+00  0.8173E+00
     -2.081  0.1842E+00  0.8273E+00
     -2.027  0.1935E+00  0.8378E+00
     -1.973  0.1977E+00  0.8486E+00
     -1.918  0.2013E+00  0.8595E+00
     -1.864  0.2054E+00  0.8707E+00
     -1.809  0.2082E+00  0.8821E+00
     -1.755  0.2100E+00  0.8935E+00
     -1.700  0.2112E+00  0.9050E+00
     -1.646  0.2103E+00  0.9164E+00
     -1.591  0.2088E+00  0.9278E+00
     -1.537  0.2091E+00  0.9392E+00
     -1.483  0.2072E+00  0.9505E+00
     -1.428  0.1992E+00  0.9613E+00
     -1.374  0.1871E+00  0.9715E+00
     -1.319  0.1751E+00  0.9810E+00
     -1.265  0.1625E+00  0.9899E+00
     -1.210  0.1428E+00  0.9977E+00
     -1.156  0.1146E+00  0.1004E+01
     -1.101  0.8837E-01  0.1009E+01
     -1.047  0.7020E-01  0.1013E+01
     -0.993  0.5499E-01  0.1016E+01
     -0.938  0.3928E-01  0.1018E+01
     -0.884  0.2525E-01  0.1019E+01
     -0.829  0.1623E-01  0.1020E+01
     -0.775  0.1474E-01  0.1021E+01
     -0.720  0.1886E-01  0.1022E+01
     -0.666  0.2440E-01  0.1023E+01
     -0.612  0.3183E-01  0.1025E+01
     -0.557  0.4164E-01  0.1027E+01
     -0.503  0.4932E-01  0.1030E+01
     -0.448  0.5038E-01  0.1033E+01
     -0.394  0.4609E-01  0.1035E+01
     -0.339  0.4334E-01  0.1037E+01
     -0.285  0.4444E-01  0.1040E+01
     -0.230  0.4146E-01  0.1042E+01
     -0.176  0.3129E-01  0.1044E+01
     -0.122  0.2139E-01  0.1045E+01
     -0.067  0.1683E-01  0.1046E+01
     -0.013  0.1550E-01  0.1047E+01
      0.042  0.1553E-01  0.1048E+01
      0.096  0.1936E-01  0.1049E+01
      0.151  0.2699E-01  0.1050E+01
      0.205  0.3068E-01  0.1052E+01
      0.260  0.2679E-01  0.1053E+01
      0.314  0.2345E-01  0.1054E+01
      0.368  0.2801E-01  0.1056E+01
      0.423  0.3898E-01  0.1058E+01
      0.477  0.5051E-01  0.1061E+01
      0.532  0.5953E-01  0.1064E+01
      0.586  0.6387E-01  0.1068E+01
      0.641  0.5890E-01  0.1071E+01
      0.695  0.4653E-01  0.1073E+01
      0.749  0.3653E-01  0.1075E+01
      0.804  0.3182E-01  0.1077E+01
      0.858  0.2931E-01  0.1079E+01
      0.913  0.2839E-01  0.1080E+01
      0.967  0.2680E-01  0.1082E+01
      1.022  0.2230E-01  0.1083E+01
      1.076  0.1686E-01  0.1084E+01
      1.131  0.1536E-01  0.1085E+01
      1.185  0.1844E-01  0.1086E+01
      1.239  0.1911E-01  0.1087E+01
      1.294  0.1408E-01  0.1087E+01
      1.348  0.8294E-02  0.1088E+01
      1.403  0.7299E-02  0.1088E+01
      1.457  0.1395E-01  0.1089E+01
      1.512  0.2619E-01  0.1090E+01
      1.566  0.3607E-01  0.1092E+01
      1.621  0.3673E-01  0.1094E+01
      1.675  0.3147E-01  0.1096E+01
      1.729  0.2890E-01  0.1098E+01
      1.784  0.2972E-01  0.1099E+01
      1.838  0.2966E-01  0.1101E+01
      1.893  0.2885E-01  0.1102E+01
      1.947  0.2797E-01  0.1104E+01
      2.002  0.2670E-01  0.1105E+01
      2.056  0.2739E-01  0.1107E+01
      2.110  0.3314E-01  0.1109E+01
      2.165  0.4236E-01  0.1111E+01
      2.219  0.4834E-01  0.1114E+01
      2.274  0.4804E-01  0.1116E+01
      2.328  0.4584E-01  0.1119E+01
      2.383  0.4334E-01  0.1121E+01
      2.437  0.3907E-01  0.1123E+01
      2.492  0.3663E-01  0.1125E+01
      2.546  0.3900E-01  0.1127E+01
      2.600  0.4347E-01  0.1130E+01
      2.655  0.4577E-01  0.1132E+01
      2.709  0.4195E-01  0.1135E+01
      2.764  0.3189E-01  0.1136E+01
      2.818  0.2037E-01  0.1137E+01
      2.873  0.1311E-01  0.1138E+01
      2.927  0.1179E-01  0.1139E+01
      2.982  0.1166E-01  0.1139E+01
      3.036  0.9383E-02  0.1140E+01
      3.090  0.8865E-02  0.1140E+01
      3.145  0.1224E-01  0.1141E+01
      3.199  0.1632E-01  0.1142E+01
      3.254  0.2054E-01  0.1143E+01
      3.308  0.2363E-01  0.1144E+01
      3.363  0.2122E-01  0.1146E+01
      3.417  0.1762E-01  0.1146E+01
      3.471  0.2116E-01  0.1148E+01
      3.526  0.3100E-01  0.1149E+01
      3.580  0.4123E-01  0.1152E+01
      3.635  0.4764E-01  0.1154E+01
      3.689  0.4660E-01  0.1157E+01
      3.744  0.3782E-01  0.1159E+01
      3.798  0.2793E-01  0.1160E+01
      3.853  0.2324E-01  0.1162E+01
      3.907  0.2292E-01  0.1163E+01
      3.961  0.2501E-01  0.1164E+01
      4.016  0.2790E-01  0.1166E+01
      4.070  0.2694E-01  0.1167E+01
      4.125  0.2276E-01  0.1168E+01
      4.179  0.2140E-01  0.1170E+01
      4.234  0.2087E-01  0.1171E+01
      4.288  0.1632E-01  0.1172E+01
      4.343  0.1252E-01  0.1172E+01
      4.397  0.1720E-01  0.1173E+01
      4.451  0.2813E-01  0.1175E+01
      4.506  0.3763E-01  0.1177E+01
      4.560  0.4560E-01  0.1179E+01
      4.615  0.5444E-01  0.1182E+01
      4.669  0.5876E-01  0.1185E+01
      4.724  0.5390E-01  0.1188E+01
      4.778  0.4641E-01  0.1191E+01
      4.833  0.4407E-01  0.1193E+01
      4.887  0.4611E-01  0.1196E+01
      4.941  0.5106E-01  0.1199E+01
      4.996  0.5983E-01  0.1202E+01
      5.050  0.6842E-01  0.1206E+01
      5.105  0.6989E-01  0.1209E+01
      5.159  0.6543E-01  0.1213E+01
      5.214  0.6206E-01  0.1216E+01
      5.268  0.5715E-01  0.1219E+01
      5.322  0.4360E-01  0.1222E+01
      5.377  0.2551E-01  0.1223E+01
      5.431  0.1130E-01  0.1224E+01
      5.486  0.3629E-02  0.1224E+01
      5.540  0.7787E-03  0.1224E+01
      5.595  0.1035E-03  0.1224E+01
      5.649  0.8140E-05  0.1224E+01
      5.704  0.3688E-06  0.1224E+01
      5.758  0.9503E-08  0.1224E+01
      5.812  0.1382E-09  0.1224E+01
      5.867  0.1129E-11  0.1224E+01
      5.921  0.5166E-14  0.1224E+01
      5.976  0.1360E-16  0.1224E+01
      6.030  0.0000E+00  0.1224E+01
      6.085  0.0000E+00  0.1224E+01
      6.139  0.0000E+00  0.1224E+01
      6.194  0.0000E+00  0.1224E+01
      6.248  0.0000E+00  0.1224E+01
      6.302  0.0000E+00  0.1224E+01
      6.357  0.0000E+00  0.1224E+01
