  48  48   0   0
  0.5349325E+02  0.1100258E-08  0.1100258E-08  0.2449179E-08  0.3500000E-15
  1.000000000000000E-004
  CAR 
 unknown system                          
      6.35888574     -9.72204949  301     -1.09163680      1.00000000
     -9.722  0.0000E+00  0.0000E+00
     -9.668  0.0000E+00  0.0000E+00
     -9.615  0.0000E+00  0.0000E+00
     -9.561  0.0000E+00  0.0000E+00
     -9.508  0.0000E+00  0.0000E+00
     -9.454  0.0000E+00  0.0000E+00
     -9.400  0.0000E+00  0.0000E+00
     -9.347  0.0000E+00  0.0000E+00
     -9.293  0.1036E-16  0.5551E-18
     -9.240  0.3957E-14  0.2126E-15
     -9.186  0.8582E-12  0.4621E-13
     -9.132  0.1059E-09  0.5722E-11
     -9.079  0.7443E-08  0.4047E-09
     -9.025  0.2987E-06  0.1642E-07
     -8.972  0.6858E-05  0.3840E-06
     -8.918  0.9030E-04  0.5224E-05
     -8.864  0.6835E-03  0.4186E-04
     -8.811  0.2981E-02  0.2017E-03
     -8.757  0.7516E-02  0.6045E-03
     -8.704  0.1108E-01  0.1198E-02
     -8.650  0.1023E-01  0.1747E-02
     -8.596  0.8423E-02  0.2198E-02
     -8.543  0.9912E-02  0.2729E-02
     -8.489  0.1118E-01  0.3329E-02
     -8.436  0.8095E-02  0.3763E-02
     -8.382  0.3444E-02  0.3948E-02
     -8.328  0.8718E-03  0.3994E-02
     -8.275  0.3217E-03  0.4011E-02
     -8.221  0.1075E-02  0.4069E-02
     -8.168  0.3454E-02  0.4254E-02
     -8.114  0.7125E-02  0.4636E-02
     -8.060  0.1013E-01  0.5179E-02
     -8.007  0.1166E-01  0.5804E-02
     -7.953  0.1378E-01  0.6543E-02
     -7.900  0.1765E-01  0.7489E-02
     -7.846  0.2015E-01  0.8569E-02
     -7.792  0.1819E-01  0.9544E-02
     -7.739  0.1490E-01  0.1034E-01
     -7.685  0.1378E-01  0.1108E-01
     -7.632  0.1324E-01  0.1179E-01
     -7.578  0.1337E-01  0.1251E-01
     -7.524  0.1705E-01  0.1342E-01
     -7.471  0.2202E-01  0.1460E-01
     -7.417  0.2259E-01  0.1581E-01
     -7.364  0.1947E-01  0.1686E-01
     -7.310  0.1810E-01  0.1783E-01
     -7.256  0.2117E-01  0.1896E-01
     -7.203  0.2625E-01  0.2037E-01
     -7.149  0.2936E-01  0.2194E-01
     -7.095  0.3202E-01  0.2366E-01
     -7.042  0.3811E-01  0.2570E-01
     -6.988  0.4766E-01  0.2826E-01
     -6.935  0.5856E-01  0.3140E-01
     -6.881  0.7033E-01  0.3516E-01
     -6.827  0.8201E-01  0.3956E-01
     -6.774  0.8868E-01  0.4431E-01
     -6.720  0.8766E-01  0.4901E-01
     -6.667  0.8395E-01  0.5351E-01
     -6.613  0.8244E-01  0.5793E-01
     -6.559  0.8104E-01  0.6228E-01
     -6.506  0.7865E-01  0.6649E-01
     -6.452  0.8379E-01  0.7098E-01
     -6.399  0.1024E+00  0.7647E-01
     -6.345  0.1267E+00  0.8326E-01
     -6.291  0.1455E+00  0.9106E-01
     -6.238  0.1558E+00  0.9941E-01
     -6.184  0.1587E+00  0.1079E+00
     -6.131  0.1555E+00  0.1163E+00
     -6.077  0.1519E+00  0.1244E+00
     -6.023  0.1547E+00  0.1327E+00
     -5.970  0.1619E+00  0.1414E+00
     -5.916  0.1677E+00  0.1504E+00
     -5.863  0.1705E+00  0.1595E+00
     -5.809  0.1693E+00  0.1686E+00
     -5.755  0.1630E+00  0.1773E+00
     -5.702  0.1540E+00  0.1856E+00
     -5.648  0.1460E+00  0.1934E+00
     -5.595  0.1415E+00  0.2010E+00
     -5.541  0.1396E+00  0.2085E+00
     -5.487  0.1368E+00  0.2158E+00
     -5.434  0.1326E+00  0.2229E+00
     -5.380  0.1310E+00  0.2299E+00
     -5.327  0.1349E+00  0.2372E+00
     -5.273  0.1427E+00  0.2448E+00
     -5.219  0.1511E+00  0.2529E+00
     -5.166  0.1584E+00  0.2614E+00
     -5.112  0.1631E+00  0.2701E+00
     -5.059  0.1649E+00  0.2790E+00
     -5.005  0.1665E+00  0.2879E+00
     -4.951  0.1707E+00  0.2971E+00
     -4.898  0.1775E+00  0.3066E+00
     -4.844  0.1814E+00  0.3163E+00
     -4.791  0.1780E+00  0.3258E+00
     -4.737  0.1720E+00  0.3350E+00
     -4.683  0.1695E+00  0.3441E+00
     -4.630  0.1694E+00  0.3532E+00
     -4.576  0.1680E+00  0.3622E+00
     -4.523  0.1661E+00  0.3711E+00
     -4.469  0.1666E+00  0.3801E+00
     -4.415  0.1715E+00  0.3892E+00
     -4.362  0.1785E+00  0.3988E+00
     -4.308  0.1841E+00  0.4087E+00
     -4.255  0.1869E+00  0.4187E+00
     -4.201  0.1858E+00  0.4287E+00
     -4.147  0.1806E+00  0.4383E+00
     -4.094  0.1751E+00  0.4477E+00
     -4.040  0.1732E+00  0.4570E+00
     -3.987  0.1756E+00  0.4664E+00
     -3.933  0.1810E+00  0.4761E+00
     -3.879  0.1849E+00  0.4860E+00
     -3.826  0.1860E+00  0.4960E+00
     -3.772  0.1898E+00  0.5062E+00
     -3.719  0.1981E+00  0.5168E+00
     -3.665  0.2068E+00  0.5279E+00
     -3.611  0.2114E+00  0.5392E+00
     -3.558  0.2115E+00  0.5505E+00
     -3.504  0.2101E+00  0.5618E+00
     -3.450  0.2087E+00  0.5730E+00
     -3.397  0.2053E+00  0.5840E+00
     -3.343  0.2022E+00  0.5948E+00
     -3.290  0.2025E+00  0.6057E+00
     -3.236  0.2019E+00  0.6165E+00
     -3.182  0.1950E+00  0.6270E+00
     -3.129  0.1846E+00  0.6369E+00
     -3.075  0.1751E+00  0.6462E+00
     -3.022  0.1680E+00  0.6553E+00
     -2.968  0.1638E+00  0.6640E+00
     -2.914  0.1627E+00  0.6728E+00
     -2.861  0.1665E+00  0.6817E+00
     -2.807  0.1777E+00  0.6912E+00
     -2.754  0.1901E+00  0.7014E+00
     -2.700  0.1936E+00  0.7118E+00
     -2.646  0.1883E+00  0.7219E+00
     -2.593  0.1823E+00  0.7316E+00
     -2.539  0.1793E+00  0.7412E+00
     -2.486  0.1795E+00  0.7509E+00
     -2.432  0.1831E+00  0.7607E+00
     -2.378  0.1850E+00  0.7706E+00
     -2.325  0.1825E+00  0.7804E+00
     -2.271  0.1802E+00  0.7901E+00
     -2.218  0.1804E+00  0.7997E+00
     -2.164  0.1821E+00  0.8095E+00
     -2.110  0.1863E+00  0.8195E+00
     -2.057  0.1906E+00  0.8297E+00
     -2.003  0.1929E+00  0.8400E+00
     -1.950  0.1951E+00  0.8505E+00
     -1.896  0.1984E+00  0.8611E+00
     -1.842  0.2019E+00  0.8719E+00
     -1.789  0.2040E+00  0.8829E+00
     -1.735  0.2035E+00  0.8938E+00
     -1.682  0.2001E+00  0.9045E+00
     -1.628  0.1976E+00  0.9151E+00
     -1.574  0.2003E+00  0.9258E+00
     -1.521  0.2057E+00  0.9369E+00
     -1.467  0.2058E+00  0.9479E+00
     -1.414  0.1978E+00  0.9585E+00
     -1.360  0.1870E+00  0.9685E+00
     -1.306  0.1771E+00  0.9780E+00
     -1.253  0.1664E+00  0.9869E+00
     -1.199  0.1515E+00  0.9951E+00
     -1.146  0.1319E+00  0.1002E+01
     -1.092  0.1089E+00  0.1008E+01
     -1.038  0.8411E-01  0.1012E+01
     -0.985  0.5951E-01  0.1016E+01
     -0.931  0.3817E-01  0.1018E+01
     -0.878  0.2532E-01  0.1019E+01
     -0.824  0.2134E-01  0.1020E+01
     -0.770  0.2091E-01  0.1021E+01
     -0.717  0.1982E-01  0.1022E+01
     -0.663  0.1872E-01  0.1023E+01
     -0.610  0.2122E-01  0.1025E+01
     -0.556  0.2931E-01  0.1026E+01
     -0.502  0.3906E-01  0.1028E+01
     -0.449  0.4338E-01  0.1031E+01
     -0.395  0.4189E-01  0.1033E+01
     -0.342  0.4032E-01  0.1035E+01
     -0.288  0.4166E-01  0.1037E+01
     -0.234  0.4486E-01  0.1040E+01
     -0.181  0.4418E-01  0.1042E+01
     -0.127  0.3517E-01  0.1044E+01
     -0.073  0.2346E-01  0.1045E+01
     -0.020  0.1704E-01  0.1046E+01
      0.034  0.1834E-01  0.1047E+01
      0.087  0.2501E-01  0.1048E+01
      0.141  0.3161E-01  0.1050E+01
      0.195  0.3346E-01  0.1052E+01
      0.248  0.3178E-01  0.1054E+01
      0.302  0.3320E-01  0.1055E+01
      0.355  0.3922E-01  0.1057E+01
      0.409  0.4247E-01  0.1060E+01
      0.463  0.3944E-01  0.1062E+01
      0.516  0.3665E-01  0.1064E+01
      0.570  0.3879E-01  0.1066E+01
      0.623  0.4345E-01  0.1068E+01
      0.677  0.4763E-01  0.1071E+01
      0.731  0.4871E-01  0.1073E+01
      0.784  0.4386E-01  0.1076E+01
      0.838  0.3447E-01  0.1078E+01
      0.891  0.2541E-01  0.1079E+01
      0.945  0.1965E-01  0.1080E+01
      0.999  0.1819E-01  0.1081E+01
      1.052  0.1959E-01  0.1082E+01
      1.106  0.2086E-01  0.1083E+01
      1.159  0.2040E-01  0.1084E+01
      1.213  0.1817E-01  0.1085E+01
      1.267  0.1566E-01  0.1086E+01
      1.320  0.1400E-01  0.1087E+01
      1.374  0.1294E-01  0.1087E+01
      1.427  0.1431E-01  0.1088E+01
      1.481  0.2163E-01  0.1089E+01
      1.535  0.3242E-01  0.1091E+01
      1.588  0.3777E-01  0.1093E+01
      1.642  0.3470E-01  0.1095E+01
      1.695  0.3036E-01  0.1097E+01
      1.749  0.3168E-01  0.1098E+01
      1.803  0.3598E-01  0.1100E+01
      1.856  0.3499E-01  0.1102E+01
      1.910  0.2761E-01  0.1104E+01
      1.963  0.2008E-01  0.1105E+01
      2.017  0.1545E-01  0.1105E+01
      2.071  0.1402E-01  0.1106E+01
      2.124  0.1736E-01  0.1107E+01
      2.178  0.2492E-01  0.1109E+01
      2.231  0.3389E-01  0.1110E+01
      2.285  0.4276E-01  0.1113E+01
      2.339  0.5036E-01  0.1115E+01
      2.392  0.5423E-01  0.1118E+01
      2.446  0.5316E-01  0.1121E+01
      2.499  0.4954E-01  0.1124E+01
      2.553  0.4647E-01  0.1126E+01
      2.607  0.4462E-01  0.1129E+01
      2.660  0.4292E-01  0.1131E+01
      2.714  0.3994E-01  0.1133E+01
      2.767  0.3455E-01  0.1135E+01
      2.821  0.2723E-01  0.1136E+01
      2.875  0.1970E-01  0.1137E+01
      2.928  0.1456E-01  0.1138E+01
      2.982  0.1323E-01  0.1139E+01
      3.035  0.1257E-01  0.1140E+01
      3.089  0.1170E-01  0.1140E+01
      3.143  0.1435E-01  0.1141E+01
      3.196  0.2072E-01  0.1142E+01
      3.250  0.2654E-01  0.1144E+01
      3.304  0.2673E-01  0.1145E+01
      3.357  0.2185E-01  0.1146E+01
      3.411  0.1878E-01  0.1147E+01
      3.464  0.2037E-01  0.1148E+01
      3.518  0.2507E-01  0.1150E+01
      3.572  0.3058E-01  0.1151E+01
      3.625  0.3398E-01  0.1153E+01
      3.679  0.3404E-01  0.1155E+01
      3.732  0.3323E-01  0.1157E+01
      3.786  0.3299E-01  0.1158E+01
      3.840  0.2969E-01  0.1160E+01
      3.893  0.2413E-01  0.1161E+01
      3.947  0.2250E-01  0.1162E+01
      4.000  0.2574E-01  0.1164E+01
      4.054  0.2865E-01  0.1165E+01
      4.108  0.2827E-01  0.1167E+01
      4.161  0.2751E-01  0.1168E+01
      4.215  0.2715E-01  0.1170E+01
      4.268  0.2294E-01  0.1171E+01
      4.322  0.1663E-01  0.1172E+01
      4.376  0.1629E-01  0.1173E+01
      4.429  0.2186E-01  0.1174E+01
      4.483  0.2666E-01  0.1175E+01
      4.536  0.3223E-01  0.1177E+01
      4.590  0.4324E-01  0.1179E+01
      4.644  0.5453E-01  0.1182E+01
      4.697  0.5855E-01  0.1186E+01
      4.751  0.5607E-01  0.1189E+01
      4.804  0.5193E-01  0.1191E+01
      4.858  0.4931E-01  0.1194E+01
      4.912  0.5003E-01  0.1197E+01
      4.965  0.5656E-01  0.1200E+01
      5.019  0.6825E-01  0.1203E+01
      5.072  0.7515E-01  0.1207E+01
      5.126  0.6987E-01  0.1211E+01
      5.180  0.6096E-01  0.1214E+01
      5.233  0.5622E-01  0.1217E+01
      5.287  0.4957E-01  0.1220E+01
      5.340  0.3688E-01  0.1222E+01
      5.394  0.2223E-01  0.1223E+01
      5.448  0.1024E-01  0.1224E+01
      5.501  0.3273E-02  0.1224E+01
      5.555  0.6685E-03  0.1224E+01
      5.608  0.8290E-04  0.1224E+01
      5.662  0.6071E-05  0.1224E+01
      5.716  0.2588E-06  0.1224E+01
      5.769  0.6366E-08  0.1224E+01
      5.823  0.8989E-10  0.1224E+01
      5.876  0.7260E-12  0.1224E+01
      5.930  0.3344E-14  0.1224E+01
      5.984  0.8285E-17  0.1224E+01
      6.037  0.0000E+00  0.1224E+01
      6.091  0.0000E+00  0.1224E+01
      6.144  0.0000E+00  0.1224E+01
      6.198  0.0000E+00  0.1224E+01
      6.252  0.0000E+00  0.1224E+01
      6.305  0.0000E+00  0.1224E+01
      6.359  0.0000E+00  0.1224E+01
