   48   48  500    1
  0.5349325E+02  0.1100258E-08  0.1100258E-08  0.2449179E-08  0.3500000E-15
  1.000000000000000E-004
  CAR 
 unknown system                          
    504      6    306
 
  0.2500000E+00  0.2500000E+00  0.0000000E+00  0.1666667E+00
    1       -8.720238   1.000000
    2       -7.949539   1.000000
    3       -7.663860   1.000000
    4       -7.472353   1.000000
    5       -7.366086   1.000000
    6       -7.183887   1.000000
    7       -7.089018   1.000000
    8       -6.988058   1.000000
    9       -6.930847   1.000000
   10       -6.842238   1.000000
   11       -6.811496   1.000000
   12       -6.788241   1.000000
   13       -6.726999   1.000000
   14       -6.688141   1.000000
   15       -6.612927   1.000000
   16       -6.575588   1.000000
   17       -6.552632   1.000000
   18       -6.450920   1.000000
   19       -6.405650   1.000000
   20       -6.387646   1.000000
   21       -6.326288   1.000000
   22       -6.311642   1.000000
   23       -6.298905   1.000000
   24       -6.243772   1.000000
   25       -6.223354   1.000000
   26       -6.197481   1.000000
   27       -6.169219   1.000000
   28       -6.154254   1.000000
   29       -6.149442   1.000000
   30       -6.087561   1.000000
   31       -6.054579   1.000000
   32       -6.021429   1.000000
   33       -5.994795   1.000000
   34       -5.979399   1.000000
   35       -5.949230   1.000000
   36       -5.938314   1.000000
   37       -5.894323   1.000000
   38       -5.867806   1.000000
   39       -5.843595   1.000000
   40       -5.833277   1.000000
   41       -5.810804   1.000000
   42       -5.781786   1.000000
   43       -5.763557   1.000000
   44       -5.749456   1.000000
   45       -5.728047   1.000000
   46       -5.710407   1.000000
   47       -5.684533   1.000000
   48       -5.648675   1.000000
   49       -5.628282   1.000000
   50       -5.603867   1.000000
   51       -5.577474   1.000000
   52       -5.534353   1.000000
   53       -5.520181   1.000000
   54       -5.501057   1.000000
   55       -5.496083   1.000000
   56       -5.429144   1.000000
   57       -5.405728   1.000000
   58       -5.369706   1.000000
   59       -5.355721   1.000000
   60       -5.322367   1.000000
   61       -5.295005   1.000000
   62       -5.277629   1.000000
   63       -5.247187   1.000000
   64       -5.211595   1.000000
   65       -5.185223   1.000000
   66       -5.160655   1.000000
   67       -5.127696   1.000000
   68       -5.122879   1.000000
   69       -5.088436   1.000000
   70       -5.069829   1.000000
   71       -5.034734   1.000000
   72       -5.016240   1.000000
   73       -4.997254   1.000000
   74       -4.965746   1.000000
   75       -4.951348   1.000000
   76       -4.922298   1.000000
   77       -4.904045   1.000000
   78       -4.880088   1.000000
   79       -4.852471   1.000000
   80       -4.827532   1.000000
   81       -4.814342   1.000000
   82       -4.791067   1.000000
   83       -4.761829   1.000000
   84       -4.748393   1.000000
   85       -4.693107   1.000000
   86       -4.679022   1.000000
   87       -4.665329   1.000000
   88       -4.642166   1.000000
   89       -4.622613   1.000000
   90       -4.596479   1.000000
   91       -4.575605   1.000000
   92       -4.550422   1.000000
   93       -4.527966   1.000000
   94       -4.520531   1.000000
   95       -4.478831   1.000000
   96       -4.459363   1.000000
   97       -4.433569   1.000000
   98       -4.400330   1.000000
   99       -4.389550   1.000000
  100       -4.378267   1.000000
  101       -4.331985   1.000000
  102       -4.319980   1.000000
  103       -4.307786   1.000000
  104       -4.279624   1.000000
  105       -4.246678   1.000000
  106       -4.225048   1.000000
  107       -4.208670   1.000000
  108       -4.187331   1.000000
  109       -4.171356   1.000000
  110       -4.156110   1.000000
  111       -4.136477   1.000000
  112       -4.111852   1.000000
  113       -4.076288   1.000000
  114       -4.058268   1.000000
  115       -4.034887   1.000000
  116       -4.005363   1.000000
  117       -3.997049   1.000000
  118       -3.974461   1.000000
  119       -3.938440   1.000000
  120       -3.933013   1.000000
  121       -3.899832   1.000000
  122       -3.890962   1.000000
  123       -3.868575   1.000000
  124       -3.865464   1.000000
  125       -3.832615   1.000000
  126       -3.797565   1.000000
  127       -3.777374   1.000000
  128       -3.764618   1.000000
  129       -3.741859   1.000000
  130       -3.736684   1.000000
  131       -3.705205   1.000000
  132       -3.686590   1.000000
  133       -3.670165   1.000000
  134       -3.643396   1.000000
  135       -3.620406   1.000000
  136       -3.602990   1.000000
  137       -3.597308   1.000000
  138       -3.581223   1.000000
  139       -3.558678   1.000000
  140       -3.540229   1.000000
  141       -3.520729   1.000000
  142       -3.494796   1.000000
  143       -3.479885   1.000000
  144       -3.458606   1.000000
  145       -3.451364   1.000000
  146       -3.438659   1.000000
  147       -3.420467   1.000000
  148       -3.409052   1.000000
  149       -3.383619   1.000000
  150       -3.360968   1.000000
  151       -3.355157   1.000000
  152       -3.311267   1.000000
  153       -3.291057   1.000000
  154       -3.278429   1.000000
  155       -3.254361   1.000000
  156       -3.243711   1.000000
  157       -3.226495   1.000000
  158       -3.212984   1.000000
  159       -3.189980   1.000000
  160       -3.158512   1.000000
  161       -3.135758   1.000000
  162       -3.111100   1.000000
  163       -3.087376   1.000000
  164       -3.044801   1.000000
  165       -3.026988   1.000000
  166       -3.001803   1.000000
  167       -2.994480   1.000000
  168       -2.943213   1.000000
  169       -2.916618   1.000000
  170       -2.892042   1.000000
  171       -2.864392   1.000000
  172       -2.837174   1.000000
  173       -2.818204   1.000000
  174       -2.796540   1.000000
  175       -2.786875   1.000000
  176       -2.764404   1.000000
  177       -2.737803   1.000000
  178       -2.722705   1.000000
  179       -2.705405   1.000000
  180       -2.685847   1.000000
  181       -2.666134   1.000000
  182       -2.647869   1.000000
  183       -2.629190   1.000000
  184       -2.606075   1.000000
  185       -2.583797   1.000000
  186       -2.558050   1.000000
  187       -2.536355   1.000000
  188       -2.525803   1.000000
  189       -2.479635   1.000000
  190       -2.465431   1.000000
  191       -2.440898   1.000000
  192       -2.418120   1.000000
  193       -2.405799   1.000000
  194       -2.379508   1.000000
  195       -2.365241   1.000000
  196       -2.343618   1.000000
  197       -2.324415   1.000000
  198       -2.294600   1.000000
  199       -2.280040   1.000000
  200       -2.248731   1.000000
  201       -2.228044   1.000000
  202       -2.206054   1.000000
  203       -2.167763   1.000000
  204       -2.152359   1.000000
  205       -2.136547   1.000000
  206       -2.108206   1.000000
  207       -2.094390   1.000000
  208       -2.077764   1.000000
  209       -2.055126   1.000000
  210       -2.040513   1.000000
  211       -2.013030   1.000000
  212       -1.989535   1.000000
  213       -1.971354   1.000000
  214       -1.956357   1.000000
  215       -1.922694   1.000000
  216       -1.893291   1.000000
  217       -1.881949   1.000000
  218       -1.867908   1.000000
  219       -1.854985   1.000000
  220       -1.829420   1.000000
  221       -1.808965   1.000000
  222       -1.773949   1.000000
  223       -1.757484   1.000000
  224       -1.735513   1.000000
  225       -1.707552   1.000000
  226       -1.679856   1.000000
  227       -1.669706   1.000000
  228       -1.657027   1.000000
  229       -1.626337   1.000000
  230       -1.592644   1.000000
  231       -1.573807   1.000000
  232       -1.544994   1.000000
  233       -1.534335   1.000000
  234       -1.506689   1.000000
  235       -1.492570   1.000000
  236       -1.474333   1.000000
  237       -1.460326   1.000000
  238       -1.431246   0.999999
  239       -1.413431   0.999997
  240       -1.402715   0.999995
  241       -1.370007   0.999959
  242       -1.342576   0.999807
  243       -1.330104   0.999627
  244       -1.283077   0.996609
  245       -1.268283   0.993758
  246       -1.260347   0.991482
  247       -1.241313   0.982859
  248       -1.230467   0.975198
  249       -1.196890   0.931691
  250       -1.159621   0.831834
  251       -1.129774   0.705173
  252       -1.118136   0.646079
  253       -1.096769   0.528930
  254       -1.048956   0.273053
  255       -0.999626   0.096590
  256       -0.495718   0.000000
  257       -0.349423   0.000000
  258       -0.219395   0.000000
  259       -0.174210   0.000000
  260       -0.064129   0.000000
  261        0.046599   0.000000
  262        0.158463   0.000000
  263        0.378002   0.000000
  264        0.417995   0.000000
  265        0.535203   0.000000
  266        0.602313   0.000000
  267        0.628660   0.000000
  268        0.692295   0.000000
  269        0.760841   0.000000
  270        0.843610   0.000000
  271        0.996138   0.000000
  272        1.092351   0.000000
  273        1.476607   0.000000
  274        1.536179   0.000000
  275        1.764880   0.000000
  276        1.900634   0.000000
  277        1.979827   0.000000
  278        2.323546   0.000000
  279        2.340147   0.000000
  280        2.379880   0.000000
  281        2.432765   0.000000
  282        2.509058   0.000000
  283        2.601079   0.000000
  284        2.645683   0.000000
  285        2.746019   0.000000
  286        2.833147   0.000000
  287        3.281946   0.000000
  288        3.422463   0.000000
  289        3.577774   0.000000
  290        3.654784   0.000000
  291        3.773666   0.000000
  292        3.893835   0.000000
  293        4.046604   0.000000
  294        4.205273   0.000000
  295        4.416200   0.000000
  296        4.615154   0.000000
  297        4.684840   0.000000
  298        4.725650   0.000000
  299        4.948387   0.000000
  300        4.997719   0.000000
  301        5.062469   0.000000
  302        5.085450   0.000000
  303        5.162378   0.000000
  304        5.224884   0.000000
  305        5.284147   0.000000
  306        5.358886   0.000000
 
  0.0000000E+00  0.2500000E+00  0.0000000E+00  0.1666667E+00
    1       -8.719179   1.000000
    2       -7.886048   1.000000
    3       -7.698918   1.000000
    4       -7.478393   1.000000
    5       -7.387995   1.000000
    6       -7.241093   1.000000
    7       -7.014950   1.000000
    8       -6.959349   1.000000
    9       -6.898436   1.000000
   10       -6.853399   1.000000
   11       -6.830293   1.000000
   12       -6.797072   1.000000
   13       -6.757264   1.000000
   14       -6.681668   1.000000
   15       -6.642472   1.000000
   16       -6.590223   1.000000
   17       -6.561780   1.000000
   18       -6.451763   1.000000
   19       -6.399458   1.000000
   20       -6.366815   1.000000
   21       -6.342769   1.000000
   22       -6.313626   1.000000
   23       -6.294944   1.000000
   24       -6.253072   1.000000
   25       -6.237738   1.000000
   26       -6.201843   1.000000
   27       -6.184265   1.000000
   28       -6.170572   1.000000
   29       -6.134718   1.000000
   30       -6.087691   1.000000
   31       -6.050701   1.000000
   32       -6.033000   1.000000
   33       -5.994026   1.000000
   34       -5.968965   1.000000
   35       -5.959636   1.000000
   36       -5.947730   1.000000
   37       -5.910013   1.000000
   38       -5.890720   1.000000
   39       -5.869689   1.000000
   40       -5.843343   1.000000
   41       -5.826165   1.000000
   42       -5.800441   1.000000
   43       -5.768706   1.000000
   44       -5.747880   1.000000
   45       -5.736242   1.000000
   46       -5.712582   1.000000
   47       -5.684999   1.000000
   48       -5.662212   1.000000
   49       -5.644683   1.000000
   50       -5.600384   1.000000
   51       -5.589193   1.000000
   52       -5.546692   1.000000
   53       -5.515881   1.000000
   54       -5.494864   1.000000
   55       -5.467274   1.000000
   56       -5.439577   1.000000
   57       -5.396403   1.000000
   58       -5.359488   1.000000
   59       -5.307750   1.000000
   60       -5.289284   1.000000
   61       -5.279003   1.000000
   62       -5.252507   1.000000
   63       -5.228141   1.000000
   64       -5.204528   1.000000
   65       -5.173257   1.000000
   66       -5.159233   1.000000
   67       -5.143381   1.000000
   68       -5.120083   1.000000
   69       -5.086401   1.000000
   70       -5.060810   1.000000
   71       -5.019145   1.000000
   72       -5.012553   1.000000
   73       -4.992459   1.000000
   74       -4.978822   1.000000
   75       -4.931617   1.000000
   76       -4.898312   1.000000
   77       -4.890109   1.000000
   78       -4.881073   1.000000
   79       -4.848567   1.000000
   80       -4.817493   1.000000
   81       -4.790807   1.000000
   82       -4.786859   1.000000
   83       -4.752984   1.000000
   84       -4.725193   1.000000
   85       -4.707171   1.000000
   86       -4.677250   1.000000
   87       -4.652613   1.000000
   88       -4.620801   1.000000
   89       -4.602178   1.000000
   90       -4.588697   1.000000
   91       -4.569223   1.000000
   92       -4.547453   1.000000
   93       -4.513539   1.000000
   94       -4.497920   1.000000
   95       -4.474293   1.000000
   96       -4.430393   1.000000
   97       -4.420317   1.000000
   98       -4.394373   1.000000
   99       -4.374226   1.000000
  100       -4.343372   1.000000
  101       -4.325069   1.000000
  102       -4.319257   1.000000
  103       -4.297555   1.000000
  104       -4.269484   1.000000
  105       -4.263153   1.000000
  106       -4.234637   1.000000
  107       -4.217687   1.000000
  108       -4.194850   1.000000
  109       -4.177963   1.000000
  110       -4.160859   1.000000
  111       -4.149599   1.000000
  112       -4.100938   1.000000
  113       -4.082024   1.000000
  114       -4.063302   1.000000
  115       -4.032388   1.000000
  116       -4.002889   1.000000
  117       -3.983635   1.000000
  118       -3.973777   1.000000
  119       -3.959362   1.000000
  120       -3.936622   1.000000
  121       -3.899638   1.000000
  122       -3.888985   1.000000
  123       -3.865315   1.000000
  124       -3.862033   1.000000
  125       -3.847190   1.000000
  126       -3.809164   1.000000
  127       -3.791338   1.000000
  128       -3.783850   1.000000
  129       -3.769311   1.000000
  130       -3.734483   1.000000
  131       -3.710391   1.000000
  132       -3.706200   1.000000
  133       -3.686358   1.000000
  134       -3.652641   1.000000
  135       -3.647753   1.000000
  136       -3.619655   1.000000
  137       -3.616113   1.000000
  138       -3.592975   1.000000
  139       -3.564778   1.000000
  140       -3.554392   1.000000
  141       -3.534044   1.000000
  142       -3.500492   1.000000
  143       -3.482328   1.000000
  144       -3.466162   1.000000
  145       -3.459829   1.000000
  146       -3.441518   1.000000
  147       -3.417979   1.000000
  148       -3.388921   1.000000
  149       -3.374645   1.000000
  150       -3.339309   1.000000
  151       -3.323944   1.000000
  152       -3.308979   1.000000
  153       -3.292352   1.000000
  154       -3.272497   1.000000
  155       -3.259235   1.000000
  156       -3.237324   1.000000
  157       -3.219433   1.000000
  158       -3.197504   1.000000
  159       -3.185415   1.000000
  160       -3.158943   1.000000
  161       -3.137840   1.000000
  162       -3.093695   1.000000
  163       -3.085553   1.000000
  164       -3.063973   1.000000
  165       -3.039250   1.000000
  166       -3.009809   1.000000
  167       -2.993814   1.000000
  168       -2.955080   1.000000
  169       -2.938993   1.000000
  170       -2.923902   1.000000
  171       -2.887169   1.000000
  172       -2.854682   1.000000
  173       -2.840669   1.000000
  174       -2.807879   1.000000
  175       -2.789909   1.000000
  176       -2.764316   1.000000
  177       -2.748458   1.000000
  178       -2.738951   1.000000
  179       -2.710619   1.000000
  180       -2.698870   1.000000
  181       -2.680681   1.000000
  182       -2.646113   1.000000
  183       -2.627277   1.000000
  184       -2.606657   1.000000
  185       -2.583921   1.000000
  186       -2.582779   1.000000
  187       -2.532729   1.000000
  188       -2.512034   1.000000
  189       -2.493843   1.000000
  190       -2.474446   1.000000
  191       -2.447864   1.000000
  192       -2.428804   1.000000
  193       -2.405234   1.000000
  194       -2.382818   1.000000
  195       -2.350007   1.000000
  196       -2.327697   1.000000
  197       -2.320664   1.000000
  198       -2.282074   1.000000
  199       -2.254662   1.000000
  200       -2.239691   1.000000
  201       -2.219039   1.000000
  202       -2.203667   1.000000
  203       -2.170455   1.000000
  204       -2.153271   1.000000
  205       -2.127904   1.000000
  206       -2.108186   1.000000
  207       -2.096734   1.000000
  208       -2.071611   1.000000
  209       -2.042620   1.000000
  210       -2.025488   1.000000
  211       -1.992352   1.000000
  212       -1.986813   1.000000
  213       -1.970444   1.000000
  214       -1.945317   1.000000
  215       -1.919338   1.000000
  216       -1.914582   1.000000
  217       -1.880156   1.000000
  218       -1.864676   1.000000
  219       -1.841250   1.000000
  220       -1.826420   1.000000
  221       -1.803764   1.000000
  222       -1.777477   1.000000
  223       -1.765470   1.000000
  224       -1.742385   1.000000
  225       -1.719409   1.000000
  226       -1.683339   1.000000
  227       -1.677631   1.000000
  228       -1.633661   1.000000
  229       -1.598527   1.000000
  230       -1.588643   1.000000
  231       -1.575719   1.000000
  232       -1.549249   1.000000
  233       -1.538870   1.000000
  234       -1.516266   1.000000
  235       -1.491725   1.000000
  236       -1.470889   1.000000
  237       -1.454546   1.000000
  238       -1.444879   1.000000
  239       -1.425287   0.999999
  240       -1.400393   0.999994
  241       -1.361734   0.999933
  242       -1.346403   0.999843
  243       -1.324602   0.999507
  244       -1.307050   0.998842
  245       -1.296225   0.998094
  246       -1.273195   0.994880
  247       -1.249544   0.987230
  248       -1.214950   0.959413
  249       -1.182672   0.901029
  250       -1.158524   0.827907
  251       -1.132921   0.720338
  252       -1.117254   0.641428
  253       -1.073829   0.400584
  254       -1.047791   0.267606
  255       -1.004089   0.107838
  256       -0.520041   0.000000
  257       -0.341865   0.000000
  258       -0.212327   0.000000
  259       -0.182112   0.000000
  260       -0.081564   0.000000
  261        0.052531   0.000000
  262        0.134120   0.000000
  263        0.338592   0.000000
  264        0.418888   0.000000
  265        0.484459   0.000000
  266        0.640283   0.000000
  267        0.679491   0.000000
  268        0.713253   0.000000
  269        0.752751   0.000000
  270        0.902777   0.000000
  271        1.012397   0.000000
  272        1.130140   0.000000
  273        1.527529   0.000000
  274        1.583175   0.000000
  275        1.756716   0.000000
  276        1.808822   0.000000
  277        1.940720   0.000000
  278        2.231676   0.000000
  279        2.287158   0.000000
  280        2.391579   0.000000
  281        2.447939   0.000000
  282        2.534830   0.000000
  283        2.636481   0.000000
  284        2.706896   0.000000
  285        2.779660   0.000000
  286        2.840285   0.000000
  287        3.263164   0.000000
  288        3.387807   0.000000
  289        3.641967   0.000000
  290        3.688983   0.000000
  291        3.766681   0.000000
  292        3.824590   0.000000
  293        4.009040   0.000000
  294        4.252916   0.000000
  295        4.414431   0.000000
  296        4.659483   0.000000
  297        4.680062   0.000000
  298        4.762625   0.000000
  299        4.885364   0.000000
  300        5.002235   0.000000
  301        5.056787   0.000000
  302        5.101514   0.000000
  303        5.193163   0.000000
  304        5.237100   0.000000
  305        5.289448   0.000000
  306        5.342365   0.000000
 
 -0.2500000E+00  0.2775558E-16  0.0000000E+00  0.1666667E+00
    1       -8.722049   1.000000
    2       -7.830189   1.000000
    3       -7.708691   1.000000
    4       -7.581176   1.000000
    5       -7.319449   1.000000
    6       -7.235787   1.000000
    7       -7.032827   1.000000
    8       -6.955603   1.000000
    9       -6.910794   1.000000
   10       -6.885820   1.000000
   11       -6.845280   1.000000
   12       -6.808779   1.000000
   13       -6.729466   1.000000
   14       -6.677212   1.000000
   15       -6.608083   1.000000
   16       -6.588704   1.000000
   17       -6.537605   1.000000
   18       -6.430080   1.000000
   19       -6.404198   1.000000
   20       -6.378184   1.000000
   21       -6.358933   1.000000
   22       -6.310268   1.000000
   23       -6.302921   1.000000
   24       -6.243277   1.000000
   25       -6.225383   1.000000
   26       -6.206189   1.000000
   27       -6.181000   1.000000
   28       -6.142519   1.000000
   29       -6.120280   1.000000
   30       -6.090277   1.000000
   31       -6.059113   1.000000
   32       -6.044150   1.000000
   33       -6.005251   1.000000
   34       -5.988526   1.000000
   35       -5.973252   1.000000
   36       -5.948096   1.000000
   37       -5.914292   1.000000
   38       -5.899137   1.000000
   39       -5.869404   1.000000
   40       -5.847021   1.000000
   41       -5.835358   1.000000
   42       -5.811395   1.000000
   43       -5.788251   1.000000
   44       -5.758762   1.000000
   45       -5.715577   1.000000
   46       -5.705761   1.000000
   47       -5.697968   1.000000
   48       -5.669882   1.000000
   49       -5.628623   1.000000
   50       -5.601293   1.000000
   51       -5.584758   1.000000
   52       -5.549123   1.000000
   53       -5.524687   1.000000
   54       -5.494450   1.000000
   55       -5.451850   1.000000
   56       -5.436215   1.000000
   57       -5.379117   1.000000
   58       -5.348491   1.000000
   59       -5.330429   1.000000
   60       -5.293482   1.000000
   61       -5.273887   1.000000
   62       -5.254268   1.000000
   63       -5.207481   1.000000
   64       -5.196417   1.000000
   65       -5.181328   1.000000
   66       -5.163148   1.000000
   67       -5.125465   1.000000
   68       -5.098691   1.000000
   69       -5.084017   1.000000
   70       -5.065309   1.000000
   71       -5.042665   1.000000
   72       -5.015393   1.000000
   73       -4.992036   1.000000
   74       -4.967733   1.000000
   75       -4.926834   1.000000
   76       -4.905833   1.000000
   77       -4.872395   1.000000
   78       -4.867643   1.000000
   79       -4.843834   1.000000
   80       -4.814395   1.000000
   81       -4.795408   1.000000
   82       -4.787045   1.000000
   83       -4.746827   1.000000
   84       -4.738062   1.000000
   85       -4.710496   1.000000
   86       -4.684864   1.000000
   87       -4.655085   1.000000
   88       -4.626676   1.000000
   89       -4.609968   1.000000
   90       -4.591196   1.000000
   91       -4.567047   1.000000
   92       -4.540595   1.000000
   93       -4.531799   1.000000
   94       -4.501798   1.000000
   95       -4.459288   1.000000
   96       -4.446098   1.000000
   97       -4.422520   1.000000
   98       -4.405694   1.000000
   99       -4.382907   1.000000
  100       -4.351990   1.000000
  101       -4.334401   1.000000
  102       -4.314693   1.000000
  103       -4.298739   1.000000
  104       -4.276406   1.000000
  105       -4.264337   1.000000
  106       -4.235173   1.000000
  107       -4.228605   1.000000
  108       -4.204693   1.000000
  109       -4.173199   1.000000
  110       -4.155083   1.000000
  111       -4.122487   1.000000
  112       -4.105890   1.000000
  113       -4.079649   1.000000
  114       -4.065840   1.000000
  115       -4.056761   1.000000
  116       -4.030409   1.000000
  117       -3.989554   1.000000
  118       -3.976394   1.000000
  119       -3.951626   1.000000
  120       -3.937956   1.000000
  121       -3.918936   1.000000
  122       -3.899116   1.000000
  123       -3.887026   1.000000
  124       -3.845092   1.000000
  125       -3.820524   1.000000
  126       -3.812980   1.000000
  127       -3.792931   1.000000
  128       -3.767088   1.000000
  129       -3.742624   1.000000
  130       -3.722898   1.000000
  131       -3.709823   1.000000
  132       -3.697956   1.000000
  133       -3.676711   1.000000
  134       -3.656773   1.000000
  135       -3.634922   1.000000
  136       -3.613422   1.000000
  137       -3.599067   1.000000
  138       -3.567860   1.000000
  139       -3.561571   1.000000
  140       -3.543337   1.000000
  141       -3.535121   1.000000
  142       -3.516329   1.000000
  143       -3.491638   1.000000
  144       -3.477424   1.000000
  145       -3.445698   1.000000
  146       -3.440634   1.000000
  147       -3.417291   1.000000
  148       -3.380969   1.000000
  149       -3.351180   1.000000
  150       -3.345264   1.000000
  151       -3.324431   1.000000
  152       -3.312053   1.000000
  153       -3.286102   1.000000
  154       -3.267186   1.000000
  155       -3.256616   1.000000
  156       -3.219007   1.000000
  157       -3.209447   1.000000
  158       -3.189672   1.000000
  159       -3.171583   1.000000
  160       -3.149967   1.000000
  161       -3.135316   1.000000
  162       -3.104212   1.000000
  163       -3.085231   1.000000
  164       -3.067237   1.000000
  165       -3.049156   1.000000
  166       -3.012065   1.000000
  167       -2.992119   1.000000
  168       -2.956617   1.000000
  169       -2.946990   1.000000
  170       -2.914191   1.000000
  171       -2.878068   1.000000
  172       -2.840552   1.000000
  173       -2.830489   1.000000
  174       -2.819766   1.000000
  175       -2.803787   1.000000
  176       -2.784436   1.000000
  177       -2.770728   1.000000
  178       -2.745121   1.000000
  179       -2.718065   1.000000
  180       -2.707215   1.000000
  181       -2.680265   1.000000
  182       -2.646597   1.000000
  183       -2.624179   1.000000
  184       -2.608358   1.000000
  185       -2.573827   1.000000
  186       -2.565178   1.000000
  187       -2.542700   1.000000
  188       -2.526171   1.000000
  189       -2.488551   1.000000
  190       -2.471276   1.000000
  191       -2.444538   1.000000
  192       -2.428789   1.000000
  193       -2.416868   1.000000
  194       -2.401693   1.000000
  195       -2.366242   1.000000
  196       -2.349321   1.000000
  197       -2.320936   1.000000
  198       -2.285715   1.000000
  199       -2.267176   1.000000
  200       -2.255752   1.000000
  201       -2.230658   1.000000
  202       -2.202465   1.000000
  203       -2.175722   1.000000
  204       -2.153941   1.000000
  205       -2.138624   1.000000
  206       -2.107857   1.000000
  207       -2.094835   1.000000
  208       -2.067958   1.000000
  209       -2.048619   1.000000
  210       -2.023193   1.000000
  211       -2.009209   1.000000
  212       -1.993064   1.000000
  213       -1.973203   1.000000
  214       -1.938044   1.000000
  215       -1.914196   1.000000
  216       -1.893756   1.000000
  217       -1.865009   1.000000
  218       -1.854741   1.000000
  219       -1.830962   1.000000
  220       -1.812759   1.000000
  221       -1.785324   1.000000
  222       -1.773623   1.000000
  223       -1.750773   1.000000
  224       -1.740954   1.000000
  225       -1.716288   1.000000
  226       -1.676719   1.000000
  227       -1.668260   1.000000
  228       -1.637901   1.000000
  229       -1.627692   1.000000
  230       -1.588619   1.000000
  231       -1.550582   1.000000
  232       -1.536980   1.000000
  233       -1.527629   1.000000
  234       -1.510765   1.000000
  235       -1.502965   1.000000
  236       -1.492506   1.000000
  237       -1.465669   1.000000
  238       -1.452825   1.000000
  239       -1.420429   0.999998
  240       -1.394992   0.999991
  241       -1.385573   0.999984
  242       -1.350100   0.999872
  243       -1.318751   0.999341
  244       -1.295885   0.998065
  245       -1.285762   0.996978
  246       -1.265020   0.992897
  247       -1.243090   0.983898
  248       -1.216813   0.961658
  249       -1.189131   0.916017
  250       -1.162964   0.843446
  251       -1.133085   0.721117
  252       -1.120631   0.659114
  253       -1.090471   0.493421
  254       -1.041185   0.237768
  255       -1.015560   0.140989
  256       -0.455425   0.000000
  257       -0.351238   0.000000
  258       -0.227427   0.000000
  259       -0.207946   0.000000
  260       -0.141482   0.000000
  261        0.056289   0.000000
  262        0.165081   0.000000
  263        0.337282   0.000000
  264        0.421253   0.000000
  265        0.536280   0.000000
  266        0.609125   0.000000
  267        0.661303   0.000000
  268        0.705315   0.000000
  269        0.748683   0.000000
  270        0.885290   0.000000
  271        1.020348   0.000000
  272        1.091780   0.000000
  273        1.544830   0.000000
  274        1.585476   0.000000
  275        1.804047   0.000000
  276        1.833574   0.000000
  277        2.003946   0.000000
  278        2.246672   0.000000
  279        2.306297   0.000000
  280        2.404286   0.000000
  281        2.467826   0.000000
  282        2.536796   0.000000
  283        2.583109   0.000000
  284        2.652111   0.000000
  285        2.738310   0.000000