unknown system                          
           1
    11.002582    0.000000    0.000000
     5.501291    9.528515    0.000000
     0.000000    0.000000   24.491785
   Au   Pd
  24  24
Direct configuration=     1
   0.08333333  0.08333333  0.40830017
   0.75000000  0.50000000  0.59169983
   0.83333333  0.58333333  0.40830017
   0.66666667  0.41666667  0.50000000
   0.75000000  0.00000000  0.59169983
   0.50000000  0.75000000  0.59169983
   0.41666667  0.66666667  0.50000000
   0.58333333  0.58333333  0.40830017
   0.58333333  0.33333333  0.40830017
   0.50000000  0.00000000  0.59169983
   0.41666667  0.16666667  0.50000000
   0.58333333  0.08333333  0.40830017
   0.66666667  0.91666667  0.50000000
   0.16666667  0.66666667  0.50000000
   0.33333333  0.33333333  0.40830017
   0.75000000  0.75000000  0.59169983
   0.00000000  0.75000000  0.59169983
   0.25000000  0.00000000  0.59169983
   0.91666667  0.16666667  0.50000000
   0.91666667  0.66666667  0.50000000
   0.08333333  0.33333333  0.40830017
   0.00000000  0.50000000  0.59169983
   0.00000000  0.25000000  0.59169983
   0.91666667  0.91666667  0.50000000
   0.83333333  0.08333333  0.40830017
   0.66666667  0.16666667  0.50000000
   0.16666667  0.41666667  0.50000000
   0.83333333  0.33333333  0.40830017
   0.75000000  0.25000000  0.59169983
   0.00000000  0.00000000  0.59169983
   0.66666667  0.66666667  0.50000000
   0.83333333  0.83333333  0.40830017
   0.91666667  0.41666667  0.50000000
   0.41666667  0.91666667  0.50000000
   0.08333333  0.58333333  0.40830017
   0.50000000  0.50000000  0.59169983
   0.50000000  0.25000000  0.59169983
   0.41666667  0.41666667  0.50000000
   0.08333333  0.83333333  0.40830017
   0.33333333  0.08333333  0.40830017
   0.16666667  0.91666667  0.50000000
   0.33333333  0.83333333  0.40830017
   0.25000000  0.50000000  0.59169983
   0.16666667  0.16666667  0.50000000
   0.33333333  0.58333333  0.40830017
   0.25000000  0.25000000  0.59169983
   0.58333333  0.83333333  0.40830017
   0.25000000  0.75000000  0.59169983
Direct configuration=     2
   0.08394436  0.08239907  0.40656923
   0.74944597  0.49946961  0.59360799
   0.83313916  0.58377684  0.40644295
   0.66689859  0.41579631  0.50038395
   0.74972247  0.00207953  0.59394372
   0.49937260  0.74951795  0.59359237
   0.41543407  0.66760319  0.49999229
   0.58281114  0.58442455  0.40618178
   0.58375783  0.33301073  0.40632888
   0.49888462  0.00138318  0.59385386
   0.41505701  0.16789316  0.50038376
   0.58435137  0.08215548  0.40613257
   0.66594474  0.91607200  0.49909340
   0.16844045  0.66546404  0.49962356
   0.33233197  0.33459917  0.40638813
   0.74970124  0.74970778  0.59401859
   0.00172100  0.74989871  0.59428282
   0.24925058 -0.00009179  0.59325008
   0.91646056  0.16653821  0.49996170
   0.91718139  0.66529518  0.49910958
   0.08336707  0.33339074  0.40670147
   0.00190377  0.49854525  0.59359901
   0.00043255  0.24944424  0.59352046
   0.91711930  0.91801017  0.49921786
   0.83345859  0.08298253  0.40712131
   0.66631263  0.16756435  0.50028251
   0.16713820  0.41614225  0.50023598
   0.83353317  0.33298807  0.40702724
   0.74915305  0.25001523  0.59286147
   0.00044884 -0.00019818  0.59293833
   0.66625033  0.66722721  0.49966916
   0.83377737  0.83343555  0.40696517
   0.91719850  0.41627357  0.49977094
   0.41599226  0.91671698  0.49932757
   0.08359731  0.58378771  0.40714800
   0.49957428  0.49936394  0.59286254
   0.49963973  0.25112599  0.59258925
   0.41624632  0.41658347  0.50059982
   0.08338380  0.83291973  0.40715672
   0.33361553  0.08205869  0.40733221
   0.16730894  0.91664728  0.49990239
   0.33320233  0.83381265  0.40742148
   0.25088705  0.49934918  0.59267759
   0.16743054  0.16649990  0.49996642
   0.33238028  0.58408972  0.40720712
   0.25010160  0.25091566  0.59257264
   0.58277149  0.83362674  0.40730903
   0.24992401  0.74968846  0.59287510
Direct configuration=     3
   0.08577745  0.07959630  0.40137642
   0.74778390  0.49787846  0.59933245
   0.83255666  0.58510735  0.40087131
   0.66759436  0.41318524  0.50153580
   0.74888990  0.00831813  0.60067537
   0.49749042  0.74807178  0.59927001
   0.41173627  0.67041276  0.49996915
   0.58124455  0.58769819  0.39982659
   0.58503130  0.33204291  0.40041501
   0.49553849  0.00553273  0.60031596
   0.41022805  0.17157265  0.50153505
   0.58740547  0.07862190  0.39962977
   0.66377895  0.91428799  0.49637361
   0.17376180  0.66185615  0.49849425
   0.32932788  0.33839666  0.40065199
   0.74880495  0.74883110  0.60097488
   0.00688401  0.74959486  0.60203181
   0.24700233 -0.00036717  0.59790085
   0.91584225  0.16615285  0.49984678
   0.91872558  0.66118073  0.49643831
   0.08346826  0.33356296  0.40190537
   0.00761509  0.49418101  0.59929653
   0.00173019  0.24777695  0.59898235
   0.91847722  0.92204069  0.49687142
   0.83383437  0.08193013  0.40358472
   0.66525052  0.17025741  0.50113003
   0.16855281  0.41456901  0.50094391
   0.83413268  0.33195227  0.40320847
   0.74661220  0.25006092  0.59634639
   0.00179536 -0.00079270  0.59665382
   0.66500133  0.66890885  0.49867666
   0.83510949  0.83374221  0.40296016
   0.91879402  0.41509427  0.49908378
   0.41396904  0.91686793  0.49731027
   0.08438923  0.58515085  0.40369149
   0.49829713  0.49745577  0.59635067
   0.49855890  0.25450398  0.59525751
   0.41498528  0.41633389  0.50239928
   0.08353521  0.83167892  0.40372637
   0.33446210  0.07823478  0.40442833
   0.16923577  0.91658914  0.49960956
   0.33280931  0.83525060  0.40478543
   0.25354820  0.49739673  0.59561087
   0.16972217  0.16599960  0.49986567
   0.32952112  0.58635888  0.40392799
   0.25040641  0.25366263  0.59519107
   0.58108598  0.83450695  0.40433560
   0.24969602  0.74875382  0.59640093
Direct configuration=     4
   0.08494182  0.08006132  0.40008698
   0.74866603  0.49764921  0.60053671
   0.83228240  0.58488602  0.39901027
   0.66598561  0.41652821  0.50098616
   0.74952101  0.00535850  0.60180089
   0.49726778  0.74862419  0.60040708
   0.41602360  0.66831730  0.50005042
   0.58084400  0.58658182  0.39855281
   0.58415666  0.33287011  0.39921039
   0.49663887  0.00460620  0.60158392
   0.41396169  0.16889920  0.50077176
   0.58561441  0.08045426  0.39814918
   0.66430886  0.91628084  0.49741628
   0.16927930  0.66362522  0.49909564
   0.33111016  0.33676551  0.39936804
   0.75015898  0.74972220  0.60203921
   0.00487173  0.74978286  0.60323148
   0.24823201 -0.00075456  0.59898946
   0.91799534  0.16720069  0.49993898
   0.91903885  0.66287765  0.49745344
   0.08367999  0.33311788  0.40072150
   0.00531313  0.49678126  0.60050626
   0.00076280  0.24815334  0.60012733
   0.91805608  0.91847711  0.49783266
   0.83386780  0.08262461  0.40224639
   0.66370259  0.16823937  0.50066941
   0.16694842  0.41558792  0.50055708
   0.83386293  0.33207725  0.40239787
   0.74746922  0.25077081  0.59758555
   0.00106479 -0.00076347  0.59737617
   0.66489005  0.66684063  0.49910610
   0.83579522  0.83321947  0.40162808
   0.91862381  0.41461516  0.49936854
   0.41425872  0.91732337  0.49840172
   0.08386136  0.58543442  0.40245186
   0.49810203  0.49833833  0.59738067
   0.49850040  0.25384977  0.59642366
   0.41654076  0.41543317  0.50154910
   0.08393160  0.83149551  0.40250162
   0.33477502  0.07984698  0.40346228
   0.16812173  0.91828577  0.49976928
   0.33266177  0.83428845  0.40354025
   0.25298783  0.49862056  0.59672418
   0.16760236  0.16607469  0.49981488
   0.33112325  0.58621204  0.40274667
   0.25093806  0.25256195  0.59641537
   0.58139115  0.83406124  0.40272757
   0.25026798  0.74809566  0.59728882
Direct configuration=     5
   0.08464713  0.08022531  0.39963225
   0.74897711  0.49756837  0.60096140
   0.83218569  0.58480797  0.39835396
   0.66541828  0.41770714  0.50079233
   0.74974358  0.00431476  0.60219781
   0.49718926  0.74881900  0.60080807
   0.41753556  0.66757833  0.50007908
   0.58070275  0.58618813  0.39810360
   0.58384821  0.33316183  0.39878557
   0.49702693  0.00427946  0.60203108
   0.41527839  0.16795639  0.50050258
   0.58498278  0.08110045  0.39762704
   0.66449573  0.91698363  0.49778399
   0.16769851  0.66424910  0.49930772
   0.33173870  0.33619027  0.39891524
   0.75063649  0.75003645  0.60241456
   0.00416208  0.74984915  0.60365456
   0.24866567 -0.00089118  0.59937336
   0.91875465  0.16757023  0.49997149
   0.91914933  0.66347608  0.49781143
   0.08375466  0.33296093  0.40030400
   0.00450133  0.49769826  0.60093289
   0.00042165  0.24828608  0.60053111
   0.91790756  0.91722039  0.49817165
   0.83387960  0.08286952  0.40177441
   0.66315670  0.16752769  0.50050697
   0.16638262  0.41594725  0.50042067
   0.83376780  0.33212132  0.40211201
   0.74777145  0.25102116  0.59802255
   0.00080715 -0.00075317  0.59763091
   0.66485081  0.66611125  0.49925755
   0.83603705  0.83303512  0.40115831
   0.91856378  0.41444620  0.49946896
   0.41436088  0.91748398  0.49878663
   0.08367520  0.58553442  0.40201470
   0.49803322  0.49864957  0.59774391
   0.49847977  0.25361906  0.59683491
   0.41708931  0.41511552  0.50124928
   0.08407140  0.83143083  0.40206970
   0.33488537  0.08041553  0.40312159
   0.16772886  0.91888410  0.49982560
   0.33260974  0.83394914  0.40310113
   0.25279022  0.49905215  0.59711680
   0.16685480  0.16610117  0.49979697
   0.33168825  0.58616026  0.40233007
   0.25112555  0.25217379  0.59684713
   0.58149877  0.83390406  0.40216048
   0.25046969  0.74786356  0.59760194
Direct configuration=     6
   0.08445894  0.08048953  0.39907291
   0.74917514  0.49843373  0.60139188
   0.83217122  0.58474529  0.39779284
   0.66615530  0.41648401  0.50049046
   0.74991077  0.00340386  0.60251388
   0.49821619  0.74897689  0.60126166
   0.41626450  0.66788405  0.50005077
   0.58108429  0.58547523  0.39753604
   0.58379665  0.33338978  0.39836065
   0.49801908  0.00334475  0.60251441
   0.41491497  0.16765174  0.50014677
   0.58480679  0.08133254  0.39699130
   0.66518908  0.91592293  0.49822712
   0.16842358  0.66485615  0.49964790
   0.33206429  0.33582404  0.39847726
   0.75059605  0.75037750  0.60266662
   0.00333395  0.75011124  0.60418005
   0.24889108 -0.00066235  0.59976842
   0.91726609  0.16730020  0.49998450
   0.91696615  0.66413736  0.49833163
   0.08382178  0.33297801  0.39994050
   0.00352288  0.49847225  0.60128733
   0.00054600  0.24853252  0.60101671
   0.91705564  0.91766303  0.49871360
   0.83382547  0.08296019  0.40160318
   0.66478196  0.16701594  0.50022642
   0.16674117  0.41501990  0.50018058
   0.83337488  0.33251484  0.40193396
   0.74802433  0.25067354  0.59812461
   0.00026943 -0.00069649  0.59772515
   0.66633977  0.66640387  0.49943454
   0.83550201  0.83323428  0.40078996
   0.91813917  0.41571913  0.49963277
   0.41505691  0.91755078  0.49945164
   0.08372531  0.58503353  0.40153911
   0.49833216  0.49892389  0.59809300
   0.49877219  0.25298924  0.59721427
   0.41660670  0.41552097  0.50061224
   0.08424752  0.83151722  0.40173690
   0.33481982  0.08101026  0.40290084
   0.16777660  0.91819359  0.49986424
   0.33258974  0.83380862  0.40272037
   0.25226550  0.49948246  0.59735588
   0.16712844  0.16644108  0.49977424
   0.33187352  0.58609281  0.40214677
   0.25092527  0.25189332  0.59704574
   0.58197620  0.83376107  0.40184243
   0.25025551  0.74781174  0.59768599
Direct configuration=     7
   0.08442401  0.08053856  0.39896910
   0.74921189  0.49859434  0.60147177
   0.83216854  0.58473366  0.39768870
   0.66629209  0.41625700  0.50043443
   0.74994180  0.00323479  0.60257254
   0.49840680  0.74900619  0.60134585
   0.41602859  0.66794079  0.50004551
   0.58115510  0.58534291  0.39743070
   0.58378708  0.33343208  0.39828178
   0.49820322  0.00317126  0.60260412
   0.41484752  0.16759520  0.50008073
   0.58477412  0.08137561  0.39687331
   0.66531777  0.91572606  0.49830936
   0.16855816  0.66496882  0.49971104
   0.33212472  0.33575606  0.39839597
   0.75058854  0.75044080  0.60271340
   0.00318025  0.75015988  0.60427758
   0.24893291 -0.00061988  0.59984174
   0.91698981  0.16725008  0.49998691
   0.91656095  0.66426009  0.49842817
   0.08383424  0.33298118  0.39987303
   0.00334128  0.49861590  0.60135311
   0.00056908  0.24857826  0.60110684
   0.91689752  0.91774518  0.49881418
   0.83381542  0.08297702  0.40157140
   0.66508361  0.16692096  0.50017435
   0.16680771  0.41484778  0.50013602
   0.83330196  0.33258787  0.40190092
   0.74807126  0.25060902  0.59814355
   0.00016963 -0.00068597  0.59774264
   0.66661612  0.66645818  0.49946739
   0.83540270  0.83327124  0.40072159
   0.91806036  0.41595539  0.49966317
   0.41518609  0.91756318  0.49957507
   0.08373461  0.58494056  0.40145084
   0.49838765  0.49897480  0.59815779
   0.49882646  0.25287234  0.59728468
   0.41651713  0.41559622  0.50049400
   0.08428021  0.83153325  0.40167513
   0.33480765  0.08112065  0.40285987
   0.16778547  0.91806542  0.49987141
   0.33258603  0.83378254  0.40264970
   0.25216812  0.49956233  0.59740026
   0.16717923  0.16650416  0.49977002
   0.33190791  0.58608029  0.40211275
   0.25088809  0.25184126  0.59708260
   0.58206481  0.83373453  0.40178340
   0.25021576  0.74780213  0.59770159
Direct configuration=     8
   0.08443255  0.08068352  0.39877746
   0.74914436  0.49879677  0.60162793
   0.83230754  0.58472480  0.39746440
   0.66628903  0.41611352  0.50039172
   0.74976265  0.00361229  0.60274954
   0.49871340  0.74897215  0.60153762
   0.41611905  0.66818293  0.50002211
   0.58137946  0.58543657  0.39719661
   0.58394430  0.33325589  0.39801983
   0.49833922  0.00318540  0.60287777
   0.41496882  0.16771278  0.50002052
   0.58514516  0.08102186  0.39656590
   0.66504005  0.91576332  0.49833967
   0.16826485  0.66486839  0.49974335
   0.33197960  0.33595632  0.39812339
   0.75037895  0.75047011  0.60299153
   0.00328482  0.75017543  0.60465118
   0.24877347 -0.00055011  0.60000564
   0.91686118  0.16695375  0.49996361
   0.91687459  0.66404444  0.49848388
   0.08364767  0.33308833  0.39972200
   0.00356360  0.49839295  0.60148212
   0.00066969  0.24864219  0.60128138
   0.91691802  0.91771481  0.49894634
   0.83382794  0.08276438  0.40161802
   0.66528095  0.16691570  0.50004209
   0.16683136  0.41495602  0.50001139
   0.83335283  0.33272482  0.40189102
   0.74797268  0.25046377  0.59805090
   0.00017233 -0.00056139  0.59774380
   0.66643681  0.66650710  0.49943545
   0.83516894  0.83344233  0.40076244
   0.91796626  0.41617084  0.49974033
   0.41557815  0.91710477  0.49986506
   0.08369245  0.58486412  0.40151204
   0.49878257  0.49883653  0.59811666
   0.49891350  0.25273512  0.59717825
   0.41629836  0.41547412  0.50023343
   0.08407757  0.83157414  0.40171350
   0.33479897  0.08083832  0.40286259
   0.16770560  0.91815615  0.49981166
   0.33286005  0.83397741  0.40263751
   0.25201227  0.49937828  0.59733612
   0.16694576  0.16654051  0.49973828
   0.33158120  0.58607804  0.40209747
   0.25078640  0.25196475  0.59699173
   0.58209107  0.83379856  0.40189800
   0.25006391  0.74807719  0.59772676
Direct configuration=     9
   0.08444239  0.08085041  0.39855683
   0.74906662  0.49902983  0.60180771
   0.83246757  0.58471459  0.39720618
   0.66628550  0.41594834  0.50034255
   0.74955639  0.00404690  0.60295332
   0.49906640  0.74893296  0.60175841
   0.41622320  0.66846170  0.49999516
   0.58163775  0.58554439  0.39692711
   0.58412531  0.33305303  0.39771824
   0.49849580  0.00320167  0.60319281
   0.41510846  0.16784816  0.49995121
   0.58557233  0.08061459  0.39621198
   0.66472031  0.91580621  0.49837456
   0.16792716  0.66475276  0.49978056
   0.33181253  0.33618687  0.39780958
   0.75013765  0.75050386  0.60331174
   0.00340522  0.75019332  0.60508131
   0.24858991 -0.00046979  0.60019433
   0.91671309  0.16661259  0.49993679
   0.91723568  0.66379616  0.49854802
   0.08343288  0.33321169  0.39954812
   0.00381956  0.49813627  0.60163064
   0.00078552  0.24871580  0.60148233
   0.91694162  0.91767984  0.49909850
   0.83384236  0.08251958  0.40167169
   0.66550814  0.16690963  0.49988983
   0.16685858  0.41508063  0.49986791
   0.83341141  0.33288249  0.40187963
   0.74785920  0.25029656  0.59794423
   0.00017543 -0.00041796  0.59774513
   0.66623037  0.66656342  0.49939869
   0.83489982  0.83363931  0.40080948
   0.91785793  0.41641888  0.49982916
   0.41602953  0.91657701  0.50019893
   0.08364391  0.58477612  0.40158248
   0.49923725  0.49867734  0.59806930
   0.49901370  0.25257714  0.59705573
   0.41604650  0.41533355  0.49993344
   0.08384426  0.83162120  0.40175768
   0.33478898  0.08051329  0.40286572
   0.16761365  0.91826061  0.49974287
   0.33317553  0.83420176  0.40262348
   0.25183285  0.49916638  0.59726229
   0.16667697  0.16658236  0.49970174
   0.33120507  0.58607545  0.40207987
   0.25066932  0.25210691  0.59688710
   0.58212130  0.83387229  0.40202993
   0.24988909  0.74839388  0.59775573
Direct configuration=    10
   0.08440353  0.08085037  0.39838920
   0.74927075  0.49876660  0.60192721
   0.83258274  0.58487560  0.39699614
   0.66602614  0.41618004  0.50027935
   0.74960284  0.00413686  0.60314564
   0.49882940  0.74904513  0.60199366
   0.41620001  0.66827993  0.49996351
   0.58159571  0.58561221  0.39669194
   0.58424769  0.33297797  0.39738862
   0.49821831  0.00356977  0.60352303
   0.41515559  0.16772666  0.49984490
   0.58549074  0.08057048  0.39588886
   0.66471353  0.91591389  0.49842577
   0.16795539  0.66475634  0.49985375
   0.33184191  0.33597656  0.39746853
   0.75040547  0.75052943  0.60366837
   0.00338745  0.75029052  0.60556648
   0.24862645 -0.00044385  0.60034239
   0.91693363  0.16671711  0.49989210
   0.91721510  0.66384702  0.49859897
   0.08342813  0.33318484  0.39941112
   0.00388496  0.49816132  0.60177201
   0.00062408  0.24879561  0.60161210
   0.91693983  0.91727955  0.49924977
   0.83401523  0.08232979  0.40172277
   0.66523767  0.16687615  0.49970599
   0.16686589  0.41494843  0.49971009
   0.83346599  0.33288014  0.40191883
   0.74786933  0.25043624  0.59779992
   0.00017115 -0.00028517  0.59776545
   0.66626253  0.66630330  0.49933575
   0.83488850  0.83354649  0.40097834
   0.91777553  0.41623885  0.49991200
   0.41595745  0.91666754  0.50054414
   0.08341419  0.58491678  0.40167940
   0.49924651  0.49862793  0.59787363
   0.49889231  0.25274346  0.59679733
   0.41598319  0.41542880  0.49967512
   0.08369989  0.83170288  0.40188595
   0.33492262  0.08036245  0.40298357
   0.16768930  0.91834941  0.49963268
   0.33335902  0.83426201  0.40270225
   0.25205887  0.49902807  0.59710255
   0.16649854  0.16652519  0.49964550
   0.33111852  0.58625506  0.40210825
   0.25083166  0.25195292  0.59669601
   0.58214923  0.83388044  0.40221547
   0.25004747  0.74842290  0.59771560
Direct configuration=    11
   0.08434365  0.08085031  0.39813085
   0.74958537  0.49836090  0.60211138
   0.83276023  0.58512375  0.39667242
   0.66562640  0.41653715  0.50018193
   0.74967443  0.00427551  0.60344206
   0.49846415  0.74921802  0.60235623
   0.41616428  0.66799979  0.49991473
   0.58153091  0.58571673  0.39632948
   0.58443632  0.33286229  0.39688059
   0.49779065  0.00413709  0.60403198
   0.41522822  0.16753940  0.49968105
   0.58536500  0.08050250  0.39539086
   0.66470309  0.91607984  0.49850469
   0.16799890  0.66476185  0.49996656
   0.33188719  0.33565241  0.39694291
   0.75081824  0.75056883  0.60421800
   0.00336005  0.75044032  0.60631425
   0.24868276 -0.00040388  0.60057058
   0.91727352  0.16687820  0.49982321
   0.91718337  0.66392541  0.49867751
   0.08342081  0.33314345  0.39919999
   0.00398576  0.49819992  0.60198988
   0.00037525  0.24891861  0.60181209
   0.91693708  0.91666263  0.49948291
   0.83428168  0.08203730  0.40180150
   0.66482082  0.16682454  0.49942265
   0.16687715  0.41474468  0.49946686
   0.83355012  0.33287651  0.40197926
   0.74788494  0.25065151  0.59757752
   0.00016456 -0.00008050  0.59779676
   0.66631209  0.66590240  0.49923876
   0.83487105  0.83340343  0.40123859
   0.91764854  0.41596138  0.50003967
   0.41584637  0.91680707  0.50107618
   0.08306014  0.58513356  0.40182878
   0.49926078  0.49855177  0.59757207
   0.49870522  0.25299979  0.59639908
   0.41588563  0.41557560  0.49927700
   0.08347737  0.83182876  0.40208363
   0.33512859  0.08012998  0.40316520
   0.16780591  0.91848628  0.49946285
   0.33364181  0.83435487  0.40282366
   0.25240722  0.49881490  0.59685636
   0.16622354  0.16643706  0.49955883
   0.33098512  0.58653189  0.40215199
   0.25108186  0.25171557  0.59640150
   0.58219229  0.83389301  0.40250141
   0.25029158  0.74846762  0.59765374
Direct configuration=    12
   0.08437964  0.08070996  0.39799054
   0.74939883  0.49865217  0.60217194
   0.83263077  0.58510434  0.39652939
   0.66560744  0.41635084  0.49998733
   0.74962553  0.00430382  0.60360508
   0.49875729  0.74902966  0.60259772
   0.41604602  0.66810154  0.49987177
   0.58150758  0.58556276  0.39612741
   0.58437521  0.33294805  0.39646886
   0.49794449  0.00420429  0.60443920
   0.41500215  0.16738510  0.49947438
   0.58519237  0.08066572  0.39506383
   0.66473360  0.91588819  0.49872635
   0.16807655  0.66486244  0.50014262
   0.33191688  0.33557469  0.39656237
   0.75071485  0.75067678  0.60457561
   0.00377487  0.75037523  0.60686335
   0.24847960 -0.00018244  0.60072000
   0.91706764  0.16676827  0.49977594
   0.91674337  0.66360974  0.49888289
   0.08356069  0.33300315  0.39912285
   0.00419426  0.49834278  0.60205242
   0.00053081  0.24876313  0.60188868
   0.91691529  0.91695404  0.49976365
   0.83427014  0.08204116  0.40190090
   0.66487984  0.16681199  0.49915716
   0.16670771  0.41451761  0.49927082
   0.83346010  0.33293885  0.40202554
   0.74791422  0.25071326  0.59731092
   0.00023810 -0.00015692  0.59777602
   0.66650281  0.66587122  0.49927998
   0.83486383  0.83344664  0.40147024
   0.91765551  0.41598474  0.50008258
   0.41571967  0.91699846  0.50146909
   0.08321889  0.58511837  0.40191298
   0.49905418  0.49871260  0.59729612
   0.49877463  0.25314952  0.59600126
   0.41599756  0.41548827  0.49887906
   0.08356834  0.83186523  0.40228969
   0.33519082  0.08017774  0.40337472
   0.16782384  0.91841448  0.49939339
   0.33356435  0.83433665  0.40301682
   0.25248944  0.49905583  0.59660338
   0.16639731  0.16637495  0.49952664
   0.33112356  0.58659300  0.40215181
   0.25092045  0.25172804  0.59609131
   0.58222419  0.83381546  0.40277059
   0.25026481  0.74834861  0.59754478
Direct configuration=    13
   0.08440525  0.08061006  0.39789066
   0.74926604  0.49885950  0.60221506
   0.83253862  0.58509052  0.39642757
   0.66559394  0.41621822  0.49984880
   0.74959073  0.00432396  0.60372113
   0.49896595  0.74889558  0.60276962
   0.41596185  0.66817397  0.49984120
   0.58149098  0.58545316  0.39598356
   0.58433171  0.33300910  0.39617579
   0.49805399  0.00425212  0.60472907
   0.41484123  0.16727526  0.49932727
   0.58506949  0.08078191  0.39483104
   0.66475532  0.91575178  0.49888413
   0.16813182  0.66493405  0.50026794
   0.33193802  0.33551937  0.39629150
   0.75064125  0.75075363  0.60483017
   0.00407015  0.75032890  0.60725422
   0.24833499 -0.00002482  0.60082636
   0.91692109  0.16669001  0.49974229
   0.91643017  0.66338503  0.49902908
   0.08366026  0.33290327  0.39906794
   0.00434267  0.49844446  0.60209693
   0.00064154  0.24865246  0.60194319
   0.91689977  0.91716147  0.49996349
   0.83426192  0.08204392  0.40197165
   0.66492185  0.16680306  0.49896818
   0.16658710  0.41435598  0.49913128
   0.83339602  0.33298323  0.40205848
   0.74793505  0.25075722  0.59712115
   0.00029044 -0.00021132  0.59776126
   0.66663856  0.66584903  0.49930933
   0.83485869  0.83347739  0.40163514
   0.91766047  0.41600138  0.50011312
   0.41562949  0.91713470  0.50174878
   0.08333189  0.58510755  0.40197292
   0.49890712  0.49882708  0.59709970
   0.49882403  0.25325609  0.59571808
   0.41607724  0.41542611  0.49859580
   0.08363310  0.83189118  0.40243637
   0.33523511  0.08021173  0.40352386
   0.16783660  0.91836337  0.49934394
   0.33350921  0.83432368  0.40315432
   0.25254796  0.49922733  0.59642331
   0.16652101  0.16633074  0.49950372
   0.33122211  0.58663651  0.40215168
   0.25080556  0.25173691  0.59587050
   0.58224690  0.83376025  0.40296220
   0.25024576  0.74826390  0.59746722
Direct configuration=    14
   0.08444298  0.08058929  0.39782506
   0.74919481  0.49911111  0.60216427
   0.83248251  0.58486050  0.39642060
   0.66571360  0.41615578  0.49954342
   0.74961501  0.00431311  0.60384503
   0.49906946  0.74892758  0.60297625
   0.41640514  0.66841745  0.49981316
   0.58147298  0.58540561  0.39585286
   0.58416931  0.33305719  0.39569586
   0.49823113  0.00423601  0.60514872
   0.41511220  0.16721899  0.49909964
   0.58517173  0.08073463  0.39461955
   0.66474572  0.91578422  0.49925243
   0.16745838  0.66493194  0.50039077
   0.33185726  0.33586527  0.39586720
   0.75065943  0.75086565  0.60519902
   0.00426532  0.75031913  0.60780237
   0.24848040 -0.00023241  0.60096008
   0.91691928  0.16665118  0.49969459
   0.91647038  0.66334598  0.49933147
   0.08361014  0.33283200  0.39903274
   0.00447785  0.49860208  0.60206902
   0.00055734  0.24886552  0.60190162
   0.91685623  0.91710725  0.50032671
   0.83400111  0.08218542  0.40203407
   0.66488460  0.16657593  0.49861260
   0.16638787  0.41456512  0.49890600
   0.83340583  0.33295010  0.40205758
   0.74797250  0.25078521  0.59677843
   0.00034371 -0.00038470  0.59777651
   0.66633040  0.66586909  0.49947619
   0.83488707  0.83359262  0.40197894
   0.91772132  0.41569985  0.50013528
   0.41564917  0.91700094  0.50214109
   0.08366809  0.58501645  0.40212645
   0.49879505  0.49901946  0.59676852
   0.49894663  0.25320576  0.59518702
   0.41605894  0.41502341  0.49805569
   0.08377736  0.83178349  0.40270425
   0.33521151  0.08016462  0.40369412
   0.16769153  0.91854796  0.49941300
   0.33345978  0.83432679  0.40340705
   0.25252182  0.49933338  0.59612988
   0.16631991  0.16621431  0.49948226
   0.33135431  0.58647728  0.40207914
   0.25070188  0.25192230  0.59552306
   0.58219859  0.83368134  0.40331862
   0.25027244  0.74847880  0.59738179
Direct configuration=    15
   0.08445656  0.08058181  0.39780145
   0.74916917  0.49920168  0.60214598
   0.83246231  0.58477770  0.39641809
   0.66575667  0.41613330  0.49943348
   0.74962375  0.00430920  0.60388963
   0.49910672  0.74893910  0.60305064
   0.41656472  0.66850510  0.49980306
   0.58146651  0.58538849  0.39580581
   0.58411084  0.33307451  0.39552310
   0.49829490  0.00423022  0.60529979
   0.41520975  0.16719873  0.49901770
   0.58520854  0.08071761  0.39454342
   0.66474227  0.91579590  0.49938502
   0.16721595  0.66493118  0.50043498
   0.33182818  0.33598979  0.39571445
   0.75066597  0.75090598  0.60533181
   0.00433558  0.75031562  0.60799969
   0.24853274 -0.00030714  0.60100822
   0.91691864  0.16663720  0.49967742
   0.91648485  0.66333192  0.49944032
   0.08359209  0.33280634  0.39902006
   0.00452652  0.49865882  0.60205897
   0.00052702  0.24894221  0.60188665
   0.91684055  0.91708774  0.50045747
   0.83390722  0.08223637  0.40205654
   0.66487119  0.16649416  0.49848460
   0.16631615  0.41464041  0.49882490
   0.83340936  0.33293818  0.40205726
   0.74798598  0.25079529  0.59665506
   0.00036288 -0.00044711  0.59778200
   0.66621946  0.66587631  0.49953626
   0.83489729  0.83363410  0.40210271
   0.91774323  0.41559131  0.50014326
   0.41565625  0.91695278  0.50228231
   0.08378911  0.58498365  0.40218172
   0.49875470  0.49908871  0.59664930
   0.49899076  0.25318764  0.59499585
   0.41605235  0.41487845  0.49786126
   0.08382929  0.83174472  0.40280069
   0.33520301  0.08014766  0.40375542
   0.16763931  0.91861440  0.49943786
   0.33344199  0.83432791  0.40349803
   0.25251241  0.49937156  0.59602424
   0.16624751  0.16617240  0.49947454
   0.33140191  0.58641996  0.40205303
   0.25066455  0.25198904  0.59539798
   0.58218120  0.83365294  0.40344693
   0.25028205  0.74855616  0.59735104
Direct configuration=    16
   0.08434979  0.08063124  0.39783842
   0.74933109  0.49911415  0.60198900
   0.83266596  0.58475721  0.39663704
   0.66562730  0.41616869  0.49915083
   0.74971095  0.00438378  0.60395935
   0.49896122  0.74914007  0.60322288
   0.41635755  0.66828401  0.49979134
   0.58142658  0.58554776  0.39578107
   0.58414525  0.33303426  0.39510257
   0.49806488  0.00449457  0.60557324
   0.41535675  0.16708508  0.49883651
   0.58531476  0.08038294  0.39453058
   0.66473553  0.91574439  0.49974469
   0.16734905  0.66485929  0.50043907
   0.33168201  0.33610115  0.39529862
   0.75099784  0.75088807  0.60561086
   0.00420730  0.75035098  0.60839364
   0.24871798 -0.00034036  0.60111716
   0.91705789  0.16653097  0.49962151
   0.91633378  0.66356489  0.49966433
   0.08351955  0.33288929  0.39901924
   0.00438091  0.49874489  0.60198878
   0.00039133  0.24919062  0.60174557
   0.91665980  0.91687241  0.50071212
   0.83380653  0.08228730  0.40204866
   0.66494878  0.16633644  0.49819989
   0.16639021  0.41464701  0.49863598
   0.83347187  0.33272094  0.40192496
   0.74798123  0.25085036  0.59635110
   0.00036756 -0.00034373  0.59789264
   0.66625120  0.66585581  0.49979477
   0.83497012  0.83355426  0.40248270
   0.91771958  0.41549048  0.50013296
   0.41578743  0.91707328  0.50252373
   0.08364471  0.58502024  0.40228729
   0.49883627  0.49906171  0.59631443
   0.49906010  0.25301118  0.59457988
   0.41582403  0.41511754  0.49742565
   0.08378724  0.83170339  0.40302879
   0.33518974  0.08008294  0.40378444
   0.16753160  0.91860298  0.49962734
   0.33351460  0.83437058  0.40368635
   0.25263233  0.49921716  0.59581133
   0.16614233  0.16608100  0.49949678
   0.33137251  0.58643570  0.40199918
   0.25088535  0.25195648  0.59513013
   0.58215955  0.83367626  0.40378203
   0.25038010  0.74877034  0.59729057
Direct configuration=    17
   0.08429333  0.08065737  0.39785797
   0.74941670  0.49906787  0.60190599
   0.83277364  0.58474637  0.39675282
   0.66555890  0.41618741  0.49900137