  48  48   0   0
  0.5349325E+02  0.1100258E-08  0.1100258E-08  0.2449179E-08  0.3500000E-15
  1.000000000000000E-004
  CAR 
 unknown system                          
      6.39001843     -9.83221508  301     -1.09260519      1.00000000
     -9.832  0.0000E+00  0.0000E+00
     -9.778  0.0000E+00  0.0000E+00
     -9.724  0.0000E+00  0.0000E+00
     -9.670  0.0000E+00  0.0000E+00
     -9.616  0.0000E+00  0.0000E+00
     -9.562  0.0000E+00  0.0000E+00
     -9.508  0.0000E+00  0.0000E+00
     -9.454  0.0000E+00  0.0000E+00
     -9.400  0.1643E-16  0.8882E-18
     -9.346  0.6306E-14  0.3419E-15
     -9.291  0.1363E-11  0.7404E-13
     -9.237  0.1659E-09  0.9046E-11
     -9.183  0.1140E-07  0.6255E-09
     -9.129  0.4429E-06  0.2458E-07
     -9.075  0.9755E-05  0.5521E-06
     -9.021  0.1221E-03  0.7154E-05
     -8.967  0.8704E-03  0.5422E-04
     -8.913  0.3544E-02  0.2458E-03
     -8.859  0.8258E-02  0.6924E-03
     -8.805  0.1108E-01  0.1292E-02
     -8.751  0.9004E-02  0.1779E-02
     -8.697  0.6375E-02  0.2123E-02
     -8.643  0.8020E-02  0.2557E-02
     -8.589  0.1091E-01  0.3147E-02
     -8.534  0.9427E-02  0.3657E-02
     -8.480  0.4740E-02  0.3913E-02
     -8.426  0.1432E-02  0.3990E-02
     -8.372  0.6677E-03  0.4026E-02
     -8.318  0.1850E-02  0.4126E-02
     -8.264  0.4760E-02  0.4384E-02
     -8.210  0.8305E-02  0.4833E-02
     -8.156  0.1092E-01  0.5424E-02
     -8.102  0.1322E-01  0.6139E-02
     -8.048  0.1680E-01  0.7047E-02
     -7.994  0.1944E-01  0.8098E-02
     -7.940  0.1730E-01  0.9034E-02
     -7.886  0.1139E-01  0.9650E-02
     -7.831  0.6668E-02  0.1001E-01
     -7.777  0.6957E-02  0.1039E-01
     -7.723  0.1108E-01  0.1099E-01
     -7.669  0.1448E-01  0.1177E-01
     -7.615  0.1619E-01  0.1264E-01
     -7.561  0.1792E-01  0.1361E-01
     -7.507  0.1972E-01  0.1468E-01
     -7.453  0.2182E-01  0.1586E-01
     -7.399  0.2302E-01  0.1710E-01
     -7.345  0.2272E-01  0.1833E-01
     -7.291  0.2341E-01  0.1960E-01
     -7.237  0.2554E-01  0.2098E-01
     -7.183  0.2841E-01  0.2252E-01
     -7.129  0.3256E-01  0.2428E-01
     -7.074  0.3855E-01  0.2636E-01
     -7.020  0.4802E-01  0.2896E-01
     -6.966  0.6090E-01  0.3225E-01
     -6.912  0.7182E-01  0.3613E-01
     -6.858  0.7614E-01  0.4025E-01
     -6.804  0.7604E-01  0.4436E-01
     -6.750  0.7775E-01  0.4857E-01
     -6.696  0.8359E-01  0.5309E-01
     -6.642  0.8781E-01  0.5783E-01
     -6.588  0.8438E-01  0.6240E-01
     -6.534  0.7991E-01  0.6672E-01
     -6.480  0.8636E-01  0.7139E-01
     -6.426  0.1062E+00  0.7713E-01
     -6.371  0.1328E+00  0.8431E-01
     -6.317  0.1551E+00  0.9270E-01
     -6.263  0.1660E+00  0.1017E+00
     -6.209  0.1695E+00  0.1108E+00
     -6.155  0.1701E+00  0.1200E+00
     -6.101  0.1651E+00  0.1290E+00
     -6.047  0.1563E+00  0.1374E+00
     -5.993  0.1521E+00  0.1456E+00
     -5.939  0.1537E+00  0.1539E+00
     -5.885  0.1546E+00  0.1623E+00
     -5.831  0.1521E+00  0.1705E+00
     -5.777  0.1483E+00  0.1786E+00
     -5.723  0.1429E+00  0.1863E+00
     -5.669  0.1357E+00  0.1936E+00
     -5.614  0.1310E+00  0.2007E+00
     -5.560  0.1320E+00  0.2078E+00
     -5.506  0.1339E+00  0.2151E+00
     -5.452  0.1328E+00  0.2223E+00
     -5.398  0.1335E+00  0.2295E+00
     -5.344  0.1414E+00  0.2371E+00
     -5.290  0.1514E+00  0.2453E+00
     -5.236  0.1585E+00  0.2539E+00
     -5.182  0.1648E+00  0.2628E+00
     -5.128  0.1694E+00  0.2720E+00
     -5.074  0.1695E+00  0.2811E+00
     -5.020  0.1676E+00  0.2902E+00
     -4.966  0.1690E+00  0.2993E+00
     -4.911  0.1732E+00  0.3087E+00
     -4.857  0.1756E+00  0.3182E+00
     -4.803  0.1745E+00  0.3276E+00
     -4.749  0.1702E+00  0.3368E+00
     -4.695  0.1647E+00  0.3457E+00
     -4.641  0.1617E+00  0.3545E+00
     -4.587  0.1606E+00  0.3632E+00
     -4.533  0.1575E+00  0.3717E+00
     -4.479  0.1533E+00  0.3800E+00
     -4.425  0.1545E+00  0.3883E+00
     -4.371  0.1632E+00  0.3971E+00
     -4.317  0.1724E+00  0.4065E+00
     -4.263  0.1767E+00  0.4160E+00
     -4.209  0.1793E+00  0.4257E+00
     -4.154  0.1834E+00  0.4356E+00
     -4.100  0.1859E+00  0.4457E+00
     -4.046  0.1850E+00  0.4557E+00
     -3.992  0.1843E+00  0.4656E+00
     -3.938  0.1856E+00  0.4757E+00
     -3.884  0.1876E+00  0.4858E+00
     -3.830  0.1895E+00  0.4961E+00
     -3.776  0.1897E+00  0.5063E+00
     -3.722  0.1882E+00  0.5165E+00
     -3.668  0.1892E+00  0.5267E+00
     -3.614  0.1942E+00  0.5372E+00
     -3.560  0.1980E+00  0.5479E+00
     -3.506  0.1951E+00  0.5585E+00
     -3.451  0.1875E+00  0.5686E+00
     -3.397  0.1801E+00  0.5784E+00
     -3.343  0.1750E+00  0.5878E+00
     -3.289  0.1741E+00  0.5973E+00
     -3.235  0.1793E+00  0.6069E+00
     -3.181  0.1872E+00  0.6171E+00
     -3.127  0.1919E+00  0.6275E+00
     -3.073  0.1901E+00  0.6377E+00
     -3.019  0.1839E+00  0.6477E+00
     -2.965  0.1777E+00  0.6573E+00
     -2.911  0.1744E+00  0.6667E+00
     -2.857  0.1764E+00  0.6763E+00
     -2.803  0.1833E+00  0.6862E+00
     -2.749  0.1912E+00  0.6965E+00
     -2.694  0.1979E+00  0.7072E+00
     -2.640  0.2006E+00  0.7181E+00
     -2.586  0.1980E+00  0.7288E+00
     -2.532  0.1946E+00  0.7393E+00
     -2.478  0.1948E+00  0.7498E+00
     -2.424  0.1977E+00  0.7605E+00
     -2.370  0.1989E+00  0.7713E+00
     -2.316  0.1951E+00  0.7818E+00
     -2.262  0.1871E+00  0.7919E+00
     -2.208  0.1787E+00  0.8016E+00
     -2.154  0.1740E+00  0.8110E+00
     -2.100  0.1739E+00  0.8204E+00
     -2.046  0.1787E+00  0.8301E+00
     -1.991  0.1874E+00  0.8402E+00
     -1.937  0.1948E+00  0.8507E+00
     -1.883  0.1993E+00  0.8615E+00
     -1.829  0.2034E+00  0.8725E+00
     -1.775  0.2086E+00  0.8838E+00
     -1.721  0.2139E+00  0.8954E+00
     -1.667  0.2155E+00  0.9070E+00
     -1.613  0.2131E+00  0.9185E+00
     -1.559  0.2131E+00  0.9301E+00
     -1.505  0.2166E+00  0.9418E+00
     -1.451  0.2154E+00  0.9534E+00
     -1.397  0.2047E+00  0.9645E+00
     -1.343  0.1891E+00  0.9747E+00
     -1.289  0.1722E+00  0.9840E+00
     -1.234  0.1517E+00  0.9922E+00
     -1.180  0.1284E+00  0.9992E+00
     -1.126  0.1064E+00  0.1005E+01
     -1.072  0.8753E-01  0.1010E+01
     -1.018  0.7069E-01  0.1013E+01
     -0.964  0.5311E-01  0.1016E+01
     -0.910  0.3448E-01  0.1018E+01
     -0.856  0.1988E-01  0.1019E+01
     -0.802  0.1311E-01  0.1020E+01
     -0.748  0.1397E-01  0.1021E+01
     -0.694  0.1964E-01  0.1022E+01
     -0.640  0.2647E-01  0.1023E+01
     -0.586  0.3300E-01  0.1025E+01
     -0.531  0.3932E-01  0.1027E+01
     -0.477  0.4454E-01  0.1030E+01
     -0.423  0.4594E-01  0.1032E+01
     -0.369  0.4409E-01  0.1034E+01
     -0.315  0.4376E-01  0.1037E+01
     -0.261  0.4597E-01  0.1039E+01
     -0.207  0.4412E-01  0.1042E+01
     -0.153  0.3455E-01  0.1044E+01
     -0.099  0.2335E-01  0.1045E+01
     -0.045  0.1626E-01  0.1046E+01
      0.009  0.1509E-01  0.1047E+01
      0.063  0.2054E-01  0.1048E+01
      0.117  0.2902E-01  0.1049E+01
      0.171  0.3329E-01  0.1051E+01
      0.226  0.3019E-01  0.1053E+01
      0.280  0.2617E-01  0.1054E+01
      0.334  0.2899E-01  0.1056E+01
      0.388  0.3607E-01  0.1058E+01
      0.442  0.3968E-01  0.1060E+01
      0.496  0.4066E-01  0.1062E+01
      0.550  0.4481E-01  0.1064E+01
      0.604  0.5152E-01  0.1067E+01
      0.658  0.5581E-01  0.1070E+01
      0.712  0.5437E-01  0.1073E+01
      0.766  0.4751E-01  0.1076E+01
      0.820  0.3766E-01  0.1078E+01
      0.874  0.2677E-01  0.1079E+01
      0.929  0.1861E-01  0.1080E+01
      0.983  0.1624E-01  0.1081E+01
      1.037  0.1731E-01  0.1082E+01
      1.091  0.1951E-01  0.1083E+01
      1.145  0.2167E-01  0.1084E+01
      1.199  0.2034E-01  0.1085E+01
      1.253  0.1559E-01  0.1086E+01
      1.307  0.1194E-01  0.1087E+01
      1.361  0.1176E-01  0.1087E+01
      1.415  0.1446E-01  0.1088E+01
      1.469  0.1982E-01  0.1089E+01
      1.523  0.2800E-01  0.1091E+01
      1.577  0.3486E-01  0.1093E+01
      1.631  0.3400E-01  0.1094E+01
      1.686  0.2754E-01  0.1096E+01
      1.740  0.2486E-01  0.1097E+01
      1.794  0.2836E-01  0.1099E+01
      1.848  0.3118E-01  0.1101E+01
      1.902  0.2906E-01  0.1102E+01
      1.956  0.2583E-01  0.1104E+01
      2.010  0.2501E-01  0.1105E+01
      2.064  0.2602E-01  0.1106E+01
      2.118  0.2923E-01  0.1108E+01
      2.172  0.3561E-01  0.1110E+01
      2.226  0.4360E-01  0.1112E+01
      2.280  0.5028E-01  0.1115E+01
      2.334  0.5235E-01  0.1118E+01
      2.389  0.4816E-01  0.1120E+01
      2.443  0.4055E-01  0.1122E+01
      2.497  0.3553E-01  0.1124E+01
      2.551  0.3622E-01  0.1126E+01
      2.605  0.3975E-01  0.1129E+01
      2.659  0.4178E-01  0.1131E+01
      2.713  0.4141E-01  0.1133E+01
      2.767  0.3818E-01  0.1135E+01
      2.821  0.3009E-01  0.1137E+01
      2.875  0.2025E-01  0.1138E+01
      2.929  0.1492E-01  0.1139E+01
      2.983  0.1285E-01  0.1139E+01
      3.037  0.9607E-02  0.1140E+01
      3.091  0.7702E-02  0.1140E+01
      3.146  0.1069E-01  0.1141E+01
      3.200  0.1590E-01  0.1142E+01
      3.254  0.1983E-01  0.1143E+01
      3.308  0.2192E-01  0.1144E+01
      3.362  0.2195E-01  0.1145E+01
      3.416  0.2156E-01  0.1146E+01
      3.470  0.2316E-01  0.1148E+01
      3.524  0.2635E-01  0.1149E+01
      3.578  0.3143E-01  0.1151E+01
      3.632  0.3924E-01  0.1153E+01
      3.686  0.4450E-01  0.1155E+01
      3.740  0.4193E-01  0.1157E+01
      3.794  0.3432E-01  0.1159E+01
      3.849  0.2653E-01  0.1161E+01
      3.903  0.2195E-01  0.1162E+01
      3.957  0.2372E-01  0.1163E+01
      4.011  0.2947E-01  0.1165E+01
      4.065  0.3052E-01  0.1166E+01
      4.119  0.2495E-01  0.1168E+01
      4.173  0.2059E-01  0.1169E+01
      4.227  0.2016E-01  0.1170E+01
      4.281  0.1892E-01  0.1171E+01
      4.335  0.1619E-01  0.1172E+01
      4.389  0.1729E-01  0.1173E+01
      4.443  0.2408E-01  0.1174E+01
      4.497  0.3236E-01  0.1176E+01
      4.551  0.4029E-01  0.1178E+01
      4.606  0.4840E-01  0.1181E+01
      4.660  0.5284E-01  0.1184E+01
      4.714  0.5002E-01  0.1186E+01
      4.768  0.4482E-01  0.1189E+01
      4.822  0.4470E-01  0.1191E+01
      4.876  0.5081E-01  0.1194E+01
      4.930  0.5825E-01  0.1197E+01
      4.984  0.6392E-01  0.1200E+01
      5.038  0.6897E-01  0.1204E+01
      5.092  0.7177E-01  0.1208E+01
      5.146  0.6933E-01  0.1212E+01
      5.200  0.6402E-01  0.1215E+01
      5.254  0.5716E-01  0.1218E+01
      5.309  0.4578E-01  0.1221E+01
      5.363  0.3095E-01  0.1223E+01
      5.417  0.1726E-01  0.1223E+01
      5.471  0.7481E-02  0.1224E+01
      5.525  0.2292E-02  0.1224E+01
      5.579  0.4571E-03  0.1224E+01
      5.633  0.5628E-04  0.1224E+01
      5.687  0.4147E-05  0.1224E+01
      5.741  0.1793E-06  0.1224E+01
      5.795  0.4486E-08  0.1224E+01
      5.849  0.6436E-10  0.1224E+01
      5.903  0.5259E-12  0.1224E+01
      5.957  0.2436E-14  0.1224E+01
      6.011  0.5475E-17  0.1224E+01
      6.066  0.0000E+00  0.1224E+01
      6.120  0.0000E+00  0.1224E+01
      6.174  0.0000E+00  0.1224E+01
      6.228  0.0000E+00  0.1224E+01
      6.282  0.0000E+00  0.1224E+01
      6.336  0.0000E+00  0.1224E+01
      6.390  0.0000E+00  0.1224E+01
