unknown system                          
           1
    11.002582    0.000000    0.000000
     5.501291    9.528515    0.000000
     0.000000    0.000000   24.491785
   Au   Pd
  24  24
Direct configuration=     1
   0.08333333  0.08333333  0.40830017
   0.50000000  0.50000000  0.59169983
   0.58333333  0.33333333  0.40830017
   0.41666667  0.91666667  0.50000000
   0.58333333  0.08333333  0.40830017
   0.66666667  0.16666667  0.50000000
   0.75000000  0.00000000  0.59169983
   0.16666667  0.66666667  0.50000000
   0.83333333  0.33333333  0.40830017
   0.16666667  0.41666667  0.50000000
   0.41666667  0.66666667  0.50000000
   0.25000000  0.00000000  0.59169983
   0.16666667  0.16666667  0.50000000
   0.58333333  0.58333333  0.40830017
   0.91666667  0.91666667  0.50000000
   0.66666667  0.66666667  0.50000000
   0.91666667  0.16666667  0.50000000
   0.00000000  0.50000000  0.59169983
   0.91666667  0.66666667  0.50000000
   0.75000000  0.50000000  0.59169983
   0.00000000  0.25000000  0.59169983
   0.33333333  0.08333333  0.40830017
   0.00000000  0.00000000  0.59169983
   0.08333333  0.33333333  0.40830017
   0.83333333  0.58333333  0.40830017
   0.58333333  0.83333333  0.40830017
   0.83333333  0.08333333  0.40830017
   0.50000000  0.75000000  0.59169983
   0.66666667  0.41666667  0.50000000
   0.83333333  0.83333333  0.40830017
   0.75000000  0.25000000  0.59169983
   0.25000000  0.75000000  0.59169983
   0.41666667  0.41666667  0.50000000
   0.50000000  0.00000000  0.59169983
   0.41666667  0.16666667  0.50000000
   0.66666667  0.91666667  0.50000000
   0.16666667  0.91666667  0.50000000
   0.33333333  0.83333333  0.40830017
   0.25000000  0.50000000  0.59169983
   0.33333333  0.58333333  0.40830017
   0.25000000  0.25000000  0.59169983
   0.33333333  0.33333333  0.40830017
   0.00000000  0.75000000  0.59169983
   0.08333333  0.83333333  0.40830017
   0.08333333  0.58333333  0.40830017
   0.91666667  0.41666667  0.50000000
   0.50000000  0.25000000  0.59169983
   0.75000000  0.75000000  0.59169983
Direct configuration=     2
   0.08365559  0.08126647  0.40607928
   0.49954485  0.49949939  0.59355325
   0.58220341  0.33386782  0.40641784
   0.41778796  0.91643387  0.50008235
   0.58377086  0.08233753  0.40641093
   0.66507336  0.16786405  0.50034151
   0.74890419 -0.00025177  0.59383645
   0.16755127  0.66669815  0.49992440
   0.83306833  0.33396836  0.40635463
   0.16876134  0.41595596  0.49999870
   0.41533436  0.66696899  0.49997103
   0.25119611 -0.00102808  0.59388141
   0.16740339  0.16696785  0.50038174
   0.58290136  0.58419825  0.40616772
   0.91714954  0.91571974  0.49928753
   0.66750103  0.66711985  0.49995523
   0.91536171  0.16751159  0.49994898
   0.00044297  0.50046536  0.59392246
   0.91543591  0.66750161  0.49958553
   0.74951967  0.50020974  0.59360511
  -0.00031792  0.25058819  0.59392349
   0.33445832  0.08272255  0.40606038
   0.00066090 -0.00110614  0.59399096
   0.08280711  0.33514803  0.40603425
   0.83351242  0.58402481  0.40708501
   0.58394796  0.83305437  0.40713068
   0.83393584  0.08214907  0.40689251
   0.50004509  0.75044739  0.59312036
   0.66677031  0.41617322  0.50023135
   0.83331195  0.83300502  0.40718526
   0.74925057  0.25040322  0.59291666
   0.24976584  0.74977577  0.59290704
   0.41652570  0.41619027  0.50005157
   0.50018394  0.00023820  0.59263020
   0.41713519  0.16702554  0.50053171
   0.66603938  0.91659425  0.50001711
   0.16720803  0.91542504  0.49976402
   0.33302952  0.83298723  0.40705394
   0.25029496  0.49979895  0.59284485
   0.33253091  0.58341194  0.40717770
   0.25133466  0.25001552  0.59285120
   0.33319735  0.33403177  0.40728665
   0.00052154  0.74957794  0.59318685
   0.08353637  0.83318024  0.40715606
   0.08340004  0.58361826  0.40697394
   0.91575131  0.41731558  0.49981168
   0.49917686  0.25020339  0.59257678
   0.74941862  0.75072565  0.59290171
Direct configuration=     3
   0.08462235  0.07506586  0.39941662
   0.49817939  0.49799758  0.59911350
   0.57881364  0.33547127  0.40077085
   0.42115183  0.91573550  0.50032940
   0.58508345  0.07935011  0.40074319
   0.66029344  0.17145621  0.50136602
   0.74561675 -0.00100706  0.60024632
   0.17020510  0.66679261  0.49969758
   0.83227332  0.33587344  0.40051803
   0.17504534  0.41382385  0.49999481
   0.41133746  0.66787598  0.49988413
   0.25478445 -0.00411232  0.60042613
   0.16961358  0.16787142  0.50152695
   0.58160544  0.58679302  0.39977038
   0.91859814  0.91287895  0.49715010
   0.67000414  0.66847938  0.49982092
   0.91144684  0.17004634  0.49979594
   0.00177189  0.50186142  0.60059035
   0.91174362  0.67000643  0.49834211
   0.74807866  0.50083895  0.59932096
  -0.00127167  0.25235277  0.60059447
   0.33783328  0.08089021  0.39934100
   0.00264358 -0.00442457  0.60086436
   0.08122845  0.34059214  0.39923650
   0.83404968  0.58609924  0.40343952
   0.58579183  0.83221750  0.40362220
   0.83574337  0.07859626  0.40266952
   0.50018036  0.75178955  0.59738196
   0.66708123  0.41469290  0.50092542
   0.83324782  0.83202007  0.40384055
   0.74700229  0.25161287  0.59656713
   0.24906335  0.74910308  0.59652865
   0.41610280  0.41476107  0.50020628
   0.50073575  0.00095279  0.59542129
   0.41854078  0.16810216  0.50212685
   0.66415753  0.91637698  0.50006846
   0.16883212  0.91170018  0.49905610
   0.33211809  0.83194894  0.40331525
   0.25117984  0.49919579  0.59627991
   0.33012365  0.58364775  0.40381029
   0.25533864  0.25006207  0.59630531
   0.33278939  0.33612710  0.40424608
   0.00208618  0.74831175  0.59764792
   0.08414549  0.83272096  0.40372374
   0.08360015  0.58447304  0.40299526
   0.91300525  0.41926231  0.49924672
   0.49670744  0.25081358  0.59520763
   0.74767450  0.75290259  0.59650736
Direct configuration=     4
   0.08479363  0.07762970  0.39830970
   0.49777627  0.49905753  0.60037546
   0.57982936  0.33486926  0.39952316
   0.41859543  0.91680649  0.50007792
   0.58566009  0.08016398  0.39957680
   0.66240850  0.16858000  0.50093651
   0.74719922 -0.00083019  0.60149254
   0.16753553  0.66546948  0.49996415
   0.83255922  0.33498658  0.39918993
   0.17070857  0.41592314  0.49997405
   0.41669710  0.66560900  0.50000399
   0.25393986 -0.00306792  0.60180909
   0.16821079  0.16702062  0.50114656
   0.58117477  0.58704372  0.39861294
   0.91667518  0.91567684  0.49802381
   0.66733190  0.66622096  0.49996880
   0.91428840  0.16793520  0.49983615
   0.00160811  0.50205731  0.60168161
   0.91607897  0.66722835  0.49901340
   0.74770922  0.50183198  0.60054774
  -0.00020845  0.25132434  0.60184589
   0.33574025  0.08187375  0.39805348
   0.00136195 -0.00338320  0.60197955
   0.08233091  0.33831258  0.39793654
   0.83348829  0.58644011  0.40218944
   0.58569332  0.83156078  0.40259354
   0.83436425  0.07974500  0.40184451
   0.50067061  0.75057710  0.59814669
   0.66478305  0.41800872  0.50063057
   0.83354647  0.83175307  0.40241351
   0.74785758  0.25004190  0.59760661
   0.24975234  0.74844156  0.59759194
   0.41774627  0.41609690  0.50009117
   0.50005397  0.00091862  0.59647706
   0.41927653  0.16590805  0.50127744
   0.66473940  0.91937477  0.50005327
   0.16696978  0.91651216  0.49948013
   0.33320307  0.83144730  0.40242428
   0.25056415  0.49981649  0.59727227
   0.33007305  0.58404303  0.40270616
   0.25425759  0.25002813  0.59754623
   0.33282625  0.33521090  0.40332429
   0.00146288  0.74859547  0.59825166
   0.08440968  0.83092487  0.40238659
   0.08344859  0.58542753  0.40223340
   0.91518754  0.41807866  0.49950810
   0.49719902  0.25077492  0.59661231
   0.74842156  0.75193448  0.59745903
Direct configuration=     5
   0.08482780  0.07814130  0.39808882
   0.49769583  0.49926903  0.60062728
   0.58003204  0.33474914  0.39927419
   0.41808532  0.91702020  0.50002773
   0.58577515  0.08032638  0.39934405
   0.66283055  0.16800607  0.50085080
   0.74751499 -0.00079489  0.60174122
   0.16700284  0.66520546  0.50001735
   0.83261627  0.33480961  0.39892492
   0.16984320  0.41634204  0.49996991
   0.41776658  0.66515664  0.50002791
   0.25377132 -0.00285951  0.60208505
   0.16793087  0.16685085  0.50107066
   0.58108883  0.58709374  0.39838198
   0.91629147  0.91623514  0.49819816
   0.66679867  0.66577031  0.49999831
   0.91485541  0.16751393  0.49984417
   0.00157543  0.50209640  0.60189936
   0.91694406  0.66667400  0.49914735
   0.74763550  0.50203013  0.60079254
   0.00000371  0.25111912  0.60209560
   0.33532260  0.08207000  0.39779657
   0.00110621 -0.00317541  0.60220207
   0.08255089  0.33785771  0.39767715
   0.83337626  0.58650813  0.40194000
   0.58567367  0.83142974  0.40238827
   0.83408906  0.07997423  0.40167989
   0.50076844  0.75033516  0.59829929
   0.66432447  0.41867037  0.50057173
   0.83360606  0.83169979  0.40212875
   0.74802825  0.24972842  0.59781403
   0.24988983  0.74830956  0.59780412
   0.41807421  0.41636345  0.50006820
   0.49991792  0.00091181  0.59668773
   0.41942335  0.16547023  0.50110795
   0.66485551  0.91997295  0.50005024
   0.16659816  0.91747236  0.49956474
   0.33341957  0.83134720  0.40224650
   0.25044129  0.49994034  0.59747029
   0.33006295  0.58412190  0.40248584
   0.25404188  0.25002136  0.59779385
   0.33283360  0.33502808  0.40314035
   0.00133850  0.74865208  0.59837213
   0.08446240  0.83056647  0.40211977
   0.08341835  0.58561799  0.40208138
   0.91562300  0.41784247  0.49956026
   0.49729711  0.25076720  0.59689260
   0.74857063  0.75174130  0.59764892
Direct configuration=     6
   0.08460095  0.07933517  0.39770838
   0.49794594  0.49938723  0.60121094
   0.58069419  0.33456677  0.39880943
   0.41724143  0.91753971  0.49984895
   0.58533289  0.08079223  0.39879336
   0.66385617  0.16826619  0.50062178
   0.74817941 -0.00083492  0.60230129
   0.16766388  0.66649919  0.50018292
   0.83273079  0.33439178  0.39852114
   0.16938652  0.41490649  0.49999670
   0.41652472  0.66601444  0.50007227
   0.25314002 -0.00242616  0.60268830
   0.16726158  0.16728702  0.50083057
   0.58137006  0.58638568  0.39778356
   0.91613942  0.91698180  0.49872883
   0.66759391  0.66598580  0.50000017
   0.91504376  0.16818534  0.49990252
   0.00125401  0.50175076  0.60234918
   0.91578623  0.66669452  0.49953441
   0.74831557  0.50148660  0.60126563
   0.00020506  0.25084868  0.60255010
   0.33472397  0.08235386  0.39726582
   0.00080886 -0.00265191  0.60259275
   0.08290784  0.33678217  0.39717857
   0.83332288  0.58619444  0.40163918
   0.58533951  0.83170629  0.40215555
   0.83400121  0.08061205  0.40145735
   0.50053982  0.75025679  0.59854602
   0.66546567  0.41754406  0.50036249
   0.83388480  0.83156165  0.40165457
   0.74851518  0.24940699  0.59800389
   0.24998460  0.74845702  0.59797186
   0.41844079  0.41627579  0.50000646
   0.49980369  0.00058222  0.59713259
   0.41819309  0.16591035  0.50048853
   0.66581889  0.91879137  0.50002274
   0.16647124  0.91764351  0.49983879
   0.33343429  0.83155358  0.40208122
   0.25025077  0.49995152  0.59783183
   0.33033038  0.58431150  0.40216409
   0.25317403  0.25014275  0.59807896
   0.33287218  0.33445873  0.40291667
   0.00079739  0.74919777  0.59854019
   0.08434911  0.83067132  0.40179874
   0.08331289  0.58537932  0.40169246
   0.91637337  0.41685352  0.49974104
   0.49772917  0.25062254  0.59738430
   0.74888787  0.75138649  0.59775291
Direct configuration=     7
   0.08452459  0.07973701  0.39758032
   0.49803012  0.49942702  0.60140739
   0.58091706  0.33450539  0.39865300
   0.41695739  0.91771457  0.49978877
   0.58518403  0.08094903  0.39860801
   0.66420138  0.16835374  0.50054469
   0.74840304 -0.00084839  0.60248981
   0.16788637  0.66693464  0.50023865
   0.83276934  0.33425114  0.39838523
   0.16923281  0.41442330  0.50000572
   0.41610673  0.66630317  0.50008720
   0.25292753 -0.00228030  0.60289135
   0.16703630  0.16743382  0.50074976
   0.58146471  0.58614736  0.39758214
   0.91608825  0.91723311  0.49890745
   0.66786157  0.66605834  0.50000079
   0.91510715  0.16841132  0.49992216
   0.00114583  0.50163442  0.60250058
   0.91539653  0.66670143  0.49966469
   0.74854447  0.50130366  0.60142486
   0.00027283  0.25075765  0.60270308
   0.33452248  0.08244940  0.39708718
   0.00070878 -0.00247570  0.60272425
   0.08302798  0.33642016  0.39701076
   0.83330491  0.58608885  0.40153792
   0.58522704  0.83179937  0.40207722
   0.83397164  0.08082673  0.40138245
   0.50046287  0.75023041  0.59862906
   0.66584978  0.41716496  0.50029207
   0.83397862  0.83151515  0.40149497
   0.74867908  0.24929880  0.59806780
   0.25001649  0.74850665  0.59802832
   0.41856418  0.41624628  0.49998568
   0.49976524  0.00047129  0.59728232
   0.41777900  0.16605849  0.50028004
   0.66614315  0.91839366  0.50001349
   0.16642853  0.91770112  0.49993103
   0.33343924  0.83162304  0.40202559
   0.25018665  0.49995528  0.59795352
   0.33042039  0.58437532  0.40205579
   0.25288193  0.25018360  0.59817493
   0.33288517  0.33426710  0.40284138
   0.00061526  0.74938145  0.59859675
   0.08431098  0.83070661  0.40169069
   0.08327740  0.58529899  0.40156156
   0.91662594  0.41652065  0.49980188
   0.49787460  0.25057385  0.59754980
   0.74899464  0.75126706  0.59778791
Direct configuration=     8
   0.08429624  0.07954625  0.39739092
   0.49842192  0.49916274  0.60165735
   0.58082386  0.33453992  0.39837450
   0.41721667  0.91781037  0.49976727
   0.58497092  0.08090413  0.39832841
   0.66367820  0.16867967  0.50047937
   0.74803418 -0.00076247  0.60281686
   0.16780324  0.66698611  0.50022922
   0.83285069  0.33432929  0.39818423
   0.16954874  0.41483678  0.50000917
   0.41592859  0.66665061  0.50008461
   0.25284905 -0.00228312  0.60323830
   0.16703509  0.16711293  0.50069185
   0.58166100  0.58590927  0.39728899
   0.91646905  0.91693390  0.49904849
   0.66784645  0.66621427  0.49993989
   0.91520375  0.16882393  0.49994778
   0.00112908  0.50153186  0.60278133
   0.91553404  0.66681503  0.49971168
   0.74876960  0.50082478  0.60162459
   0.00020796  0.25063349  0.60304046
   0.33485542  0.08211493  0.39665379
   0.00095828 -0.00239463  0.60300828
   0.08280306  0.33663081  0.39667136
   0.83350095  0.58565549  0.40152982
   0.58500802  0.83206250  0.40204613
   0.83440173  0.08068123  0.40137495
   0.50030048  0.75036581  0.59862828
   0.66643130  0.41700337  0.50020291
   0.83411056  0.83160245  0.40146056
   0.74870434  0.24955113  0.59807965
   0.24984961  0.74878018  0.59811988
   0.41823477  0.41594560  0.50000227
   0.49982583  0.00034645  0.59732035
   0.41790603  0.16623747  0.50002562
   0.66596818  0.91815710  0.49998500
   0.16623950  0.91775517  0.50005528
   0.33314591  0.83193731  0.40202729
   0.25009804  0.49982116  0.59798323
   0.33054572  0.58429476  0.40197435
   0.25284381  0.25014269  0.59819492
   0.33288000  0.33438517  0.40278468
   0.00059442  0.74942906  0.59865469
   0.08404306  0.83141160  0.40174090
   0.08331988  0.58478313  0.40160572
   0.91632372  0.41646025  0.49986859
   0.49799464  0.25026068  0.59752982
   0.74883444  0.75137939  0.59783642
Direct configuration=     9
   0.08416477  0.07943642  0.39728187
   0.49864749  0.49901059  0.60180126
   0.58077021  0.33455980  0.39821415
   0.41736594  0.91786553  0.49975489
   0.58484822  0.08087828  0.39816744
   0.66337699  0.16886732  0.50044175
   0.74782182 -0.00071300  0.60300516
   0.16775538  0.66701574  0.50022379
   0.83289752  0.33437428  0.39806851
   0.16973063  0.41507483  0.50001115
   0.41582603  0.66685064  0.50008312
   0.25280387 -0.00228475  0.60343805
   0.16703439  0.16692819  0.50065852
   0.58177400  0.58577220  0.39712022
   0.91668829  0.91676163  0.49912970
   0.66783774  0.66630405  0.49990483
   0.91525937  0.16906148  0.49996253
   0.00111943  0.50147282  0.60294297
   0.91561321  0.66688043  0.49973873
   0.74889921  0.50054907  0.60173957
   0.00017061  0.25056201  0.60323471
   0.33504710  0.08192237  0.39640427
   0.00110193 -0.00234795  0.60317180
   0.08267357  0.33675209  0.39647595
   0.83361382  0.58540599  0.40152516
   0.58488192  0.83221399  0.40202824
   0.83464935  0.08059746  0.40137063
   0.50020699  0.75044376  0.59862783
   0.66676610  0.41691034  0.50015159
   0.83418653  0.83165271  0.40144075
   0.74871889  0.24969641  0.59808647
   0.24975353  0.74893767  0.59817260
   0.41804512  0.41577249  0.50001182
   0.49986071  0.00027458  0.59734224
   0.41797917  0.16634052  0.49987913
   0.66586745  0.91802091  0.49996860
   0.16613067  0.91778630  0.50012681
   0.33297702  0.83211825  0.40202828
   0.25004702  0.49974394  0.59800033
   0.33061787  0.58424837  0.40192747
   0.25282187  0.25011913  0.59820643
   0.33287702  0.33445314  0.40275203
   0.00058242  0.74945647  0.59868805
   0.08388880  0.83181749  0.40176981
   0.08334433  0.58448614  0.40163114
   0.91614973  0.41642548  0.49990699
   0.49806375  0.25008038  0.59751832
   0.74874221  0.75144406  0.59786435
Direct configuration=    10
   0.08419672  0.07936587  0.39711076
   0.49862090  0.49885873  0.60190204
   0.58073784  0.33445299  0.39796638
   0.41742003  0.91810746  0.49979346
   0.58506089  0.08078344  0.39790019
   0.66336229  0.16866223  0.50037017
   0.74761037 -0.00058796  0.60328504
   0.16785711  0.66682842  0.50016027
   0.83292662  0.33437219  0.39784413
   0.16962442  0.41530220  0.50002686
   0.41615471  0.66655556  0.50007473
   0.25297553 -0.00222827  0.60376081
   0.16738806  0.16693498  0.50061162
   0.58168673  0.58595242  0.39687472
   0.91642437  0.91707745  0.49927649
   0.66774438  0.66618127  0.49984323
   0.91516811  0.16885246  0.50000020
   0.00111623  0.50146768  0.60320370
   0.91586661  0.66677817  0.49972908
   0.74885148  0.50059036  0.60187740
   0.00030052  0.25043810  0.60363081
   0.33494108  0.08188018  0.39591534
   0.00103481 -0.00238437  0.60347292
   0.08276088  0.33664668  0.39616087
   0.83363846  0.58535194  0.40161907
   0.58496986  0.83206490  0.40200261
   0.83461539  0.08051297  0.40148780
   0.50022686  0.75036850  0.59855694
   0.66643826  0.41732530  0.50005144
   0.83427531  0.83171282  0.40154504
   0.74870684  0.24964162  0.59803376
   0.24975936  0.74887184  0.59825301
   0.41801488  0.41600749  0.50005929
   0.49973333  0.00028074  0.59726357
   0.41808840  0.16624578  0.49967266
   0.66579692  0.91831299  0.49993411
   0.16607864  0.91788047  0.50027386
   0.33285324  0.83217450  0.40209039
   0.25013960  0.49964442  0.59799574
   0.33053923  0.58435427  0.40193332
   0.25295097  0.24993055  0.59808698
   0.33281348  0.33457144  0.40266775
   0.00057660  0.74947048  0.59875611
   0.08377474  0.83203375  0.40192013
   0.08338340  0.58433068  0.40175540
   0.91618465  0.41676499  0.49997507
   0.49801032  0.24988116  0.59738193
   0.74860058  0.75137816  0.59789276
Direct configuration=    11
   0.08422651  0.07930011  0.39695124
   0.49859611  0.49871716  0.60199600
   0.58070766  0.33435340  0.39773538
   0.41747046  0.91833302  0.49982943
   0.58525917  0.08069502  0.39765104
   0.66334859  0.16847102  0.50030343
   0.74741323 -0.00047138  0.60354598
   0.16795195  0.66665378  0.50010106
   0.83295374  0.33437023  0.39763495
   0.16952540  0.41551418  0.50004150
   0.41646114  0.66628045  0.50006690
   0.25313557 -0.00217562  0.60406173
   0.16771779  0.16694131  0.50056789
   0.58160537  0.58612044  0.39664585
   0.91617831  0.91737190  0.49941335
   0.66765735  0.66606681  0.49978581
   0.91508302  0.16865759  0.50003533
   0.00111325  0.50146290  0.60344679
   0.91610286  0.66668283  0.49972010
   0.74880698  0.50062886  0.60200590
   0.00042164  0.25032258  0.60400009
   0.33484223  0.08184086  0.39545950
   0.00097224 -0.00241833  0.60375366
   0.08284227  0.33654840  0.39586711
   0.83366143  0.58530155  0.40170662
   0.58505184  0.83192591  0.40197872
   0.83458373  0.08043419  0.40159704
   0.50024538  0.75029834  0.59849086
   0.66613262  0.41771217  0.49995808
   0.83435807  0.83176886  0.40164227
   0.74869562  0.24959055  0.59798462
   0.24976480  0.74881047  0.59832798
   0.41798670  0.41622658  0.50010355
   0.49961457  0.00028648  0.59719023
   0.41819024  0.16615745  0.49948016
   0.66573117  0.91858529  0.49990195
   0.16603014  0.91796827  0.50041095
   0.33273783  0.83222694  0.40214829
   0.25022591  0.49955164  0.59799147
   0.33046592  0.58445299  0.40193879
   0.25307134  0.24975474  0.59797562
   0.33275423  0.33468174  0.40258917
   0.00057117  0.74948354  0.59881956
   0.08366840  0.83223537  0.40206027
   0.08341983  0.58418574  0.40187125
   0.91621720  0.41708152  0.50003853
   0.49796050  0.24969541  0.59725478
   0.74846854  0.75131672  0.59791924
Direct configuration=    12
   0.08424113  0.07954680  0.39685414
   0.49841752  0.49863897  0.60200548
   0.58070452  0.33438678  0.39753238
   0.41732046  0.91821290  0.49980131
   0.58530921  0.08058348  0.39735304
   0.66327974  0.16874197  0.50021518
   0.74746908 -0.00057184  0.60380530
   0.16803029  0.66703186  0.50011766
   0.83289723  0.33429511  0.39748948
   0.16951838  0.41506027  0.50005065
   0.41635071  0.66644812  0.50007077
   0.25317511 -0.00221888  0.60436408
   0.16749576  0.16739067  0.50048673
   0.58140622  0.58625346  0.39640626
   0.91607558  0.91732445  0.49968509
   0.66777480  0.66621910  0.49974155
   0.91507751  0.16904497  0.50010659
   0.00120329  0.50149724  0.60369898
   0.91578447  0.66704303  0.49981618
   0.74871199  0.50071420  0.60208005
   0.00055504  0.25024867  0.60433572
   0.33481872  0.08190100  0.39494441
   0.00087533 -0.00252161  0.60411730
   0.08302725  0.33624600  0.39557885
   0.83364700  0.58538871  0.40184242
   0.58513612  0.83187483  0.40198089
   0.83431317  0.08060569  0.40174211
   0.50023623  0.75009847  0.59838500
   0.66599474  0.41759061  0.49981257
   0.83445075  0.83160428  0.40183341
   0.74869019  0.24940690  0.59784235
   0.24987804  0.74862341  0.59834742
   0.41836276  0.41622477  0.50009560
   0.49959087  0.00027612  0.59706059
   0.41805294  0.16636271  0.49918260
   0.66595927  0.91850855  0.49988851
   0.16632497  0.91793004  0.50062856
   0.33279620  0.83215162  0.40230974
   0.25027859  0.49949538  0.59798611
   0.33038711  0.58458550  0.40196667
   0.25310195  0.24969306  0.59775311
   0.33279278  0.33454380  0.40252027
   0.00049155  0.74944453  0.59886610
   0.08368672  0.83199614  0.40231094
   0.08342266  0.58435103  0.40196056
   0.91656783  0.41684748  0.50014860
   0.49783826  0.24963123  0.59701687
   0.74847995  0.75124842  0.59786183
Direct configuration=    13
   0.08424644  0.07963631  0.39681891
   0.49835272  0.49861059  0.60200893
   0.58070338  0.33439889  0.39745872
   0.41726603  0.91816931  0.49979110
   0.58532737  0.08054301  0.39724491
   0.66325475  0.16884029  0.50018315
   0.74748934 -0.00060830  0.60389939
   0.16805871  0.66716906  0.50012368
   0.83287672  0.33426785  0.39743670
   0.16951583  0.41489557  0.50005396
   0.41631064  0.66650897  0.50007218
   0.25318945 -0.00223458  0.60447379
   0.16741520  0.16755373  0.50045728
   0.58133396  0.58630173  0.39631932
   0.91603831  0.91730724  0.49978370
   0.66781742  0.66627436  0.49972549
   0.91507551  0.16918554  0.50013245
   0.00123596  0.50150971  0.60379050
   0.91566894  0.66717373  0.49985104
   0.74867752  0.50074517  0.60210695
   0.00060345  0.25022185  0.60445751
   0.33481019  0.08192282  0.39475750
   0.00084017 -0.00255909  0.60424926
   0.08309438  0.33613627  0.39547425
   0.83364177  0.58542034  0.40189170
   0.58516670  0.83185630  0.40198168
   0.83421500  0.08066792  0.40179475
   0.50023291  0.75002595  0.59834659
   0.66594471  0.41754650  0.49975976
   0.83448438  0.83154457  0.40190276
   0.74868823  0.24934026  0.59779073
   0.24991914  0.74855553  0.59835448
   0.41849922  0.41622412  0.50009271
   0.49958228  0.00027237  0.59701355
   0.41800312  0.16643719  0.49907462
   0.66604204  0.91848070  0.49988364
   0.16643195  0.91791617  0.50070752
   0.33281738  0.83212429  0.40236832
   0.25029771  0.49947496  0.59798416
   0.33035851  0.58463358  0.40197678
   0.25311306  0.24967068  0.59767237
   0.33280676  0.33449375  0.40249527
   0.00046266  0.74943037  0.59888299
   0.08369337  0.83190933  0.40240189
   0.08342368  0.58441101  0.40199297
   0.91669506  0.41676256  0.50018854
   0.49779391  0.24960794  0.59693054
   0.74848409  0.75122363  0.59784100
Direct configuration=    14
   0.08421411  0.07966861  0.39683731
   0.49835960  0.49848055  0.60193596
   0.58055973  0.33459654  0.39725792
   0.41700072  0.91838837  0.49969082
   0.58524073  0.08042170  0.39694748
   0.66333889  0.16893021  0.50004706
   0.74755386 -0.00078705  0.60411187
   0.16799275  0.66721847  0.50027985
   0.83273614  0.33439930  0.39738429
   0.16948827  0.41514114  0.49999463
   0.41638458  0.66664461  0.50007026
   0.25308765 -0.00236283  0.60472580
   0.16714482  0.16742524  0.50032968
   0.58127745  0.58626130  0.39612216
   0.91612821  0.91760489  0.50015234
   0.66791426  0.66623055  0.49970184
   0.91539582  0.16935028  0.50021727
   0.00135347  0.50149795  0.60402172
   0.91573618  0.66712570  0.50006279
   0.74866641  0.50060161  0.60207647
   0.00059564  0.25022243  0.60473692
   0.33508703  0.08175736  0.39426058
   0.00088433 -0.00264712  0.60466817
   0.08308697  0.33616940  0.39522727
   0.83376806  0.58526811  0.40203516
   0.58508339  0.83200689  0.40198794
   0.83414045  0.08076541  0.40200398
   0.50020878  0.74982165  0.59824365
   0.66613189  0.41748809  0.49955795
   0.83448665  0.83141102  0.40212040
   0.74873575  0.24920747  0.59762313
   0.24991346  0.74847244  0.59838031
   0.41845440  0.41632098  0.49996898
   0.49965409  0.00020398  0.59678844
   0.41802814  0.16635378  0.49866367
   0.66591128  0.91869380  0.49988876
   0.16634940  0.91840963  0.50101589
   0.33279244  0.83224597  0.40256083
   0.25017132  0.49947383  0.59792241
   0.33037631  0.58457784  0.40200713
   0.25306369  0.24965005  0.59742425
   0.33287724  0.33434105  0.40243968
   0.00046295  0.74929015  0.59894552
   0.08368588  0.83186452  0.40272149
   0.08345369  0.58443462  0.40211167
   0.91669710  0.41664455  0.50031921
   0.49779961  0.24949729  0.59664042
   0.74852646  0.75121766  0.59776863
Direct configuration=    15
   0.08419232  0.07969038  0.39684972
   0.49836424  0.49839290  0.60188678
   0.58046291  0.33472976  0.39712260
   0.41682191  0.91853601  0.49962323
   0.58518233  0.08033994  0.39674701
   0.66339560  0.16899081  0.49995534
   0.74759734 -0.00090752  0.60425506
   0.16794829  0.66725177  0.50038511
   0.83264139  0.33448789  0.39734897
   0.16946969  0.41530664  0.49995464
   0.41643441  0.66673603  0.50006897
   0.25301905 -0.00244927  0.60489565
   0.16696259  0.16733865  0.50024368
   0.58123937  0.58623406  0.39598928
   0.91618880  0.91780550  0.50040078
   0.66797953  0.66620102  0.49968590
   0.91561169  0.16946130  0.50027443
   0.00143266  0.50149003  0.60417756
   0.91578150  0.66709334  0.50020550
   0.74865891  0.50050485  0.60205594
   0.00059038  0.25022282  0.60492524
   0.33527360  0.08164585  0.39392567
   0.00091409 -0.00270645  0.60495050
   0.08308197  0.33619174  0.39506082
   0.83385318  0.58516552  0.40213186
   0.58502725  0.83210838  0.40199215
   0.83409020  0.08083112  0.40214500
   0.50019251  0.74968397  0.59817428
   0.66625804  0.41744873  0.49942194
   0.83448817  0.83132102  0.40226709
   0.74876777  0.24911797  0.59751017
   0.24990963  0.74841644  0.59839771
   0.41842419  0.41638626  0.49988559
   0.49970249  0.00015789  0.59663672
   0.41804500  0.16629756  0.49838671
   0.66582316  0.91883742  0.49989221
   0.16629376  0.91874221  0.50122373
   0.33277563  0.83232797  0.40269057
   0.25008613  0.49947307  0.59788079
   0.33038830  0.58454028  0.40202759
   0.25303042  0.24963615  0.59725702
   0.33292474  0.33423814  0.40240222
   0.00046315  0.74919566  0.59898767
   0.08368084  0.83183432  0.40293689
   0.08347391  0.58445053  0.40219168
   0.91669847  0.41656502  0.50040727
   0.49780346  0.24942271  0.59644490
   0.74855501  0.75121363  0.59771985
Direct configuration=    16
   0.08420355  0.07951068  0.39697627
   0.49855661  0.49817250  0.60173573
   0.58034292  0.33465402  0.39697867
   0.41687657  0.91888308  0.49954016
   0.58537918  0.08046899  0.39655031
   0.66350336  0.16885474  0.49979726
   0.74753353 -0.00086226  0.60432260
   0.16797263  0.66729516  0.50056232
   0.83271099  0.33456944  0.39739003
   0.16943372  0.41541110  0.49984032
   0.41654303  0.66663716  0.50005161
   0.25313384 -0.00253383  0.60498197
   0.16731884  0.16746258  0.50012121
   0.58128557  0.58639041  0.39592790
   0.91628376  0.91815334  0.50068794
   0.66779841  0.66621502  0.49966471
   0.91551833  0.16927464  0.50035541
   0.00134841  0.50127442  0.60432543
   0.91602585  0.66692193  0.50040597
   0.74880195  0.50025524  0.60193458
   0.00053693  0.25024686  0.60501322
   0.33518209  0.08156013  0.39358885
   0.00091604 -0.00265911  0.60534447
   0.08306084  0.33635467  0.39497389
   0.83390305  0.58498805  0.40224836
   0.58504172  0.83194043  0.40199444
   0.83417892  0.08072641  0.40235146
   0.50017443  0.74972493  0.59810715
   0.66637947  0.41760655  0.49924892
   0.83442995  0.83146923  0.40249304
   0.74883355  0.24905541  0.59740258
   0.24981836  0.74841776  0.59846599
   0.41817736  0.41650321  0.49968512
   0.49953932  0.00012479  0.59640374
   0.41791870  0.16618008  0.49806719
   0.66566584  0.91908481  0.49986988
   0.16601625  0.91879823  0.50147732
   0.33264180  0.83246178  0.40276321
   0.25007084  0.49936836  0.59781988
   0.33035563  0.58451170  0.40207571
   0.25296063  0.24946140  0.59703468
   0.33289296  0.33423598  0.40228984
   0.00056518  0.74916126  0.59915379
   0.08357507  0.83220874  0.40325173
   0.08353485  0.58425174  0.40228483
   0.91658636  0.41689629  0.50052944
   0.49796915  0.24919231  0.59619163
   0.74850365  0.75111964  0.59771924
Direct configuration=    17
   0.08420550  0.07947950  0.39699823
   0.49859000  0.49813426  0.60170951
   0.58032210  0.33464087  0.39695370
   0.41688605  0.91894331  0.49952575