  48  48   0   0
  0.5349325E+02  0.1100258E-08  0.1100258E-08  0.2449179E-08  0.3500000E-15
  1.000000000000000E-004
  CAR 
 unknown system                          
      6.33450830     -9.68784322  301     -1.08373325      1.00000000
     -9.688  0.0000E+00  0.0000E+00
     -9.634  0.0000E+00  0.0000E+00
     -9.581  0.0000E+00  0.0000E+00
     -9.528  0.0000E+00  0.0000E+00
     -9.474  0.0000E+00  0.0000E+00
     -9.421  0.0000E+00  0.0000E+00
     -9.367  0.0000E+00  0.0000E+00
     -9.314  0.0000E+00  0.0000E+00
     -9.261  0.8315E-17  0.4441E-18
     -9.207  0.3159E-14  0.1692E-15
     -9.154  0.6861E-12  0.3681E-13
     -9.100  0.8514E-10  0.4584E-11
     -9.047  0.6047E-08  0.3276E-09
     -8.994  0.2463E-06  0.1348E-07
     -8.940  0.5766E-05  0.3214E-06
     -8.887  0.7775E-04  0.4474E-05
     -8.833  0.6053E-03  0.3680E-04
     -8.780  0.2728E-02  0.1825E-03
     -8.727  0.7140E-02  0.5638E-03
     -8.673  0.1098E-01  0.1150E-02
     -8.620  0.1064E-01  0.1719E-02
     -8.566  0.8968E-02  0.2198E-02
     -8.513  0.1019E-01  0.2742E-02
     -8.459  0.1116E-01  0.3338E-02
     -8.406  0.8001E-02  0.3765E-02
     -8.353  0.3413E-02  0.3948E-02
     -8.299  0.8968E-03  0.3996E-02
     -8.246  0.4997E-03  0.4022E-02
     -8.192  0.1792E-02  0.4118E-02
     -8.139  0.5066E-02  0.4389E-02
     -8.086  0.8907E-02  0.4864E-02
     -8.032  0.1038E-01  0.5419E-02
     -7.979  0.9988E-02  0.5952E-02
     -7.925  0.1202E-01  0.6594E-02
     -7.872  0.1799E-01  0.7555E-02
     -7.819  0.2406E-01  0.8840E-02
     -7.765  0.2559E-01  0.1021E-01
     -7.712  0.2135E-01  0.1135E-01
     -7.658  0.1582E-01  0.1219E-01
     -7.605  0.1397E-01  0.1294E-01
     -7.552  0.1472E-01  0.1372E-01
     -7.498  0.1513E-01  0.1453E-01
     -7.445  0.1470E-01  0.1532E-01
     -7.391  0.1444E-01  0.1609E-01
     -7.338  0.1497E-01  0.1689E-01
     -7.284  0.1559E-01  0.1772E-01
     -7.231  0.1787E-01  0.1867E-01
     -7.178  0.2379E-01  0.1995E-01
     -7.124  0.2939E-01  0.2151E-01
     -7.071  0.3182E-01  0.2321E-01
     -7.017  0.3743E-01  0.2521E-01
     -6.964  0.5197E-01  0.2799E-01
     -6.911  0.7013E-01  0.3173E-01
     -6.857  0.8423E-01  0.3623E-01
     -6.804  0.9433E-01  0.4127E-01
     -6.750  0.1031E+00  0.4678E-01
     -6.697  0.1082E+00  0.5256E-01
     -6.644  0.1056E+00  0.5820E-01
     -6.590  0.9766E-01  0.6342E-01
     -6.537  0.9058E-01  0.6825E-01
     -6.483  0.8812E-01  0.7296E-01
     -6.430  0.9168E-01  0.7786E-01
     -6.377  0.1001E+00  0.8320E-01
     -6.323  0.1093E+00  0.8904E-01
     -6.270  0.1182E+00  0.9535E-01
     -6.216  0.1283E+00  0.1022E+00
     -6.163  0.1363E+00  0.1095E+00
     -6.110  0.1407E+00  0.1170E+00
     -6.056  0.1456E+00  0.1248E+00
     -6.003  0.1527E+00  0.1329E+00
     -5.949  0.1590E+00  0.1414E+00
     -5.896  0.1615E+00  0.1500E+00
     -5.842  0.1593E+00  0.1586E+00
     -5.789  0.1566E+00  0.1669E+00
     -5.736  0.1577E+00  0.1753E+00
     -5.682  0.1597E+00  0.1839E+00
     -5.629  0.1569E+00  0.1922E+00
     -5.575  0.1494E+00  0.2002E+00
     -5.522  0.1460E+00  0.2080E+00
     -5.469  0.1535E+00  0.2162E+00
     -5.415  0.1647E+00  0.2250E+00
     -5.362  0.1666E+00  0.2339E+00
     -5.308  0.1585E+00  0.2424E+00
     -5.255  0.1504E+00  0.2504E+00
     -5.202  0.1493E+00  0.2584E+00
     -5.148  0.1542E+00  0.2666E+00
     -5.095  0.1597E+00  0.2752E+00
     -5.041  0.1616E+00  0.2838E+00
     -4.988  0.1621E+00  0.2924E+00
     -4.935  0.1656E+00  0.3013E+00
     -4.881  0.1711E+00  0.3104E+00
     -4.828  0.1753E+00  0.3198E+00
     -4.774  0.1759E+00  0.3292E+00
     -4.721  0.1725E+00  0.3384E+00
     -4.668  0.1685E+00  0.3474E+00
     -4.614  0.1673E+00  0.3563E+00
     -4.561  0.1698E+00  0.3654E+00
     -4.507  0.1754E+00  0.3748E+00
     -4.454  0.1809E+00  0.3844E+00
     -4.400  0.1821E+00  0.3941E+00
     -4.347  0.1802E+00  0.4038E+00
     -4.294  0.1785E+00  0.4133E+00
     -4.240  0.1777E+00  0.4228E+00
     -4.187  0.1778E+00  0.4323E+00
     -4.133  0.1810E+00  0.4420E+00
     -4.080  0.1860E+00  0.4519E+00
     -4.027  0.1888E+00  0.4620E+00
     -3.973  0.1901E+00  0.4721E+00
     -3.920  0.1922E+00  0.4824E+00
     -3.866  0.1931E+00  0.4927E+00
     -3.813  0.1927E+00  0.5030E+00
     -3.760  0.1950E+00  0.5134E+00
     -3.706  0.1996E+00  0.5241E+00
     -3.653  0.2035E+00  0.5349E+00
     -3.599  0.2058E+00  0.5459E+00
     -3.546  0.2076E+00  0.5570E+00
     -3.493  0.2092E+00  0.5682E+00
     -3.439  0.2094E+00  0.5794E+00
     -3.386  0.2063E+00  0.5904E+00
     -3.332  0.2001E+00  0.6011E+00
     -3.279  0.1932E+00  0.6114E+00
     -3.225  0.1884E+00  0.6215E+00
     -3.172  0.1858E+00  0.6314E+00
     -3.119  0.1829E+00  0.6412E+00
     -3.065  0.1782E+00  0.6507E+00
     -3.012  0.1713E+00  0.6598E+00
     -2.958  0.1648E+00  0.6686E+00
     -2.905  0.1631E+00  0.6773E+00
     -2.852  0.1655E+00  0.6862E+00
     -2.798  0.1686E+00  0.6952E+00
     -2.745  0.1707E+00  0.7043E+00
     -2.691  0.1722E+00  0.7135E+00
     -2.638  0.1751E+00  0.7228E+00
     -2.585  0.1785E+00  0.7324E+00
     -2.531  0.1797E+00  0.7420E+00
     -2.478  0.1796E+00  0.7516E+00
     -2.424  0.1807E+00  0.7612E+00
     -2.371  0.1825E+00  0.7710E+00
     -2.318  0.1844E+00  0.7808E+00
     -2.264  0.1869E+00  0.7908E+00
     -2.211  0.1889E+00  0.8009E+00
     -2.157  0.1889E+00  0.8110E+00
     -2.104  0.1878E+00  0.8210E+00
     -2.051  0.1889E+00  0.8311E+00
     -1.997  0.1947E+00  0.8415E+00
     -1.944  0.2024E+00  0.8523E+00
     -1.890  0.2063E+00  0.8633E+00
     -1.837  0.2036E+00  0.8742E+00
     -1.783  0.1974E+00  0.8847E+00
     -1.730  0.1943E+00  0.8951E+00
     -1.677  0.1957E+00  0.9056E+00
     -1.623  0.1965E+00  0.9161E+00
     -1.570  0.1967E+00  0.9266E+00
     -1.516  0.2002E+00  0.9373E+00
     -1.463  0.2046E+00  0.9482E+00
     -1.410  0.2027E+00  0.9590E+00
     -1.356  0.1919E+00  0.9693E+00
     -1.303  0.1754E+00  0.9786E+00
     -1.249  0.1582E+00  0.9871E+00
     -1.196  0.1432E+00  0.9947E+00
     -1.143  0.1283E+00  0.1002E+01
     -1.089  0.1102E+00  0.1007E+01
     -1.036  0.8917E-01  0.1012E+01
     -0.982  0.6625E-01  0.1016E+01
     -0.929  0.4341E-01  0.1018E+01
     -0.876  0.2627E-01  0.1019E+01
     -0.822  0.1886E-01  0.1020E+01
     -0.769  0.1848E-01  0.1021E+01
     -0.715  0.1937E-01  0.1023E+01
     -0.662  0.2089E-01  0.1024E+01
     -0.609  0.2558E-01  0.1025E+01
     -0.555  0.3180E-01  0.1027E+01
     -0.502  0.3524E-01  0.1029E+01
     -0.448  0.3543E-01  0.1030E+01
     -0.395  0.3537E-01  0.1032E+01
     -0.341  0.3536E-01  0.1034E+01
     -0.288  0.3583E-01  0.1036E+01
     -0.235  0.3978E-01  0.1038E+01
     -0.181  0.4369E-01  0.1041E+01
     -0.128  0.3992E-01  0.1043E+01
     -0.074  0.3101E-01  0.1044E+01
     -0.021  0.2599E-01  0.1046E+01
      0.032  0.2710E-01  0.1047E+01
      0.086  0.3151E-01  0.1049E+01
      0.139  0.3591E-01  0.1051E+01
      0.193  0.3529E-01  0.1053E+01
      0.246  0.3006E-01  0.1054E+01
      0.299  0.2911E-01  0.1056E+01
      0.353  0.3511E-01  0.1058E+01
      0.406  0.4001E-01  0.1060E+01
      0.460  0.3898E-01  0.1062E+01
      0.513  0.3662E-01  0.1064E+01
      0.566  0.3821E-01  0.1066E+01
      0.620  0.4192E-01  0.1068E+01
      0.673  0.4347E-01  0.1071E+01
      0.727  0.4304E-01  0.1073E+01
      0.780  0.4162E-01  0.1075E+01
      0.834  0.3639E-01  0.1077E+01
      0.887  0.2720E-01  0.1078E+01
      0.940  0.1943E-01  0.1079E+01
      0.994  0.1686E-01  0.1080E+01
      1.047  0.1827E-01  0.1081E+01
      1.101  0.2022E-01  0.1082E+01
      1.154  0.2129E-01  0.1084E+01
      1.207  0.2101E-01  0.1085E+01
      1.261  0.1880E-01  0.1086E+01
      1.314  0.1591E-01  0.1087E+01
      1.368  0.1478E-01  0.1087E+01
      1.421  0.1754E-01  0.1088E+01
      1.474  0.2392E-01  0.1090E+01
      1.528  0.3014E-01  0.1091E+01
      1.581  0.3233E-01  0.1093E+01
      1.635  0.3034E-01  0.1095E+01
      1.688  0.2888E-01  0.1096E+01
      1.741  0.3260E-01  0.1098E+01
      1.795  0.3795E-01  0.1100E+01
      1.848  0.3661E-01  0.1102E+01
      1.902  0.2723E-01  0.1103E+01
      1.955  0.1800E-01  0.1104E+01
      2.008  0.1532E-01  0.1105E+01
      2.062  0.1687E-01  0.1106E+01
      2.115  0.2038E-01  0.1107E+01
      2.169  0.2618E-01  0.1108E+01
      2.222  0.3189E-01  0.1110E+01
      2.276  0.3602E-01  0.1112E+01
      2.329  0.4118E-01  0.1114E+01
      2.382  0.4772E-01  0.1117E+01
      2.436  0.5084E-01  0.1119E+01
      2.489  0.4917E-01  0.1122E+01
      2.543  0.4662E-01  0.1125E+01
      2.596  0.4476E-01  0.1127E+01
      2.649  0.4336E-01  0.1129E+01
      2.703  0.4373E-01  0.1132E+01
      2.756  0.4335E-01  0.1134E+01
      2.810  0.3682E-01  0.1136E+01
      2.863  0.2542E-01  0.1137E+01
      2.916  0.1652E-01  0.1138E+01
      2.970  0.1375E-01  0.1139E+01
      3.023  0.1358E-01  0.1140E+01
      3.077  0.1375E-01  0.1140E+01
      3.130  0.1624E-01  0.1141E+01
      3.183  0.2155E-01  0.1142E+01
      3.237  0.2661E-01  0.1144E+01
      3.290  0.2651E-01  0.1145E+01
      3.344  0.2110E-01  0.1146E+01
      3.397  0.1552E-01  0.1147E+01
      3.450  0.1290E-01  0.1148E+01
      3.504  0.1462E-01  0.1149E+01
      3.557  0.2120E-01  0.1150E+01
      3.611  0.2958E-01  0.1151E+01
      3.664  0.3509E-01  0.1153E+01
      3.718  0.3677E-01  0.1155E+01
      3.771  0.3776E-01  0.1157E+01
      3.824  0.3721E-01  0.1159E+01
      3.878  0.3192E-01  0.1161E+01
      3.931  0.2564E-01  0.1162E+01
      3.985  0.2432E-01  0.1164E+01
      4.038  0.2667E-01  0.1165E+01
      4.091  0.2682E-01  0.1166E+01
      4.145  0.2438E-01  0.1168E+01
      4.198  0.2347E-01  0.1169E+01
      4.252  0.2331E-01  0.1170E+01
      4.305  0.2029E-01  0.1171E+01
      4.358  0.1686E-01  0.1172E+01
      4.412  0.1834E-01  0.1173E+01
      4.465  0.2406E-01  0.1174E+01
      4.519  0.3100E-01  0.1176E+01
      4.572  0.3965E-01  0.1178E+01
      4.625  0.4910E-01  0.1181E+01
      4.679  0.5411E-01  0.1184E+01
      4.732  0.5318E-01  0.1187E+01
      4.786  0.5049E-01  0.1189E+01
      4.839  0.4936E-01  0.1192E+01
      4.892  0.5217E-01  0.1195E+01
      4.946  0.5968E-01  0.1198E+01
      4.999  0.6931E-01  0.1202E+01
      5.053  0.7695E-01  0.1206E+01
      5.106  0.7715E-01  0.1210E+01
      5.160  0.6847E-01  0.1214E+01
      5.213  0.5837E-01  0.1217E+01
      5.266  0.5188E-01  0.1219E+01
      5.320  0.4285E-01  0.1222E+01
      5.373  0.2726E-01  0.1223E+01
      5.427  0.1196E-01  0.1224E+01
      5.480  0.3420E-02  0.1224E+01
      5.533  0.6170E-03  0.1224E+01
      5.587  0.6845E-04  0.1224E+01
      5.640  0.4579E-05  0.1224E+01
      5.694  0.1819E-06  0.1224E+01
      5.747  0.4241E-08  0.1224E+01
      5.800  0.5755E-10  0.1224E+01
      5.854  0.4515E-12  0.1224E+01
      5.907  0.2036E-14  0.1224E+01
      5.961  0.5543E-17  0.1224E+01
      6.014  0.0000E+00  0.1224E+01
      6.067  0.0000E+00  0.1224E+01
      6.121  0.0000E+00  0.1224E+01
      6.174  0.0000E+00  0.1224E+01
      6.228  0.0000E+00  0.1224E+01
      6.281  0.0000E+00  0.1224E+01
      6.335  0.0000E+00  0.1224E+01
