<?xml version="1.0" encoding="ISO-8859-1"?>
<modeling>
 <generator>
  <i name="program" type="string">vasp </i>
  <i name="version" type="string">5.4.1  </i>
  <i name="subversion" type="string">24Jun15 (build Mar 14 2019 10:18:33) complex                          parallel </i>
  <i name="platform" type="string">INTEL-19.0.2+OPENMPI-3.1.3 </i>
  <i name="date" type="string">2022 07 11 </i>
  <i name="time" type="string">15:39:00 </i>
 </generator>
 <incar>
  <i type="int" name="ISTART">     0</i>
  <i type="string" name="PREC">normal</i>
  <i type="string" name="ALGO"> Fast</i>
  <i type="int" name="NELM">   500</i>
  <i type="int" name="IBRION">     2</i>
  <i type="int" name="NFREE">     2</i>
  <i name="EDIFF">      0.00000100</i>
  <i name="EDIFFG">     -0.02000000</i>
  <i type="int" name="NSW">   500</i>
  <i type="int" name="ISIF">     0</i>
  <i type="int" name="ISYM">     2</i>
  <i name="ENCUT">    400.00000000</i>
  <i name="POTIM">      0.35000000</i>
  <i type="string" name="LREAL"> Auto</i>
  <i type="logical" name="LPLANE"> T  </i>
  <i type="int" name="ISMEAR">     0</i>
  <i name="SIGMA">      0.10000000</i>
  <i type="int" name="NWRITE">     1</i>
  <i type="logical" name="LWAVE"> F  </i>
  <i type="logical" name="LCHARG"> F  </i>
  <i type="logical" name="LVTOT"> F  </i>
  <i type="logical" name="LORBIT"> F  </i>
  <i type="logical" name="LAECHG"> F  </i>
  <v type="int" name="KPOINT_BSE">    -1     0     0     0</v>
  <i type="int" name="NELM">   500</i>
  <i type="string" name="GGA"> PE          ! optPBE-vdW XC-functional</i>
  <i type="int" name="VOSKOWN">     1</i>
  <i type="logical" name="LDIPOL"> T  </i>
  <i type="logical" name="LMONO"> F  </i>
  <i type="int" name="IDIPOL">     3</i>
  <v name="DIPOL">      0.00000000      0.00000000      0.50000000</v>
 </incar>
 <kpoints>
  <generation param="Monkhorst-Pack">
   <v type="int" name="divisions">       2        2        1 </v>
   <v name="usershift">      0.00000000       0.00000000       0.00000000 </v>
   <v name="genvec1">      0.50000000      -0.00000000       0.00000000 </v>
   <v name="genvec2">      0.00000000       0.50000000       0.00000000 </v>
   <v name="genvec3">      0.00000000       0.00000000       1.00000000 </v>
   <v name="shift">      0.50000000       0.50000000       0.00000000 </v>
  </generation>
  <varray name="kpointlist" >
   <v>       0.25000000       0.25000000       0.00000000 </v>
   <v>       0.00000000       0.25000000       0.00000000 </v>
   <v>      -0.25000000       0.00000000       0.00000000 </v>
   <v>      -0.25000000       0.25000000       0.00000000 </v>
   <v>       0.50000000      -0.25000000       0.00000000 </v>
   <v>      -0.25000000       0.50000000       0.00000000 </v>
  </varray>
  <varray name="weights" >
   <v>       0.16666667 </v>
   <v>       0.16666667 </v>
   <v>       0.16666667 </v>
   <v>       0.16666667 </v>
   <v>       0.16666667 </v>
   <v>       0.16666667 </v>
  </varray>
 </kpoints>
 <parameters>
  <separator name="general" >
   <i type="string" name="SYSTEM">unknown system</i>
   <i type="logical" name="LCOMPAT"> F  </i>
  </separator>
  <separator name="electronic" >
   <i type="string" name="PREC">normal</i>
   <i name="ENMAX">    400.00000000</i>
   <i name="ENAUG">    416.23000000</i>
   <i name="EDIFF">      0.00000100</i>
   <i type="int" name="IALGO">    68</i>
   <i type="int" name="IWAVPR">    11</i>
   <i type="int" name="NBANDS">   306</i>
   <i name="NELECT">    504.00000000</i>
   <i type="int" name="TURBO">     0</i>
   <i type="int" name="IRESTART">     0</i>
   <i type="int" name="NREBOOT">     0</i>
   <i type="int" name="NMIN">     0</i>
   <i name="EREF">      0.00000000</i>
   <separator name="electronic smearing" >
    <i type="int" name="ISMEAR">     0</i>
    <i name="SIGMA">      0.10000000</i>
    <i name="KSPACING">      0.50000000</i>
    <i type="logical" name="KGAMMA"> T  </i>
   </separator>
   <separator name="electronic projectors" >
    <i type="logical" name="LREAL"> T  </i>
    <v name="ROPT">     -0.00050000     -0.00050000</v>
    <i type="int" name="LMAXPAW">  -100</i>
    <i type="int" name="LMAXMIX">     2</i>
    <i type="logical" name="NLSPLINE"> F  </i>
   </separator>
   <separator name="electronic startup" >
    <i type="int" name="ISTART">     0</i>
    <i type="int" name="ICHARG">     2</i>
    <i type="int" name="INIWAV">     1</i>
   </separator>
   <separator name="electronic spin" >
    <i type="int" name="ISPIN">     1</i>
    <i type="logical" name="LNONCOLLINEAR"> F  </i>
    <v name="MAGMOM">      1.00000000      1.00000000      1.00000000      1.00000000      1.00000000      1.00000000      1.00000000      1.00000000      1.00000000      1.00000000      1.00000000      1.00000000      1.00000000      1.00000000      1.00000000      1.00000000      1.00000000      1.00000000      1.00000000      1.00000000
      1.00000000      1.00000000      1.00000000      1.00000000      1.00000000      1.00000000      1.00000000      1.00000000      1.00000000      1.00000000      1.00000000      1.00000000      1.00000000      1.00000000      1.00000000      1.00000000      1.00000000      1.00000000      1.00000000      1.00000000
      1.00000000      1.00000000      1.00000000      1.00000000      1.00000000      1.00000000      1.00000000      1.00000000</v>
    <i name="NUPDOWN">     -1.00000000</i>
    <i type="logical" name="LSORBIT"> F  </i>
    <v name="SAXIS">      0.00000000      0.00000000      1.00000000</v>
    <i type="logical" name="LSPIRAL"> F  </i>
    <v name="QSPIRAL">      0.00000000      0.00000000      0.00000000</v>
    <i type="logical" name="LZEROZ"> F  </i>
   </separator>
   <separator name="electronic exchange-correlation" >
    <i type="logical" name="LASPH"> F  </i>
    <i type="logical" name="LMETAGGA"> F  </i>
   </separator>
   <separator name="electronic convergence" >
    <i type="int" name="NELM">   500</i>
    <i type="int" name="NELMDL">    -5</i>
    <i type="int" name="NELMIN">     2</i>
    <i name="ENINI">    400.00000000</i>
    <separator name="electronic convergence detail" >
     <i type="logical" name="LDIAG"> T  </i>
     <i type="logical" name="LSUBROT"> F  </i>
     <i name="WEIMIN">      0.00100000</i>
     <i name="EBREAK">      0.00000000</i>
     <i name="DEPER">      0.30000000</i>
     <i type="int" name="NRMM">     4</i>
     <i name="TIME">      0.40000000</i>
    </separator>
   </separator>
   <separator name="electronic mixer" >
    <i name="AMIX">      0.40000000</i>
    <i name="BMIX">      1.00000000</i>
    <i name="AMIN">      0.10000000</i>
    <i name="AMIX_MAG">      1.60000000</i>
    <i name="BMIX_MAG">      1.00000000</i>
    <separator name="electronic mixer details" >
     <i type="int" name="IMIX">     4</i>
     <i type="logical" name="MIXFIRST"> F  </i>
     <i type="int" name="MAXMIX">   -45</i>
     <i name="WC">    100.00000000</i>
     <i type="int" name="INIMIX">     1</i>
     <i type="int" name="MIXPRE">     1</i>
     <i type="int" name="MREMOVE">     5</i>
    </separator>
   </separator>
   <separator name="electronic dipolcorrection" >
    <i type="logical" name="LDIPOL"> T  </i>
    <i type="logical" name="LMONO"> F  </i>
    <i type="int" name="IDIPOL">     3</i>
    <i name="EPSILON">      1.00000000</i>
    <v name="DIPOL">      0.00000000      0.00000000      0.50000000</v>
    <i name="EFIELD">      0.00000000</i>
   </separator>
  </separator>
  <separator name="grids" >
   <i type="int" name="NGX">    54</i>
   <i type="int" name="NGY">    54</i>
   <i type="int" name="NGZ">   120</i>
   <i type="int" name="NGXF">   108</i>
   <i type="int" name="NGYF">   108</i>
   <i type="int" name="NGZF">   240</i>
   <i type="logical" name="ADDGRID"> F  </i>
  </separator>
  <separator name="ionic" >
   <i type="int" name="NSW">   500</i>
   <i type="int" name="IBRION">     2</i>
   <i type="int" name="ISIF">     0</i>
   <i name="PSTRESS">      0.00000000</i>
   <i name="EDIFFG">     -0.02000000</i>
   <i type="int" name="NFREE">     2</i>
   <i name="POTIM">      0.35000000</i>
   <i name="SMASS">     -3.00000000</i>
   <i name="SCALEE">      1.00000000</i>
  </separator>
  <separator name="ionic md" >
   <i name="TEBEG">      0.00010000</i>
   <i name="TEEND">      0.00010000</i>
   <i type="int" name="NBLOCK">     1</i>
   <i type="int" name="KBLOCK">   500</i>
   <i type="int" name="NPACO">   256</i>
   <i name="APACO">     16.00000000</i>
  </separator>
  <separator name="symmetry" >
   <i type="int" name="ISYM">     2</i>
   <i name="SYMPREC">      0.00001000</i>
  </separator>
  <separator name="dos" >
   <i type="logical" name="LORBIT"> F  </i>
   <v name="RWIGS">     -1.00000000     -1.00000000</v>
   <i type="int" name="NEDOS">   301</i>
   <i name="EMIN">     10.00000000</i>
   <i name="EMAX">    -10.00000000</i>
   <i name="EFERMI">      0.00000000</i>
  </separator>
  <separator name="writing" >
   <i type="int" name="NWRITE">     1</i>
   <i type="logical" name="LWAVE"> F  </i>
   <i type="logical" name="LCHARG"> F  </i>
   <i type="logical" name="LPARD"> F  </i>
   <i type="logical" name="LVTOT"> F  </i>
   <i type="logical" name="LVHAR"> F  </i>
   <i type="logical" name="LELF"> F  </i>
   <i type="logical" name="LOPTICS"> F  </i>
   <v name="STM">      0.00000000      0.00000000      0.00000000      0.00000000      0.00000000      0.00000000      0.00000000</v>
  </separator>
  <separator name="performance" >
   <i type="int" name="NPAR">     6</i>
   <i type="int" name="NSIM">     4</i>
   <i type="int" name="NBLK">    -1</i>
   <i type="logical" name="LPLANE"> T  </i>
   <i type="logical" name="LSCALAPACK"> T  </i>
   <i type="logical" name="LSCAAWARE"> F  </i>
   <i type="logical" name="LSCALU"> F  </i>
   <i type="logical" name="LASYNC"> F  </i>
   <i type="logical" name="LORBITALREAL"> F  </i>
  </separator>
  <separator name="miscellaneous" >
   <i type="int" name="IDIOT">     3</i>
   <i type="logical" name="LMUSIC"> F  </i>
   <v name="POMASS">    196.96600000    106.42000000</v>
   <v name="DARWINR">      0.00000000      0.00000000</v>
   <v name="DARWINV">      1.00000000      1.00000000</v>
   <i type="logical" name="LCORR"> T  </i>
  </separator>
  <i type="logical" name="GGA_COMPAT"> T  </i>
  <i type="logical" name="LBERRY"> F  </i>
  <i type="int" name="ICORELEVEL">     0</i>
  <i type="logical" name="LDAU"> F  </i>
  <i type="int" name="I_CONSTRAINED_M">     0</i>
  <separator name="electronic exchange-correlation" >
   <i type="string" name="GGA">PE</i>
   <i type="int" name="VOSKOWN">     1</i>
   <i type="logical" name="LHFCALC"> F  </i>
   <i type="string" name="PRECFOCK"></i>
   <i type="logical" name="LSYMGRAD"> F  </i>
   <i type="logical" name="LHFONE"> F  </i>
   <i type="logical" name="LRHFCALC"> F  </i>
   <i type="logical" name="LTHOMAS"> F  </i>
   <i type="logical" name="LMODELHF"> F  </i>
   <i name="ENCUT4O">     -1.00000000</i>
   <i type="int" name="EXXOEP">     0</i>
   <i type="int" name="FOURORBIT">     0</i>
   <i name="AEXX">      0.00000000</i>
   <i name="HFALPHA">      0.00000000</i>
   <i name="MCALPHA">      0.00000000</i>
   <i name="ALDAX">      1.00000000</i>
   <i name="AGGAX">      1.00000000</i>
   <i name="ALDAC">      1.00000000</i>
   <i name="AGGAC">      1.00000000</i>
   <i type="int" name="NKREDX">     1</i>
   <i type="int" name="NKREDY">     1</i>
   <i type="int" name="NKREDZ">     1</i>
   <i type="logical" name="SHIFTRED"> F  </i>
   <i type="logical" name="ODDONLY"> F  </i>
   <i type="logical" name="EVENONLY"> F  </i>
   <i type="int" name="LMAXFOCK">     0</i>
   <i type="int" name="NMAXFOCKAE">     0</i>
   <i type="logical" name="LFOCKAEDFT"> F  </i>
   <i name="HFSCREEN">      0.00000000</i>
   <i name="HFSCREENC">      0.00000000</i>
   <i type="int" name="NBANDSGWLOW">     0</i>
  </separator>
  <separator name="vdW DFT" >
   <i type="logical" name="LUSE_VDW"> F  </i>
   <i name="Zab_VDW">     -0.84910000</i>
   <i name="PARAM1">      0.12340000</i>
   <i name="PARAM2">      1.00000000</i>
   <i name="PARAM3">      0.00000000</i>
  </separator>
  <separator name="model GW" >
   <i type="int" name="MODEL_GW">     0</i>
   <i name="MODEL_EPS0">     32.09595293</i>
   <i name="MODEL_ALPHA">      1.00000000</i>
  </separator>
  <separator name="linear response parameters" >
   <i type="logical" name="LEPSILON"> F  </i>
   <i type="logical" name="LRPA"> F  </i>
   <i type="logical" name="LNABLA"> F  </i>
   <i type="logical" name="LVEL"> F  </i>
   <i type="int" name="KINTER">     0</i>
   <i name="CSHIFT">      0.10000000</i>
   <i name="OMEGAMAX">     -1.00000000</i>
   <i name="DEG_THRESHOLD">      0.00200000</i>
  </separator>
  <separator name="orbital magnetization" >
   <i type="logical" name="NUCIND"> F  </i>
   <v name="MAGPOS">      0.00000000      0.00000000      0.00000000</v>
   <i type="logical" name="LNICSALL"> T  </i>
   <i type="logical" name="ORBITALMAG"> F  </i>
   <i type="logical" name="LMAGBLOCH"> F  </i>
   <i type="logical" name="LCHIMAG"> F  </i>
   <i type="logical" name="LGAUGE"> T  </i>
   <i type="int" name="MAGATOM">     0</i>
   <v name="MAGDIPOL">      0.00000000      0.00000000      0.00000000</v>
   <v name="AVECCONST">      0.00000000      0.00000000      0.00000000</v>
  </separator>
  <separator name="response functions" >
   <i type="logical" name="LADDER"> F  </i>
   <i type="logical" name="LFXC"> F  </i>
   <i type="logical" name="LHARTREE"> T  </i>
   <i type="int" name="IBSE">     0</i>
   <v type="int" name="KPOINT">    -1     0     0     0</v>
   <i type="logical" name="LTCTE"> F  </i>
   <i type="logical" name="LTETE"> F  </i>
   <i type="logical" name="LTRIPLET"> F  </i>
   <i type="logical" name="LFXCEPS"> F  </i>
   <i type="logical" name="LFXHEG"> F  </i>
   <i type="int" name="NATURALO">     0</i>
   <i type="logical" name="L2ORDER"> F  </i>
   <i type="logical" name="LUSEW"> F  </i>
   <i name="ENCUTGW">     -2.00000000</i>
   <i name="ENCUTGWSOFT">     -2.00000000</i>
   <i name="ENCUTLF">     -1.00000000</i>
   <i type="int" name="LMAXMP2">    -1</i>
   <i name="SCISSOR">      0.00000000</i>
   <i type="int" name="NOMEGA">     0</i>
   <i type="int" name="NOMEGAR">     0</i>
   <i type="int" name="NBANDSGW">    -1</i>
   <i type="int" name="NBANDSO">    -1</i>
   <i type="int" name="NBANDSV">    -1</i>
   <i type="int" name="NELM">   500</i>
   <i type="int" name="NELMHF">     1</i>
   <i type="int" name="DIM">     3</i>
   <i type="int" name="ANTIRES">     0</i>
   <i name="OMEGAMAX">    -30.00000000</i>
   <i name="OMEGAMIN">    -30.00000000</i>
   <i name="OMEGATL">   -200.00000000</i>
   <i type="int" name="OMEGAGRID">     0</i>
   <i name="CSHIFT">     -0.10000000</i>
   <i type="logical" name="SELFENERGY"> F  </i>
   <i type="logical" name="LSPECTRAL"> F  </i>
   <i type="logical" name="LSPECTRALGW"> F  </i>
   <i type="logical" name="LSINGLES"> F  </i>
   <i type="logical" name="LFERMIGW"> F  </i>
   <i type="logical" name="ODDONLYGW"> F  </i>
   <i type="logical" name="EVENONLYGW"> F  </i>
   <i type="int" name="NKREDLFX">     1</i>
   <i type="int" name="NKREDLFY">     1</i>
   <i type="int" name="NKREDLFZ">     1</i>
   <i type="int" name="MAXMEM">  1800</i>
   <i type="int" name="TELESCOPE">     0</i>
   <i type="int" name="TAUPAR">     1</i>
   <i type="int" name="OMEGAPAR">    -1</i>
   <i name="LAMBDA">      1.00000000</i>
  </separator>
  <separator name="External order field" >
   <i name="OFIELD_KAPPA">      0.00000000</i>
   <v name="OFIELD_K">      0.00000000      0.00000000      0.00000000</v>
   <i name="OFIELD_Q6_NEAR">      0.00000000</i>
   <i name="OFIELD_Q6_FAR">      0.00000000</i>
   <i name="OFIELD_A">      0.00000000</i>
  </separator>
 </parameters>
 <atominfo>
  <atoms>      48 </atoms>
  <types>       2 </types>
  <array name="atoms" >
   <dimension dim="1">ion</dimension>
   <field type="string">element</field>
   <field type="int">atomtype</field>
   <set>
    <rc><c>Au</c><c>   1</c></rc>
    <rc><c>Au</c><c>   1</c></rc>
    <rc><c>Au</c><c>   1</c></rc>
    <rc><c>Au</c><c>   1</c></rc>
    <rc><c>Au</c><c>   1</c></rc>
    <rc><c>Au</c><c>   1</c></rc>
    <rc><c>Au</c><c>   1</c></rc>
    <rc><c>Au</c><c>   1</c></rc>
    <rc><c>Au</c><c>   1</c></rc>
    <rc><c>Au</c><c>   1</c></rc>
    <rc><c>Au</c><c>   1</c></rc>
    <rc><c>Au</c><c>   1</c></rc>
    <rc><c>Au</c><c>   1</c></rc>
    <rc><c>Au</c><c>   1</c></rc>
    <rc><c>Au</c><c>   1</c></rc>
    <rc><c>Au</c><c>   1</c></rc>
    <rc><c>Au</c><c>   1</c></rc>
    <rc><c>Au</c><c>   1</c></rc>
    <rc><c>Au</c><c>   1</c></rc>
    <rc><c>Au</c><c>   1</c></rc>
    <rc><c>Au</c><c>   1</c></rc>
    <rc><c>Au</c><c>   1</c></rc>
    <rc><c>Au</c><c>   1</c></rc>
    <rc><c>Au</c><c>   1</c></rc>
    <rc><c>Pd</c><c>   2</c></rc>
    <rc><c>Pd</c><c>   2</c></rc>
    <rc><c>Pd</c><c>   2</c></rc>
    <rc><c>Pd</c><c>   2</c></rc>
    <rc><c>Pd</c><c>   2</c></rc>
    <rc><c>Pd</c><c>   2</c></rc>
    <rc><c>Pd</c><c>   2</c></rc>
    <rc><c>Pd</c><c>   2</c></rc>
    <rc><c>Pd</c><c>   2</c></rc>
    <rc><c>Pd</c><c>   2</c></rc>
    <rc><c>Pd</c><c>   2</c></rc>
    <rc><c>Pd</c><c>   2</c></rc>
    <rc><c>Pd</c><c>   2</c></rc>
    <rc><c>Pd</c><c>   2</c></rc>
    <rc><c>Pd</c><c>   2</c></rc>
    <rc><c>Pd</c><c>   2</c></rc>
    <rc><c>Pd</c><c>   2</c></rc>
    <rc><c>Pd</c><c>   2</c></rc>
    <rc><c>Pd</c><c>   2</c></rc>
    <rc><c>Pd</c><c>   2</c></rc>
    <rc><c>Pd</c><c>   2</c></rc>
    <rc><c>Pd</c><c>   2</c></rc>
    <rc><c>Pd</c><c>   2</c></rc>
    <rc><c>Pd</c><c>   2</c></rc>
   </set>
  </array>
  <array name="atomtypes" >
   <dimension dim="1">type</dimension>
   <field type="int">atomspertype</field>
   <field type="string">element</field>
   <field>mass</field>
   <field>valence</field>
   <field type="string">pseudopotential</field>
   <set>
    <rc><c>  24</c><c>Au</c><c>    196.96600000</c><c>     11.00000000</c><c>  PAW_PBE Au 04Oct2007                  </c></rc>
    <rc><c>  24</c><c>Pd</c><c>    106.42000000</c><c>     10.00000000</c><c>  PAW_PBE Pd 04Jan2005                  </c></rc>
   </set>
  </array>
 </atominfo>
 <structure name="initialpos" >
  <crystal>
   <varray name="basis" >
    <v>      11.00258152       0.00000000       0.00000000 </v>
    <v>       5.50129076       9.52851510       0.00000000 </v>
    <v>       0.00000000       0.00000000      24.49178509 </v>
   </varray>
   <i name="volume">   2567.67623402 </i>
   <varray name="rec_basis" >
    <v>       0.09088776      -0.05247407       0.00000000 </v>
    <v>       0.00000000       0.10494815       0.00000000 </v>
    <v>       0.00000000       0.00000000       0.04083002 </v>
   </varray>
  </crystal>
  <varray name="positions" >
   <v>       0.75000000       0.75000000       0.59169983 </v>
   <v>       0.41666667       0.66666667       0.50000000 </v>
   <v>       0.50000000       0.50000000       0.59169983 </v>
   <v>       0.58333333       0.83333333       0.40830017 </v>
   <v>       0.66666667       0.91666667       0.50000000 </v>
   <v>       0.33333333       0.83333333       0.40830017 </v>
   <v>       0.50000000       0.75000000       0.59169983 </v>
   <v>       0.16666667       0.66666667       0.50000000 </v>
   <v>       0.83333333       0.08333333       0.40830017 </v>
   <v>       0.66666667       0.16666667       0.50000000 </v>
   <v>       0.33333333       0.33333333       0.40830017 </v>
   <v>       0.58333333       0.33333333       0.40830017 </v>
   <v>       0.16666667       0.16666667       0.50000000 </v>
   <v>       0.83333333       0.33333333       0.40830017 </v>
   <v>       0.91666667       0.91666667       0.50000000 </v>
   <v>       0.75000000       0.25000000       0.59169983 </v>
   <v>       0.00000000       0.50000000       0.59169983 </v>
   <v>       0.83333333       0.58333333       0.40830017 </v>
   <v>       0.00000000       0.25000000       0.59169983 </v>
   <v>       0.75000000       0.50000000       0.59169983 </v>
   <v>       0.00000000       0.00000000       0.59169983 </v>
   <v>       0.91666667       0.16666667       0.50000000 </v>
   <v>       0.33333333       0.08333333       0.40830017 </v>
   <v>       0.58333333       0.58333333       0.40830017 </v>
   <v>       0.66666667       0.41666667       0.50000000 </v>
   <v>       0.75000000       0.00000000       0.59169983 </v>
   <v>       0.66666667       0.66666667       0.50000000 </v>
   <v>       0.41666667       0.91666667       0.50000000 </v>
   <v>       0.83333333       0.83333333       0.40830017 </v>
   <v>       0.08333333       0.08333333       0.40830017 </v>
   <v>       0.41666667       0.41666667       0.50000000 </v>
   <v>       0.08333333       0.33333333       0.40830017 </v>
   <v>       0.91666667       0.41666667       0.50000000 </v>
   <v>       0.08333333       0.58333333       0.40830017 </v>
   <v>       0.91666667       0.66666667       0.50000000 </v>
   <v>       0.08333333       0.83333333       0.40830017 </v>
   <v>       0.00000000       0.75000000       0.59169983 </v>
   <v>       0.25000000       0.00000000       0.59169983 </v>
   <v>       0.16666667       0.41666667       0.50000000 </v>
   <v>       0.25000000       0.25000000       0.59169983 </v>
   <v>       0.33333333       0.58333333       0.40830017 </v>
   <v>       0.25000000       0.50000000       0.59169983 </v>
   <v>       0.16666667       0.91666667       0.50000000 </v>
   <v>       0.58333333       0.08333333       0.40830017 </v>
   <v>       0.41666667       0.16666667       0.50000000 </v>
   <v>       0.50000000       0.00000000       0.59169983 </v>
   <v>       0.50000000       0.25000000       0.59169983 </v>
   <v>       0.25000000       0.75000000       0.59169983 </v>
  </varray>
 </structure>
 <calculation>
  <scstep>
   <time name="dav">    6.93    6.98</time>
   <time name="total">    6.99    7.04</time>
   <dipole>
    <v name="dipole">      0.00000000       0.00000000       0.00000074 </v>
    <i name="Tr[quadrupol]"> -10284.04749927 </i>
    <i name="Echarged">      0.00000000 </i>
    <i name="Edipol_quadrupol">      0.00000000 </i>
    <i name="Eion">      0.00000000 </i>
   </dipole>
   <energy>
    <i name="alphaZ">    805.86936440 </i>
    <i name="ewald"> 199929.24173255 </i>
    <i name="hartreedc">-242342.48322147 </i>
    <i name="XCdc">   -327.69544251 </i>
    <i name="pawpsdc">  40340.05962942 </i>
    <i name="pawaedc"> -38292.62782345 </i>
    <i name="eentropy">     -0.13506226 </i>
    <i name="bandstr">   1429.54989443 </i>
    <i name="atom">  41659.78587232 </i>
    <i name="e_fr_energy">   3201.56494344 </i>
    <i name="e_wo_entrp">   3201.70000570 </i>
    <i name="e_0_energy">   3201.63247457 </i>
   </energy>
  </scstep>
  <scstep>
   <time name="dav">    8.45    8.47</time>
   <time name="total">    8.45    8.47</time>
   <dipole>
    <v name="dipole">      0.00000000       0.00000000       0.00000074 </v>
    <i name="Tr[quadrupol]"> -10284.04749927 </i>
    <i name="Echarged">      0.00000000 </i>
    <i name="Edipol_quadrupol">      0.00000000 </i>
    <i name="Eion">      0.00000000 </i>
   </dipole>
   <energy>
    <i name="e_fr_energy">     13.53287251 </i>
    <i name="e_wo_entrp">     13.65062278 </i>
    <i name="e_0_energy">     13.59174765 </i>
   </energy>
  </scstep>
  <scstep>
   <time name="dav">    8.03    8.13</time>
   <time name="total">    8.04    8.14</time>
   <dipole>
    <v name="dipole">      0.00000000       0.00000000       0.00000074 </v>
    <i name="Tr[quadrupol]"> -10284.04749927 </i>
    <i name="Echarged">      0.00000000 </i>
    <i name="Edipol_quadrupol">      0.00000000 </i>
    <i name="Eion">      0.00000000 </i>
   </dipole>
   <energy>
    <i name="e_fr_energy">   -201.16365246 </i>
    <i name="e_wo_entrp">   -200.97540402 </i>
    <i name="e_0_energy">   -201.06952824 </i>
   </energy>
  </scstep>
  <scstep>
   <time name="dav">    8.26    8.28</time>
   <time name="total">    8.26    8.29</time>
   <dipole>
    <v name="dipole">      0.00000000       0.00000000       0.00000074 </v>
    <i name="Tr[quadrupol]"> -10284.04749927 </i>
    <i name="Echarged">      0.00000000 </i>
    <i name="Edipol_quadrupol">      0.00000000 </i>
    <i name="Eion">      0.00000000 </i>
   </dipole>
   <energy>
    <i name="e_fr_energy">   -206.94031964 </i>
    <i name="e_wo_entrp">   -206.74678109 </i>
    <i name="e_0_energy">   -206.84355036 </i>
   </energy>
  </scstep>
  <scstep>
   <time name="dav">    8.41    8.44</time>
   <time name="total">    8.66    8.68</time>
   <dipole>
    <v name="dipole">      0.00000000       0.00000000       0.00000074 </v>
    <i name="Tr[quadrupol]"> -10284.04749927 </i>
    <i name="Echarged">      0.00000000 </i>
    <i name="Edipol_quadrupol">      0.00000000 </i>
    <i name="Eion">      0.00000000 </i>
   </dipole>
   <energy>
    <i name="e_fr_energy">   -207.12507683 </i>
    <i name="e_wo_entrp">   -206.93179800 </i>
    <i name="e_0_energy">   -207.02843741 </i>
   </energy>
  </scstep>
  <scstep>
   <time name="diag">    1.24    1.24</time>
   <time name="diis">    3.40    3.41</time>
   <time name="orth">    0.30    0.30</time>
   <time name="total">    5.23    5.25</time>
   <dipole>
    <v name="dipole">      0.00000000       0.00000000       0.33378064 </v>
    <i name="Tr[quadrupol]"> -10286.14329662 </i>
    <i name="Echarged">      0.00000000 </i>
    <i name="Edipol_quadrupol">      0.00000000 </i>
    <i name="Eion">      0.00000000 </i>
   </dipole>
   <energy>
    <i name="e_fr_energy">   -200.85130315 </i>
    <i name="e_wo_entrp">   -200.61496112 </i>
    <i name="e_0_energy">   -200.73313214 </i>
   </energy>
  </scstep>
  <scstep>
   <time name="diag">    1.24    1.25</time>
   <time name="diis">    3.43    3.44</time>
   <time name="orth">    0.31    0.31</time>
   <time name="total">    5.27    5.29</time>
   <dipole>
    <v name="dipole">      0.00000000       0.00000000      -0.83779866 </v>
    <i name="Tr[quadrupol]"> -10284.26663449 </i>
    <i name="Echarged">      0.00000000 </i>
    <i name="Edipol_quadrupol">      0.00000000 </i>
    <i name="Eion">      0.00000000 </i>
   </dipole>
   <energy>
    <i name="e_fr_energy">   -206.44073086 </i>
    <i name="e_wo_entrp">   -206.25022650 </i>
    <i name="e_0_energy">   -206.34547868 </i>
   </energy>
  </scstep>
  <scstep>
   <time name="diag">    1.25    1.25</time>
   <time name="diis">    3.47    3.49</time>
   <time name="orth">    0.30    0.30</time>
   <time name="total">    5.31    5.34</time>
   <dipole>
    <v name="dipole">      0.00000000       0.00000000       1.94724720 </v>
    <i name="Tr[quadrupol]"> -10285.77748668 </i>
    <i name="Echarged">      0.00000000 </i>
    <i name="Edipol_quadrupol">      0.00000000 </i>
    <i name="Eion">      0.00000000 </i>
   </dipole>
   <energy>
    <i name="e_fr_energy">   -224.66931804 </i>
    <i name="e_wo_entrp">   -224.40446761 </i>
    <i name="e_0_energy">   -224.53689283 </i>
   </energy>
  </scstep>
  <scstep>
   <time name="diag">    1.23    1.31</time>
   <time name="diis">    3.48    3.49</time>
   <time name="orth">    0.30    0.30</time>
   <time name="total">    5.30    5.39</time>
   <dipole>
    <v name="dipole">      0.00000000       0.00000000      -0.67190065 </v>
    <i name="Tr[quadrupol]"> -10286.94312032 </i>
    <i name="Echarged">      0.00000000 </i>
    <i name="Edipol_quadrupol">      0.00000000 </i>
    <i name="Eion">      0.00000000 </i>
   </dipole>
   <energy>
    <i name="e_fr_energy">   -208.74907329 </i>
    <i name="e_wo_entrp">   -208.54031834 </i>
    <i name="e_0_energy">   -208.64469582 </i>
   </energy>
  </scstep>
  <scstep>
   <time name="diag">    1.24    1.24</time>
   <time name="diis">    3.47    3.49</time>
   <time name="orth">    0.29    0.30</time>
   <time name="total">    5.28    5.32</time>
   <dipole>
    <v name="dipole">      0.00000000       0.00000000       0.17441725 </v>
    <i name="Tr[quadrupol]"> -10285.67820927 </i>
    <i name="Echarged">      0.00000000 </i>
    <i name="Edipol_quadrupol">      0.00000000 </i>
    <i name="Eion">      0.00000000 </i>
   </dipole>
   <energy>
    <i name="e_fr_energy">   -194.38836612 </i>
    <i name="e_wo_entrp">   -194.19256102 </i>
    <i name="e_0_energy">   -194.29046357 </i>
   </energy>
  </scstep>
  <scstep>
   <time name="diag">    1.24    1.24</time>
   <time name="diis">    3.50    3.51</time>
   <time name="orth">    0.30    0.30</time>
   <time name="total">    5.32    5.34</time>
   <dipole>
    <v name="dipole">      0.00000000       0.00000000      -0.06194413 </v>
    <i name="Tr[quadrupol]"> -10286.89439812 </i>
    <i name="Echarged">      0.00000000 </i>
    <i name="Edipol_quadrupol">      0.00000000 </i>
    <i name="Eion">      0.00000000 </i>
   </dipole>
   <energy>
    <i name="e_fr_energy">   -191.33304336 </i>
    <i name="e_wo_entrp">   -191.11473275 </i>
    <i name="e_0_energy">   -191.22388805 </i>
   </energy>
  </scstep>
  <scstep>
   <time name="diag">    1.24    1.25</time>
   <time name="diis">    3.47    3.48</time>
   <time name="orth">    0.30    0.30</time>
   <time name="total">    5.31    5.33</time>
   <dipole>
    <v name="dipole">      0.00000000       0.00000000      -0.02635777 </v>
    <i name="Tr[quadrupol]"> -10287.08638571 </i>
    <i name="Echarged">      0.00000000 </i>
    <i name="Edipol_quadrupol">      0.00000000 </i>
    <i name="Eion">      0.00000000 </i>
   </dipole>
   <energy>
    <i name="e_fr_energy">   -189.62642801 </i>
    <i name="e_wo_entrp">   -189.38686864 </i>
    <i name="e_0_energy">   -189.50664832 </i>
   </energy>
  </scstep>
  <scstep>
   <time name="diag">    1.24    1.25</time>
   <time name="diis">    3.43    3.44</time>
   <time name="orth">    0.29    0.29</time>
   <time name="total">    5.26    5.28</time>
   <dipole>
    <v name="dipole">      0.00000000       0.00000000      -0.00128782 </v>
    <i name="Tr[quadrupol]"> -10287.33044343 </i>
    <i name="Echarged">      0.00000000 </i>
    <i name="Edipol_quadrupol">      0.00000000 </i>
    <i name="Eion">      0.00000000 </i>
   </dipole>
   <energy>
    <i name="e_fr_energy">   -189.48314669 </i>
    <i name="e_wo_entrp">   -189.24476534 </i>
    <i name="e_0_energy">   -189.36395602 </i>
   </energy>
  </scstep>
  <scstep>
   <time name="diag">    1.24    1.24</time>
   <time name="diis">    3.47    3.48</time>
   <time name="orth">    0.29    0.29</time>
   <time name="total">    5.29    5.31</time>
   <dipole>
    <v name="dipole">      0.00000000       0.00000000       0.05377935 </v>
    <i name="Tr[quadrupol]"> -10287.58951628 </i>
    <i name="Echarged">      0.00000000 </i>
    <i name="Edipol_quadrupol">      0.00000000 </i>
    <i name="Eion">      0.00000000 </i>
   </dipole>
   <energy>
    <i name="e_fr_energy">   -189.66124828 </i>
    <i name="e_wo_entrp">   -189.43220052 </i>
    <i name="e_0_energy">   -189.54672440 </i>
   </energy>
  </scstep>
  <scstep>
   <time name="diag">    1.24    1.24</time>
   <time name="diis">    3.48    3.49</time>
   <time name="orth">    0.29    0.29</time>
   <time name="total">    5.29    5.31</time>
   <dipole>
    <v name="dipole">      0.00000000       0.00000000       0.03390267 </v>
    <i name="Tr[quadrupol]"> -10287.67585396 </i>
    <i name="Echarged">      0.00000000 </i>
    <i name="Edipol_quadrupol">      0.00000000 </i>
    <i name="Eion">      0.00000000 </i>
   </dipole>
   <energy>
    <i name="e_fr_energy">   -189.40508311 </i>
    <i name="e_wo_entrp">   -189.18051672 </i>
    <i name="e_0_energy">   -189.29279991 </i>
   </energy>
  </scstep>
  <scstep>
   <time name="diag">    1.24    1.25</time>
   <time name="diis">    3.43    3.53</time>
   <time name="orth">    0.29    0.29</time>
   <time name="total">    5.26    5.37</time>
   <dipole>
    <v name="dipole">      0.00000000       0.00000000       0.02908897 </v>
    <i name="Tr[quadrupol]"> -10288.02477283 </i>
    <i name="Echarged">      0.00000000 </i>
    <i name="Edipol_quadrupol">      0.00000000 </i>
    <i name="Eion">      0.00000000 </i>
   </dipole>
   <energy>
    <i name="e_fr_energy">   -189.26154741 </i>
    <i name="e_wo_entrp">   -189.00765572 </i>
    <i name="e_0_energy">   -189.13460156 </i>
   </energy>
  </scstep>
  <scstep>
   <time name="diag">    1.24    1.24</time>
   <time name="diis">    3.49    3.50</time>
   <time name="orth">    0.29    0.29</time>
   <time name="total">    5.31    5.33</time>
   <dipole>
    <v name="dipole">      0.00000000       0.00000000       0.02834493 </v>
    <i name="Tr[quadrupol]"> -10288.27949153 </i>
    <i name="Echarged">      0.00000000 </i>
    <i name="Edipol_quadrupol">      0.00000000 </i>
    <i name="Eion">      0.00000000 </i>
   </dipole>
   <energy>
    <i name="e_fr_energy">   -189.18252243 </i>
    <i name="e_wo_entrp">   -188.93757775 </i>
    <i name="e_0_energy">   -189.06005009 </i>
   </energy>
  </scstep>
  <scstep>
   <time name="diag">    1.23    1.23</time>
   <time name="diis">    3.47    3.48</time>
   <time name="orth">    0.29    0.29</time>
   <time name="total">    5.28    5.29</time>
   <dipole>
    <v name="dipole">      0.00000000       0.00000000       0.01355148 </v>
    <i name="Tr[quadrupol]"> -10288.49643453 </i>
    <i name="Echarged">      0.00000000 </i>
    <i name="Edipol_quadrupol">      0.00000000 </i>
    <i name="Eion">      0.00000000 </i>
   </dipole>
   <energy>
    <i name="e_fr_energy">   -189.15690944 </i>
    <i name="e_wo_entrp">   -188.90468450 </i>
    <i name="e_0_energy">   -189.03079697 </i>
   </energy>
  </scstep>
  <scstep>
   <time name="diag">    1.25    1.25</time>
   <time name="diis">    3.51    3.52</time>
   <time name="orth">    0.29    0.29</time>
   <time name="total">    5.34    5.35</time>
   <dipole>
    <v name="dipole">      0.00000000       0.00000000       0.01261642 </v>
    <i name="Tr[quadrupol]"> -10288.60097433 </i>
    <i name="Echarged">      0.00000000 </i>
    <i name="Edipol_quadrupol">      0.00000000 </i>
    <i name="Eion">      0.00000000 </i>
   </dipole>
   <energy>
    <i name="e_fr_energy">   -189.15363056 </i>
    <i name="e_wo_entrp">   -188.90443279 </i>
    <i name="e_0_energy">   -189.02903168 </i>
   </energy>
  </scstep>
  <scstep>
   <time name="diag">    1.24    1.24</time>
   <time name="diis">    3.51    3.52</time>
   <time name="orth">    0.29    0.29</time>
   <time name="total">    5.35    5.36</time>
   <dipole>
    <v name="dipole">      0.00000000       0.00000000       0.00852880 </v>
    <i name="Tr[quadrupol]"> -10288.68799664 </i>
    <i name="Echarged">      0.00000000 </i>
    <i name="Edipol_quadrupol">      0.00000000 </i>
    <i name="Eion">      0.00000000 </i>
   </dipole>
   <energy>
    <i name="e_fr_energy">   -189.15074380 </i>
    <i name="e_wo_entrp">   -188.90221236 </i>
    <i name="e_0_energy">   -189.02647808 </i>
   </energy>
  </scstep>
  <scstep>
   <time name="diag">    1.24    1.25</time>
   <time name="diis">    3.47    3.48</time>
   <time name="orth">    0.29    0.29</time>
   <time name="total">    5.29    5.31</time>
   <dipole>
    <v name="dipole">      0.00000000       0.00000000       0.01233461 </v>
    <i name="Tr[quadrupol]"> -10288.81007182 </i>
    <i name="Echarged">      0.00000000 </i>
    <i name="Edipol_quadrupol">      0.00000000 </i>
    <i name="Eion">      0.00000000 </i>
   </dipole>
   <energy>
    <i name="e_fr_energy">   -189.14944804 </i>
    <i name="e_wo_entrp">   -188.90114148 </i>
    <i name="e_0_energy">   -189.02529476 </i>
   </energy>
  </scstep>
  <scstep>
   <time name="diag">    1.24    1.25</time>
   <time name="diis">    3.48    3.49</time>
   <time name="orth">    0.29    0.29</time>
   <time name="total">    5.30    5.32</time>
   <dipole>
    <v name="dipole">      0.00000000       0.00000000       0.01346677 </v>
    <i name="Tr[quadrupol]"> -10288.91077326 </i>
    <i name="Echarged">      0.00000000 </i>
    <i name="Edipol_quadrupol">      0.00000000 </i>
    <i name="Eion">      0.00000000 </i>
   </dipole>
   <energy>
    <i name="e_fr_energy">   -189.14841518 </i>
    <i name="e_wo_entrp">   -188.89979187 </i>
    <i name="e_0_energy">   -189.02410353 </i>
   </energy>
  </scstep>
  <scstep>
   <time name="diag">    1.24    1.24</time>
   <time name="diis">    3.46    3.47</time>
   <time name="orth">    0.29    0.29</time>
   <time name="total">    5.28    5.30</time>
   <dipole>
    <v name="dipole">      0.00000000       0.00000000       0.01146344 </v>
    <i name="Tr[quadrupol]"> -10289.01124527 </i>
    <i name="Echarged">      0.00000000 </i>
    <i name="Edipol_quadrupol">      0.00000000 </i>
    <i name="Eion">      0.00000000 </i>
   </dipole>
   <energy>
    <i name="e_fr_energy">   -189.14828369 </i>
    <i name="e_wo_entrp">   -188.89925447 </i>
    <i name="e_0_energy">   -189.02376908 </i>
   </energy>
  </scstep>
  <scstep>
   <time name="diag">    1.22    1.31</time>
   <time name="diis">    3.54    3.55</time>
   <time name="orth">    0.28    0.28</time>
   <time name="total">    5.35    5.45</time>
   <dipole>
    <v name="dipole">      0.00000000       0.00000000       0.00880485 </v>
    <i name="Tr[quadrupol]"> -10289.08640149 </i>
    <i name="Echarged">      0.00000000 </i>
    <i name="Edipol_quadrupol">      0.00000000 </i>
    <i name="Eion">      0.00000000 </i>
   </dipole>
   <energy>
    <i name="e_fr_energy">   -189.14840922 </i>
    <i name="e_wo_entrp">   -188.89927866 </i>
    <i name="e_0_energy">   -189.02384394 </i>
   </energy>
  </scstep>
  <scstep>
   <time name="diag">    1.24    1.24</time>
   <time name="diis">    3.45    3.46</time>
   <time name="orth">    0.28    0.28</time>
   <time name="total">    5.26    5.28</time>
   <dipole>
    <v name="dipole">      0.00000000       0.00000000       0.00838804 </v>
    <i name="Tr[quadrupol]"> -10289.14351572 </i>
    <i name="Echarged">      0.00000000 </i>
    <i name="Edipol_quadrupol">      0.00000000 </i>
    <i name="Eion">      0.00000000 </i>
   </dipole>
   <energy>
    <i name="e_fr_energy">   -189.14868054 </i>
    <i name="e_wo_entrp">   -188.89963100 </i>
    <i name="e_0_energy">   -189.02415577 </i>
   </energy>
  </scstep>
  <scstep>
   <time name="diag">    1.22    1.23</time>
   <time name="diis">    3.49    3.49</time>
   <time name="orth">    0.28    0.28</time>
   <time name="total">    5.28    5.30</time>
   <dipole>
    <v name="dipole">      0.00000000       0.00000000       0.00791193 </v>
    <i name="Tr[quadrupol]"> -10289.22828829 </i>
    <i name="Echarged">      0.00000000 </i>
    <i name="Edipol_quadrupol">      0.00000000 </i>
    <i name="Eion">      0.00000000 </i>
   </dipole>
   <energy>
    <i name="e_fr_energy">   -189.14919069 </i>
    <i name="e_wo_entrp">   -188.90004635 </i>
    <i name="e_0_energy">   -189.02461852 </i>
   </energy>
  </scstep>
  <scstep>
   <time name="diag">    1.23    1.23</time>
   <time name="diis">    3.51    3.52</time>
   <time name="orth">    0.28    0.28</time>
   <time name="total">    5.31    5.33</time>
   <dipole>
    <v name="dipole">      0.00000000       0.00000000       0.00744607 </v>
    <i name="Tr[quadrupol]"> -10289.29318224 </i>
    <i name="Echarged">      0.00000000 </i>
    <i name="Edipol_quadrupol">      0.00000000 </i>
    <i name="Eion">      0.00000000 </i>
   </dipole>
   <energy>
    <i name="e_fr_energy">   -189.14973950 </i>
    <i name="e_wo_entrp">   -188.90056644 </i>
    <i name="e_0_energy">   -189.02515297 </i>
   </energy>
  </scstep>
  <scstep>
   <time name="diag">    1.24    1.24</time>
   <time name="diis">    3.52    3.53</time>
   <time name="orth">    0.28    0.28</time>
   <time name="total">    5.35    5.37</time>
   <dipole>
    <v name="dipole">      0.00000000       0.00000000       0.00719891 </v>
    <i name="Tr[quadrupol]"> -10289.33252960 </i>
    <i name="Echarged">      0.00000000 </i>
    <i name="Edipol_quadrupol">      0.00000000 </i>
    <i name="Eion">      0.00000000 </i>
   </dipole>
   <energy>
    <i name="e_fr_energy">   -189.15022456 </i>
    <i name="e_wo_entrp">   -188.90107286 </i>
    <i name="e_0_energy">   -189.02564871 </i>
   </energy>
  </scstep>
  <scstep>
   <time name="diag">    1.23    1.24</time>
   <time name="diis">    3.34    3.35</time>
   <time name="orth">    0.28    0.28</time>
   <time name="total">    5.14    5.16</time>
   <dipole>
    <v name="dipole">      0.00000000       0.00000000       0.00651590 </v>
    <i name="Tr[quadrupol]"> -10289.37288584 </i>
    <i name="Echarged">      0.00000000 </i>
    <i name="Edipol_quadrupol">      0.00000000 </i>
    <i name="Eion">      0.00000000 </i>
   </dipole>
   <energy>
    <i name="e_fr_energy">   -189.15066505 </i>
    <i name="e_wo_entrp">   -188.90144655 </i>
    <i name="e_0_energy">   -189.02605580 </i>
   </energy>
  </scstep>
  <scstep>
   <time name="diag">    1.23    1.23</time>
   <time name="diis">    3.46    3.47</time>
   <time name="orth">    0.28    0.28</time>
   <time name="total">    5.26    5.28</time>
   <dipole>
    <v name="dipole">      0.00000000       0.00000000       0.00542082 </v>
    <i name="Tr[quadrupol]"> -10289.44550973 </i>
    <i name="Echarged">      0.00000000 </i>
    <i name="Edipol_quadrupol">      0.00000000 </i>
    <i name="Eion">      0.00000000 </i>
   </dipole>
   <energy>
    <i name="e_fr_energy">   -189.15143143 </i>
    <i name="e_wo_entrp">   -188.90226895 </i>
    <i name="e_0_energy">   -189.02685019 </i>
   </energy>
  </scstep>
  <scstep>
   <time name="diag">    1.23    1.23</time>
   <time name="diis">    2.89    2.99</time>
   <time name="orth">    0.28    0.28</time>
   <time name="total">    4.69    4.79</time>
   <dipole>
    <v name="dipole">      0.00000000       0.00000000       0.00509995 </v>
    <i name="Tr[quadrupol]"> -10289.46692248 </i>
    <i name="Echarged">      0.00000000 </i>
    <i name="Edipol_quadrupol">      0.00000000 </i>
    <i name="Eion">      0.00000000 </i>
   </dipole>
   <energy>
    <i name="e_fr_energy">   -189.15164399 </i>
    <i name="e_wo_entrp">   -188.90245730 </i>
    <i name="e_0_energy">   -189.02705064 </i>
   </energy>
  </scstep>
  <scstep>
   <time name="diag">    1.24    1.24</time>
   <time name="diis">    2.60    2.61</time>
   <time name="orth">    0.28    0.28</time>
   <time name="total">    4.43    4.45</time>
   <dipole>
    <v name="dipole">      0.00000000       0.00000000       0.00486707 </v>
    <i name="Tr[quadrupol]"> -10289.48287190 </i>
    <i name="Echarged">      0.00000000 </i>
    <i name="Edipol_quadrupol">      0.00000000 </i>
    <i name="Eion">      0.00000000 </i>
   </dipole>
   <energy>
    <i name="e_fr_energy">   -189.15177012 </i>
    <i name="e_wo_entrp">   -188.90260390 </i>
    <i name="e_0_energy">   -189.02718701 </i>
   </energy>
  </scstep>
  <scstep>
   <time name="diag">    1.23    1.24</time>
   <time name="diis">    2.23    2.26</time>
   <time name="orth">    0.28    0.28</time>
   <time name="total">    4.03    4.08</time>
   <dipole>
    <v name="dipole">      0.00000000       0.00000000       0.00473385 </v>
    <i name="Tr[quadrupol]"> -10289.48971960 </i>
    <i name="Echarged">      0.00000000 </i>
    <i name="Edipol_quadrupol">      0.00000000 </i>
    <i name="Eion">      0.00000000 </i>
   </dipole>
   <energy>
    <i name="e_fr_energy">   -189.15182931 </i>
    <i name="e_wo_entrp">   -188.90265198 </i>
    <i name="e_0_energy">   -189.02724065 </i>
   </energy>
  </scstep>
  <scstep>
   <time name="diag">    1.24    1.25</time>
   <time name="diis">    2.13    2.14</time>
   <time name="orth">    0.28    0.28</time>
   <time name="total">    3.94    3.96</time>
   <dipole>
    <v name="dipole">      0.00000000       0.00000000       0.00454679 </v>
    <i name="Tr[quadrupol]"> -10289.49582222 </i>
    <i name="Echarged">      0.00000000 </i>
    <i name="Edipol_quadrupol">      0.00000000 </i>
    <i name="Eion">      0.00000000 </i>
   </dipole>
   <energy>
    <i name="e_fr_energy">   -189.15188601 </i>
    <i name="e_wo_entrp">   -188.90271030 </i>
    <i name="e_0_energy">   -189.02729815 </i>
   </energy>
  </scstep>
  <scstep>
   <time name="diag">    1.23    1.23</time>
   <time name="diis">    2.17    2.17</time>
   <time name="orth">    0.28    0.28</time>
   <time name="total">    3.96    3.97</time>
   <dipole>
    <v name="dipole">      0.00000000       0.00000000       0.00432478 </v>
    <i name="Tr[quadrupol]"> -10289.50319476 </i>
    <i name="Echarged">      0.00000000 </i>
    <i name="Edipol_quadrupol">      0.00000000 </i>
    <i name="Eion">      0.00000000 </i>
   </dipole>
   <energy>
    <i name="e_fr_energy">   -189.15194765 </i>
    <i name="e_wo_entrp">   -188.90276485 </i>
    <i name="e_0_energy">   -189.02735625 </i>
   </energy>
  </scstep>
  <scstep>
   <time name="diag">    1.24    1.24</time>
   <time name="diis">    2.12    2.12</time>
   <time name="orth">    0.28    0.28</time>
   <time name="total">    3.94    3.95</time>
   <dipole>
    <v name="dipole">      0.00000000       0.00000000       0.00421462 </v>
    <i name="Tr[quadrupol]"> -10289.50661775 </i>
    <i name="Echarged">      0.00000000 </i>
    <i name="Edipol_quadrupol">      0.00000000 </i>
    <i name="Eion">      0.00000000 </i>
   </dipole>
   <energy>
    <i name="e_fr_energy">   -189.15196871 </i>
    <i name="e_wo_entrp">   -188.90278622 </i>
    <i name="e_0_energy">   -189.02737746 </i>
   </energy>
  </scstep>
  <scstep>
   <time name="diag">    1.24    1.24</time>
   <time name="diis">    2.04    2.04</time>
   <time name="orth">    0.28    0.28</time>
   <time name="total">    3.84    3.85</time>
   <dipole>
    <v name="dipole">      0.00000000       0.00000000       0.00411876 </v>
    <i name="Tr[quadrupol]"> -10289.51031847 </i>
    <i name="Echarged">      0.00000000 </i>
    <i name="Edipol_quadrupol">      0.00000000 </i>
    <i name="Eion">      0.00000000 </i>
   </dipole>
   <energy>
    <i name="e_fr_energy">   -189.15198309 </i>
    <i name="e_wo_entrp">   -188.90280085 </i>
    <i name="e_0_energy">   -189.02739197 </i>
   </energy>
  </scstep>
  <scstep>
   <time name="diag">    1.23    1.23</time>
   <time name="diis">    1.81    1.81</time>
   <time name="orth">    0.28    0.28</time>
   <time name="total">    3.60    3.62</time>
   <dipole>
    <v name="dipole">      0.00000000       0.00000000       0.00404914 </v>
    <i name="Tr[quadrupol]"> -10289.51314697 </i>
    <i name="Echarged">      0.00000000 </i>
    <i name="Edipol_quadrupol">      0.00000000 </i>
    <i name="Eion">      0.00000000 </i>
   </dipole>
   <energy>
    <i name="e_fr_energy">   -189.15198925 </i>
    <i name="e_wo_entrp">   -188.90280600 </i>
    <i name="e_0_energy">   -189.02739763 </i>
   </energy>
  </scstep>
  <scstep>
   <time name="diag">    1.23    1.23</time>
   <time name="diis">    1.68    1.68</time>
   <time name="orth">    0.28    0.28</time>
   <time name="total">    3.47    3.48</time>
   <dipole>
    <v name="dipole">      0.00000000       0.00000000       0.00399623 </v>
    <i name="Tr[quadrupol]"> -10289.51524499 </i>
    <i name="Echarged">      0.00000000 </i>
    <i name="Edipol_quadrupol">      0.00000000 </i>
    <i name="Eion">      0.00000000 </i>
   </dipole>
   <energy>
    <i name="e_fr_energy">   -189.15199094 </i>
    <i name="e_wo_entrp">   -188.90280812 </i>
    <i name="e_0_energy">   -189.02739953 </i>
   </energy>
  </scstep>
  <scstep>
   <time name="diag">    1.24    1.24</time>
   <time name="diis">    1.52    1.52</time>
   <time name="orth">    0.28    0.28</time>
   <time name="total">    3.08    3.09</time>
   <dipole>
    <v name="dipole">      0.00000000       0.00000000       0.00396440 </v>
    <i name="Tr[quadrupol]"> -10289.51675582 </i>
    <i name="Echarged">      0.00000000 </i>
    <i name="Edipol_quadrupol">      0.00000000 </i>
    <i name="Eion">      0.00000000 </i>
   </dipole>
   <energy>
    <i name="alphaZ">    805.86999121 </i>
    <i name="ewald"> 199929.24173255 </i>
    <i name="hartreedc">-242123.67523502 </i>
    <i name="XCdc">   -343.54058315 </i>
    <i name="pawpsdc">  49314.70705754 </i>
    <i name="pawaedc"> -47392.72691432 </i>
    <i name="eentropy">     -0.24918139 </i>
    <i name="bandstr">  -2038.56473127 </i>
    <i name="atom">  41659.78587232 </i>
    <i name="e_fr_energy">   -189.15199154 </i>
    <i name="e_wo_entrp">   -188.90281014 </i>
    <i name="e_0_energy">   -189.02740084 </i>
   </energy>
  </scstep>
  <structure>
   <crystal>
    <varray name="basis" >
     <v>      11.00258152       0.00000000       0.00000000 </v>
     <v>       5.50129076       9.52851510       0.00000000 </v>
     <v>       0.00000000       0.00000000      24.49178509 </v>
    </varray>
    <i name="volume">   2567.67623402 </i>
    <varray name="rec_basis" >
     <v>       0.09088776      -0.05247407       0.00000000 </v>
     <v>       0.00000000       0.10494815       0.00000000 </v>
     <v>       0.00000000       0.00000000       0.04083002 </v>
    </varray>
   </crystal>
   <varray name="positions" >
    <v>       0.75000000       0.75000000       0.59169983 </v>
    <v>       0.41666667       0.66666667       0.50000000 </v>
    <v>       0.50000000       0.50000000       0.59169983 </v>
    <v>       0.58333333       0.83333333       0.40830017 </v>
    <v>       0.66666667       0.91666667       0.50000000 </v>
    <v>       0.33333333       0.83333333       0.40830017 </v>
    <v>       0.50000000       0.75000000       0.59169983 </v>
    <v>       0.16666667       0.66666667       0.50000000 </v>
    <v>       0.83333333       0.08333333       0.40830017 </v>
    <v>       0.66666667       0.16666667       0.50000000 </v>
    <v>       0.33333333       0.33333333       0.40830017 </v>
    <v>       0.58333333       0.33333333       0.40830017 </v>
    <v>       0.16666667       0.16666667       0.50000000 </v>
    <v>       0.83333333       0.33333333       0.40830017 </v>
    <v>       0.91666667       0.91666667       0.50000000 </v>
    <v>       0.75000000       0.25000000       0.59169983 </v>
    <v>       0.00000000       0.50000000       0.59169983 </v>
    <v>       0.83333333       0.58333333       0.40830017 </v>
    <v>       0.00000000       0.25000000       0.59169983 </v>
    <v>       0.75000000       0.50000000       0.59169983 </v>
    <v>       0.00000000       0.00000000       0.59169983 </v>
    <v>       0.91666667       0.16666667       0.50000000 </v>
    <v>       0.33333333       0.08333333       0.40830017 </v>
    <v>       0.58333333       0.58333333       0.40830017 </v>
    <v>       0.66666667       0.41666667       0.50000000 </v>
    <v>       0.75000000       0.00000000       0.59169983 </v>
    <v>       0.66666667       0.66666667       0.50000000 </v>
    <v>       0.41666667       0.91666667       0.50000000 </v>
    <v>       0.83333333       0.83333333       0.40830017 </v>
    <v>       0.08333333       0.08333333       0.40830017 </v>
    <v>       0.41666667       0.41666667       0.50000000 </v>
    <v>       0.08333333       0.33333333       0.40830017 </v>
    <v>       0.91666667       0.41666667       0.50000000 </v>
    <v>       0.08333333       0.58333333       0.40830017 </v>
    <v>       0.91666667       0.66666667       0.50000000 </v>
    <v>       0.08333333       0.83333333       0.40830017 </v>
    <v>       0.00000000       0.75000000       0.59169983 </v>
    <v>       0.25000000       0.00000000       0.59169983 </v>
    <v>       0.16666667       0.41666667       0.50000000 </v>
    <v>       0.25000000       0.25000000       0.59169983 </v>
    <v>       0.33333333       0.58333333       0.40830017 </v>
    <v>       0.25000000       0.50000000       0.59169983 </v>
    <v>       0.16666667       0.91666667       0.50000000 </v>
    <v>       0.58333333       0.08333333       0.40830017 </v>
    <v>       0.41666667       0.16666667       0.50000000 </v>
    <v>       0.50000000       0.00000000       0.59169983 </v>
    <v>       0.50000000       0.25000000       0.59169983 </v>
    <v>       0.25000000       0.75000000       0.59169983 </v>
   </varray>
  </structure>
  <varray name="forces" >
   <v>       0.22021985       0.27576562       1.36641733 </v>
   <v>      -0.16899480       0.03473942       0.04997612 </v>
   <v>      -0.46085942      -0.16919882       1.37275762 </v>
   <v>       0.26780661       0.15094933      -1.36367242 </v>
   <v>      -0.25410995       0.06744552       0.06078721 </v>
   <v>      -0.45263269       0.18298990      -1.35404946 </v>
   <v>      -0.13960754       0.51142785       1.33296482 </v>
   <v>      -0.17811794      -0.21537172      -0.02444244 </v>
   <v>       0.02955985      -0.42985476      -1.81594985 </v>
   <v>      -0.72041758       0.24893142       0.28350079 </v>
   <v>      -0.11103799       0.17180263      -1.17413038 </v>
   <v>      -0.27088128       0.13465510      -1.38977570 </v>
   <v>       0.30783764      -0.02852037       0.00856651 </v>
   <v>       0.35820206      -0.02053235      -1.36801237 </v>
   <v>      -0.00179186      -0.63517357      -0.04549347 </v>
   <v>      -0.41054882      -0.04476268       1.60668933 </v>
   <v>       0.44583826       0.01920201       1.13535578 </v>
   <v>       0.51232937      -0.01388715      -1.08041662 </v>
   <v>       0.40862284      -0.08169270       1.58889458 </v>
   <v>       0.02332547       0.02415810       1.16687014 </v>
   <v>       0.12710217      -0.48490052       1.62514051 </v>
   <v>       0.41153109       0.11638105      -0.31025323 </v>
   <v>      -0.01136391       0.15640171      -1.35239797 </v>
   <v>      -0.11712946      -0.08739954      -1.35286435 </v>
   <v>       0.05499783       0.17780744       0.00930040 </v>
   <v>      -0.16341556      -0.00937054       1.02291056 </v>
   <v>       0.12272261      -0.12542838       0.01381442 </v>
   <v>       0.02043114       0.20853554       0.40576162 </v>
   <v>       0.10191666      -0.08643030      -0.87766187 </v>
   <v>       0.00268154      -0.11000113      -0.85716649 </v>
   <v>      -0.31998377      -0.13516788       0.17216624 </v>
   <v>       0.04489129       0.12905683      -0.65016125 </v>
   <v>       0.18611188       0.25092483      -0.21349579 </v>
   <v>       0.02315160       0.05006054      -0.57670692 </v>
   <v>       0.14834809      -0.24846252      -0.18086382 </v>
   <v>       0.02037064      -0.09342048      -0.83392672 </v>
   <v>       0.08484389      -0.09003984       0.81245709 </v>
   <v>       0.14416500      -0.09082120       0.69562204 </v>
   <v>       0.06313879       0.03752232       0.02285925 </v>
   <v>       0.34578203      -0.07633013       0.56700186 </v>
   <v>      -0.24934196       0.00862175      -0.79888900 </v>
   <v>      -0.05924794      -0.09344635       0.61596834 </v>
   <v>       0.17218871      -0.03296538      -0.01933701 </v>
   <v>      -0.01734706      -0.06104914      -0.87935433 </v>
   <v>      -0.03763806       0.16721196       0.43012471 </v>
   <v>      -0.08884593       0.24769683       0.69244812 </v>
   <v>      -0.29264150       0.00105383       0.64215654 </v>
   <v>      -0.12216189       0.09088592       0.81850954 </v>
  </varray>
  <energy>
   <i name="e_fr_energy">   -189.15199154 </i>
   <i name="e_wo_entrp">   -189.02740084 </i>
   <i name="e_0_energy">     -0.24918139 </i>
  </energy>
  <time name="totalsc">  214.11  215.31</time>
 </calculation>
 <calculation>
  <scstep>
   <time name="dav">    7.01    7.11</time>
   <time name="total">    7.31    7.41</time>
   <dipole>
    <v name="dipole">      0.00000000       0.00000000       0.00393811 </v>
    <i name="Tr[quadrupol]"> -10283.78221531 </i>
    <i name="Echarged">      0.00000000 </i>
    <i name="Edipol_quadrupol">      0.00000000 </i>
    <i name="Eion">      0.00000000 </i>
   </dipole>
   <energy>
    <i name="alphaZ">    805.86999674 </i>
    <i name="ewald"> 197307.62141486 </i>
    <i name="hartreedc">-239517.32536513 </i>
    <i name="XCdc">   -345.67542716 </i>
    <i name="pawpsdc">  49314.70325807 </i>
    <i name="pawaedc"> -47392.72310889 </i>
    <i name="eentropy">     -0.24810580 </i>
    <i name="bandstr">  -2022.17980171 </i>
    <i name="atom">  41659.78587232 </i>
    <i name="e_fr_energy">   -190.17126670 </i>
    <i name="e_wo_entrp">   -189.92316089 </i>
    <i name="e_0_energy">   -190.04721379 </i>
   </energy>
  </scstep>
  <scstep>
   <time name="diag">    1.24    1.24</time>
   <time name="diis">    3.53    3.54</time>
   <time name="orth">    0.28    0.28</time>
   <time name="total">    5.34    5.35</time>
   <dipole>
    <v name="dipole">      0.00000000       0.00000000      -0.00057775 </v>
    <i name="Tr[quadrupol]"> -10283.52879240 </i>
    <i name="Echarged">      0.00000000 </i>
    <i name="Edipol_quadrupol">      0.00000000 </i>
    <i name="Eion">      0.00000000 </i>
   </dipole>
   <energy>
    <i name="e_fr_energy">   -190.53301446 </i>
    <i name="e_wo_entrp">   -190.28432706 </i>
    <i name="e_0_energy">   -190.40867076 </i>
   </energy>
  </scstep>
  <scstep>
   <time name="diag">    1.23    1.23</time>
   <time name="diis">    3.48    3.49</time>
   <time name="orth">    0.28    0.28</time>
   <time name="total">    5.27    5.29</time>
   <dipole>
    <v name="dipole">      0.00000000       0.00000000       0.02889884 </v>
    <i name="Tr[quadrupol]"> -10283.98131625 </i>
    <i name="Echarged">      0.00000000 </i>
    <i name="Edipol_quadrupol">      0.00000000 </i>
    <i name="Eion">      0.00000000 </i>
   </dipole>
   <energy>
    <i name="e_fr_energy">   -190.66362881 </i>
    <i name="e_wo_entrp">   -190.43195597 </i>
    <i name="e_0_energy">   -190.54779239 </i>
   </energy>
  </scstep>
  <scstep>
   <time name="diag">    1.23    1.23</time>
   <time name="diis">    3.59    3.60</time>
   <time name="orth">    0.28    0.28</time>
   <time name="total">    5.39    5.40</time>
   <dipole>
    <v name="dipole">      0.00000000       0.00000000      -0.00962855 </v>
    <i name="Tr[quadrupol]"> -10283.89379481 </i>
    <i name="Echarged">      0.00000000 </i>
    <i name="Edipol_quadrupol">      0.00000000 </i>
    <i name="Eion">      0.00000000 </i>
   </dipole>
   <energy>
    <i name="e_fr_energy">   -190.51037497 </i>
    <i name="e_wo_entrp">   -190.25892615 </i>
    <i name="e_0_energy">   -190.38465056 </i>
   </energy>
  </scstep>
  <scstep>
   <time name="diag">    1.22    1.23</time>
   <time name="diis">    3.51    3.52</time>
   <time name="orth">    0.28    0.28</time>
   <time name="total">    5.31    5.33</time>
   <dipole>
    <v name="dipole">      0.00000000       0.00000000       0.06361835 </v>
    <i name="Tr[quadrupol]"> -10283.85148878 </i>
    <i name="Echarged">      0.00000000 </i>
    <i name="Edipol_quadrupol">      0.00000000 </i>
    <i name="Eion">      0.00000000 </i>
   </dipole>
   <energy>
    <i name="e_fr_energy">   -190.58891348 </i>
    <i name="e_wo_entrp">   -190.35248150 </i>
    <i name="e_0_energy">   -190.47069749 </i>
   </energy>
  </scstep>
  <scstep>
   <time name="diag">    1.24    1.24</time>
   <time name="diis">    3.52    3.53</time>
   <time name="orth">    0.28    0.28</time>
   <time name="total">    5.32    5.34</time>
   <dipole>
    <v name="dipole">      0.00000000       0.00000000      -0.02125652 </v>
    <i name="Tr[quadrupol]"> -10283.86413180 </i>
    <i name="Echarged">      0.00000000 </i>
    <i name="Edipol_quadrupol">      0.00000000 </i>
    <i name="Eion">      0.00000000 </i>
   </dipole>
   <energy>
    <i name="e_fr_energy">   -190.51229888 </i>
    <i name="e_wo_entrp">   -190.26225507 </i>
    <i name="e_0_energy">   -190.38727697 </i>
   </energy>
  </scstep>
  <scstep>
   <time name="diag">    1.23    1.23</time>
   <time name="diis">    3.51    3.52</time>
   <time name="orth">    0.28    0.28</time>
   <time name="total">    5.30    5.33</time>
   <dipole>
    <v name="dipole">      0.00000000       0.00000000       0.01202185 </v>
    <i name="Tr[quadrupol]"> -10283.84810489 </i>
    <i name="Echarged">      0.00000000 </i>
    <i name="Edipol_quadrupol">      0.00000000 </i>
    <i name="Eion">      0.00000000 </i>
   </dipole>
   <energy>
    <i name="e_fr_energy">   -190.50116813 </i>
    <i name="e_wo_entrp">   -190.25268275 </i>
    <i name="e_0_energy">   -190.37692544 </i>
   </energy>
  </scstep>
  <scstep>
   <time name="diag">    1.23    1.23</time>
   <time name="diis">    3.43    3.53</time>
   <time name="orth">    0.28    0.28</time>
   <time name="total">    5.22    5.33</time>
   <dipole>
    <v name="dipole">      0.00000000       0.00000000       0.00413840 </v>
    <i name="Tr[quadrupol]"> -10283.82582238 </i>
    <i name="Echarged">      0.00000000 </i>
    <i name="Edipol_quadrupol">      0.00000000 </i>
    <i name="Eion">      0.00000000 </i>
   </dipole>
   <energy>
    <i name="e_fr_energy">   -190.49884620 </i>
    <i name="e_wo_entrp">   -190.24946980 </i>
    <i name="e_0_energy">   -190.37415800 </i>
   </energy>
  </scstep>
  <scstep>
   <time name="diag">    1.24    1.24</time>
   <time name="diis">    3.47    3.48</time>
   <time name="orth">    0.29    0.29</time>
   <time name="total">    5.29    5.31</time>
   <dipole>
    <v name="dipole">      0.00000000       0.00000000       0.00300019 </v>
    <i name="Tr[quadrupol]"> -10283.81200659 </i>
    <i name="Echarged">      0.00000000 </i>
    <i name="Edipol_quadrupol">      0.00000000 </i>
    <i name="Eion">      0.00000000 </i>
   </dipole>
   <energy>
    <i name="e_fr_energy">   -190.49814037 </i>
    <i name="e_wo_entrp">   -190.24801890 </i>
    <i name="e_0_energy">   -190.37307963 </i>
   </energy>
  </scstep>
  <scstep>
   <time name="diag">    1.23    1.24</time>
   <time name="diis">    3.48    3.49</time>
   <time name="orth">    0.28    0.28</time>
   <time name="total">    5.28    5.30</time>
   <dipole>
    <v name="dipole">      0.00000000       0.00000000       0.00470831 </v>
    <i name="Tr[quadrupol]"> -10283.80794639 </i>
    <i name="Echarged">      0.00000000 </i>
    <i name="Edipol_quadrupol">      0.00000000 </i>
    <i name="Eion">      0.00000000 </i>
   </dipole>
   <energy>
    <i name="e_fr_energy">   -190.49794877 </i>
    <i name="e_wo_entrp">   -190.24903702 </i>
    <i name="e_0_energy">   -190.37349290 </i>
   </energy>
  </scstep>
  <scstep>
   <time name="diag">    1.24    1.24</time>
   <time name="diis">    3.49    3.50</time>
   <time name="orth">    0.28    0.28</time>
   <time name="total">    5.30    5.32</time>
   <dipole>
    <v name="dipole">      0.00000000       0.00000000       0.00384386 </v>
    <i name="Tr[quadrupol]"> -10283.80725019 </i>
    <i name="Echarged">      0.00000000 </i>
    <i name="Edipol_quadrupol">      0.00000000 </i>
    <i name="Eion">      0.00000000 </i>
   </dipole>
   <energy>
    <i name="e_fr_energy">   -190.49782751 </i>
    <i name="e_wo_entrp">   -190.24816395 </i>
    <i name="e_0_energy">   -190.37299573 </i>
   </energy>
  </scstep>
  <scstep>
   <time name="diag">    1.23    1.23</time>
   <time name="diis">    3.55    3.56</time>
   <time name="orth">    0.28    0.28</time>
   <time name="total">    5.35    5.37</time>
   <dipole>
    <v name="dipole">      0.00000000       0.00000000       0.00390354 </v>
    <i name="Tr[quadrupol]"> -10283.81112144 </i>
    <i name="Echarged">      0.00000000 </i>
    <i name="Edipol_quadrupol">      0.00000000 </i>
    <i name="Eion">      0.00000000 </i>
   </dipole>
   <energy>
    <i name="e_fr_energy">   -190.49782358 </i>
    <i name="e_wo_entrp">   -190.24831147 </i>
    <i name="e_0_energy">   -190.37306752 </i>
   </energy>
  </scstep>
  <scstep>
   <time name="diag">    1.23    1.23</time>
   <time name="diis">    3.59    3.60</time>
   <time name="orth">    0.28    0.28</time>
   <time name="total">    5.40    5.42</time>
   <dipole>
    <v name="dipole">      0.00000000       0.00000000       0.00400623 </v>
    <i name="Tr[quadrupol]"> -10283.81449894 </i>
    <i name="Echarged">      0.00000000 </i>
    <i name="Edipol_quadrupol">      0.00000000 </i>
    <i name="Eion">      0.00000000 </i>
   </dipole>
   <energy>
    <i name="e_fr_energy">   -190.49781727 </i>
    <i name="e_wo_entrp">   -190.24828309 </i>
    <i name="e_0_energy">   -190.37305018 </i>
   </energy>
  </scstep>
  <scstep>
   <time name="diag">    1.23    1.24</time>
   <time name="diis">    3.37    3.38</time>
   <time name="orth">    0.28    0.28</time>
   <time name="total">    5.18    5.19</time>
   <dipole>
    <v name="dipole">      0.00000000       0.00000000       0.00400388 </v>
    <i name="Tr[quadrupol]"> -10283.81819320 </i>
    <i name="Echarged">      0.00000000 </i>
    <i name="Edipol_quadrupol">      0.00000000 </i>
    <i name="Eion">      0.00000000 </i>
   </dipole>
   <energy>
    <i name="e_fr_energy">   -190.49781430 </i>
    <i name="e_wo_entrp">   -190.24827870 </i>
    <i name="e_0_energy">   -190.37304650 </i>
   </energy>
  </scstep>
  <scstep>
   <time name="diag">    1.23    1.23</time>
   <time name="diis">    2.36    2.37</time>
   <time name="orth">    0.28    0.28</time>
   <time name="total">    3.93    3.94</time>
   <dipole>
    <v name="dipole">      0.00000000       0.00000000       0.00402279 </v>
    <i name="Tr[quadrupol]"> -10283.81995718 </i>
    <i name="Echarged">      0.00000000 </i>
    <i name="Edipol_quadrupol">      0.00000000 </i>
    <i name="Eion">      0.00000000 </i>
   </dipole>
   <energy>
    <i name="alphaZ">    805.87001033 </i>
    <i name="ewald"> 197307.62141486 </i>
    <i name="hartreedc">-239519.31384237 </i>
    <i name="XCdc">   -345.62133478 </i>
    <i name="pawpsdc">  48887.09765433 </i>
    <i name="pawaedc"> -46962.04671629 </i>
    <i name="eentropy">     -0.24952366 </i>
    <i name="bandstr">  -2023.64134898 </i>
    <i name="atom">  41659.78587232 </i>
    <i name="e_fr_energy">   -190.49781425 </i>
    <i name="e_wo_entrp">   -190.24829059 </i>
    <i name="e_0_energy">   -190.37305242 </i>
   </energy>
  </scstep>
  <structure>
   <crystal>
    <varray name="basis" >
     <v>      11.00258152       0.00000000       0.00000000 </v>
     <v>       5.50129076       9.52851510       0.00000000 </v>
     <v>       0.00000000       0.00000000      24.49178509 </v>
    </varray>
    <i name="volume">   2567.67623402 </i>
    <varray name="rec_basis" >
     <v>       0.09088776      -0.05247407       0.00000000 </v>
     <v>       0.00000000       0.10494815       0.00000000 </v>
     <v>       0.00000000       0.00000000       0.04083002 </v>
    </varray>
   </crystal>
   <varray name="positions" >
    <v>       0.75018725       0.75097734       0.59358388 </v>
    <v>       0.41608642       0.66678979       0.50006891 </v>
    <v>       0.49888533       0.49940035       0.59359262 </v>
    <v>       0.58388781       0.83386831       0.40641991 </v>
    <v>       0.66576722       0.91690570       0.50008381 </v>
    <v>       0.33161982       0.83398186       0.40643317 </v>
    <v>       0.49866524       0.75181254       0.59353775 </v>
    <v>       0.16650162       0.66590337       0.49996630 </v>
    <v>       0.83418578       0.08180989       0.40579629 </v>
    <v>       0.66401440       0.16754890       0.50039090 </v>
    <v>       0.33268809       0.33394222       0.40668125 </v>
    <v>       0.58226331       0.33381056       0.40638391 </v>
    <v>       0.16766204       0.16656559       0.50001181 </v>
    <v>       0.83446914       0.33326056       0.40641392 </v>
    <v>       0.91778672       0.91441556       0.49993727 </v>
    <v>       0.74881924       0.24984136       0.59391517 </v>
    <v>       0.00133437       0.50006805       0.59326529 </v>
    <v>       0.83493042       0.58328412       0.40681047 </v>
    <v>       0.00139894       0.24971047       0.59389064 </v>
    <v>       0.75002878       0.50008562       0.59330874 </v>
    <v>       0.00124937      -0.00171853       0.59394061 </v>
    <v>       0.91772353       0.16707913       0.49957222 </v>
    <v>       0.33302130       0.08388763       0.40643545 </v>
    <v>       0.58312871       0.58302358       0.40643481 </v>
    <v>       0.66652039       0.41729683       0.50001282 </v>
    <v>       0.74951504      -0.00003321       0.59311024 </v>
    <v>       0.66726560       0.66622214       0.50001905 </v>
    <v>       0.41635984       0.91740573       0.50055947 </v>
    <v>       0.83379930       0.83302702       0.40709003 </v>
    <v>       0.08353649       0.08294348       0.40711829 </v>
    <v>       0.41592407       0.41618762       0.50023739 </v>
    <v>       0.08324242       0.33379072       0.40740371 </v>
    <v>       0.91679324       0.41755597       0.49970563 </v>
    <v>       0.08331568       0.58351075       0.40750499 </v>
    <v>       0.91756227       0.66578609       0.49975062 </v>
    <v>       0.08356140       0.83300224       0.40715033 </v>
    <v>       0.00041996       0.74968089       0.59282007 </v>
    <v>       0.25060342      -0.00032188       0.59265897 </v>
    <v>       0.16679397       0.41679965       0.50003152 </v>
    <v>       0.25119656       0.24972948       0.59248163 </v>
    <v>       0.33255276       0.58336389       0.40719864 </v>
    <v>       0.24998374       0.49966882       0.59254914 </v>
    <v>       0.16725358       0.91654983       0.49997334 </v>
    <v>       0.58338827       0.08311697       0.40708769 </v>
    <v>       0.41625484       0.16725928       0.50059307 </v>
    <v>       0.49928838       0.00087786       0.59265459 </v>
    <v>       0.49909994       0.25000373       0.59258525 </v>
    <v>       0.24946400       0.75032211       0.59282841 </v>
   </varray>
  </structure>
  <varray name="forces" >
   <v>       0.13501012       0.15920330       0.99373433 </v>
   <v>      -0.01607122       0.01083568       0.03208743 </v>
   <v>      -0.26218502      -0.02914526       1.00296483 </v>
   <v>       0.08926728       0.05777453      -0.97400312 </v>
   <v>      -0.15483541      -0.04262184       0.02355400 </v>
   <v>      -0.18561066       0.08781893      -0.97297225 </v>
   <v>      -0.07681300       0.23043297       0.98330331 </v>
   <v>      -0.04283187      -0.15689327       0.00174804 </v>
   <v>      -0.03575376      -0.21220781      -1.19444655 </v>
   <v>      -0.13573369       0.10318281       0.04016012 </v>
   <v>      -0.08853942       0.07564952      -0.87753086 </v>
   <v>      -0.10904518       0.00343467      -0.97573542 </v>
   <v>       0.18556747       0.01580523      -0.00102172 </v>
   <v>       0.14677713      -0.03687124      -1.01770225 </v>
   <v>      -0.00136764      -0.12097660      -0.00426773 </v>
   <v>      -0.14800726      -0.11898775       1.08648989 </v>
   <v>       0.24595136       0.01352405       0.85170696 </v>
   <v>       0.27236865       0.04266724      -0.86380927 </v>
   <v>       0.19830918      -0.08364882       1.11878448 </v>
   <v>       0.01066052       0.03041534       0.83930807 </v>
   <v>       0.03003629      -0.19068053       1.10016317 </v>
   <v>       0.04472298       0.02634053      -0.04142993 </v>
   <v>       0.01069827       0.08688820      -0.98377347 </v>
   <v>      -0.04631731       0.02019703      -0.97367559 </v>
   <v>       0.01319510       0.04915745       0.01215927 </v>
   <v>      -0.06805938       0.00101885       0.73798135 </v>
   <v>       0.05339800      -0.03888536       0.01100855 </v>
   <v>       0.02929811       0.05593280       0.07659840 </v>
   <v>       0.06062755      -0.03390938      -0.66850051 </v>
   <v>       0.01443543      -0.05052814      -0.67392491 </v>
   <v>      -0.16840990      -0.04788548       0.03745908 </v>
   <v>       0.06167772       0.04790531      -0.51903411 </v>
   <v>       0.10558568       0.13224689      -0.01685016 </v>
   <v>       0.06293896       0.05079687      -0.50891028 </v>
   <v>      -0.01810278      -0.17435947      -0.02888803 </v>
   <v>      -0.00969672      -0.09018812      -0.65618187 </v>
   <v>       0.05351442      -0.06846836       0.65502985 </v>
   <v>       0.06563368      -0.00437018       0.58208222 </v>
   <v>       0.01658105      -0.01710997      -0.00148212 </v>
   <v>       0.21534114      -0.05275017       0.50662586 </v>
   <v>      -0.16565946       0.02706709      -0.60013307 </v>
   <v>      -0.03359949      -0.03750134       0.53361254 </v>
   <v>       0.06776736      -0.00681920       0.00779273 </v>
   <v>       0.01224975      -0.00363523      -0.64629415 </v>
   <v>      -0.11814507       0.12368790       0.10667837 </v>
   <v>      -0.02662127       0.16844850       0.60935762 </v>
   <v>      -0.22085750      -0.00674326       0.62171529 </v>
   <v>      -0.06935019       0.00475510       0.62846160 </v>
  </varray>
  <energy>
   <i name="e_fr_energy">   -190.49781425 </i>
   <i name="e_wo_entrp">   -190.37305242 </i>
   <i name="e_0_energy">     -0.24952366 </i>
  </energy>
  <time name="totalsc">   82.66   83.19</time>
 </calculation>
 <calculation>
  <scstep>
   <time name="dav">    7.05    7.07</time>
   <time name="total">    7.34    7.36</time>
   <dipole>
    <v name="dipole">      0.00000000       0.00000000       0.00405174 </v>
    <i name="Tr[quadrupol]"> -10267.58113760 </i>
    <i name="Echarged">      0.00000000 </i>
    <i name="Edipol_quadrupol">      0.00000000 </i>
    <i name="Eion">      0.00000000 </i>
   </dipole>
   <energy>
    <i name="alphaZ">    805.87004488 </i>
    <i name="ewald"> 189563.79998762 </i>
    <i name="hartreedc">-231815.75021242 </i>
    <i name="XCdc">   -351.03538880 </i>
    <i name="pawpsdc">  48886.88604167 </i>
    <i name="pawaedc"> -46961.83492519 </i>
    <i name="eentropy">     -0.24189581 </i>
    <i name="bandstr">  -1976.72773321 </i>
    <i name="atom">  41659.78587232 </i>
    <i name="e_fr_energy">   -189.24820894 </i>
    <i name="e_wo_entrp">   -189.00631313 </i>
    <i name="e_0_energy">   -189.12726103 </i>
   </energy>
  </scstep>
  <scstep>
   <time name="diag">    1.21    1.24</time>
   <time name="diis">    3.45    3.46</time>
   <time name="orth">    0.28    0.28</time>
   <time name="total">    5.24    5.29</time>
   <dipole>
    <v name="dipole">      0.00000000       0.00000000      -0.01172284 </v>
    <i name="Tr[quadrupol]"> -10266.78177480 </i>
    <i name="Echarged">      0.00000000 </i>
    <i name="Edipol_quadrupol">      0.00000000 </i>
    <i name="Eion">      0.00000000 </i>
   </dipole>
   <energy>
    <i name="e_fr_energy">   -192.41418454 </i>
    <i name="e_wo_entrp">   -192.17185524 </i>
    <i name="e_0_energy">   -192.29301989 </i>
   </energy>
  </scstep>
  <scstep>
   <time name="diag">    1.23    1.23</time>
   <time name="diis">    3.56    3.57</time>
   <time name="orth">    0.28    0.28</time>
   <time name="total">    5.36    5.39</time>
   <dipole>
    <v name="dipole">      0.00000000       0.00000000       0.08667630 </v>
    <i name="Tr[quadrupol]"> -10267.91392991 </i>
    <i name="Echarged">      0.00000000 </i>
    <i name="Edipol_quadrupol">      0.00000000 </i>
    <i name="Eion">      0.00000000 </i>
   </dipole>
   <energy>
    <i name="e_fr_energy">   -193.10213411 </i>
    <i name="e_wo_entrp">   -192.90691194 </i>
    <i name="e_0_energy">   -193.00452303 </i>
   </energy>
  </scstep>
  <scstep>
   <time name="diag">    1.23    1.24</time>
   <time name="diis">    3.50    3.50</time>
   <time name="orth">    0.28    0.28</time>
   <time name="total">    5.29    5.31</time>
   <dipole>
    <v name="dipole">      0.00000000       0.00000000      -0.00493172 </v>
    <i name="Tr[quadrupol]"> -10267.67503366 </i>
    <i name="Echarged">      0.00000000 </i>
    <i name="Edipol_quadrupol">      0.00000000 </i>
    <i name="Eion">      0.00000000 </i>
   </dipole>
   <energy>
    <i name="e_fr_energy">   -192.17435702 </i>
    <i name="e_wo_entrp">   -191.92731083 </i>
    <i name="e_0_energy">   -192.05083392 </i>
   </energy>
  </scstep>
  <scstep>
   <time name="diag">    1.23    1.23</time>
   <time name="diis">    3.51    3.52</time>
   <time name="orth">    0.28    0.28</time>
   <time name="total">    5.31    5.32</time>
   <dipole>
    <v name="dipole">      0.00000000       0.00000000       0.01722183 </v>
    <i name="Tr[quadrupol]"> -10267.86429814 </i>
    <i name="Echarged">      0.00000000 </i>
    <i name="Edipol_quadrupol">      0.00000000 </i>
    <i name="Eion">      0.00000000 </i>
   </dipole>
   <energy>
    <i name="e_fr_energy">   -192.28307113 </i>
    <i name="e_wo_entrp">   -192.03466749 </i>
    <i name="e_0_energy">   -192.15886931 </i>
   </energy>
  </scstep>
  <scstep>
   <time name="diag">    1.23    1.23</time>
   <time name="diis">    3.56    3.57</time>
   <time name="orth">    0.28    0.28</time>
   <time name="total">    5.35    5.37</time>
   <dipole>
    <v name="dipole">      0.00000000       0.00000000      -0.02322191 </v>
    <i name="Tr[quadrupol]"> -10267.77224085 </i>
    <i name="Echarged">      0.00000000 </i>
    <i name="Edipol_quadrupol">      0.00000000 </i>
    <i name="Eion">      0.00000000 </i>
   </dipole>
   <energy>
    <i name="e_fr_energy">   -192.16805982 </i>
    <i name="e_wo_entrp">   -191.92076973 </i>
    <i name="e_0_energy">   -192.04441477 </i>
   </energy>
  </scstep>
  <scstep>
   <time name="diag">    1.22    1.22</time>
   <time name="diis">    3.48    3.56</time>
   <time name="orth">    0.28    0.28</time>
   <time name="total">    5.27    5.37</time>
   <dipole>
    <v name="dipole">      0.00000000       0.00000000       0.05676721 </v>
    <i name="Tr[quadrupol]"> -10267.65992927 </i>
    <i name="Echarged">      0.00000000 </i>
    <i name="Edipol_quadrupol">      0.00000000 </i>
    <i name="Eion">      0.00000000 </i>
   </dipole>
   <energy>
    <i name="e_fr_energy">   -192.17983677 </i>
    <i name="e_wo_entrp">   -191.94408577 </i>
    <i name="e_0_energy">   -192.06196127 </i>
   </energy>
  </scstep>
  <scstep>
   <time name="diag">    1.24    1.24</time>
   <time name="diis">    3.52    3.53</time>
   <time name="orth">    0.28    0.28</time>
   <time name="total">    5.33    5.35</time>
   <dipole>
    <v name="dipole">      0.00000000       0.00000000      -0.02179248 </v>
    <i name="Tr[quadrupol]"> -10267.62712284 </i>
    <i name="Echarged">      0.00000000 </i>
    <i name="Edipol_quadrupol">      0.00000000 </i>
    <i name="Eion">      0.00000000 </i>
   </dipole>
   <energy>
    <i name="e_fr_energy">   -192.12958095 </i>
    <i name="e_wo_entrp">   -191.87965885 </i>
    <i name="e_0_energy">   -192.00461990 </i>
   </energy>
  </scstep>
  <scstep>
   <time name="diag">    1.23    1.23</time>
   <time name="diis">    3.52    3.53</time>
   <time name="orth">    0.28    0.28</time>
   <time name="total">    5.31    5.33</time>
   <dipole>
    <v name="dipole">      0.00000000       0.00000000       0.00685322 </v>
    <i name="Tr[quadrupol]"> -10267.58208675 </i>
    <i name="Echarged">      0.00000000 </i>
    <i name="Edipol_quadrupol">      0.00000000 </i>
    <i name="Eion">      0.00000000 </i>
   </dipole>
   <energy>
    <i name="e_fr_energy">   -192.11559457 </i>
    <i name="e_wo_entrp">   -191.86747222 </i>
    <i name="e_0_energy">   -191.99153340 </i>
   </energy>
  </scstep>
  <scstep>
   <time name="diag">    1.23    1.23</time>
   <time name="diis">    3.46    3.47</time>
   <time name="orth">    0.28    0.28</time>
   <time name="total">    5.25    5.28</time>
   <dipole>
    <v name="dipole">      0.00000000       0.00000000       0.00240812 </v>
    <i name="Tr[quadrupol]"> -10267.58198015 </i>
    <i name="Echarged">      0.00000000 </i>
    <i name="Edipol_quadrupol">      0.00000000 </i>
    <i name="Eion">      0.00000000 </i>
[...]
       <r>    2.3492    0.0000 </r>
       <r>    2.3762    0.0000 </r>
       <r>    2.5089    0.0000 </r>
       <r>    2.5559    0.0000 </r>
       <r>    2.7586    0.0000 </r>
       <r>    2.9510    0.0000 </r>
       <r>    3.1609    0.0000 </r>
       <r>    3.2451    0.0000 </r>
       <r>    3.5305    0.0000 </r>
       <r>    3.6312    0.0000 </r>
       <r>    3.7787    0.0000 </r>
       <r>    3.9553    0.0000 </r>
       <r>    4.1118    0.0000 </r>
       <r>    4.2182    0.0000 </r>
       <r>    4.4873    0.0000 </r>
       <r>    4.5852    0.0000 </r>
       <r>    4.6009    0.0000 </r>
       <r>    4.6334    0.0000 </r>
       <r>    4.7283    0.0000 </r>
       <r>    4.8070    0.0000 </r>
       <r>    4.8394    0.0000 </r>
       <r>    4.9357    0.0000 </r>
       <r>    4.9745    0.0000 </r>
       <r>    5.0417    0.0000 </r>
       <r>    5.0721    0.0000 </r>
       <r>    5.1022    0.0000 </r>
       <r>    5.1322    0.0000 </r>
       <r>    5.2320    0.0000 </r>
      </set>
     </set>
    </set>
   </array>
  </eigenvalues>
  <separator name="orbital magnetization" >
   <v name="MAGDIPOLOUT">      0.00000000      0.00000000      0.00000000</v>
  </separator>
  <dos>
   <i name="efermi">     -1.08373325 </i>
   <total>
    <array>
     <dimension dim="1">gridpoints</dimension>
     <dimension dim="2">spin</dimension>
     <field>energy</field>
     <field>total</field>
     <field>integrated</field>
     <set>
      <set comment="spin 1">
       <r>    -9.6878     0.0000     0.0000 </r>
       <r>    -9.6344     0.0000     0.0000 </r>
       <r>    -9.5810     0.0000     0.0000 </r>
       <r>    -9.5276     0.0000     0.0000 </r>
       <r>    -9.4742     0.0000     0.0000 </r>
       <r>    -9.4208     0.0000     0.0000 </r>
       <r>    -9.3674     0.0000     0.0000 </r>
       <r>    -9.3140     0.0000     0.0000 </r>
       <r>    -9.2606     0.0000     0.0000 </r>
       <r>    -9.2072     0.0000     0.0000 </r>
       <r>    -9.1538     0.0000     0.0000 </r>
       <r>    -9.1004     0.0000     0.0000 </r>
       <r>    -9.0469     0.0000     0.0000 </r>
       <r>    -8.9935     0.0001     0.0000 </r>
       <r>    -8.9401     0.0029     0.0002 </r>
       <r>    -8.8867     0.0389     0.0022 </r>
       <r>    -8.8333     0.3027     0.0184 </r>
       <r>    -8.7799     1.3640     0.0912 </r>
       <r>    -8.7265     3.5700     0.2819 </r>
       <r>    -8.6731     5.4910     0.5752 </r>
       <r>    -8.6197     5.3201     0.8593 </r>
       <r>    -8.5663     4.4841     1.0988 </r>
       <r>    -8.5129     5.0944     1.3709 </r>
       <r>    -8.4595     5.5823     1.6690 </r>
       <r>    -8.4061     4.0007     1.8827 </r>
       <r>    -8.3526     1.7064     1.9738 </r>
       <r>    -8.2992     0.4484     1.9978 </r>
       <r>    -8.2458     0.2499     2.0111 </r>
       <r>    -8.1924     0.8962     2.0590 </r>
       <r>    -8.1390     2.5331     2.1943 </r>
       <r>    -8.0856     4.4533     2.4321 </r>
       <r>    -8.0322     5.1925     2.7094 </r>
       <r>    -7.9788     4.9938     2.9761 </r>
       <r>    -7.9254     6.0097     3.2971 </r>
       <r>    -7.8720     8.9925     3.7774 </r>
       <r>    -7.8186    12.0295     4.4198 </r>
       <r>    -7.7652    12.7938     5.1031 </r>
       <r>    -7.7118    10.6748     5.6732 </r>
       <r>    -7.6583     7.9101     6.0957 </r>
       <r>    -7.6049     6.9858     6.4688 </r>
       <r>    -7.5515     7.3606     6.8619 </r>
       <r>    -7.4981     7.5633     7.2658 </r>
       <r>    -7.4447     7.3482     7.6583 </r>
       <r>    -7.3913     7.2200     8.0439 </r>
       <r>    -7.3379     7.4857     8.4437 </r>
       <r>    -7.2845     7.7951     8.8600 </r>
       <r>    -7.2311     8.9343     9.3372 </r>
       <r>    -7.1777    11.8972     9.9726 </r>
       <r>    -7.1243    14.6956    10.7574 </r>
       <r>    -7.0709    15.9097    11.6071 </r>
       <r>    -7.0175    18.7142    12.6066 </r>
       <r>    -6.9640    25.9860    13.9945 </r>
       <r>    -6.9106    35.0656    15.8673 </r>
       <r>    -6.8572    42.1135    18.1164 </r>
       <r>    -6.8038    47.1656    20.6355 </r>
       <r>    -6.7504    51.5564    23.3890 </r>
       <r>    -6.6970    54.1164    26.2792 </r>
       <r>    -6.6436    52.8234    29.1004 </r>
       <r>    -6.5902    48.8307    31.7083 </r>
       <r>    -6.5368    45.2879    34.1271 </r>
       <r>    -6.4834    44.0598    36.4802 </r>
       <r>    -6.4300    45.8418    38.9285 </r>
       <r>    -6.3766    50.0516    41.6017 </r>
       <r>    -6.3231    54.6513    44.5205 </r>
       <r>    -6.2697    59.1080    47.6773 </r>
       <r>    -6.2163    64.1290    51.1023 </r>
       <r>    -6.1629    68.1664    54.7429 </r>
       <r>    -6.1095    70.3551    58.5004 </r>
       <r>    -6.0561    72.7929    62.3881 </r>
       <r>    -6.0027    76.3337    66.4650 </r>
       <r>    -5.9493    79.5190    70.7119 </r>
       <r>    -5.8959    80.7298    75.0235 </r>
       <r>    -5.8425    79.6262    79.2762 </r>
       <r>    -5.7891    78.2976    83.4579 </r>
       <r>    -5.7357    78.8282    87.6679 </r>
       <r>    -5.6823    79.8452    91.9323 </r>
       <r>    -5.6288    78.4290    96.1210 </r>
       <r>    -5.5754    74.6865   100.1098 </r>
       <r>    -5.5220    73.0228   104.0098 </r>
       <r>    -5.4686    76.7739   108.1102 </r>
       <r>    -5.4152    82.3484   112.5082 </r>
       <r>    -5.3618    83.2845   116.9563 </r>
       <r>    -5.3084    79.2273   121.1876 </r>
       <r>    -5.2550    75.2074   125.2043 </r>
       <r>    -5.2016    74.6665   129.1921 </r>
       <r>    -5.1482    77.1068   133.3102 </r>
       <r>    -5.0948    79.8682   137.5758 </r>
       <r>    -5.0414    80.7863   141.8904 </r>
       <r>    -4.9880    81.0303   146.2180 </r>
       <r>    -4.9345    82.8025   150.6403 </r>
       <r>    -4.8811    85.5411   155.2089 </r>
       <r>    -4.8277    87.6576   159.8905 </r>
       <r>    -4.7743    87.9712   164.5889 </r>
       <r>    -4.7209    86.2639   169.1960 </r>
       <r>    -4.6675    84.2338   173.6948 </r>
       <r>    -4.6141    83.6382   178.1617 </r>
       <r>    -4.5607    84.9044   182.6963 </r>
       <r>    -4.5073    87.7176   187.3811 </r>
       <r>    -4.4539    90.4399   192.2113 </r>
       <r>    -4.4005    91.0590   197.0745 </r>
       <r>    -4.3471    90.0821   201.8856 </r>
       <r>    -4.2937    89.2461   206.6521 </r>
       <r>    -4.2402    88.8266   211.3961 </r>
       <r>    -4.1868    88.8812   216.1430 </r>
       <r>    -4.1334    90.5057   220.9768 </r>
       <r>    -4.0800    93.0116   225.9443 </r>
       <r>    -4.0266    94.3997   230.9860 </r>
       <r>    -3.9732    95.0650   236.0632 </r>
       <r>    -3.9198    96.1017   241.1958 </r>
       <r>    -3.8664    96.5285   246.3512 </r>
       <r>    -3.8130    96.3740   251.4983 </r>
       <r>    -3.7596    97.4978   256.7054 </r>
       <r>    -3.7062    99.8134   262.0363 </r>
       <r>    -3.6528   101.7333   267.4696 </r>
       <r>    -3.5993   102.9047   272.9655 </r>
       <r>    -3.5459   103.8118   278.5099 </r>
       <r>    -3.4925   104.6040   284.0966 </r>
       <r>    -3.4391   104.7205   289.6895 </r>
       <r>    -3.3857   103.1575   295.1989 </r>
       <r>    -3.3323   100.0344   300.5415 </r>
       <r>    -3.2789    96.6178   305.7017 </r>
       <r>    -3.2255    94.2083   310.7331 </r>
       <r>    -3.1721    92.9050   315.6950 </r>
       <r>    -3.1187    91.4377   320.5785 </r>
       <r>    -3.0653    89.0856   325.3363 </r>
       <r>    -3.0119    85.6651   329.9115 </r>
       <r>    -2.9585    82.4020   334.3124 </r>
       <r>    -2.9050    81.5382   338.6672 </r>
       <r>    -2.8516    82.7514   343.0868 </r>
       <r>    -2.7982    84.3050   347.5893 </r>
       <r>    -2.7448    85.3385   352.1471 </r>
       <r>    -2.6914    86.1022   356.7456 </r>
       <r>    -2.6380    87.5512   361.4215 </r>
       <r>    -2.5846    89.2436   366.1878 </r>
       <r>    -2.5312    89.8642   370.9873 </r>
       <r>    -2.4778    89.7986   375.7832 </r>
       <r>    -2.4244    90.3432   380.6083 </r>
       <r>    -2.3710    91.2622   385.4824 </r>
       <r>    -2.3176    92.1809   390.4056 </r>
       <r>    -2.2642    93.4264   395.3953 </r>
       <r>    -2.2107    94.4660   400.4405 </r>
       <r>    -2.1573    94.4639   405.4856 </r>
       <r>    -2.1039    93.8791   410.4995 </r>
       <r>    -2.0505    94.4664   415.5447 </r>
       <r>    -1.9971    97.3688   420.7450 </r>
       <r>    -1.9437   101.2199   426.1509 </r>
       <r>    -1.8903   103.1401   431.6594 </r>
       <r>    -1.8369   101.7752   437.0950 </r>
       <r>    -1.7835    98.7070   442.3667 </r>
       <r>    -1.7301    97.1717   447.5565 </r>
       <r>    -1.6767    97.8420   452.7820 </r>
       <r>    -1.6233    98.2715   458.0305 </r>
       <r>    -1.5699    98.3480   463.2830 </r>
       <r>    -1.5164   100.1054   468.6294 </r>
       <r>    -1.4630   102.3153   474.0939 </r>
       <r>    -1.4096   101.3324   479.5058 </r>
       <r>    -1.3562    95.9360   484.6296 </r>
       <r>    -1.3028    87.6994   489.3134 </r>
       <r>    -1.2494    79.0929   493.5376 </r>
       <r>    -1.1960    71.6212   497.3627 </r>
       <r>    -1.1426    64.1458   500.7886 </r>
       <r>    -1.0892    55.0828   503.7304 </r>
       <r>    -1.0358    44.5871   506.1117 </r>
       <r>    -0.9824    33.1255   507.8809 </r>
       <r>    -0.9290    21.7029   509.0400 </r>
       <r>    -0.8755    13.1352   509.7415 </r>
       <r>    -0.8221     9.4320   510.2453 </r>
       <r>    -0.7687     9.2417   510.7389 </r>
       <r>    -0.7153     9.6858   511.2562 </r>
       <r>    -0.6619    10.4441   511.8140 </r>
       <r>    -0.6085    12.7912   512.4971 </r>
       <r>    -0.5551    15.9005   513.3463 </r>
       <r>    -0.5017    17.6201   514.2874 </r>
       <r>    -0.4483    17.7174   515.2336 </r>
       <r>    -0.3949    17.6851   516.1781 </r>
       <r>    -0.3415    17.6815   517.1225 </r>
       <r>    -0.2881    17.9140   518.0792 </r>
       <r>    -0.2347    19.8900   519.1415 </r>
       <r>    -0.1812    21.8436   520.3081 </r>
       <r>    -0.1278    19.9582   521.3740 </r>
       <r>    -0.0744    15.5034   522.2020 </r>
       <r>    -0.0210    12.9956   522.8961 </r>
       <r>     0.0324    13.5521   523.6199 </r>
       <r>     0.0858    15.7528   524.4612 </r>
       <r>     0.1392    17.9573   525.4203 </r>
       <r>     0.1926    17.6434   526.3626 </r>
       <r>     0.2460    15.0299   527.1653 </r>
       <r>     0.2994    14.5571   527.9428 </r>
       <r>     0.3528    17.5534   528.8802 </r>
       <r>     0.4062    20.0036   529.9486 </r>
       <r>     0.4596    19.4893   530.9895 </r>
       <r>     0.5131    18.3110   531.9674 </r>
       <r>     0.5665    19.1037   532.9877 </r>
       <r>     0.6199    20.9576   534.1070 </r>
       <r>     0.6733    21.7372   535.2679 </r>
       <r>     0.7267    21.5183   536.4172 </r>
       <r>     0.7801    20.8113   537.5287 </r>
       <r>     0.8335    18.1956   538.5005 </r>
       <r>     0.8869    13.5984   539.2267 </r>
       <r>     0.9403     9.7168   539.7457 </r>
       <r>     0.9937     8.4310   540.1959 </r>
       <r>     1.0471     9.1335   540.6837 </r>
       <r>     1.1005    10.1100   541.2237 </r>
       <r>     1.1539    10.6429   541.7921 </r>
       <r>     1.2074    10.5072   542.3533 </r>
       <r>     1.2608     9.4024   542.8554 </r>
       <r>     1.3142     7.9569   543.2804 </r>
       <r>     1.3676     7.3905   543.6751 </r>
       <r>     1.4210     8.7713   544.1436 </r>
       <r>     1.4744    11.9610   544.7824 </r>
       <r>     1.5278    15.0713   545.5873 </r>
       <r>     1.5812    16.1634   546.4506 </r>
       <r>     1.6346    15.1719   547.2609 </r>
       <r>     1.6880    14.4384   548.0320 </r>
       <r>     1.7414    16.3020   548.9026 </r>
       <r>     1.7948    18.9775   549.9162 </r>
       <r>     1.8482    18.3030   550.8937 </r>
       <r>     1.9017    13.6170   551.6210 </r>
       <r>     1.9551     9.0019   552.1017 </r>
       <r>     2.0085     7.6613   552.5109 </r>
       <r>     2.0619     8.4340   552.9614 </r>
       <r>     2.1153    10.1906   553.5056 </r>
       <r>     2.1687    13.0903   554.2047 </r>
       <r>     2.2221    15.9438   555.0563 </r>
       <r>     2.2755    18.0120   556.0182 </r>
       <r>     2.3289    20.5883   557.1178 </r>
       <r>     2.3823    23.8610   558.3922 </r>
       <r>     2.4357    25.4201   559.7498 </r>
       <r>     2.4891    24.5874   561.0630 </r>
       <r>     2.5426    23.3079   562.3078 </r>
       <r>     2.5960    22.3804   563.5031 </r>
       <r>     2.6494    21.6781   564.6609 </r>
       <r>     2.7028    21.8639   565.8286 </r>
       <r>     2.7562    21.6755   566.9862 </r>
       <r>     2.8096    18.4115   567.9695 </r>
       <r>     2.8630    12.7081   568.6482 </r>
       <r>     2.9164     8.2625   569.0895 </r>
       <r>     2.9698     6.8736   569.4566 </r>
       <r>     3.0232     6.7906   569.8193 </r>
       <r>     3.0766     6.8770   570.1866 </r>
       <r>     3.1300     8.1202   570.6203 </r>
       <r>     3.1834    10.7769   571.1958 </r>
       <r>     3.2369    13.3030   571.9063 </r>
       <r>     3.2903    13.2558   572.6143 </r>
       <r>     3.3437    10.5476   573.1776 </r>
       <r>     3.3971     7.7587   573.5920 </r>
       <r>     3.4505     6.4517   573.9366 </r>
       <r>     3.5039     7.3084   574.3269 </r>
       <r>     3.5573    10.5991   574.8930 </r>
       <r>     3.6107    14.7919   575.6830 </r>
       <r>     3.6641    17.5456   576.6200 </r>
       <r>     3.7175    18.3862   577.6020 </r>
       <r>     3.7709    18.8791   578.6103 </r>
       <r>     3.8243    18.6065   579.6040 </r>
       <r>     3.8777    15.9623   580.4565 </r>
       <r>     3.9312    12.8194   581.1412 </r>
       <r>     3.9846    12.1605   581.7907 </r>
       <r>     4.0380    13.3350   582.5028 </r>
       <r>     4.0914    13.4110   583.2191 </r>
       <r>     4.1448    12.1895   583.8701 </r>
       <r>     4.1982    11.7358   584.4969 </r>
       <r>     4.2516    11.6539   585.1193 </r>
       <r>     4.3050    10.1466   585.6612 </r>
       <r>     4.3584     8.4321   586.1116 </r>
       <r>     4.4118     9.1711   586.6014 </r>
       <r>     4.4652    12.0312   587.2439 </r>
       <r>     4.5186    15.5018   588.0718 </r>
       <r>     4.5720    19.8236   589.1306 </r>
       <r>     4.6255    24.5509   590.4418 </r>
       <r>     4.6789    27.0561   591.8868 </r>
       <r>     4.7323    26.5888   593.3068 </r>
       <r>     4.7857    25.2456   594.6552 </r>
       <r>     4.8391    24.6781   595.9732 </r>
       <r>     4.8925    26.0848   597.3663 </r>
       <r>     4.9459    29.8407   598.9600 </r>
       <r>     4.9993    34.6574   600.8110 </r>
       <r>     5.0527    38.4749   602.8659 </r>
       <r>     5.1061    38.5758   604.9261 </r>
       <r>     5.1595    34.2350   606.7545 </r>
       <r>     5.2129    29.1863   608.3133 </r>
       <r>     5.2664    25.9396   609.6987 </r>
       <r>     5.3198    21.4246   610.8429 </r>
       <r>     5.3732    13.6320   611.5710 </r>
       <r>     5.4266     5.9778   611.8902 </r>
       <r>     5.4800     1.7099   611.9816 </r>
       <r>     5.5334     0.3085   611.9980 </r>
       <r>     5.5868     0.0342   611.9999 </r>
       <r>     5.6402     0.0023   612.0000 </r>
       <r>     5.6936     0.0001   612.0000 </r>
       <r>     5.7470     0.0000   612.0000 </r>
       <r>     5.8004     0.0000   612.0000 </r>
       <r>     5.8538     0.0000   612.0000 </r>
       <r>     5.9072     0.0000   612.0000 </r>
       <r>     5.9607     0.0000   612.0000 </r>
       <r>     6.0141     0.0000   612.0000 </r>
       <r>     6.0675     0.0000   612.0000 </r>
       <r>     6.1209     0.0000   612.0000 </r>
       <r>     6.1743     0.0000   612.0000 </r>
       <r>     6.2277     0.0000   612.0000 </r>
       <r>     6.2811     0.0000   612.0000 </r>
       <r>     6.3345     0.0000   612.0000 </r>
      </set>
     </set>
    </array>
   </total>
  </dos>
 </calculation>
 <structure name="finalpos" >
  <crystal>
   <varray name="basis" >
    <v>      11.00258152       0.00000000       0.00000000 </v>
    <v>       5.50129076       9.52851510       0.00000000 </v>
    <v>       0.00000000       0.00000000      24.49178509 </v>
   </varray>
   <i name="volume">   2567.67623402 </i>
   <varray name="rec_basis" >
    <v>       0.09088776      -0.05247407       0.00000000 </v>
    <v>       0.00000000       0.10494815       0.00000000 </v>
    <v>       0.00000000       0.00000000       0.04083002 </v>
   </varray>
  </crystal>
  <varray name="positions" >
   <v>       0.75063019       0.75293133       0.60291825 </v>
   <v>       0.41711609       0.66681739       0.50032435 </v>
   <v>       0.49790442       0.49814391       0.60180804 </v>
   <v>       0.58363691       0.83523689       0.39675974 </v>
   <v>       0.66461594       0.91520701       0.49914364 </v>
   <v>       0.32858662       0.83566439       0.39744030 </v>
   <v>       0.49772656       0.75378019       0.60097545 </v>
   <v>       0.16668487       0.66521462       0.50089549 </v>
   <v>       0.83500237       0.07992849       0.39338396 </v>
   <v>       0.66398902       0.16838206       0.49891739 </v>
   <v>       0.33041455       0.33621524       0.39766334 </v>
   <v>       0.58189553       0.33399390       0.39708367 </v>
   <v>       0.16785851       0.16649710       0.50012802 </v>
   <v>       0.83518110       0.33299375       0.39963711 </v>
   <v>       0.91729686       0.91539464       0.50033612 </v>
   <v>       0.74954234       0.24730900       0.60392048 </v>
   <v>       0.00435491       0.49878267       0.60225741 </v>
   <v>       0.83635805       0.58441689       0.40201263 </v>
   <v>       0.00511807       0.24720615       0.60650420 </v>
   <v>       0.75068671       0.49960482       0.60128385 </v>
   <v>       0.00349468      -0.00436433       0.60547976 </v>
   <v>       0.91686155       0.16793791       0.50129383 </v>
   <v>       0.33113919       0.08576521       0.39549793 </v>
   <v>       0.58208250       0.58429277       0.39888360 </v>
   <v>       0.66616117       0.41738090       0.50071801 </v>
   <v>       0.74995784      -0.00017886       0.59729180 </v>
   <v>       0.66739739       0.66556140       0.50085941 </v>
   <v>       0.41616978       0.91695835       0.49816096 </v>
   <v>       0.83383048       0.83365668       0.40280446 </v>
   <v>       0.08199719       0.08357117       0.40335032 </v>
   <v>       0.41597976       0.41537444       0.49898650 </v>
   <v>       0.08274261       0.33484610       0.40457282 </v>
   <v>       0.91612312       0.41802515       0.50193143 </v>
   <v>       0.08317117       0.58544673       0.40480172 </v>
   <v>       0.91704545       0.66367381       0.50209547 </v>
   <v>       0.08252575       0.83284625       0.40307363 </v>
   <v>       0.00219847       0.74864299       0.59850888 </v>
   <v>       0.25182965      -0.00075247       0.59617549 </v>
   <v>       0.16661082       0.41659084       0.50046811 </v>
   <v>       0.25412449       0.24815863       0.59585482 </v>
   <v>       0.33069442       0.58497510       0.40297391 </v>
   <v>       0.25100876       0.49844533       0.59676072 </v>
   <v>       0.16711680       0.91652354       0.50041191 </v>
   <v>       0.58331651       0.08402351       0.40075162 </v>
   <v>       0.41391093       0.16856149       0.49740621 </v>
   <v>       0.49907851       0.00227250       0.59465297 </v>
   <v>       0.49846981       0.24888707       0.59501388 </v>
   <v>       0.25036156       0.74915735       0.59782640 </v>
  </varray>
 </structure>
</modeling>
