unknown system                          
           1
    11.002582    0.000000    0.000000
     5.501291    9.528515    0.000000
     0.000000    0.000000   24.491785
   Au   Pd
  24  24
Direct configuration=     1
   0.75000000  0.75000000  0.59169983
   0.41666667  0.66666667  0.50000000
   0.50000000  0.50000000  0.59169983
   0.58333333  0.83333333  0.40830017
   0.66666667  0.91666667  0.50000000
   0.33333333  0.83333333  0.40830017
   0.50000000  0.75000000  0.59169983
   0.16666667  0.66666667  0.50000000
   0.83333333  0.08333333  0.40830017
   0.66666667  0.16666667  0.50000000
   0.33333333  0.33333333  0.40830017
   0.58333333  0.33333333  0.40830017
   0.16666667  0.16666667  0.50000000
   0.83333333  0.33333333  0.40830017
   0.91666667  0.91666667  0.50000000
   0.75000000  0.25000000  0.59169983
   0.00000000  0.50000000  0.59169983
   0.83333333  0.58333333  0.40830017
   0.00000000  0.25000000  0.59169983
   0.75000000  0.50000000  0.59169983
   0.00000000  0.00000000  0.59169983
   0.91666667  0.16666667  0.50000000
   0.33333333  0.08333333  0.40830017
   0.58333333  0.58333333  0.40830017
   0.66666667  0.41666667  0.50000000
   0.75000000  0.00000000  0.59169983
   0.66666667  0.66666667  0.50000000
   0.41666667  0.91666667  0.50000000
   0.83333333  0.83333333  0.40830017
   0.08333333  0.08333333  0.40830017
   0.41666667  0.41666667  0.50000000
   0.08333333  0.33333333  0.40830017
   0.91666667  0.41666667  0.50000000
   0.08333333  0.58333333  0.40830017
   0.91666667  0.66666667  0.50000000
   0.08333333  0.83333333  0.40830017
   0.00000000  0.75000000  0.59169983
   0.25000000  0.00000000  0.59169983
   0.16666667  0.41666667  0.50000000
   0.25000000  0.25000000  0.59169983
   0.33333333  0.58333333  0.40830017
   0.25000000  0.50000000  0.59169983
   0.16666667  0.91666667  0.50000000
   0.58333333  0.08333333  0.40830017
   0.41666667  0.16666667  0.50000000
   0.50000000  0.00000000  0.59169983
   0.50000000  0.25000000  0.59169983
   0.25000000  0.75000000  0.59169983
Direct configuration=     2
   0.75018725  0.75097734  0.59358388
   0.41608642  0.66678979  0.50006891
   0.49888533  0.49940035  0.59359262
   0.58388781  0.83386831  0.40641991
   0.66576722  0.91690570  0.50008381
   0.33161982  0.83398186  0.40643317
   0.49866524  0.75181254  0.59353775
   0.16650162  0.66590337  0.49996630
   0.83418578  0.08180989  0.40579629
   0.66401440  0.16754890  0.50039090
   0.33268809  0.33394222  0.40668125
   0.58226331  0.33381056  0.40638391
   0.16766204  0.16656559  0.50001181
   0.83446914  0.33326056  0.40641392
   0.91778672  0.91441556  0.49993727
   0.74881924  0.24984136  0.59391517
   0.00133437  0.50006805  0.59326529
   0.83493042  0.58328412  0.40681047
   0.00139894  0.24971047  0.59389064
   0.75002878  0.50008562  0.59330874
   0.00124937 -0.00171853  0.59394061
   0.91772353  0.16707913  0.49957222
   0.33302130  0.08388763  0.40643545
   0.58312871  0.58302358  0.40643481
   0.66652039  0.41729683  0.50001282
   0.74951504 -0.00003321  0.59311024
   0.66726560  0.66622214  0.50001905
   0.41635984  0.91740573  0.50055947
   0.83379930  0.83302702  0.40709003
   0.08353649  0.08294348  0.40711829
   0.41592407  0.41618762  0.50023739
   0.08324242  0.33379072  0.40740371
   0.91679324  0.41755597  0.49970563
   0.08331568  0.58351075  0.40750499
   0.91756227  0.66578609  0.49975062
   0.08356140  0.83300224  0.40715033
   0.00041996  0.74968089  0.59282007
   0.25060342 -0.00032188  0.59265897
   0.16679397  0.41679965  0.50003152
   0.25119656  0.24972948  0.59248163
   0.33255276  0.58336389  0.40719864
   0.24998374  0.49966882  0.59254914
   0.16725358  0.91654983  0.49997334
   0.58338827  0.08311697  0.40708769
   0.41625484  0.16725928  0.50059307
   0.49928838  0.00087786  0.59265459
   0.49909994  0.25000373  0.59258525
   0.24946400  0.75032211  0.59282841
Direct configuration=     3
   0.75074898  0.75390935  0.59923603
   0.41434567  0.66715914  0.50027563
   0.49554131  0.49760138  0.59927099
   0.58555126  0.83547324  0.40077911
   0.66306888  0.91762280  0.50033526
   0.32647927  0.83592746  0.40083219
   0.49466094  0.75725017  0.59905153
   0.16600649  0.66361348  0.49986519
   0.83674312  0.07723957  0.39828467
   0.65605758  0.17019560  0.50156359
   0.33075235  0.33576887  0.40182449
   0.57905325  0.33524225  0.40063515
   0.17064817  0.16626235  0.50004725
   0.83787654  0.33304226  0.40075518
   0.92114688  0.90766223  0.49974909
   0.74527695  0.24936543  0.60056120
   0.00533748  0.50027221  0.59796165
   0.83972167  0.58313646  0.40234135
   0.00559574  0.24884190  0.60046305
   0.75011513  0.50034247  0.59813546
   0.00499750 -0.00687411  0.60066296
   0.92089413  0.16831652  0.49828886
   0.33208522  0.08555054  0.40084129
   0.58251483  0.58209433  0.40083872
   0.66608155  0.41918732  0.50005129
   0.74806016 -0.00013284  0.59734148
   0.66906240  0.66488855  0.50007619
   0.41543937  0.91962294  0.50223790
   0.83519720  0.83210807  0.40345960
   0.08414596  0.08177392  0.40357264
   0.41369630  0.41475048  0.50094955
   0.08296969  0.33516289  0.40471434
   0.91717298  0.42022386  0.49882251
   0.08326273  0.58404301  0.40511946
   0.92024909  0.66314438  0.49900248
   0.08424561  0.83200897  0.40370082
   0.00167985  0.74872357  0.59618077
   0.25241368 -0.00128751  0.59553639
   0.16717586  0.41719860  0.50012608
   0.25478623  0.24891792  0.59482701
   0.33021103  0.58345556  0.40389406
   0.24993497  0.49867527  0.59509708
   0.16901430  0.91619934  0.49989335
   0.58355309  0.08246788  0.40345027
   0.41501936  0.16903712  0.50237226
   0.49715352  0.00351143  0.59551889
   0.49639975  0.25001494  0.59524151
   0.24785600  0.75128843  0.59621415
Direct configuration=     4
   0.75065970  0.75320556  0.60022145
   0.41579125  0.66682808  0.50029800
   0.49553331  0.49924887  0.60033562
   0.58463280  0.83446414  0.39986135
   0.66429763  0.91601098  0.50020953
   0.32890828  0.83501009  0.39981618
   0.49635122  0.75484591  0.60014539
   0.16792446  0.66338652  0.50000310
   0.83550662  0.07863897  0.39731529
   0.66158874  0.16912481  0.50095734
   0.33080581  0.33509316  0.40079212
   0.58105929  0.33357361  0.39979313
   0.16969361  0.16705018  0.49995077
   0.83665890  0.33256761  0.39961122
   0.91842764  0.91269015  0.49988469
   0.74769800  0.24800198  0.60141786
   0.00426941  0.50018105  0.59895404
   0.83776702  0.58407251  0.40114629
   0.00487466  0.24830162  0.60152604
   0.74985665  0.50065258  0.59888728
   0.00290300 -0.00430245  0.60162826
   0.91832260  0.16772337  0.49885326
   0.33242724  0.08516081  0.39981525
   0.58236514  0.58353139  0.39996165
   0.66632527  0.41800674  0.50009470
   0.74868136  0.00020595  0.59790190
   0.66812540  0.66582715  0.50009647
   0.41648607  0.91798379  0.50137015
   0.83507794  0.83247668  0.40273583
   0.08375896  0.08246145  0.40279725
   0.41379664  0.41607211  0.50050543
   0.08413205  0.33419758  0.40409912
   0.91722029  0.41959923  0.49936964
   0.08405199  0.58438012  0.40420790
   0.91832877  0.66295047  0.49949021
   0.08385357  0.83149766  0.40297350
   0.00165073  0.74867847  0.59701477
   0.25084053  0.00015424  0.59639983
   0.16707051  0.41625793  0.50002624
   0.25398658  0.24905400  0.59581092
   0.33007390  0.58401770  0.40333455
   0.24982219  0.49923799  0.59598188
   0.16812325  0.91648132  0.49997005
   0.58368829  0.08331027  0.40293427
   0.41323257  0.16907816  0.50132417
   0.49787102  0.00343083  0.59662623
   0.49643140  0.24977424  0.59671033
   0.24904775  0.74980445  0.59683952
Direct configuration=     5
   0.75061773  0.75287477  0.60068460
   0.41647067  0.66667248  0.50030852
   0.49552955  0.50002319  0.60083600
   0.58420113  0.83398987  0.39943000
   0.66487514  0.91525343  0.50015044
   0.33004991  0.83457893  0.39933866
   0.49714565  0.75371591  0.60065950
   0.16882590  0.66327985  0.50006792
   0.83492546  0.07929669  0.39685969
   0.66418837  0.16862153  0.50067240
   0.33083093  0.33477558  0.40030691
   0.58200213  0.33278935  0.39939738
   0.16924498  0.16742045  0.49990542
   0.83608661  0.33234453  0.39907356
   0.91714961  0.91505326  0.49994842
   0.74883589  0.24736116  0.60182049
   0.00376741  0.50013821  0.59942046
   0.83684833  0.58451245  0.40058462
   0.00453575  0.24804770  0.60202564
   0.74973517  0.50079833  0.59924063
   0.00191859 -0.00309378  0.60208195
   0.91711399  0.16744459  0.49911853
   0.33258799  0.08497764  0.39933302
   0.58229478  0.58420681  0.39954943
   0.66643981  0.41745186  0.50011510
   0.74897332  0.00036518  0.59816529
   0.66768501  0.66626828  0.50010600
   0.41697802  0.91721340  0.50096231
   0.83502189  0.83264993  0.40239565
   0.08357707  0.08278459  0.40243282
   0.41384381  0.41669327  0.50029670
   0.08467835  0.33374388  0.40380997
   0.91724253  0.41930565  0.49962678
   0.08442295  0.58453856  0.40377947
   0.91742622  0.66285933  0.49971944
   0.08366932  0.83125734  0.40263166
   0.00163704  0.74865727  0.59740675
   0.25010116  0.00083186  0.59680565
   0.16702099  0.41581582  0.49997931
   0.25361075  0.24911796  0.59627335
   0.33000944  0.58428190  0.40307159
   0.24976919  0.49950247  0.59639773
   0.16770446  0.91661385  0.50000610
   0.58375184  0.08370620  0.40269175
   0.41239279  0.16909744  0.50083157
   0.49820824  0.00339294  0.59714669
   0.49644627  0.24966112  0.59740067
   0.24960787  0.74910698  0.59713344
Direct configuration=     6
   0.75040487  0.75283599  0.60124295
   0.41766729  0.66672266  0.50030943
   0.49675619  0.49940760  0.60135327
   0.58391548  0.83444778  0.39891899
   0.66492091  0.91567953  0.50010989
   0.33024991  0.83461483  0.39887512
   0.49734421  0.75362231  0.60114900
   0.16693570  0.66496403  0.50018781
   0.83501122  0.07963371  0.39618802
   0.66401132  0.16867807  0.50055043
   0.33152854  0.33469694  0.39972348
   0.58231095  0.33307296  0.39900606
   0.16762122  0.16678983  0.49991419
   0.83560942  0.33262863  0.39863256
   0.91730119  0.91513864  0.50003097
   0.74893606  0.24810992  0.60229324
   0.00322452  0.49981419  0.59995670
   0.83667828  0.58406428  0.40009539
   0.00363519  0.24848257  0.60259636
   0.74985934  0.50023301  0.59953728
   0.00193365 -0.00301506  0.60257953
   0.91712615  0.16787576  0.49936782
   0.33299503  0.08427470  0.39871404
   0.58248325  0.58368089  0.39916563
   0.66641832  0.41745452  0.50015657
   0.74905851  0.00022828  0.59830573
   0.66738014  0.66593181  0.50013598
   0.41698626  0.91659787  0.50058600
   0.83459626  0.83295420  0.40224090
   0.08340071  0.08279357  0.40225850
   0.41563558  0.41544387  0.50010358
   0.08392977  0.33399156  0.40352742
   0.91660780  0.41843888  0.49985709
   0.08417337  0.58471960  0.40349114
   0.91737096  0.66349649  0.49999697
   0.08341842  0.83162463  0.40246945
   0.00157074  0.74907688  0.59754806
   0.25029752  0.00054493  0.59701065
   0.16663952  0.41637212  0.49998731
   0.25305517  0.24916819  0.59680696
   0.33095663  0.58408831  0.40278299
   0.24970601  0.49948499  0.59680823
   0.16731190  0.91690278  0.50000961
   0.58375250  0.08354613  0.40263822
   0.41413399  0.16853189  0.50029643
   0.49862446  0.00288289  0.59743145
   0.49713430  0.24970020  0.59766339
   0.24938123  0.74957164  0.59738921
Direct configuration=     7
   0.75034463  0.75282501  0.60140096
   0.41800593  0.66673686  0.50030969
   0.49710333  0.49923338  0.60149966
   0.58383465  0.83457737  0.39877437
   0.66493387  0.91580011  0.50009841
   0.33030652  0.83462500  0.39874394
   0.49740041  0.75359583  0.60128753
   0.16640079  0.66544065  0.50022174
   0.83503549  0.07972909  0.39599794
   0.66396121  0.16869407  0.50051591
   0.33172596  0.33467469  0.39955838
   0.58239835  0.33315322  0.39889531
   0.16716171  0.16661136  0.49991667
   0.83547438  0.33270903  0.39850776
   0.91734409  0.91516280  0.50005433
   0.74896441  0.24832182  0.60242702
   0.00307088  0.49972249  0.60010846
   0.83663016  0.58393745  0.39995694
   0.00338033  0.24860564  0.60275788
   0.74989449  0.50007302  0.59962124
   0.00193791 -0.00299279  0.60272034
   0.91712959  0.16799778  0.49943837
   0.33311022  0.08407578  0.39853887
   0.58253659  0.58353206  0.39905701
   0.66641224  0.41745527  0.50016830
   0.74908262  0.00018953  0.59834547
   0.66729386  0.66583659  0.50014446
   0.41698860  0.91642368  0.50047951
   0.83447581  0.83304030  0.40219711
   0.08335080  0.08279611  0.40220917
   0.41614264  0.41509029  0.50004893
   0.08371792  0.33406165  0.40344746
   0.91642818  0.41819358  0.49992226
   0.08410274  0.58477083  0.40340955
   0.91735532  0.66367681  0.50007551
   0.08334742  0.83172857  0.40242355
   0.00155198  0.74919563  0.59758805
   0.25035309  0.00046373  0.59706867
   0.16653157  0.41652955  0.49998957
   0.25289795  0.24918240  0.59695797
   0.33122468  0.58403353  0.40270132
   0.24968814  0.49948004  0.59692440
   0.16720081  0.91698455  0.50001061
   0.58375268  0.08350083  0.40262307
   0.41462675  0.16837184  0.50014499
   0.49874224  0.00273854  0.59751204
   0.49732901  0.24971126  0.59773774
   0.24931709  0.74970313  0.59746159
Direct configuration=     8
   0.75032490  0.75284011  0.60170586
   0.41751045  0.66667434  0.50035660
   0.49720224  0.49893871  0.60170567
   0.58424214  0.83460709  0.39848896
   0.66478977  0.91582018  0.50014989
   0.32977962  0.83468332  0.39850797
   0.49711755  0.75400573  0.60151684
   0.16661538  0.66538446  0.50023768
   0.83527422  0.07965203  0.39555932
   0.66359714  0.16869022  0.50058536
   0.33172327  0.33483129  0.39926371
   0.58235118  0.33335235  0.39863332
   0.16783246  0.16634035  0.49997195
   0.83564035  0.33273718  0.39834556
   0.91737855  0.91505628  0.50004020
   0.74865099  0.24843277  0.60272319
   0.00301565  0.49978670  0.60035676
   0.83681850  0.58378412  0.39989955
   0.00339568  0.24856989  0.60319310
   0.74986286  0.50016096  0.59977772
   0.00229205 -0.00333775  0.60304439
   0.91691982  0.16815242  0.49948963
   0.33271476  0.08442450  0.39822986
   0.58268850  0.58330398  0.39883735
   0.66641127  0.41754316  0.50017857
   0.74904263  0.00024444  0.59833555
   0.66783479  0.66547226  0.50014505
   0.41664568  0.91690647  0.50040327
   0.83421226  0.83306580  0.40225087
   0.08325636  0.08271941  0.40218025
   0.41613234  0.41520020  0.50006323
   0.08343977  0.33421156  0.40345223
   0.91595545  0.41836945  0.49996118
   0.08388745  0.58475759  0.40341183
   0.91721896  0.66377958  0.50017644
   0.08338603  0.83201664  0.40242283
   0.00143284  0.74928676  0.59764114
   0.25086104  0.00011622  0.59701271
   0.16668121  0.41656287  0.50003140
   0.25304931  0.24895671  0.59693155
   0.33147723  0.58403595  0.40276355
   0.24986771  0.49932724  0.59693999
   0.16741084  0.91667407  0.49999356
   0.58391241  0.08333257  0.40257411
   0.41463718  0.16821791  0.50005775
   0.49862810  0.00265911  0.59739300
   0.49756803  0.24971008  0.59757371
   0.24931308  0.74994273  0.59748581
Direct configuration=     9
   0.75030999  0.75285151  0.60193614
   0.41713624  0.66662711  0.50039203
   0.49727694  0.49871615  0.60186126
   0.58454990  0.83462953  0.39827341
   0.66468094  0.91583535  0.50018876
   0.32938168  0.83472737  0.39832976
   0.49690392  0.75431531  0.60169002
   0.16677744  0.66534203  0.50024972
   0.83545451  0.07959383  0.39522805
   0.66332218  0.16868732  0.50063781
   0.33172123  0.33494956  0.39904117
   0.58231556  0.33350275  0.39843545
   0.16833905  0.16613568  0.50001371
   0.83576569  0.33275843  0.39822305
   0.91740458  0.91497583  0.50002953
   0.74841428  0.24851657  0.60294687
   0.00297395  0.49983518  0.60054428
   0.83696075  0.58366831  0.39985620
   0.00340727  0.24854289  0.60352180
   0.74983898  0.50022738  0.59989590
   0.00255952 -0.00359827  0.60328912
   0.91676139  0.16826922  0.49952835
   0.33241609  0.08468788  0.39799648
   0.58280324  0.58313172  0.39867146
   0.66641054  0.41760953  0.50018632
   0.74901242  0.00028590  0.59832805
   0.66824332  0.66519710  0.50014549
   0.41638670  0.91727109  0.50034568
   0.83401322  0.83308505  0.40229147
   0.08318504  0.08266148  0.40215840
   0.41612456  0.41528320  0.50007402
   0.08322970  0.33432477  0.40345583
   0.91559843  0.41850228  0.49999056
   0.08372485  0.58474759  0.40341355
   0.91711597  0.66385720  0.50025267
   0.08341519  0.83223420  0.40242228
   0.00134287  0.74935559  0.59768125
   0.25124466 -0.00014624  0.59697045
   0.16679423  0.41658802  0.50006299
   0.25316363  0.24878626  0.59691160
   0.33166797  0.58403778  0.40281055
   0.25000334  0.49921184  0.59695177
   0.16756947  0.91643958  0.49998068
   0.58403305  0.08320550  0.40253713
   0.41464506  0.16810166  0.49999187
   0.49854189  0.00259912  0.59730310
   0.49774855  0.24970919  0.59744983
   0.24931005  0.75012369  0.59750410
Direct configuration=    10
   0.75024559  0.75296094  0.60224068
   0.41719859  0.66665528  0.50048223
   0.49699321  0.49897717  0.60204716
   0.58438040  0.83454398  0.39802043
   0.66457193  0.91551618  0.50026503
   0.32949918  0.83473737  0.39809026
   0.49694426  0.75424234  0.60184004
   0.16688412  0.66493369  0.50024785
   0.83545058  0.07958367  0.39475611
   0.66332285  0.16871624  0.50060309
   0.33156529  0.33511495  0.39879062
   0.58246988  0.33322968  0.39819006
   0.16827433  0.16647812  0.50006171
   0.83599503  0.33250979  0.39809748
   0.91732411  0.91513006  0.49998677
   0.74862072  0.24820923  0.60325825
   0.00321680  0.49980829  0.60076097
   0.83700600  0.58372719  0.39987242
   0.00372008  0.24814670  0.60398992
   0.74964621  0.50047158  0.60008641
   0.00271355 -0.00361893  0.60363520
   0.91682975  0.16811863  0.49960891
   0.33211009  0.08497566  0.39765036
   0.58277303  0.58355662  0.39849042
   0.66617894  0.41769975  0.50019250
   0.74908401  0.00029740  0.59828683
   0.66798224  0.66542762  0.50013013
   0.41660699  0.91702270  0.50015304
   0.83414140  0.83308129  0.40240132
   0.08303606  0.08284535  0.40223375
   0.41588262  0.41542653  0.50004915
   0.08329215  0.33431609  0.40359001
   0.91583377  0.41843887  0.50006386
   0.08370153  0.58485896  0.40353628
   0.91720980  0.66370140  0.50038215
   0.08326505  0.83222733  0.40246753
   0.00135030  0.74925748  0.59770935
   0.25128019 -0.00008977  0.59687736
   0.16677754  0.41653293  0.50010764
   0.25332988  0.24867521  0.59678807
   0.33157278  0.58407639  0.40291865
   0.25009993  0.49911157  0.59689622
   0.16749397  0.91649080  0.49996169
   0.58409478  0.08336020  0.40247389
   0.41431517  0.16830934  0.49986146
   0.49854047  0.00266637  0.59710696
   0.49765317  0.24956976  0.59720723
   0.24952168  0.74997196  0.59753251
Direct configuration=    11
   0.75019376  0.75304902  0.60248580
   0.41724878  0.66667795  0.50055483
   0.49676485  0.49918726  0.60219679
   0.58424398  0.83447514  0.39781681
   0.66448420  0.91525929  0.50032641
   0.32959375  0.83474543  0.39789750
   0.49697673  0.75418361  0.60196079
   0.16696998  0.66460504  0.50024635
   0.83544742  0.07957549  0.39437625
   0.66332340  0.16873952  0.50057515
   0.33143977  0.33524806  0.39858896
   0.58259408  0.33300990  0.39799256
   0.16822224  0.16675374  0.50010036
   0.83617961  0.33230967  0.39799641
   0.91725934  0.91525419  0.49995235
   0.74878687  0.24796186  0.60350886
   0.00341227  0.49978665  0.60093538
   0.83704242  0.58377458  0.39988548
   0.00397186  0.24782782  0.60436669
   0.74949105  0.50066813  0.60023975
   0.00283752 -0.00363555  0.60391375
   0.91688477  0.16799743  0.49967376
   0.33186379  0.08520728  0.39737178
   0.58274871  0.58389861  0.39834471
   0.66599254  0.41777236  0.50019748
   0.74914162  0.00030666  0.59825365
   0.66777211  0.66561316  0.50011777
   0.41678430  0.91682278  0.49999798
   0.83424458  0.83307827  0.40248973
   0.08291614  0.08299334  0.40229439
   0.41568788  0.41554189  0.50002913
   0.08334241  0.33430909  0.40369802
   0.91602320  0.41838784  0.50012285
   0.08368276  0.58494860  0.40363506
   0.91728533  0.66357601  0.50048636
   0.08314421  0.83222181  0.40250395
   0.00135627  0.74917852  0.59773198
   0.25130879 -0.00004432  0.59680244
   0.16676410  0.41648859  0.50014358
   0.25346368  0.24858583  0.59668865
   0.33149617  0.58410746  0.40300565
   0.25017768  0.49903087  0.59685151
   0.16743320  0.91653202  0.49994640
   0.58414446  0.08348472  0.40242299
   0.41404966  0.16847649  0.49975650
   0.49853934  0.00272050  0.59694909
   0.49757640  0.24945753  0.59701197
   0.24969202  0.74984984  0.59755538
Direct configuration=    12
   0.75019959  0.75312026  0.60272508
   0.41743134  0.66683046  0.50058911
   0.49687696  0.49902331  0.60231043
   0.58393543  0.83490755  0.39762970
   0.66464390  0.91517337  0.50029132
   0.32952823  0.83496818  0.39776600
   0.49711212  0.75413015  0.60201813
   0.16667821  0.66488145  0.50032215
   0.83545345  0.07945884  0.39394910
   0.66348977  0.16874331  0.50041570
   0.33138741  0.33531915  0.39843833
   0.58265606  0.33314456  0.39784530
   0.16772349  0.16676500  0.50012176
   0.83594013  0.33245324  0.39799771
   0.91721944  0.91529713  0.49996720
   0.74892771  0.24803714  0.60373434
   0.00345761  0.49951172  0.60108973
   0.83698570  0.58385453  0.40000288
   0.00397466  0.24795663  0.60479028
   0.74971769  0.50039216  0.60036602
   0.00300738 -0.00388629  0.60419608
   0.91690746  0.16806790  0.49981300
   0.33200567  0.08512191  0.39705874
   0.58274982  0.58376643  0.39828234
   0.66603114  0.41767929  0.50019753
   0.74937249  0.00017119  0.59817357
   0.66753725  0.66558251  0.50012425
   0.41669698  0.91657797  0.49970895
   0.83420286  0.83317333  0.40263876
   0.08296640  0.08295206  0.40244872
   0.41586000  0.41531958  0.49989658
   0.08346300  0.33438707  0.40385075
   0.91606164  0.41829354  0.50030264
   0.08374452  0.58500414  0.40378044
   0.91725921  0.66346466  0.50068783
   0.08311456  0.83219087  0.40257899
   0.00150735  0.74916914  0.59770987
   0.25125360 -0.00003872  0.59665359
   0.16661318  0.41649125  0.50015609
   0.25338131  0.24869234  0.59659991
   0.33153262  0.58417528  0.40310789
   0.25016769  0.49903238  0.59680534
   0.16736272  0.91665437  0.49993192
   0.58397275  0.08349660  0.40241512
   0.41407073  0.16854576  0.49943158
   0.49861098  0.00272770  0.59673640
   0.49758071  0.24944897  0.59678961
   0.24962709  0.74977062  0.59755328
Direct configuration=    13
   0.75020295  0.75316123  0.60286265
   0.41753631  0.66691816  0.50060882
   0.49694143  0.49892904  0.60237578
   0.58375802  0.83515618  0.39752212
   0.66473572  0.91512397  0.50027114
   0.32949055  0.83509625  0.39769040
   0.49718996  0.75409941  0.60205110
   0.16651044  0.66504039  0.50036573
   0.83545692  0.07939176  0.39370349
   0.66358543  0.16874549  0.50032402
   0.33135730  0.33536003  0.39835172
   0.58269169  0.33322200  0.39776063
   0.16743672  0.16677147  0.50013407
   0.83580244  0.33253579  0.39799845
   0.91719650  0.91532182  0.49997573
   0.74900869  0.24808043  0.60386398
   0.00348368  0.49935363  0.60117848
   0.83695309  0.58390050  0.40007038
   0.00397627  0.24803070  0.60503383
   0.74984800  0.50023348  0.60043862
   0.00310505 -0.00403047  0.60435842
   0.91692051  0.16810843  0.49989306
   0.33208725  0.08507282  0.39687875
   0.58275046  0.58369042  0.39824648
   0.66605333  0.41762578  0.50019756
   0.74950524  0.00009330  0.59812752
   0.66740220  0.66556489  0.50012798
   0.41664676  0.91643721  0.49954277
   0.83417888  0.83322799  0.40272444
   0.08299529  0.08292832  0.40253747
   0.41595896  0.41519175  0.49982036
   0.08353234  0.33443190  0.40393856
   0.91608374  0.41823933  0.50040602
   0.08378003  0.58503608  0.40386403
   0.91724419  0.66340064  0.50080367
   0.08309751  0.83217308  0.40262214
   0.00159422  0.74916375  0.59769715
   0.25122186 -0.00003551  0.59656800
   0.16652640  0.41649278  0.50016329
   0.25333395  0.24875358  0.59654888
   0.33155358  0.58421427  0.40316667
   0.25016194  0.49903325  0.59677880
   0.16732220  0.91672473  0.49992359
   0.58387401  0.08350343  0.40241058
   0.41408284  0.16858559  0.49924476
   0.49865218  0.00273184  0.59661411
   0.49758319  0.24944404  0.59666176
   0.24958975  0.74972508  0.59755207
Direct configuration=    14
   0.75036496  0.75301393  0.60298768
   0.41737660  0.66678529  0.50060867
   0.49720932  0.49865274  0.60235396
   0.58387665  0.83521624  0.39738956
   0.66475472  0.91514639  0.50019220
   0.32934702  0.83507905  0.39763469
   0.49728058  0.75408062  0.60200644
   0.16663898  0.66528186  0.50046844
   0.83545171  0.07934260  0.39340918
   0.66392195  0.16860918  0.50012053
   0.33143245  0.33543169  0.39826195
   0.58258991  0.33328045  0.39767459
   0.16769010  0.16650135  0.50016642
   0.83578844  0.33259303  0.39814267
   0.91716364  0.91554201  0.50002102
   0.74910297  0.24803378  0.60397930
   0.00335308  0.49940227  0.60130261
   0.83673109  0.58411131  0.40030291
   0.00403881  0.24796117  0.60540684
   0.75001256  0.50005147  0.60049798
   0.00308679 -0.00399262  0.60459073
   0.91658654  0.16822713  0.50008556
   0.33199444  0.08522191  0.39661533
   0.58260952  0.58374200  0.39828722
   0.66623641  0.41747180  0.50023794
   0.74967338  0.00013284  0.59801115
   0.66762835  0.66530849  0.50017425
   0.41640335  0.91681114  0.49926225
   0.83400641  0.83327407  0.40283310
   0.08285575  0.08300282  0.40267228
   0.41601079  0.41531469  0.49967571
   0.08342350  0.33447483  0.40405498
   0.91575352  0.41831566  0.50062248
   0.08378998  0.58503856  0.40403067
   0.91698381  0.66339562  0.50105672
   0.08319849  0.83221322  0.40268582
   0.00167893  0.74900602  0.59772260
   0.25125844 -0.00013110  0.59639975
   0.16652677  0.41650912  0.50018829
   0.25334207  0.24871551  0.59641339
   0.33157668  0.58438254  0.40326152
   0.25014526  0.49903143  0.59671950
   0.16724007  0.91663908  0.49993989
   0.58379590  0.08365367  0.40236137
   0.41400266  0.16830492  0.49887517
   0.49858240  0.00280525  0.59633260
   0.49782300  0.24940659  0.59643562
   0.24966120  0.74960840  0.59752648
Direct configuration=    15
   0.75041427  0.75296910  0.60302574
   0.41732799  0.66674485  0.50060863
   0.49729086  0.49856864  0.60234732
   0.58391276  0.83523452  0.39734922
   0.66476050  0.91515322  0.50016818
   0.32930334  0.83507381  0.39761774
   0.49730815  0.75407490  0.60199285
   0.16667811  0.66535535  0.50049970
   0.83545013  0.07932764  0.39331961
   0.66402438  0.16856769  0.50005860
   0.33145532  0.33545350  0.39823463
   0.58255893  0.33329824  0.39764841
   0.16776722  0.16641915  0.50017626
   0.83578419  0.33261045  0.39818657
   0.91715364  0.91560902  0.50003480
   0.74913167  0.24801959  0.60401440
   0.00331333  0.49941707  0.60134039
   0.83666353  0.58417547  0.40037368
   0.00405784  0.24794001  0.60552036
   0.75006264  0.49999607  0.60051604
   0.00308123 -0.00398111  0.60466144
   0.91648490  0.16826326  0.50014415
   0.33196620  0.08526729  0.39653516
   0.58256663  0.58375770  0.39829962
   0.66629213  0.41742494  0.50025024
   0.74972456  0.00014487  0.59797573
   0.66769718  0.66523046  0.50018834
   0.41632927  0.91692495  0.49917688
   0.83395391  0.83328809  0.40286617
   0.08281328  0.08302549  0.40271331
   0.41602656  0.41535211  0.49963168
   0.08339038  0.33448789  0.40409041
   0.91565302  0.41833889  0.50068836
   0.08379301  0.58503931  0.40408139
   0.91690456  0.66339409  0.50113373
   0.08322923  0.83222544  0.40270520
   0.00170471  0.74895801  0.59773034
   0.25126957 -0.00016020  0.59634854
   0.16652688  0.41651409  0.50019590
   0.25334454  0.24870393  0.59637215
   0.33158371  0.58443376  0.40329038
   0.25014018  0.49903087  0.59670145
   0.16721508  0.91661302  0.49994485
   0.58377213  0.08369939  0.40234639
   0.41397826  0.16821950  0.49876268
   0.49856116  0.00282760  0.59624692
   0.49789599  0.24939520  0.59636680
   0.24968295  0.74957289  0.59751869
Direct configuration=    16
   0.75036807  0.75299389  0.60305664
   0.41742449  0.66665881  0.50061796
   0.49742554  0.49849496  0.60221966
   0.58400102  0.83509857  0.39724401
   0.66468425  0.91511859  0.50008430
   0.32928115  0.83510468  0.39759532
   0.49739320  0.75403767  0.60180230
   0.16659594  0.66532459  0.50057766
   0.83543655  0.07934985  0.39311734
   0.66384723  0.16857801  0.49984861
   0.33135810  0.33565774  0.39818028
   0.58253206  0.33330204  0.39757690
   0.16764788  0.16646459  0.50016800
   0.83582311  0.33260598  0.39843577
   0.91725609  0.91558173  0.50007980
   0.74925152  0.24782630  0.60407404
   0.00338807  0.49939361  0.60146676
   0.83657346  0.58424835  0.40068120
   0.00434394  0.24763508  0.60585271
   0.75001065  0.50004103  0.60058542
   0.00309572 -0.00389286  0.60486014
   0.91654775  0.16827586  0.50035512
   0.33169430  0.08543613  0.39626615
   0.58243499  0.58399013  0.39841875
   0.66616332  0.41747779  0.50032295
   0.74976735  0.00018069  0.59784909
   0.66756924  0.66534011  0.50028852
   0.41640037  0.91693615  0.49891971
   0.83398270  0.83330880  0.40294105
   0.08253584  0.08322057  0.40286652
   0.41610747  0.41523887  0.49951886
   0.08315921  0.33457295  0.40422671
   0.91572271  0.41815780  0.50091032
   0.08369479  0.58507153  0.40430100
   0.91688340  0.66352964  0.50137984
   0.08314381  0.83234452  0.40276236
   0.00171395  0.74889812  0.59781339
   0.25134622 -0.00034512  0.59622534
   0.16657304  0.41659185  0.50023361
   0.25346900  0.24862647  0.59620933
   0.33150153  0.58451960  0.40330731
   0.25026568  0.49886408  0.59663485
   0.16707405  0.91662818  0.49999547
   0.58382478  0.08383537  0.40218810
   0.41403952  0.16818335  0.49844846
   0.49857496  0.00282212  0.59590134
   0.49814910  0.24922323  0.59605492
   0.24992290  0.74944799  0.59753612
Direct configuration=    17
   0.75034213  0.75300782  0.60307400
   0.41747869  0.66661048  0.50062320
   0.49750119  0.49845358  0.60214796
   0.58405060  0.83502221  0.39718492