  48  48   0   0
  0.5349325E+02  0.1100258E-08  0.1100258E-08  0.2449179E-08  0.3500000E-15
  1.000000000000000E-004
  CAR 
 unknown system                          
      6.36301288     -9.74345616  301     -1.08452198      1.00000000
     -9.743  0.0000E+00  0.0000E+00
     -9.690  0.0000E+00  0.0000E+00
     -9.636  0.0000E+00  0.0000E+00
     -9.582  0.0000E+00  0.0000E+00
     -9.529  0.0000E+00  0.0000E+00
     -9.475  0.0000E+00  0.0000E+00
     -9.421  0.0000E+00  0.0000E+00
     -9.368  0.0000E+00  0.0000E+00
     -9.314  0.4136E-17  0.2220E-18
     -9.260  0.1834E-14  0.9870E-16
     -9.207  0.4038E-12  0.2178E-13
     -9.153  0.5093E-10  0.2756E-11
     -9.099  0.3694E-08  0.2011E-09
     -9.046  0.1547E-06  0.8504E-08
     -8.992  0.3755E-05  0.2101E-06
     -8.938  0.5311E-04  0.3061E-05
     -8.884  0.4392E-03  0.2664E-04
     -8.831  0.2132E-02  0.1411E-03
     -8.777  0.6101E-02  0.4687E-03
     -8.723  0.1043E-01  0.1028E-02
     -8.670  0.1130E-01  0.1635E-02
     -8.616  0.9797E-02  0.2161E-02
     -8.562  0.9720E-02  0.2683E-02
     -8.509  0.9937E-02  0.3216E-02
     -8.455  0.7904E-02  0.3641E-02
     -8.401  0.4488E-02  0.3882E-02
     -8.348  0.1849E-02  0.3981E-02
     -8.294  0.1079E-02  0.4039E-02
     -8.240  0.2044E-02  0.4148E-02
     -8.186  0.3548E-02  0.4339E-02
     -8.133  0.4155E-02  0.4562E-02
     -8.079  0.4577E-02  0.4808E-02
     -8.025  0.6501E-02  0.5157E-02
     -7.972  0.9192E-02  0.5650E-02
     -7.918  0.1171E-01  0.6279E-02
     -7.864  0.1511E-01  0.7090E-02
     -7.811  0.1947E-01  0.8135E-02
     -7.757  0.2272E-01  0.9355E-02
     -7.703  0.2248E-01  0.1056E-01
     -7.650  0.1886E-01  0.1157E-01
     -7.596  0.1658E-01  0.1246E-01
     -7.542  0.1889E-01  0.1348E-01
     -7.489  0.2138E-01  0.1463E-01
     -7.435  0.1932E-01  0.1566E-01
     -7.381  0.1532E-01  0.1649E-01
     -7.327  0.1533E-01  0.1731E-01
     -7.274  0.2076E-01  0.1842E-01
     -7.220  0.2760E-01  0.1991E-01
     -7.166  0.3197E-01  0.2162E-01
     -7.113  0.3452E-01  0.2348E-01
     -7.059  0.3919E-01  0.2558E-01
     -7.005  0.4558E-01  0.2803E-01
     -6.952  0.5004E-01  0.3071E-01
     -6.898  0.5363E-01  0.3359E-01
     -6.844  0.6046E-01  0.3684E-01
     -6.791  0.7080E-01  0.4064E-01
     -6.737  0.7976E-01  0.4492E-01
     -6.683  0.8518E-01  0.4950E-01
     -6.630  0.8926E-01  0.5429E-01
     -6.576  0.9214E-01  0.5924E-01
     -6.522  0.9511E-01  0.6434E-01
     -6.468  0.1011E+00  0.6977E-01
     -6.415  0.1088E+00  0.7561E-01
     -6.361  0.1159E+00  0.8183E-01
     -6.307  0.1242E+00  0.8850E-01
     -6.254  0.1343E+00  0.9571E-01
     -6.200  0.1424E+00  0.1034E+00
     -6.146  0.1462E+00  0.1112E+00
     -6.093  0.1494E+00  0.1192E+00
     -6.039  0.1556E+00  0.1276E+00
     -5.985  0.1630E+00  0.1363E+00
     -5.932  0.1669E+00  0.1453E+00
     -5.878  0.1683E+00  0.1543E+00
     -5.824  0.1691E+00  0.1634E+00
     -5.771  0.1661E+00  0.1723E+00
     -5.717  0.1576E+00  0.1808E+00
     -5.663  0.1489E+00  0.1888E+00
     -5.609  0.1432E+00  0.1965E+00
     -5.556  0.1396E+00  0.2040E+00
     -5.502  0.1380E+00  0.2114E+00
     -5.448  0.1388E+00  0.2188E+00
     -5.395  0.1427E+00  0.2265E+00
     -5.341  0.1508E+00  0.2346E+00
     -5.287  0.1603E+00  0.2432E+00
     -5.234  0.1658E+00  0.2521E+00
     -5.180  0.1660E+00  0.2610E+00
     -5.126  0.1659E+00  0.2699E+00
     -5.073  0.1693E+00  0.2790E+00
     -5.019  0.1748E+00  0.2884E+00
     -4.965  0.1802E+00  0.2981E+00
     -4.912  0.1834E+00  0.3079E+00
     -4.858  0.1814E+00  0.3176E+00
     -4.804  0.1741E+00  0.3270E+00
     -4.750  0.1681E+00  0.3360E+00
     -4.697  0.1662E+00  0.3449E+00
     -4.643  0.1653E+00  0.3538E+00
     -4.589  0.1655E+00  0.3627E+00
     -4.536  0.1686E+00  0.3718E+00
     -4.482  0.1733E+00  0.3811E+00
     -4.428  0.1786E+00  0.3907E+00
     -4.375  0.1834E+00  0.4005E+00
     -4.321  0.1837E+00  0.4104E+00
     -4.267  0.1774E+00  0.4199E+00
     -4.214  0.1700E+00  0.4290E+00
     -4.160  0.1695E+00  0.4381E+00
     -4.106  0.1750E+00  0.4475E+00
     -4.053  0.1790E+00  0.4571E+00
     -3.999  0.1790E+00  0.4667E+00
     -3.945  0.1789E+00  0.4763E+00
     -3.891  0.1813E+00  0.4861E+00
     -3.838  0.1848E+00  0.4960E+00
     -3.784  0.1897E+00  0.5062E+00
     -3.730  0.1959E+00  0.5167E+00
     -3.677  0.1991E+00  0.5274E+00
     -3.623  0.1984E+00  0.5380E+00
     -3.569  0.1991E+00  0.5487E+00
     -3.516  0.2014E+00  0.5595E+00
     -3.462  0.2020E+00  0.5704E+00
     -3.408  0.2023E+00  0.5812E+00
     -3.355  0.2041E+00  0.5922E+00
     -3.301  0.2045E+00  0.6032E+00
     -3.247  0.1998E+00  0.6139E+00
     -3.193  0.1923E+00  0.6242E+00
     -3.140  0.1871E+00  0.6343E+00
     -3.086  0.1863E+00  0.6443E+00
     -3.032  0.1880E+00  0.6544E+00
     -2.979  0.1879E+00  0.6645E+00
     -2.925  0.1855E+00  0.6744E+00
     -2.871  0.1837E+00  0.6843E+00
     -2.818  0.1826E+00  0.6941E+00
     -2.764  0.1816E+00  0.7038E+00
     -2.710  0.1826E+00  0.7136E+00
     -2.657  0.1845E+00  0.7235E+00
     -2.603  0.1845E+00  0.7335E+00
     -2.549  0.1832E+00  0.7433E+00
     -2.496  0.1815E+00  0.7530E+00
     -2.442  0.1807E+00  0.7627E+00
     -2.388  0.1818E+00  0.7725E+00
     -2.334  0.1825E+00  0.7823E+00
     -2.281  0.1809E+00  0.7920E+00
     -2.227  0.1781E+00  0.8016E+00
     -2.173  0.1750E+00  0.8110E+00
     -2.120  0.1739E+00  0.8203E+00
     -2.066  0.1771E+00  0.8298E+00
     -2.012  0.1821E+00  0.8396E+00
     -1.959  0.1862E+00  0.8496E+00
     -1.905  0.1906E+00  0.8598E+00
     -1.851  0.1951E+00  0.8703E+00
     -1.798  0.1988E+00  0.8810E+00
     -1.744  0.2029E+00  0.8919E+00
     -1.690  0.2052E+00  0.9029E+00
     -1.637  0.2022E+00  0.9137E+00
     -1.583  0.1950E+00  0.9242E+00
     -1.529  0.1877E+00  0.9343E+00
     -1.475  0.1845E+00  0.9442E+00
     -1.422  0.1871E+00  0.9542E+00
     -1.368  0.1908E+00  0.9645E+00
     -1.314  0.1899E+00  0.9747E+00
     -1.261  0.1809E+00  0.9844E+00
     -1.207  0.1620E+00  0.9931E+00
     -1.153  0.1376E+00  0.1000E+01
     -1.100  0.1127E+00  0.1007E+01
     -1.046  0.8964E-01  0.1011E+01
     -0.992  0.6833E-01  0.1015E+01
     -0.939  0.4755E-01  0.1018E+01
     -0.885  0.3022E-01  0.1019E+01
     -0.831  0.2106E-01  0.1020E+01
     -0.778  0.2005E-01  0.1021E+01
     -0.724  0.2153E-01  0.1023E+01
     -0.670  0.2232E-01  0.1024E+01
     -0.616  0.2450E-01  0.1025E+01
     -0.563  0.2894E-01  0.1027E+01
     -0.509  0.3541E-01  0.1029E+01
     -0.455  0.4278E-01  0.1031E+01
     -0.402  0.4361E-01  0.1033E+01
     -0.348  0.3462E-01  0.1035E+01
     -0.294  0.2720E-01  0.1036E+01
     -0.241  0.3177E-01  0.1038E+01
     -0.187  0.4195E-01  0.1040E+01
     -0.133  0.4408E-01  0.1043E+01
     -0.080  0.3596E-01  0.1045E+01
     -0.026  0.2632E-01  0.1046E+01
      0.028  0.2324E-01  0.1047E+01
      0.081  0.2831E-01  0.1049E+01
      0.135  0.3537E-01  0.1051E+01
      0.189  0.3799E-01  0.1053E+01
      0.243  0.3635E-01  0.1055E+01
      0.296  0.3360E-01  0.1057E+01
      0.350  0.3176E-01  0.1058E+01
      0.404  0.3325E-01  0.1060E+01
      0.457  0.3694E-01  0.1062E+01
      0.511  0.3824E-01  0.1064E+01
      0.565  0.3815E-01  0.1066E+01
      0.618  0.4052E-01  0.1068E+01
      0.672  0.4390E-01  0.1071E+01
      0.726  0.4452E-01  0.1073E+01
      0.779  0.4170E-01  0.1075E+01
      0.833  0.3577E-01  0.1077E+01
      0.887  0.2711E-01  0.1079E+01
      0.941  0.1883E-01  0.1080E+01
      0.994  0.1502E-01  0.1081E+01
      1.048  0.1579E-01  0.1081E+01
      1.102  0.1802E-01  0.1082E+01
      1.155  0.2010E-01  0.1083E+01
      1.209  0.2040E-01  0.1085E+01
      1.263  0.1815E-01  0.1085E+01
      1.316  0.1511E-01  0.1086E+01
      1.370  0.1401E-01  0.1087E+01
      1.424  0.1794E-01  0.1088E+01
      1.477  0.2714E-01  0.1089E+01
      1.531  0.3554E-01  0.1091E+01
      1.585  0.3589E-01  0.1093E+01
      1.638  0.3024E-01  0.1095E+01
      1.692  0.2724E-01  0.1096E+01
      1.746  0.3104E-01  0.1098E+01
      1.800  0.3692E-01  0.1100E+01
      1.853  0.3599E-01  0.1102E+01
      1.907  0.2675E-01  0.1103E+01
      1.961  0.1835E-01  0.1104E+01
      2.014  0.1695E-01  0.1105E+01
      2.068  0.1874E-01  0.1106E+01
      2.122  0.1999E-01  0.1107E+01
      2.175  0.2304E-01  0.1109E+01
      2.229  0.3065E-01  0.1110E+01
      2.283  0.4116E-01  0.1112E+01
      2.336  0.4941E-01  0.1115E+01
      2.390  0.5112E-01  0.1118E+01
      2.444  0.4786E-01  0.1120E+01
      2.497  0.4415E-01  0.1123E+01
      2.551  0.4189E-01  0.1125E+01
      2.605  0.4196E-01  0.1127E+01
      2.659  0.4396E-01  0.1130E+01
      2.712  0.4521E-01  0.1132E+01
      2.766  0.4264E-01  0.1134E+01
      2.820  0.3442E-01  0.1136E+01
      2.873  0.2362E-01  0.1138E+01
      2.927  0.1655E-01  0.1138E+01
      2.981  0.1400E-01  0.1139E+01
      3.034  0.1205E-01  0.1140E+01
      3.088  0.1217E-01  0.1140E+01
      3.142  0.1774E-01  0.1141E+01
      3.195  0.2469E-01  0.1143E+01
      3.249  0.2620E-01  0.1144E+01
      3.303  0.2135E-01  0.1145E+01
      3.356  0.1558E-01  0.1146E+01
      3.410  0.1461E-01  0.1147E+01
      3.464  0.1924E-01  0.1148E+01
      3.518  0.2438E-01  0.1149E+01
      3.571  0.2645E-01  0.1151E+01
      3.625  0.3002E-01  0.1152E+01
      3.679  0.3653E-01  0.1154E+01
      3.732  0.4002E-01  0.1156E+01
      3.786  0.3781E-01  0.1158E+01
      3.840  0.3195E-01  0.1160E+01
      3.893  0.2539E-01  0.1161E+01
      3.947  0.2196E-01  0.1163E+01
      4.001  0.2393E-01  0.1164E+01
      4.054  0.2753E-01  0.1165E+01
      4.108  0.2792E-01  0.1167E+01
      4.162  0.2618E-01  0.1168E+01
      4.215  0.2452E-01  0.1170E+01
      4.269  0.2179E-01  0.1171E+01
      4.323  0.1805E-01  0.1172E+01
      4.377  0.1779E-01  0.1173E+01
      4.430  0.2291E-01  0.1174E+01
      4.484  0.2947E-01  0.1176E+01
      4.538  0.3663E-01  0.1178E+01
      4.591  0.4670E-01  0.1180E+01
      4.645  0.5483E-01  0.1183E+01
      4.699  0.5410E-01  0.1186E+01
      4.752  0.4839E-01  0.1188E+01
      4.806  0.4631E-01  0.1191E+01
      4.860  0.4952E-01  0.1194E+01
      4.913  0.5371E-01  0.1197E+01
      4.967  0.5761E-01  0.1200E+01
      5.021  0.6525E-01  0.1203E+01
      5.074  0.7531E-01  0.1207E+01
      5.128  0.7756E-01  0.1211E+01
      5.182  0.6873E-01  0.1215E+01
      5.236  0.5676E-01  0.1218E+01
      5.289  0.4546E-01  0.1220E+01
      5.343  0.3311E-01  0.1222E+01
      5.397  0.1992E-01  0.1223E+01
      5.450  0.8947E-02  0.1224E+01
      5.504  0.2734E-02  0.1224E+01
      5.558  0.5322E-03  0.1224E+01
      5.611  0.6330E-04  0.1224E+01
      5.665  0.4483E-05  0.1224E+01
      5.719  0.1860E-06  0.1224E+01
      5.772  0.4476E-08  0.1224E+01
      5.826  0.6197E-10  0.1224E+01
      5.880  0.4915E-12  0.1224E+01
      5.934  0.2224E-14  0.1224E+01
      5.987  0.5514E-17  0.1224E+01
      6.041  0.0000E+00  0.1224E+01
      6.095  0.0000E+00  0.1224E+01
      6.148  0.0000E+00  0.1224E+01
      6.202  0.0000E+00  0.1224E+01
      6.256  0.0000E+00  0.1224E+01
      6.309  0.0000E+00  0.1224E+01
      6.363  0.0000E+00  0.1224E+01
