<?xml version="1.0" encoding="ISO-8859-1"?>
<modeling>
 <generator>
  <i name="program" type="string">vasp </i>
  <i name="version" type="string">5.4.1  </i>
  <i name="subversion" type="string">24Jun15 (build Mar 14 2019 10:18:33) complex                          parallel </i>
  <i name="platform" type="string">INTEL-19.0.2+OPENMPI-3.1.3 </i>
  <i name="date" type="string">2022 06 20 </i>
  <i name="time" type="string">18:30:35 </i>
 </generator>
 <incar>
  <i type="int" name="ISTART">     0</i>
  <i type="string" name="PREC">normal</i>
  <i type="string" name="ALGO"> Fast</i>
  <i type="int" name="NELM">   500</i>
  <i type="int" name="IBRION">     2</i>
  <i type="int" name="NFREE">     2</i>
  <i name="EDIFF">      0.00000100</i>
  <i name="EDIFFG">     -0.02000000</i>
  <i type="int" name="NSW">   500</i>
  <i type="int" name="ISIF">     0</i>
  <i type="int" name="ISYM">     2</i>
  <i name="ENCUT">    400.00000000</i>
  <i name="POTIM">      0.35000000</i>
  <i type="string" name="LREAL"> Auto</i>
  <i type="logical" name="LPLANE"> T  </i>
  <i type="int" name="ISMEAR">     0</i>
  <i name="SIGMA">      0.10000000</i>
  <i type="int" name="NWRITE">     1</i>
  <i type="logical" name="LWAVE"> F  </i>
  <i type="logical" name="LCHARG"> F  </i>
  <i type="logical" name="LVTOT"> F  </i>
  <i type="logical" name="LORBIT"> F  </i>
  <i type="logical" name="LAECHG"> F  </i>
  <v type="int" name="KPOINT_BSE">    -1     0     0     0</v>
  <i type="int" name="NELM">   500</i>
  <i type="string" name="GGA"> PE          ! optPBE-vdW XC-functional</i>
  <i type="int" name="VOSKOWN">     1</i>
  <i type="logical" name="LDIPOL"> T  </i>
  <i type="logical" name="LMONO"> F  </i>
  <i type="int" name="IDIPOL">     3</i>
  <v name="DIPOL">      0.00000000      0.00000000      0.50000000</v>
 </incar>
 <kpoints>
  <generation param="Monkhorst-Pack">
   <v type="int" name="divisions">       2        2        1 </v>
   <v name="usershift">      0.00000000       0.00000000       0.00000000 </v>
   <v name="genvec1">      0.50000000      -0.00000000       0.00000000 </v>
   <v name="genvec2">      0.00000000       0.50000000       0.00000000 </v>
   <v name="genvec3">      0.00000000       0.00000000       1.00000000 </v>
   <v name="shift">      0.50000000       0.50000000       0.00000000 </v>
  </generation>
  <varray name="kpointlist" >
   <v>       0.25000000       0.25000000       0.00000000 </v>
   <v>       0.00000000       0.25000000       0.00000000 </v>
   <v>      -0.25000000       0.00000000       0.00000000 </v>
   <v>      -0.25000000       0.25000000       0.00000000 </v>
   <v>       0.50000000      -0.25000000       0.00000000 </v>
   <v>      -0.25000000       0.50000000       0.00000000 </v>
  </varray>
  <varray name="weights" >
   <v>       0.16666667 </v>
   <v>       0.16666667 </v>
   <v>       0.16666667 </v>
   <v>       0.16666667 </v>
   <v>       0.16666667 </v>
   <v>       0.16666667 </v>
  </varray>
 </kpoints>
 <parameters>
  <separator name="general" >
   <i type="string" name="SYSTEM">unknown system</i>
   <i type="logical" name="LCOMPAT"> F  </i>
  </separator>
  <separator name="electronic" >
   <i type="string" name="PREC">normal</i>
   <i name="ENMAX">    400.00000000</i>
   <i name="ENAUG">    416.23000000</i>
   <i name="EDIFF">      0.00000100</i>
   <i type="int" name="IALGO">    68</i>
   <i type="int" name="IWAVPR">    11</i>
   <i type="int" name="NBANDS">   306</i>
   <i name="NELECT">    504.00000000</i>
   <i type="int" name="TURBO">     0</i>
   <i type="int" name="IRESTART">     0</i>
   <i type="int" name="NREBOOT">     0</i>
   <i type="int" name="NMIN">     0</i>
   <i name="EREF">      0.00000000</i>
   <separator name="electronic smearing" >
    <i type="int" name="ISMEAR">     0</i>
    <i name="SIGMA">      0.10000000</i>
    <i name="KSPACING">      0.50000000</i>
    <i type="logical" name="KGAMMA"> T  </i>
   </separator>
   <separator name="electronic projectors" >
    <i type="logical" name="LREAL"> T  </i>
    <v name="ROPT">     -0.00050000     -0.00050000</v>
    <i type="int" name="LMAXPAW">  -100</i>
    <i type="int" name="LMAXMIX">     2</i>
    <i type="logical" name="NLSPLINE"> F  </i>
   </separator>
   <separator name="electronic startup" >
    <i type="int" name="ISTART">     0</i>
    <i type="int" name="ICHARG">     2</i>
    <i type="int" name="INIWAV">     1</i>
   </separator>
   <separator name="electronic spin" >
    <i type="int" name="ISPIN">     1</i>
    <i type="logical" name="LNONCOLLINEAR"> F  </i>
    <v name="MAGMOM">      1.00000000      1.00000000      1.00000000      1.00000000      1.00000000      1.00000000      1.00000000      1.00000000      1.00000000      1.00000000      1.00000000      1.00000000      1.00000000      1.00000000      1.00000000      1.00000000      1.00000000      1.00000000      1.00000000      1.00000000
      1.00000000      1.00000000      1.00000000      1.00000000      1.00000000      1.00000000      1.00000000      1.00000000      1.00000000      1.00000000      1.00000000      1.00000000      1.00000000      1.00000000      1.00000000      1.00000000      1.00000000      1.00000000      1.00000000      1.00000000
      1.00000000      1.00000000      1.00000000      1.00000000      1.00000000      1.00000000      1.00000000      1.00000000</v>
    <i name="NUPDOWN">     -1.00000000</i>
    <i type="logical" name="LSORBIT"> F  </i>
    <v name="SAXIS">      0.00000000      0.00000000      1.00000000</v>
    <i type="logical" name="LSPIRAL"> F  </i>
    <v name="QSPIRAL">      0.00000000      0.00000000      0.00000000</v>
    <i type="logical" name="LZEROZ"> F  </i>
   </separator>
   <separator name="electronic exchange-correlation" >
    <i type="logical" name="LASPH"> F  </i>
    <i type="logical" name="LMETAGGA"> F  </i>
   </separator>
   <separator name="electronic convergence" >
    <i type="int" name="NELM">   500</i>
    <i type="int" name="NELMDL">    -5</i>
    <i type="int" name="NELMIN">     2</i>
    <i name="ENINI">    400.00000000</i>
    <separator name="electronic convergence detail" >
     <i type="logical" name="LDIAG"> T  </i>
     <i type="logical" name="LSUBROT"> F  </i>
     <i name="WEIMIN">      0.00100000</i>
     <i name="EBREAK">      0.00000000</i>
     <i name="DEPER">      0.30000000</i>
     <i type="int" name="NRMM">     4</i>
     <i name="TIME">      0.40000000</i>
    </separator>
   </separator>
   <separator name="electronic mixer" >
    <i name="AMIX">      0.40000000</i>
    <i name="BMIX">      1.00000000</i>
    <i name="AMIN">      0.10000000</i>
    <i name="AMIX_MAG">      1.60000000</i>
    <i name="BMIX_MAG">      1.00000000</i>
    <separator name="electronic mixer details" >
     <i type="int" name="IMIX">     4</i>
     <i type="logical" name="MIXFIRST"> F  </i>
     <i type="int" name="MAXMIX">   -45</i>
     <i name="WC">    100.00000000</i>
     <i type="int" name="INIMIX">     1</i>
     <i type="int" name="MIXPRE">     1</i>
     <i type="int" name="MREMOVE">     5</i>
    </separator>
   </separator>
   <separator name="electronic dipolcorrection" >
    <i type="logical" name="LDIPOL"> T  </i>
    <i type="logical" name="LMONO"> F  </i>
    <i type="int" name="IDIPOL">     3</i>
    <i name="EPSILON">      1.00000000</i>
    <v name="DIPOL">      0.00000000      0.00000000      0.50000000</v>
    <i name="EFIELD">      0.00000000</i>
   </separator>
  </separator>
  <separator name="grids" >
   <i type="int" name="NGX">    54</i>
   <i type="int" name="NGY">    54</i>
   <i type="int" name="NGZ">   120</i>
   <i type="int" name="NGXF">   108</i>
   <i type="int" name="NGYF">   108</i>
   <i type="int" name="NGZF">   240</i>
   <i type="logical" name="ADDGRID"> F  </i>
  </separator>
  <separator name="ionic" >
   <i type="int" name="NSW">   500</i>
   <i type="int" name="IBRION">     2</i>
   <i type="int" name="ISIF">     0</i>
   <i name="PSTRESS">      0.00000000</i>
   <i name="EDIFFG">     -0.02000000</i>
   <i type="int" name="NFREE">     2</i>
   <i name="POTIM">      0.35000000</i>
   <i name="SMASS">     -3.00000000</i>
   <i name="SCALEE">      1.00000000</i>
  </separator>
  <separator name="ionic md" >
   <i name="TEBEG">      0.00010000</i>
   <i name="TEEND">      0.00010000</i>
   <i type="int" name="NBLOCK">     1</i>
   <i type="int" name="KBLOCK">   500</i>
   <i type="int" name="NPACO">   256</i>
   <i name="APACO">     16.00000000</i>
  </separator>
  <separator name="symmetry" >
   <i type="int" name="ISYM">     2</i>
   <i name="SYMPREC">      0.00001000</i>
  </separator>
  <separator name="dos" >
   <i type="logical" name="LORBIT"> F  </i>
   <v name="RWIGS">     -1.00000000     -1.00000000</v>
   <i type="int" name="NEDOS">   301</i>
   <i name="EMIN">     10.00000000</i>
   <i name="EMAX">    -10.00000000</i>
   <i name="EFERMI">      0.00000000</i>
  </separator>
  <separator name="writing" >
   <i type="int" name="NWRITE">     1</i>
   <i type="logical" name="LWAVE"> F  </i>
   <i type="logical" name="LCHARG"> F  </i>
   <i type="logical" name="LPARD"> F  </i>
   <i type="logical" name="LVTOT"> F  </i>
   <i type="logical" name="LVHAR"> F  </i>
   <i type="logical" name="LELF"> F  </i>
   <i type="logical" name="LOPTICS"> F  </i>
   <v name="STM">      0.00000000      0.00000000      0.00000000      0.00000000      0.00000000      0.00000000      0.00000000</v>
  </separator>
  <separator name="performance" >
   <i type="int" name="NPAR">     6</i>
   <i type="int" name="NSIM">     4</i>
   <i type="int" name="NBLK">    -1</i>
   <i type="logical" name="LPLANE"> T  </i>
   <i type="logical" name="LSCALAPACK"> T  </i>
   <i type="logical" name="LSCAAWARE"> F  </i>
   <i type="logical" name="LSCALU"> F  </i>
   <i type="logical" name="LASYNC"> F  </i>
   <i type="logical" name="LORBITALREAL"> F  </i>
  </separator>
  <separator name="miscellaneous" >
   <i type="int" name="IDIOT">     3</i>
   <i type="logical" name="LMUSIC"> F  </i>
   <v name="POMASS">    196.96600000    106.42000000</v>
   <v name="DARWINR">      0.00000000      0.00000000</v>
   <v name="DARWINV">      1.00000000      1.00000000</v>
   <i type="logical" name="LCORR"> T  </i>
  </separator>
  <i type="logical" name="GGA_COMPAT"> T  </i>
  <i type="logical" name="LBERRY"> F  </i>
  <i type="int" name="ICORELEVEL">     0</i>
  <i type="logical" name="LDAU"> F  </i>
  <i type="int" name="I_CONSTRAINED_M">     0</i>
  <separator name="electronic exchange-correlation" >
   <i type="string" name="GGA">PE</i>
   <i type="int" name="VOSKOWN">     1</i>
   <i type="logical" name="LHFCALC"> F  </i>
   <i type="string" name="PRECFOCK"></i>
   <i type="logical" name="LSYMGRAD"> F  </i>
   <i type="logical" name="LHFONE"> F  </i>
   <i type="logical" name="LRHFCALC"> F  </i>
   <i type="logical" name="LTHOMAS"> F  </i>
   <i type="logical" name="LMODELHF"> F  </i>
   <i name="ENCUT4O">     -1.00000000</i>
   <i type="int" name="EXXOEP">     0</i>
   <i type="int" name="FOURORBIT">     0</i>
   <i name="AEXX">      0.00000000</i>
   <i name="HFALPHA">      0.00000000</i>
   <i name="MCALPHA">      0.00000000</i>
   <i name="ALDAX">      1.00000000</i>
   <i name="AGGAX">      1.00000000</i>
   <i name="ALDAC">      1.00000000</i>
   <i name="AGGAC">      1.00000000</i>
   <i type="int" name="NKREDX">     1</i>
   <i type="int" name="NKREDY">     1</i>
   <i type="int" name="NKREDZ">     1</i>
   <i type="logical" name="SHIFTRED"> F  </i>
   <i type="logical" name="ODDONLY"> F  </i>
   <i type="logical" name="EVENONLY"> F  </i>
   <i type="int" name="LMAXFOCK">     0</i>
   <i type="int" name="NMAXFOCKAE">     0</i>
   <i type="logical" name="LFOCKAEDFT"> F  </i>
   <i name="HFSCREEN">      0.00000000</i>
   <i name="HFSCREENC">      0.00000000</i>
   <i type="int" name="NBANDSGWLOW">     0</i>
  </separator>
  <separator name="vdW DFT" >
   <i type="logical" name="LUSE_VDW"> F  </i>
   <i name="Zab_VDW">     -0.84910000</i>
   <i name="PARAM1">      0.12340000</i>
   <i name="PARAM2">      1.00000000</i>
   <i name="PARAM3">      0.00000000</i>
  </separator>
  <separator name="model GW" >
   <i type="int" name="MODEL_GW">     0</i>
   <i name="MODEL_EPS0">     32.09595293</i>
   <i name="MODEL_ALPHA">      1.00000000</i>
  </separator>
  <separator name="linear response parameters" >
   <i type="logical" name="LEPSILON"> F  </i>
   <i type="logical" name="LRPA"> F  </i>
   <i type="logical" name="LNABLA"> F  </i>
   <i type="logical" name="LVEL"> F  </i>
   <i type="int" name="KINTER">     0</i>
   <i name="CSHIFT">      0.10000000</i>
   <i name="OMEGAMAX">     -1.00000000</i>
   <i name="DEG_THRESHOLD">      0.00200000</i>
  </separator>
  <separator name="orbital magnetization" >
   <i type="logical" name="NUCIND"> F  </i>
   <v name="MAGPOS">      0.00000000      0.00000000      0.00000000</v>
   <i type="logical" name="LNICSALL"> T  </i>
   <i type="logical" name="ORBITALMAG"> F  </i>
   <i type="logical" name="LMAGBLOCH"> F  </i>
   <i type="logical" name="LCHIMAG"> F  </i>
   <i type="logical" name="LGAUGE"> T  </i>
   <i type="int" name="MAGATOM">     0</i>
   <v name="MAGDIPOL">      0.00000000      0.00000000      0.00000000</v>
   <v name="AVECCONST">      0.00000000      0.00000000      0.00000000</v>
  </separator>
  <separator name="response functions" >
   <i type="logical" name="LADDER"> F  </i>
   <i type="logical" name="LFXC"> F  </i>
   <i type="logical" name="LHARTREE"> T  </i>
   <i type="int" name="IBSE">     0</i>
   <v type="int" name="KPOINT">    -1     0     0     0</v>
   <i type="logical" name="LTCTE"> F  </i>
   <i type="logical" name="LTETE"> F  </i>
   <i type="logical" name="LTRIPLET"> F  </i>
   <i type="logical" name="LFXCEPS"> F  </i>
   <i type="logical" name="LFXHEG"> F  </i>
   <i type="int" name="NATURALO">     0</i>
   <i type="logical" name="L2ORDER"> F  </i>
   <i type="logical" name="LUSEW"> F  </i>
   <i name="ENCUTGW">     -2.00000000</i>
   <i name="ENCUTGWSOFT">     -2.00000000</i>
   <i name="ENCUTLF">     -1.00000000</i>
   <i type="int" name="LMAXMP2">    -1</i>
   <i name="SCISSOR">      0.00000000</i>
   <i type="int" name="NOMEGA">     0</i>
   <i type="int" name="NOMEGAR">     0</i>
   <i type="int" name="NBANDSGW">    -1</i>
   <i type="int" name="NBANDSO">    -1</i>
   <i type="int" name="NBANDSV">    -1</i>
   <i type="int" name="NELM">   500</i>
   <i type="int" name="NELMHF">     1</i>
   <i type="int" name="DIM">     3</i>
   <i type="int" name="ANTIRES">     0</i>
   <i name="OMEGAMAX">    -30.00000000</i>
   <i name="OMEGAMIN">    -30.00000000</i>
   <i name="OMEGATL">   -200.00000000</i>
   <i type="int" name="OMEGAGRID">     0</i>
   <i name="CSHIFT">     -0.10000000</i>
   <i type="logical" name="SELFENERGY"> F  </i>
   <i type="logical" name="LSPECTRAL"> F  </i>
   <i type="logical" name="LSPECTRALGW"> F  </i>
   <i type="logical" name="LSINGLES"> F  </i>
   <i type="logical" name="LFERMIGW"> F  </i>
   <i type="logical" name="ODDONLYGW"> F  </i>
   <i type="logical" name="EVENONLYGW"> F  </i>
   <i type="int" name="NKREDLFX">     1</i>
   <i type="int" name="NKREDLFY">     1</i>
   <i type="int" name="NKREDLFZ">     1</i>
   <i type="int" name="MAXMEM">  1800</i>
   <i type="int" name="TELESCOPE">     0</i>
   <i type="int" name="TAUPAR">     1</i>
   <i type="int" name="OMEGAPAR">    -1</i>
   <i name="LAMBDA">      1.00000000</i>
  </separator>
  <separator name="External order field" >
   <i name="OFIELD_KAPPA">      0.00000000</i>
   <v name="OFIELD_K">      0.00000000      0.00000000      0.00000000</v>
   <i name="OFIELD_Q6_NEAR">      0.00000000</i>
   <i name="OFIELD_Q6_FAR">      0.00000000</i>
   <i name="OFIELD_A">      0.00000000</i>
  </separator>
 </parameters>
 <atominfo>
  <atoms>      48 </atoms>
  <types>       2 </types>
  <array name="atoms" >
   <dimension dim="1">ion</dimension>
   <field type="string">element</field>
   <field type="int">atomtype</field>
   <set>
    <rc><c>Au</c><c>   1</c></rc>
    <rc><c>Au</c><c>   1</c></rc>
    <rc><c>Au</c><c>   1</c></rc>
    <rc><c>Au</c><c>   1</c></rc>
    <rc><c>Au</c><c>   1</c></rc>
    <rc><c>Au</c><c>   1</c></rc>
    <rc><c>Au</c><c>   1</c></rc>
    <rc><c>Au</c><c>   1</c></rc>
    <rc><c>Au</c><c>   1</c></rc>
    <rc><c>Au</c><c>   1</c></rc>
    <rc><c>Au</c><c>   1</c></rc>
    <rc><c>Au</c><c>   1</c></rc>
    <rc><c>Au</c><c>   1</c></rc>
    <rc><c>Au</c><c>   1</c></rc>
    <rc><c>Au</c><c>   1</c></rc>
    <rc><c>Au</c><c>   1</c></rc>
    <rc><c>Au</c><c>   1</c></rc>
    <rc><c>Au</c><c>   1</c></rc>
    <rc><c>Au</c><c>   1</c></rc>
    <rc><c>Au</c><c>   1</c></rc>
    <rc><c>Au</c><c>   1</c></rc>
    <rc><c>Au</c><c>   1</c></rc>
    <rc><c>Au</c><c>   1</c></rc>
    <rc><c>Au</c><c>   1</c></rc>
    <rc><c>Pd</c><c>   2</c></rc>
    <rc><c>Pd</c><c>   2</c></rc>
    <rc><c>Pd</c><c>   2</c></rc>
    <rc><c>Pd</c><c>   2</c></rc>
    <rc><c>Pd</c><c>   2</c></rc>
    <rc><c>Pd</c><c>   2</c></rc>
    <rc><c>Pd</c><c>   2</c></rc>
    <rc><c>Pd</c><c>   2</c></rc>
    <rc><c>Pd</c><c>   2</c></rc>
    <rc><c>Pd</c><c>   2</c></rc>
    <rc><c>Pd</c><c>   2</c></rc>
    <rc><c>Pd</c><c>   2</c></rc>
    <rc><c>Pd</c><c>   2</c></rc>
    <rc><c>Pd</c><c>   2</c></rc>
    <rc><c>Pd</c><c>   2</c></rc>
    <rc><c>Pd</c><c>   2</c></rc>
    <rc><c>Pd</c><c>   2</c></rc>
    <rc><c>Pd</c><c>   2</c></rc>
    <rc><c>Pd</c><c>   2</c></rc>
    <rc><c>Pd</c><c>   2</c></rc>
    <rc><c>Pd</c><c>   2</c></rc>
    <rc><c>Pd</c><c>   2</c></rc>
    <rc><c>Pd</c><c>   2</c></rc>
    <rc><c>Pd</c><c>   2</c></rc>
   </set>
  </array>
  <array name="atomtypes" >
   <dimension dim="1">type</dimension>
   <field type="int">atomspertype</field>
   <field type="string">element</field>
   <field>mass</field>
   <field>valence</field>
   <field type="string">pseudopotential</field>
   <set>
    <rc><c>  24</c><c>Au</c><c>    196.96600000</c><c>     11.00000000</c><c>  PAW_PBE Au 04Oct2007                  </c></rc>
    <rc><c>  24</c><c>Pd</c><c>    106.42000000</c><c>     10.00000000</c><c>  PAW_PBE Pd 04Jan2005                  </c></rc>
   </set>
  </array>
 </atominfo>
 <structure name="initialpos" >
  <crystal>
   <varray name="basis" >
    <v>      11.00258152       0.00000000       0.00000000 </v>
    <v>       5.50129076       9.52851510       0.00000000 </v>
    <v>       0.00000000       0.00000000      24.49178509 </v>
   </varray>
   <i name="volume">   2567.67623402 </i>
   <varray name="rec_basis" >
    <v>       0.09088776      -0.05247407       0.00000000 </v>
    <v>       0.00000000       0.10494815       0.00000000 </v>
    <v>       0.00000000       0.00000000       0.04083002 </v>
   </varray>
  </crystal>
  <varray name="positions" >
   <v>       0.08333333       0.08333333       0.40830017 </v>
   <v>       0.58333333       0.83333333       0.40830017 </v>
   <v>       0.41666667       0.41666667       0.50000000 </v>
   <v>       0.58333333       0.33333333       0.40830017 </v>
   <v>       0.50000000       0.00000000       0.59169983 </v>
   <v>       0.41666667       0.91666667       0.50000000 </v>
   <v>       0.16666667       0.91666667       0.50000000 </v>
   <v>       0.33333333       0.83333333       0.40830017 </v>
   <v>       0.25000000       0.50000000       0.59169983 </v>
   <v>       0.33333333       0.58333333       0.40830017 </v>
   <v>       0.83333333       0.33333333       0.40830017 </v>
   <v>       0.58333333       0.58333333       0.40830017 </v>
   <v>       0.75000000       0.25000000       0.59169983 </v>
   <v>       0.50000000       0.50000000       0.59169983 </v>
   <v>       0.33333333       0.08333333       0.40830017 </v>
   <v>       0.00000000       0.00000000       0.59169983 </v>
   <v>       0.08333333       0.33333333       0.40830017 </v>
   <v>       0.91666667       0.41666667       0.50000000 </v>
   <v>       0.00000000       0.25000000       0.59169983 </v>
   <v>       0.16666667       0.16666667       0.50000000 </v>
   <v>       0.08333333       0.58333333       0.40830017 </v>
   <v>       0.66666667       0.66666667       0.50000000 </v>
   <v>       0.91666667       0.91666667       0.50000000 </v>
   <v>       0.00000000       0.50000000       0.59169983 </v>
   <v>       0.75000000       0.50000000       0.59169983 </v>
   <v>       0.66666667       0.16666667       0.50000000 </v>
   <v>       0.83333333       0.08333333       0.40830017 </v>
   <v>       0.50000000       0.75000000       0.59169983 </v>
   <v>       0.75000000       0.00000000       0.59169983 </v>
   <v>       0.83333333       0.58333333       0.40830017 </v>
   <v>       0.83333333       0.83333333       0.40830017 </v>
   <v>       0.66666667       0.41666667       0.50000000 </v>
   <v>       0.25000000       0.75000000       0.59169983 </v>
   <v>       0.50000000       0.25000000       0.59169983 </v>
   <v>       0.41666667       0.16666667       0.50000000 </v>
   <v>       0.58333333       0.08333333       0.40830017 </v>
   <v>       0.66666667       0.91666667       0.50000000 </v>
   <v>       0.16666667       0.66666667       0.50000000 </v>
   <v>       0.25000000       0.25000000       0.59169983 </v>
   <v>       0.16666667       0.41666667       0.50000000 </v>
   <v>       0.33333333       0.33333333       0.40830017 </v>
   <v>       0.25000000       0.00000000       0.59169983 </v>
   <v>       0.00000000       0.75000000       0.59169983 </v>
   <v>       0.08333333       0.83333333       0.40830017 </v>
   <v>       0.91666667       0.66666667       0.50000000 </v>
   <v>       0.91666667       0.16666667       0.50000000 </v>
   <v>       0.41666667       0.66666667       0.50000000 </v>
   <v>       0.75000000       0.75000000       0.59169983 </v>
  </varray>
 </structure>
 <calculation>
  <scstep>
   <time name="dav">    9.35    9.41</time>
   <time name="total">    9.42    9.48</time>
   <dipole>
    <v name="dipole">      0.00000000       0.00000000       0.00000222 </v>
    <i name="Tr[quadrupol]"> -10308.42699372 </i>
    <i name="Echarged">      0.00000000 </i>
    <i name="Edipol_quadrupol">      0.00000000 </i>
    <i name="Eion">      0.00000000 </i>
   </dipole>
   <energy>
    <i name="alphaZ">    805.86936534 </i>
    <i name="ewald"> 199931.98601516 </i>
    <i name="hartreedc">-242345.22810045 </i>
    <i name="XCdc">   -327.69640523 </i>
    <i name="pawpsdc">  40340.05962942 </i>
    <i name="pawaedc"> -38292.62782345 </i>
    <i name="eentropy">     -0.12255879 </i>
    <i name="bandstr">   1429.15637568 </i>
    <i name="atom">  41659.78587232 </i>
    <i name="e_fr_energy">   3201.18237001 </i>
    <i name="e_wo_entrp">   3201.30492880 </i>
    <i name="e_0_energy">   3201.24364940 </i>
   </energy>
  </scstep>
  <scstep>
   <time name="dav">   11.17   11.22</time>
   <time name="total">   11.18   11.22</time>
   <dipole>
    <v name="dipole">      0.00000000       0.00000000       0.00000222 </v>
    <i name="Tr[quadrupol]"> -10308.42699372 </i>
    <i name="Echarged">      0.00000000 </i>
    <i name="Edipol_quadrupol">      0.00000000 </i>
    <i name="Eion">      0.00000000 </i>
   </dipole>
   <energy>
    <i name="e_fr_energy">     14.49737185 </i>
    <i name="e_wo_entrp">     14.62443833 </i>
    <i name="e_0_energy">     14.56090509 </i>
   </energy>
  </scstep>
  <scstep>
   <time name="dav">   10.80   10.80</time>
   <time name="total">   10.80   10.81</time>
   <dipole>
    <v name="dipole">      0.00000000       0.00000000       0.00000222 </v>
    <i name="Tr[quadrupol]"> -10308.42699372 </i>
    <i name="Echarged">      0.00000000 </i>
    <i name="Edipol_quadrupol">      0.00000000 </i>
    <i name="Eion">      0.00000000 </i>
   </dipole>
   <energy>
    <i name="e_fr_energy">   -201.20669460 </i>
    <i name="e_wo_entrp">   -201.02472932 </i>
    <i name="e_0_energy">   -201.11571196 </i>
   </energy>
  </scstep>
  <scstep>
   <time name="dav">   11.66   11.70</time>
   <time name="total">   11.66   11.70</time>
   <dipole>
    <v name="dipole">      0.00000000       0.00000000       0.00000222 </v>
    <i name="Tr[quadrupol]"> -10308.42699372 </i>
    <i name="Echarged">      0.00000000 </i>
    <i name="Edipol_quadrupol">      0.00000000 </i>
    <i name="Eion">      0.00000000 </i>
   </dipole>
   <energy>
    <i name="e_fr_energy">   -206.99289837 </i>
    <i name="e_wo_entrp">   -206.80133389 </i>
    <i name="e_0_energy">   -206.89711613 </i>
   </energy>
  </scstep>
  <scstep>
   <time name="dav">   11.30   11.36</time>
   <time name="total">   11.60   11.67</time>
   <dipole>
    <v name="dipole">      0.00000000       0.00000000       0.00000222 </v>
    <i name="Tr[quadrupol]"> -10308.42699372 </i>
    <i name="Echarged">      0.00000000 </i>
    <i name="Edipol_quadrupol">      0.00000000 </i>
    <i name="Eion">      0.00000000 </i>
   </dipole>
   <energy>
    <i name="e_fr_energy">   -207.17446993 </i>
    <i name="e_wo_entrp">   -206.98237228 </i>
    <i name="e_0_energy">   -207.07842111 </i>
   </energy>
  </scstep>
  <scstep>
   <time name="diag">    1.65    1.65</time>
   <time name="diis">    4.41    4.41</time>
   <time name="orth">    0.41    0.41</time>
   <time name="total">    6.84    6.85</time>
   <dipole>
    <v name="dipole">      0.00000000       0.00000000       1.01253078 </v>
    <i name="Tr[quadrupol]"> -10310.51981431 </i>
    <i name="Echarged">      0.00000000 </i>
    <i name="Edipol_quadrupol">      0.00000000 </i>
    <i name="Eion">      0.00000000 </i>
   </dipole>
   <energy>
    <i name="e_fr_energy">   -204.19059149 </i>
    <i name="e_wo_entrp">   -203.95574691 </i>
    <i name="e_0_energy">   -204.07316920 </i>
   </energy>
  </scstep>
  <scstep>
   <time name="diag">    1.66    1.66</time>
   <time name="diis">    4.41    4.41</time>
   <time name="orth">    0.41    0.41</time>
   <time name="total">    6.83    6.84</time>
   <dipole>
    <v name="dipole">      0.00000000       0.00000000      -1.24208533 </v>
    <i name="Tr[quadrupol]"> -10308.72629069 </i>
    <i name="Echarged">      0.00000000 </i>
    <i name="Edipol_quadrupol">      0.00000000 </i>
    <i name="Eion">      0.00000000 </i>
   </dipole>
   <energy>
    <i name="e_fr_energy">   -212.71458002 </i>
    <i name="e_wo_entrp">   -212.46707469 </i>
    <i name="e_0_energy">   -212.59082736 </i>
   </energy>
  </scstep>
  <scstep>
   <time name="diag">    1.65    1.65</time>
   <time name="diis">    4.46    4.46</time>
   <time name="orth">    0.41    0.41</time>
   <time name="total">    6.88    6.89</time>
   <dipole>
    <v name="dipole">      0.00000000       0.00000000       1.72220078 </v>
    <i name="Tr[quadrupol]"> -10309.71275626 </i>
    <i name="Echarged">      0.00000000 </i>
    <i name="Edipol_quadrupol">      0.00000000 </i>
    <i name="Eion">      0.00000000 </i>
   </dipole>
   <energy>
    <i name="e_fr_energy">   -223.57858428 </i>
    <i name="e_wo_entrp">   -223.31628232 </i>
    <i name="e_0_energy">   -223.44743330 </i>
   </energy>
  </scstep>
  <scstep>
   <time name="diag">    1.66    1.66</time>
   <time name="diis">    4.50    4.50</time>
   <time name="orth">    0.41    0.41</time>
   <time name="total">    6.94    6.94</time>
   <dipole>
    <v name="dipole">      0.00000000       0.00000000      -0.34957962 </v>
    <i name="Tr[quadrupol]"> -10311.05214513 </i>
    <i name="Echarged">      0.00000000 </i>
    <i name="Edipol_quadrupol">      0.00000000 </i>
    <i name="Eion">      0.00000000 </i>
   </dipole>
   <energy>
    <i name="e_fr_energy">   -215.81405951 </i>
    <i name="e_wo_entrp">   -215.62987898 </i>
    <i name="e_0_energy">   -215.72196925 </i>
   </energy>
  </scstep>
  <scstep>
   <time name="diag">    1.66    1.66</time>
   <time name="diis">    4.45    4.46</time>
   <time name="orth">    0.40    0.40</time>
   <time name="total">    6.88    6.88</time>
   <dipole>
    <v name="dipole">      0.00000000       0.00000000       0.44346437 </v>
    <i name="Tr[quadrupol]"> -10309.82595107 </i>
    <i name="Echarged">      0.00000000 </i>
    <i name="Edipol_quadrupol">      0.00000000 </i>
    <i name="Eion">      0.00000000 </i>
   </dipole>
   <energy>
    <i name="e_fr_energy">   -198.94193050 </i>
    <i name="e_wo_entrp">   -198.77858243 </i>
    <i name="e_0_energy">   -198.86025647 </i>
   </energy>
  </scstep>
  <scstep>
   <time name="diag">    1.63    1.67</time>
   <time name="diis">    4.64    4.68</time>
   <time name="orth">    0.48    0.48</time>
   <time name="total">    7.24    7.32</time>
   <dipole>
    <v name="dipole">      0.00000000       0.00000000       0.13139861 </v>
    <i name="Tr[quadrupol]"> -10311.02459387 </i>
    <i name="Echarged">      0.00000000 </i>
    <i name="Edipol_quadrupol">      0.00000000 </i>
    <i name="Eion">      0.00000000 </i>
   </dipole>
   <energy>
    <i name="e_fr_energy">   -193.44934667 </i>
    <i name="e_wo_entrp">   -193.24752739 </i>
    <i name="e_0_energy">   -193.34843703 </i>
   </energy>
  </scstep>
  <scstep>
   <time name="diag">    1.71    1.72</time>
   <time name="diis">    4.41    4.42</time>
   <time name="orth">    0.40    0.40</time>
   <time name="total">    6.90    6.91</time>
   <dipole>
    <v name="dipole">      0.00000000       0.00000000       0.18760157 </v>
    <i name="Tr[quadrupol]"> -10310.96744019 </i>
    <i name="Echarged">      0.00000000 </i>
    <i name="Edipol_quadrupol">      0.00000000 </i>
    <i name="Eion">      0.00000000 </i>
   </dipole>
   <energy>
    <i name="e_fr_energy">   -189.86275045 </i>
    <i name="e_wo_entrp">   -189.64985968 </i>
    <i name="e_0_energy">   -189.75630506 </i>
   </energy>
  </scstep>
  <scstep>
   <time name="diag">    1.64    1.64</time>
   <time name="diis">    4.48    4.48</time>
   <time name="orth">    0.40    0.40</time>
   <time name="total">    6.88    6.88</time>
   <dipole>
    <v name="dipole">      0.00000000       0.00000000       0.12929771 </v>
    <i name="Tr[quadrupol]"> -10311.39511379 </i>
    <i name="Echarged">      0.00000000 </i>
    <i name="Edipol_quadrupol">      0.00000000 </i>
    <i name="Eion">      0.00000000 </i>
   </dipole>
   <energy>
    <i name="e_fr_energy">   -189.58034559 </i>
    <i name="e_wo_entrp">   -189.34723865 </i>
    <i name="e_0_energy">   -189.46379212 </i>
   </energy>
  </scstep>
  <scstep>
   <time name="diag">    1.64    1.64</time>
   <time name="diis">    4.47    4.47</time>
   <time name="orth">    0.40    0.40</time>
   <time name="total">    6.87    6.88</time>
   <dipole>
    <v name="dipole">      0.00000000       0.00000000       0.08371452 </v>
    <i name="Tr[quadrupol]"> -10311.64480663 </i>
    <i name="Echarged">      0.00000000 </i>
    <i name="Edipol_quadrupol">      0.00000000 </i>
    <i name="Eion">      0.00000000 </i>
   </dipole>
   <energy>
    <i name="e_fr_energy">   -189.76312739 </i>
    <i name="e_wo_entrp">   -189.51540050 </i>
    <i name="e_0_energy">   -189.63926394 </i>
   </energy>
  </scstep>
  <scstep>
   <time name="diag">    1.64    1.64</time>
   <time name="diis">    4.48    4.48</time>
   <time name="orth">    0.40    0.40</time>
   <time name="total">    6.87    6.88</time>
   <dipole>
    <v name="dipole">      0.00000000       0.00000000       0.05862921 </v>
    <i name="Tr[quadrupol]"> -10311.79362628 </i>
    <i name="Echarged">      0.00000000 </i>
    <i name="Edipol_quadrupol">      0.00000000 </i>
    <i name="Eion">      0.00000000 </i>
   </dipole>
   <energy>
    <i name="e_fr_energy">   -189.56318703 </i>
    <i name="e_wo_entrp">   -189.31934996 </i>
    <i name="e_0_energy">   -189.44126849 </i>
   </energy>
  </scstep>
  <scstep>
   <time name="diag">    1.63    1.63</time>
   <time name="diis">    4.48    4.48</time>
   <time name="orth">    0.38    0.41</time>
   <time name="total">    6.85    6.90</time>
   <dipole>
    <v name="dipole">      0.00000000       0.00000000       0.03301922 </v>
    <i name="Tr[quadrupol]"> -10312.06376053 </i>
    <i name="Echarged">      0.00000000 </i>
    <i name="Edipol_quadrupol">      0.00000000 </i>
    <i name="Eion">      0.00000000 </i>
   </dipole>
   <energy>
    <i name="e_fr_energy">   -189.32270403 </i>
    <i name="e_wo_entrp">   -189.06688657 </i>
    <i name="e_0_energy">   -189.19479530 </i>
   </energy>
  </scstep>
  <scstep>
   <time name="diag">    1.64    1.65</time>
   <time name="diis">    4.52    4.53</time>
   <time name="orth">    0.39    0.39</time>
   <time name="total">    6.92    6.94</time>
   <dipole>
    <v name="dipole">      0.00000000       0.00000000       0.05165542 </v>
    <i name="Tr[quadrupol]"> -10312.30674466 </i>
    <i name="Echarged">      0.00000000 </i>
    <i name="Edipol_quadrupol">      0.00000000 </i>
    <i name="Eion">      0.00000000 </i>
   </dipole>
   <energy>
    <i name="e_fr_energy">   -189.15571708 </i>
    <i name="e_wo_entrp">   -188.90587310 </i>
    <i name="e_0_energy">   -189.03079509 </i>
   </energy>
  </scstep>
  <scstep>
   <time name="diag">    1.64    1.64</time>
   <time name="diis">    4.50    4.50</time>
   <time name="orth">    0.39    0.39</time>
   <time name="total">    6.89    6.90</time>
   <dipole>
    <v name="dipole">      0.00000000       0.00000000       0.06991378 </v>
    <i name="Tr[quadrupol]"> -10312.62556802 </i>
    <i name="Echarged">      0.00000000 </i>
    <i name="Edipol_quadrupol">      0.00000000 </i>
    <i name="Eion">      0.00000000 </i>
   </dipole>
   <energy>
    <i name="e_fr_energy">   -189.10432215 </i>
    <i name="e_wo_entrp">   -188.84857178 </i>
    <i name="e_0_energy">   -188.97644697 </i>
   </energy>
  </scstep>
  <scstep>
   <time name="diag">    1.64    1.64</time>
   <time name="diis">    4.50    4.50</time>
   <time name="orth">    0.39    0.39</time>
   <time name="total">    6.88    6.89</time>
   <dipole>
    <v name="dipole">      0.00000000       0.00000000       0.06300437 </v>
    <i name="Tr[quadrupol]"> -10312.74065452 </i>
    <i name="Echarged">      0.00000000 </i>
    <i name="Edipol_quadrupol">      0.00000000 </i>
    <i name="Eion">      0.00000000 </i>
   </dipole>
   <energy>
    <i name="e_fr_energy">   -189.08217651 </i>
    <i name="e_wo_entrp">   -188.82527902 </i>
    <i name="e_0_energy">   -188.95372777 </i>
   </energy>
  </scstep>
  <scstep>
   <time name="diag">    1.62    1.62</time>
   <time name="diis">    4.86    4.89</time>
   <time name="orth">    0.39    0.39</time>
   <time name="total">    7.23    7.26</time>
   <dipole>
    <v name="dipole">      0.00000000       0.00000000       0.05231988 </v>
    <i name="Tr[quadrupol]"> -10312.83871688 </i>
    <i name="Echarged">      0.00000000 </i>
    <i name="Edipol_quadrupol">      0.00000000 </i>
    <i name="Eion">      0.00000000 </i>
   </dipole>
   <energy>
    <i name="e_fr_energy">   -189.07710956 </i>
    <i name="e_wo_entrp">   -188.81880362 </i>
    <i name="e_0_energy">   -188.94795659 </i>
   </energy>
  </scstep>
  <scstep>
   <time name="diag">    1.63    1.63</time>
   <time name="diis">    4.53    4.53</time>
   <time name="orth">    0.39    0.39</time>
   <time name="total">    6.91    6.91</time>
   <dipole>
    <v name="dipole">      0.00000000       0.00000000       0.04796669 </v>
    <i name="Tr[quadrupol]"> -10312.91319808 </i>
    <i name="Echarged">      0.00000000 </i>
    <i name="Edipol_quadrupol">      0.00000000 </i>
    <i name="Eion">      0.00000000 </i>
   </dipole>
   <energy>
    <i name="e_fr_energy">   -189.07391223 </i>
    <i name="e_wo_entrp">   -188.81496716 </i>
    <i name="e_0_energy">   -188.94443970 </i>
   </energy>
  </scstep>
  <scstep>
   <time name="diag">    1.62    1.62</time>
   <time name="diis">    4.34    4.42</time>
   <time name="orth">    0.39    0.39</time>
   <time name="total">    6.72    6.80</time>
   <dipole>
    <v name="dipole">      0.00000000       0.00000000       0.04625943 </v>
    <i name="Tr[quadrupol]"> -10313.10325794 </i>
    <i name="Echarged">      0.00000000 </i>
    <i name="Edipol_quadrupol">      0.00000000 </i>
    <i name="Eion">      0.00000000 </i>
   </dipole>
   <energy>
    <i name="e_fr_energy">   -189.07200148 </i>
    <i name="e_wo_entrp">   -188.81317964 </i>
    <i name="e_0_energy">   -188.94259056 </i>
   </energy>
  </scstep>
  <scstep>
   <time name="diag">    1.63    1.63</time>
   <time name="diis">    4.49    4.49</time>
   <time name="orth">    0.39    0.39</time>
   <time name="total">    6.87    6.87</time>
   <dipole>
    <v name="dipole">      0.00000000       0.00000000       0.04726276 </v>
    <i name="Tr[quadrupol]"> -10313.22380264 </i>
    <i name="Echarged">      0.00000000 </i>
    <i name="Edipol_quadrupol">      0.00000000 </i>
    <i name="Eion">      0.00000000 </i>
   </dipole>
   <energy>
    <i name="e_fr_energy">   -189.07106887 </i>
    <i name="e_wo_entrp">   -188.81246106 </i>
    <i name="e_0_energy">   -188.94176497 </i>
   </energy>
  </scstep>
  <scstep>
   <time name="diag">    1.62    1.62</time>
   <time name="diis">    4.53    4.53</time>
   <time name="orth">    0.39    0.39</time>
   <time name="total">    6.90    6.90</time>
   <dipole>
    <v name="dipole">      0.00000000       0.00000000       0.04327801 </v>
    <i name="Tr[quadrupol]"> -10313.30894210 </i>
    <i name="Echarged">      0.00000000 </i>
    <i name="Edipol_quadrupol">      0.00000000 </i>
    <i name="Eion">      0.00000000 </i>
   </dipole>
   <energy>
    <i name="e_fr_energy">   -189.07101740 </i>
    <i name="e_wo_entrp">   -188.81136297 </i>
    <i name="e_0_energy">   -188.94119018 </i>
   </energy>
  </scstep>
  <scstep>
   <time name="diag">    1.63    1.64</time>
   <time name="diis">    4.47    4.47</time>
   <time name="orth">    0.39    0.40</time>
   <time name="total">    6.86    6.86</time>
   <dipole>
    <v name="dipole">      0.00000000       0.00000000       0.04078717 </v>
    <i name="Tr[quadrupol]"> -10313.37241800 </i>
    <i name="Echarged">      0.00000000 </i>
    <i name="Edipol_quadrupol">      0.00000000 </i>
    <i name="Eion">      0.00000000 </i>
   </dipole>
   <energy>
    <i name="e_fr_energy">   -189.07097670 </i>
    <i name="e_wo_entrp">   -188.81161964 </i>
    <i name="e_0_energy">   -188.94129817 </i>
   </energy>
  </scstep>
  <scstep>
   <time name="diag">    1.63    1.63</time>
   <time name="diis">    4.49    4.49</time>
   <time name="orth">    0.39    0.39</time>
   <time name="total">    6.88    6.88</time>
   <dipole>
    <v name="dipole">      0.00000000       0.00000000       0.03746502 </v>
    <i name="Tr[quadrupol]"> -10313.44884642 </i>
    <i name="Echarged">      0.00000000 </i>
    <i name="Edipol_quadrupol">      0.00000000 </i>
    <i name="Eion">      0.00000000 </i>
   </dipole>
   <energy>
    <i name="e_fr_energy">   -189.07126893 </i>
    <i name="e_wo_entrp">   -188.81188469 </i>
    <i name="e_0_energy">   -188.94157681 </i>
   </energy>
  </scstep>
  <scstep>
   <time name="diag">    1.65    1.65</time>
   <time name="diis">    4.49    4.50</time>
   <time name="orth">    0.39    0.39</time>
   <time name="total">    6.89    6.90</time>
   <dipole>
    <v name="dipole">      0.00000000       0.00000000       0.03408500 </v>
    <i name="Tr[quadrupol]"> -10313.52324098 </i>
    <i name="Echarged">      0.00000000 </i>
    <i name="Edipol_quadrupol">      0.00000000 </i>
    <i name="Eion">      0.00000000 </i>
   </dipole>
   <energy>
    <i name="e_fr_energy">   -189.07166058 </i>
    <i name="e_wo_entrp">   -188.81226021 </i>
    <i name="e_0_energy">   -188.94196040 </i>
   </energy>
  </scstep>
  <scstep>
   <time name="diag">    1.63    1.63</time>
   <time name="diis">    4.38    4.45</time>
   <time name="orth">    0.39    0.39</time>
   <time name="total">    6.76    6.84</time>
   <dipole>
    <v name="dipole">      0.00000000       0.00000000       0.03162328 </v>
    <i name="Tr[quadrupol]"> -10313.58333221 </i>
    <i name="Echarged">      0.00000000 </i>
    <i name="Edipol_quadrupol">      0.00000000 </i>
    <i name="Eion">      0.00000000 </i>
   </dipole>
   <energy>
    <i name="e_fr_energy">   -189.07215129 </i>
    <i name="e_wo_entrp">   -188.81271925 </i>
    <i name="e_0_energy">   -188.94243527 </i>
   </energy>
  </scstep>
  <scstep>
   <time name="diag">    1.96    1.98</time>
   <time name="diis">    4.53    4.54</time>
   <time name="orth">    0.39    0.39</time>
   <time name="total">    7.25    7.28</time>
   <dipole>
    <v name="dipole">      0.00000000       0.00000000       0.02970303 </v>
    <i name="Tr[quadrupol]"> -10313.62544089 </i>
    <i name="Echarged">      0.00000000 </i>
    <i name="Edipol_quadrupol">      0.00000000 </i>
    <i name="Eion">      0.00000000 </i>
   </dipole>
   <energy>
    <i name="e_fr_energy">   -189.07260368 </i>
    <i name="e_wo_entrp">   -188.81326591 </i>
    <i name="e_0_energy">   -188.94293479 </i>
   </energy>
  </scstep>
  <scstep>
   <time name="diag">    1.63    1.63</time>
   <time name="diis">    4.52    4.52</time>
   <time name="orth">    0.39    0.39</time>
   <time name="total">    6.91    6.92</time>
   <dipole>
    <v name="dipole">      0.00000000       0.00000000       0.02646113 </v>
    <i name="Tr[quadrupol]"> -10313.69633045 </i>
    <i name="Echarged">      0.00000000 </i>
    <i name="Edipol_quadrupol">      0.00000000 </i>
    <i name="Eion">      0.00000000 </i>
   </dipole>
   <energy>
    <i name="e_fr_energy">   -189.07331649 </i>
    <i name="e_wo_entrp">   -188.81398036 </i>
    <i name="e_0_energy">   -188.94364843 </i>
   </energy>
  </scstep>
  <scstep>
   <time name="diag">    1.65    1.65</time>
   <time name="diis">    4.37    4.37</time>
   <time name="orth">    0.39    0.39</time>
   <time name="total">    6.78    6.78</time>
   <dipole>
    <v name="dipole">      0.00000000       0.00000000       0.02311519 </v>
    <i name="Tr[quadrupol]"> -10313.75623646 </i>
    <i name="Echarged">      0.00000000 </i>
    <i name="Edipol_quadrupol">      0.00000000 </i>
    <i name="Eion">      0.00000000 </i>
   </dipole>
   <energy>
    <i name="e_fr_energy">   -189.07391415 </i>
    <i name="e_wo_entrp">   -188.81448272 </i>
    <i name="e_0_energy">   -188.94419843 </i>
   </energy>
  </scstep>
  <scstep>
   <time name="diag">    1.62    1.62</time>
   <time name="diis">    3.79    3.79</time>
   <time name="orth">    0.39    0.39</time>
   <time name="total">    6.17    6.18</time>
   <dipole>
    <v name="dipole">      0.00000000       0.00000000       0.02162869 </v>
    <i name="Tr[quadrupol]"> -10313.78124203 </i>
    <i name="Echarged">      0.00000000 </i>
    <i name="Edipol_quadrupol">      0.00000000 </i>
    <i name="Eion">      0.00000000 </i>
   </dipole>
   <energy>
    <i name="e_fr_energy">   -189.07413240 </i>
    <i name="e_wo_entrp">   -188.81475489 </i>
    <i name="e_0_energy">   -188.94444365 </i>
   </energy>
  </scstep>
  <scstep>
   <time name="diag">    1.64    1.64</time>
   <time name="diis">    3.34    3.35</time>
   <time name="orth">    0.39    0.39</time>
   <time name="total">    5.74    5.75</time>
   <dipole>
    <v name="dipole">      0.00000000       0.00000000       0.02064444 </v>
    <i name="Tr[quadrupol]"> -10313.79589987 </i>
    <i name="Echarged">      0.00000000 </i>
    <i name="Edipol_quadrupol">      0.00000000 </i>
    <i name="Eion">      0.00000000 </i>
   </dipole>
   <energy>
    <i name="e_fr_energy">   -189.07425747 </i>
    <i name="e_wo_entrp">   -188.81484777 </i>
    <i name="e_0_energy">   -188.94455262 </i>
   </energy>
  </scstep>
  <scstep>
   <time name="diag">    1.63    1.63</time>
   <time name="diis">    2.94    3.01</time>
   <time name="orth">    0.39    0.39</time>
   <time name="total">    5.33    5.41</time>
   <dipole>
    <v name="dipole">      0.00000000       0.00000000       0.01987805 </v>
    <i name="Tr[quadrupol]"> -10313.80561803 </i>
    <i name="Echarged">      0.00000000 </i>
    <i name="Edipol_quadrupol">      0.00000000 </i>
    <i name="Eion">      0.00000000 </i>
   </dipole>
   <energy>
    <i name="e_fr_energy">   -189.07434508 </i>
    <i name="e_wo_entrp">   -188.81497990 </i>
    <i name="e_0_energy">   -188.94466249 </i>
   </energy>
  </scstep>
  <scstep>
   <time name="diag">    1.64    1.64</time>
   <time name="diis">    2.96    2.96</time>
   <time name="orth">    0.39    0.39</time>
   <time name="total">    5.36    5.37</time>
   <dipole>
    <v name="dipole">      0.00000000       0.00000000       0.01881544 </v>
    <i name="Tr[quadrupol]"> -10313.81610457 </i>
    <i name="Echarged">      0.00000000 </i>
    <i name="Edipol_quadrupol">      0.00000000 </i>
    <i name="Eion">      0.00000000 </i>
   </dipole>
   <energy>
    <i name="e_fr_energy">   -189.07444705 </i>
    <i name="e_wo_entrp">   -188.81507667 </i>
    <i name="e_0_energy">   -188.94476186 </i>
   </energy>
  </scstep>
  <scstep>
   <time name="diag">    1.63    1.64</time>
   <time name="diis">    2.76    2.76</time>
   <time name="orth">    0.39    0.39</time>
   <time name="total">    5.15    5.16</time>
   <dipole>
    <v name="dipole">      0.00000000       0.00000000       0.01828425 </v>
    <i name="Tr[quadrupol]"> -10313.82041856 </i>
    <i name="Echarged">      0.00000000 </i>
    <i name="Edipol_quadrupol">      0.00000000 </i>
    <i name="Eion">      0.00000000 </i>
   </dipole>
   <energy>
    <i name="e_fr_energy">   -189.07448156 </i>
    <i name="e_wo_entrp">   -188.81511050 </i>
    <i name="e_0_energy">   -188.94479603 </i>
   </energy>
  </scstep>
  <scstep>
   <time name="diag">    1.63    1.63</time>
   <time name="diis">    2.73    2.73</time>
   <time name="orth">    0.39    0.39</time>
   <time name="total">    5.12    5.12</time>
   <dipole>
    <v name="dipole">      0.00000000       0.00000000       0.01771366 </v>
    <i name="Tr[quadrupol]"> -10313.82481121 </i>
    <i name="Echarged">      0.00000000 </i>
    <i name="Edipol_quadrupol">      0.00000000 </i>
    <i name="Eion">      0.00000000 </i>
   </dipole>
   <energy>
    <i name="e_fr_energy">   -189.07450791 </i>
    <i name="e_wo_entrp">   -188.81513292 </i>
    <i name="e_0_energy">   -188.94482042 </i>
   </energy>
  </scstep>
  <scstep>
   <time name="diag">    1.63    1.64</time>
   <time name="diis">    2.46    2.46</time>
   <time name="orth">    0.39    0.39</time>
   <time name="total">    4.85    4.86</time>
   <dipole>
    <v name="dipole">      0.00000000       0.00000000       0.01734838 </v>
    <i name="Tr[quadrupol]"> -10313.82805775 </i>
    <i name="Echarged">      0.00000000 </i>
    <i name="Edipol_quadrupol">      0.00000000 </i>
    <i name="Eion">      0.00000000 </i>
   </dipole>
   <energy>
    <i name="e_fr_energy">   -189.07451888 </i>
    <i name="e_wo_entrp">   -188.81515030 </i>
    <i name="e_0_energy">   -188.94483459 </i>
   </energy>
  </scstep>
  <scstep>
   <time name="diag">    1.71    1.72</time>
   <time name="diis">    2.79    2.80</time>
   <time name="orth">    0.39    0.39</time>
   <time name="total">    5.26    5.28</time>
   <dipole>
    <v name="dipole">      0.00000000       0.00000000       0.01701105 </v>
    <i name="Tr[quadrupol]"> -10313.83109647 </i>
    <i name="Echarged">      0.00000000 </i>
    <i name="Edipol_quadrupol">      0.00000000 </i>
    <i name="Eion">      0.00000000 </i>
   </dipole>
   <energy>
    <i name="e_fr_energy">   -189.07452404 </i>
    <i name="e_wo_entrp">   -188.81515704 </i>
    <i name="e_0_energy">   -188.94484054 </i>
   </energy>
  </scstep>
  <scstep>
   <time name="diag">    1.62    1.62</time>
   <time name="diis">    2.11    2.11</time>
   <time name="orth">    0.39    0.39</time>
   <time name="total">    4.49    4.49</time>
   <dipole>
    <v name="dipole">      0.00000000       0.00000000       0.01682491 </v>
    <i name="Tr[quadrupol]"> -10313.83290247 </i>
    <i name="Echarged">      0.00000000 </i>
    <i name="Edipol_quadrupol">      0.00000000 </i>
    <i name="Eion">      0.00000000 </i>
   </dipole>
   <energy>
    <i name="e_fr_energy">   -189.07452561 </i>
    <i name="e_wo_entrp">   -188.81515810 </i>
    <i name="e_0_energy">   -188.94484186 </i>
   </energy>
  </scstep>
  <scstep>
   <time name="diag">    1.63    1.64</time>
   <time name="diis">    2.09    2.09</time>
   <time name="orth">    0.39    0.39</time>
   <time name="total">    4.48    4.49</time>
   <dipole>
    <v name="dipole">      0.00000000       0.00000000       0.01665868 </v>
    <i name="Tr[quadrupol]"> -10313.83458283 </i>
    <i name="Echarged">      0.00000000 </i>
    <i name="Edipol_quadrupol">      0.00000000 </i>
    <i name="Eion">      0.00000000 </i>
   </dipole>
   <energy>
    <i name="e_fr_energy">   -189.07452673 </i>
    <i name="e_wo_entrp">   -188.81515874 </i>
    <i name="e_0_energy">   -188.94484274 </i>
   </energy>
  </scstep>
  <scstep>
   <time name="diag">    1.62    1.62</time>
   <time name="diis">    1.99    2.02</time>
   <time name="orth">    0.38    0.40</time>
   <time name="total">    4.05    4.11</time>
   <dipole>
    <v name="dipole">      0.00000000       0.00000000       0.01647967 </v>
    <i name="Tr[quadrupol]"> -10313.83650443 </i>
    <i name="Echarged">      0.00000000 </i>
    <i name="Edipol_quadrupol">      0.00000000 </i>
    <i name="Eion">      0.00000000 </i>
   </dipole>
   <energy>
    <i name="alphaZ">    805.87717985 </i>
    <i name="ewald"> 199931.98601516 </i>
    <i name="hartreedc">-242122.94313014 </i>
    <i name="XCdc">   -343.56520722 </i>
    <i name="pawpsdc">  49316.99615980 </i>
    <i name="pawaedc"> -47395.18012622 </i>
    <i name="eentropy">     -0.25936789 </i>
    <i name="bandstr">  -2041.77192337 </i>
    <i name="atom">  41659.78587232 </i>
    <i name="e_fr_energy">   -189.07452771 </i>
    <i name="e_wo_entrp">   -188.81515982 </i>
    <i name="e_0_energy">   -188.94484376 </i>
   </energy>
  </scstep>
  <structure>
   <crystal>
    <varray name="basis" >
     <v>      11.00258152       0.00000000       0.00000000 </v>
     <v>       5.50129076       9.52851510       0.00000000 </v>
     <v>       0.00000000       0.00000000      24.49178509 </v>
    </varray>
    <i name="volume">   2567.67623402 </i>
    <varray name="rec_basis" >
     <v>       0.09088776      -0.05247407       0.00000000 </v>
     <v>       0.00000000       0.10494815       0.00000000 </v>
     <v>       0.00000000       0.00000000       0.04083002 </v>
    </varray>
   </crystal>
   <varray name="positions" >
    <v>       0.08333333       0.08333333       0.40830017 </v>
    <v>       0.58333333       0.83333333       0.40830017 </v>
    <v>       0.41666667       0.41666667       0.50000000 </v>
    <v>       0.58333333       0.33333333       0.40830017 </v>
    <v>       0.50000000       0.00000000       0.59169983 </v>
    <v>       0.41666667       0.91666667       0.50000000 </v>
    <v>       0.16666667       0.91666667       0.50000000 </v>
    <v>       0.33333333       0.83333333       0.40830017 </v>
    <v>       0.25000000       0.50000000       0.59169983 </v>
    <v>       0.33333333       0.58333333       0.40830017 </v>
    <v>       0.83333333       0.33333333       0.40830017 </v>
    <v>       0.58333333       0.58333333       0.40830017 </v>
    <v>       0.75000000       0.25000000       0.59169983 </v>
    <v>       0.50000000       0.50000000       0.59169983 </v>
    <v>       0.33333333       0.08333333       0.40830017 </v>
    <v>       0.00000000       0.00000000       0.59169983 </v>
    <v>       0.08333333       0.33333333       0.40830017 </v>
    <v>       0.91666667       0.41666667       0.50000000 </v>
    <v>       0.00000000       0.25000000       0.59169983 </v>
    <v>       0.16666667       0.16666667       0.50000000 </v>
    <v>       0.08333333       0.58333333       0.40830017 </v>
    <v>       0.66666667       0.66666667       0.50000000 </v>
    <v>       0.91666667       0.91666667       0.50000000 </v>
    <v>       0.00000000       0.50000000       0.59169983 </v>
    <v>       0.75000000       0.50000000       0.59169983 </v>
    <v>       0.66666667       0.16666667       0.50000000 </v>
    <v>       0.83333333       0.08333333       0.40830017 </v>
    <v>       0.50000000       0.75000000       0.59169983 </v>
    <v>       0.75000000       0.00000000       0.59169983 </v>
    <v>       0.83333333       0.58333333       0.40830017 </v>
    <v>       0.83333333       0.83333333       0.40830017 </v>
    <v>       0.66666667       0.41666667       0.50000000 </v>
    <v>       0.25000000       0.75000000       0.59169983 </v>
    <v>       0.50000000       0.25000000       0.59169983 </v>
    <v>       0.41666667       0.16666667       0.50000000 </v>
    <v>       0.58333333       0.08333333       0.40830017 </v>
    <v>       0.66666667       0.91666667       0.50000000 </v>
    <v>       0.16666667       0.66666667       0.50000000 </v>
    <v>       0.25000000       0.25000000       0.59169983 </v>
    <v>       0.16666667       0.41666667       0.50000000 </v>
    <v>       0.33333333       0.33333333       0.40830017 </v>
    <v>       0.25000000       0.00000000       0.59169983 </v>
    <v>       0.00000000       0.75000000       0.59169983 </v>
    <v>       0.08333333       0.83333333       0.40830017 </v>
    <v>       0.91666667       0.66666667       0.50000000 </v>
    <v>       0.91666667       0.16666667       0.50000000 </v>
    <v>       0.41666667       0.66666667       0.50000000 </v>
    <v>       0.75000000       0.75000000       0.59169983 </v>
   </varray>
  </structure>
  <varray name="forces" >
   <v>      -0.50520952      -0.12332911      -1.65880477 </v>
   <v>       0.68083624       0.11603322      -1.58538826 </v>
   <v>      -0.21277637      -0.33444161       0.00809191 </v>
   <v>      -0.09463793      -0.53268184      -1.30169598 </v>
   <v>       0.15908537       0.10627777       1.28696282 </v>
   <v>       0.15108471      -0.11512044       0.66868868 </v>
   <v>      -0.21904604      -0.51454749       0.32741760 </v>
   <v>      -0.28133778      -0.16492202      -1.67994149 </v>
   <v>      -0.14773562       0.11065305       1.29474137 </v>
   <v>      -0.26298249       0.14629147      -1.34541375 </v>
   <v>      -0.17341427      -0.11682631      -1.37585667 </v>
   <v>       0.09716714      -0.08981855      -1.39262866 </v>
   <v>      -0.25775787       0.00035539       1.16596646 </v>
   <v>       0.23127188       0.29017934       1.30155014 </v>
   <v>       0.57164828       0.31043265      -1.63966377 </v>
   <v>      -0.02700205      -0.26594513       1.55223072 </v>
   <v>       0.27496738       0.31149605      -1.59292336 </v>
   <v>      -0.18817396       0.36460456       0.06991727 </v>
   <v>       0.10530233      -0.07139687       1.57891549 </v>
   <v>       0.38581076       0.16510743       0.58573119 </v>
   <v>      -0.11953589       0.17844406      -1.10330020 </v>
   <v>       0.19602586      -0.07894606       0.55187060 </v>
   <v>      -0.47441775      -0.11414649      -0.26071764 </v>
   <v>       0.05475437       0.29117065       1.33672073 </v>
   <v>      -0.09006650       0.28974162       0.86191995 </v>
   <v>      -0.11540923      -0.24673893      -0.06563627 </v>
   <v>      -0.18705378      -0.20996245      -0.64227725 </v>
   <v>      -0.04696762      -0.09514094       0.83691304 </v>
   <v>      -0.18339472      -0.11181292       0.66267553 </v>
   <v>       0.21599556       0.21826140      -0.87431662 </v>
   <v>       0.00814636       0.14516755      -0.58149270 </v>
   <v>       0.01692060      -0.14630686       0.17439411 </v>
   <v>       0.12574429       0.06958306       0.73613400 </v>
   <v>      -0.01940093      -0.29668221       0.68139236 </v>
   <v>       0.35008950       0.18083959       0.01978431 </v>
   <v>       0.08464879       0.00381165      -0.54539031 </v>
   <v>       0.44317547       0.21256871       0.01736295 </v>
   <v>      -0.13911218       0.11075678       0.12501397 </v>
   <v>       0.14367203      -0.11634800       0.72824453 </v>
   <v>       0.22133219      -0.02464348       0.01561168 </v>
   <v>       0.00118285      -0.18093854      -0.71516591 </v>
   <v>       0.06706134      -0.14819686       0.99763281 </v>
   <v>      -0.15694588       0.06973394       0.65940913 </v>
   <v>      -0.23455771       0.06086686      -0.84509080 </v>
   <v>       0.15443423       0.25489535       0.01341953 </v>
   <v>      -0.49518578       0.06672283      -0.13848340 </v>
   <v>      -0.14725013      -0.02399331       0.40883279 </v>
   <v>       0.03901448       0.04889144       0.67664212 </v>
  </varray>
  <energy>
   <i name="e_fr_energy">   -189.07452771 </i>
   <i name="e_wo_entrp">   -188.94484376 </i>
   <i name="e_0_energy">     -0.25936789 </i>
  </energy>
  <time name="totalsc">  293.35  294.28</time>
 </calculation>
 <calculation>
  <scstep>
   <time name="dav">    9.50    9.51</time>
   <time name="total">    9.87    9.87</time>
   <dipole>
    <v name="dipole">      0.00000000       0.00000000       0.01634508 </v>
    <i name="Tr[quadrupol]"> -10301.09120090 </i>
    <i name="Echarged">      0.00000000 </i>
    <i name="Edipol_quadrupol">      0.00000000 </i>
    <i name="Eion">      0.00000000 </i>
   </dipole>
   <energy>
    <i name="alphaZ">    805.87724087 </i>
    <i name="ewald"> 197272.04277673 </i>
    <i name="hartreedc">-239478.61044784 </i>
    <i name="XCdc">   -345.73047034 </i>
    <i name="pawpsdc">  49316.99159713 </i>
    <i name="pawaedc"> -47395.17554297 </i>
    <i name="eentropy">     -0.25153691 </i>
    <i name="bandstr">  -2025.06043302 </i>
    <i name="atom">  41659.78587232 </i>
    <i name="e_fr_energy">   -190.13094403 </i>
    <i name="e_wo_entrp">   -189.87940712 </i>
    <i name="e_0_energy">   -190.00517557 </i>
   </energy>
  </scstep>
  <scstep>
   <time name="diag">    1.64    1.64</time>
   <time name="diis">    4.49    4.49</time>
   <time name="orth">    0.39    0.39</time>
   <time name="total">    6.88    6.89</time>
   <dipole>
    <v name="dipole">      0.00000000       0.00000000       0.00985733 </v>
    <i name="Tr[quadrupol]"> -10300.83817824 </i>
    <i name="Echarged">      0.00000000 </i>
    <i name="Edipol_quadrupol">      0.00000000 </i>
    <i name="Eion">      0.00000000 </i>
   </dipole>
   <energy>
    <i name="e_fr_energy">   -190.51270472 </i>
    <i name="e_wo_entrp">   -190.26109543 </i>
    <i name="e_0_energy">   -190.38690007 </i>
   </energy>
  </scstep>
  <scstep>
   <time name="diag">    1.63    1.63</time>
   <time name="diis">    4.56    4.56</time>
   <time name="orth">    0.39    0.39</time>
   <time name="total">    6.95    6.96</time>
   <dipole>
    <v name="dipole">      0.00000000       0.00000000       0.00955577 </v>
    <i name="Tr[quadrupol]"> -10301.33750670 </i>
    <i name="Echarged">      0.00000000 </i>
    <i name="Edipol_quadrupol">      0.00000000 </i>
    <i name="Eion">      0.00000000 </i>
   </dipole>
   <energy>
    <i name="e_fr_energy">   -190.63821510 </i>
    <i name="e_wo_entrp">   -190.39379376 </i>
    <i name="e_0_energy">   -190.51600443 </i>
   </energy>
  </scstep>
  <scstep>
   <time name="diag">    1.64    1.64</time>
   <time name="diis">    4.54    4.54</time>
   <time name="orth">    0.39    0.39</time>
   <time name="total">    6.92    6.93</time>
   <dipole>
    <v name="dipole">      0.00000000       0.00000000       0.04646312 </v>
    <i name="Tr[quadrupol]"> -10301.20808347 </i>
    <i name="Echarged">      0.00000000 </i>
    <i name="Edipol_quadrupol">      0.00000000 </i>
    <i name="Eion">      0.00000000 </i>
   </dipole>
   <energy>
    <i name="e_fr_energy">   -190.49451551 </i>
    <i name="e_wo_entrp">   -190.24722028 </i>
    <i name="e_0_energy">   -190.37086790 </i>
   </energy>
  </scstep>
  <scstep>
   <time name="diag">    1.62    1.62</time>
   <time name="diis">    4.44    4.49</time>
   <time name="orth">    0.38    0.39</time>
   <time name="total">    6.80    6.87</time>
   <dipole>
    <v name="dipole">      0.00000000       0.00000000      -0.07596879 </v>
    <i name="Tr[quadrupol]"> -10301.20904962 </i>
    <i name="Echarged">      0.00000000 </i>
    <i name="Edipol_quadrupol">      0.00000000 </i>
    <i name="Eion">      0.00000000 </i>
   </dipole>
   <energy>
    <i name="e_fr_energy">   -190.59682470 </i>
    <i name="e_wo_entrp">   -190.32806913 </i>
    <i name="e_0_energy">   -190.46244692 </i>
   </energy>
  </scstep>
  <scstep>
   <time name="diag">    1.64    1.64</time>
   <time name="diis">    4.95    4.98</time>
   <time name="orth">    0.38    0.38</time>
   <time name="total">    7.33    7.36</time>
   <dipole>
    <v name="dipole">      0.00000000       0.00000000       0.01370176 </v>
    <i name="Tr[quadrupol]"> -10301.18294360 </i>
    <i name="Echarged">      0.00000000 </i>
    <i name="Edipol_quadrupol">      0.00000000 </i>
    <i name="Eion">      0.00000000 </i>
   </dipole>
   <energy>
    <i name="e_fr_energy">   -190.48553776 </i>
    <i name="e_wo_entrp">   -190.23291543 </i>
    <i name="e_0_energy">   -190.35922659 </i>
   </energy>
  </scstep>
  <scstep>
   <time name="diag">    1.63    1.64</time>
   <time name="diis">    4.53    4.54</time>
   <time name="orth">    0.38    0.38</time>
   <time name="total">    6.91    6.92</time>
   <dipole>
    <v name="dipole">      0.00000000       0.00000000       0.01138426 </v>
    <i name="Tr[quadrupol]"> -10301.16672235 </i>
    <i name="Echarged">      0.00000000 </i>
    <i name="Edipol_quadrupol">      0.00000000 </i>
    <i name="Eion">      0.00000000 </i>
   </dipole>
   <energy>
    <i name="e_fr_energy">   -190.47798208 </i>
    <i name="e_wo_entrp">   -190.22405855 </i>
    <i name="e_0_energy">   -190.35102032 </i>
   </energy>
  </scstep>
  <scstep>
   <time name="diag">    1.63    1.63</time>
   <time name="diis">    4.43    4.44</time>
   <time name="orth">    0.38    0.38</time>
   <time name="total">    6.81    6.81</time>
   <dipole>
    <v name="dipole">      0.00000000       0.00000000       0.01410507 </v>
    <i name="Tr[quadrupol]"> -10301.14202195 </i>
    <i name="Echarged">      0.00000000 </i>
    <i name="Edipol_quadrupol">      0.00000000 </i>
    <i name="Eion">      0.00000000 </i>
   </dipole>
   <energy>
    <i name="e_fr_energy">   -190.47641148 </i>
    <i name="e_wo_entrp">   -190.22223981 </i>
    <i name="e_0_energy">   -190.34932564 </i>
   </energy>
  </scstep>
  <scstep>
   <time name="diag">    1.62    1.62</time>
   <time name="diis">    4.50    4.50</time>
   <time name="orth">    0.38    0.38</time>
   <time name="total">    6.86    6.86</time>
   <dipole>
    <v name="dipole">      0.00000000       0.00000000       0.01375877 </v>
    <i name="Tr[quadrupol]"> -10301.13106294 </i>
    <i name="Echarged">      0.00000000 </i>
    <i name="Edipol_quadrupol">      0.00000000 </i>
    <i name="Eion">      0.00000000 </i>
   </dipole>
   <energy>
    <i name="e_fr_energy">   -190.47565698 </i>
    <i name="e_wo_entrp">   -190.22111677 </i>
    <i name="e_0_energy">   -190.34838687 </i>
   </energy>
  </scstep>
  <scstep>
   <time name="diag">    1.63    1.63</time>
   <time name="diis">    4.39    4.39</time>
   <time name="orth">    0.38    0.38</time>
   <time name="total">    6.77    6.77</time>
   <dipole>
    <v name="dipole">      0.00000000       0.00000000       0.01156709 </v>
    <i name="Tr[quadrupol]"> -10301.12540444 </i>
    <i name="Echarged">      0.00000000 </i>
    <i name="Edipol_quadrupol">      0.00000000 </i>
    <i name="Eion">      0.00000000 </i>
   </dipole>
   <energy>
    <i name="e_fr_energy">   -190.47546598 </i>
    <i name="e_wo_entrp">   -190.22077328 </i>
    <i name="e_0_energy">   -190.34811963 </i>
   </energy>
  </scstep>
  <scstep>
   <time name="diag">    1.63    1.63</time>
   <time name="diis">    4.35    4.42</time>
   <time name="orth">    0.38    0.38</time>
   <time name="total">    6.73    6.81</time>
   <dipole>
    <v name="dipole">      0.00000000       0.00000000       0.01196216 </v>
    <i name="Tr[quadrupol]"> -10301.12608446 </i>
    <i name="Echarged">      0.00000000 </i>
    <i name="Edipol_quadrupol">      0.00000000 </i>
    <i name="Eion">      0.00000000 </i>
   </dipole>
   <energy>
    <i name="e_fr_energy">   -190.47539072 </i>
    <i name="e_wo_entrp">   -190.22074119 </i>
    <i name="e_0_energy">   -190.34806596 </i>
   </energy>
  </scstep>
  <scstep>
   <time name="diag">    1.63    1.64</time>
   <time name="diis">    4.44    4.44</time>
   <time name="orth">    0.38    0.38</time>
   <time name="total">    6.83    6.83</time>
   <dipole>
    <v name="dipole">      0.00000000       0.00000000       0.01235429 </v>
    <i name="Tr[quadrupol]"> -10301.13029922 </i>
    <i name="Echarged">      0.00000000 </i>
    <i name="Edipol_quadrupol">      0.00000000 </i>
    <i name="Eion">      0.00000000 </i>
   </dipole>
   <energy>
    <i name="e_fr_energy">   -190.47538651 </i>
    <i name="e_wo_entrp">   -190.22063329 </i>
    <i name="e_0_energy">   -190.34800990 </i>
   </energy>
  </scstep>
  <scstep>
   <time name="diag">    1.63    1.63</time>
   <time name="diis">    4.52    4.52</time>
   <time name="orth">    0.38    0.38</time>
   <time name="total">    6.90    6.90</time>
   <dipole>
    <v name="dipole">      0.00000000       0.00000000       0.01236253 </v>
    <i name="Tr[quadrupol]"> -10301.13357749 </i>
    <i name="Echarged">      0.00000000 </i>
    <i name="Edipol_quadrupol">      0.00000000 </i>
    <i name="Eion">      0.00000000 </i>
   </dipole>
   <energy>
    <i name="e_fr_energy">   -190.47538208 </i>
    <i name="e_wo_entrp">   -190.22071817 </i>
    <i name="e_0_energy">   -190.34805013 </i>
   </energy>
  </scstep>
  <scstep>
   <time name="diag">    1.63    1.64</time>
   <time name="diis">    4.34    4.35</time>
   <time name="orth">    0.39    0.39</time>
   <time name="total">    6.72    6.73</time>
   <dipole>
    <v name="dipole">      0.00000000       0.00000000       0.01217001 </v>
    <i name="Tr[quadrupol]"> -10301.13700006 </i>
    <i name="Echarged">      0.00000000 </i>
    <i name="Edipol_quadrupol">      0.00000000 </i>
    <i name="Eion">      0.00000000 </i>
   </dipole>
   <energy>
    <i name="e_fr_energy">   -190.47538004 </i>
    <i name="e_wo_entrp">   -190.22071186 </i>
    <i name="e_0_energy">   -190.34804595 </i>
   </energy>
  </scstep>
  <scstep>
   <time name="diag">    1.71    1.71</time>
   <time name="diis">    3.65    3.68</time>
   <time name="orth">    0.39    0.39</time>
   <time name="total">    6.12    6.15</time>
   <dipole>
    <v name="dipole">      0.00000000       0.00000000       0.01223077 </v>
    <i name="Tr[quadrupol]"> -10301.13850047 </i>
    <i name="Echarged">      0.00000000 </i>
    <i name="Edipol_quadrupol">      0.00000000 </i>
    <i name="Eion">      0.00000000 </i>
   </dipole>
   <energy>
    <i name="e_fr_energy">   -190.47537846 </i>
    <i name="e_wo_entrp">   -190.22068830 </i>
    <i name="e_0_energy">   -190.34803338 </i>
   </energy>
  </scstep>
  <scstep>
   <time name="diag">    1.63    1.63</time>
   <time name="diis">    2.65    2.65</time>
   <time name="orth">    0.39    0.39</time>
   <time name="total">    5.03    5.03</time>
   <dipole>
    <v name="dipole">      0.00000000       0.00000000       0.01226875 </v>
    <i name="Tr[quadrupol]"> -10301.14048662 </i>
    <i name="Echarged">      0.00000000 </i>
    <i name="Edipol_quadrupol">      0.00000000 </i>
    <i name="Eion">      0.00000000 </i>
   </dipole>
   <energy>
    <i name="e_fr_energy">   -190.47537958 </i>
    <i name="e_wo_entrp">   -190.22069213 </i>
    <i name="e_0_energy">   -190.34803585 </i>
   </energy>
  </scstep>
  <scstep>
   <time name="diag">    1.62    1.62</time>
   <time name="diis">    2.64    2.64</time>
   <time name="orth">    0.39    0.39</time>
   <time name="total">    4.71    4.71</time>
   <dipole>
    <v name="dipole">      0.00000000       0.00000000       0.01227574 </v>
    <i name="Tr[quadrupol]"> -10301.14170970 </i>
    <i name="Echarged">      0.00000000 </i>
    <i name="Edipol_quadrupol">      0.00000000 </i>
    <i name="Eion">      0.00000000 </i>
   </dipole>
   <energy>
    <i name="alphaZ">    805.87528164 </i>
    <i name="ewald"> 197272.04277673 </i>
    <i name="hartreedc">-239481.33873247 </i>
    <i name="XCdc">   -345.66880863 </i>
    <i name="pawpsdc">  48880.39505510 </i>
    <i name="pawaedc"> -46955.46125632 </i>
    <i name="eentropy">     -0.25467174 </i>
    <i name="bandstr">  -2025.85089657 </i>
    <i name="atom">  41659.78587232 </i>
    <i name="e_fr_energy">   -190.47537993 </i>
    <i name="e_wo_entrp">   -190.22070819 </i>
    <i name="e_0_energy">   -190.34804406 </i>
   </energy>
  </scstep>
  <structure>
   <crystal>
    <varray name="basis" >
     <v>      11.00258152       0.00000000       0.00000000 </v>
     <v>       5.50129076       9.52851510       0.00000000 </v>
     <v>       0.00000000       0.00000000      24.49178509 </v>
    </varray>
    <i name="volume">   2567.67623402 </i>
    <varray name="rec_basis" >
     <v>       0.09088776      -0.05247407       0.00000000 </v>
     <v>       0.00000000       0.10494815       0.00000000 </v>
     <v>       0.00000000       0.00000000       0.04083002 </v>
    </varray>
   </crystal>
   <varray name="positions" >
    <v>       0.08200125       0.08289624       0.40601297 </v>
    <v>       0.58521739       0.83374456       0.40611420 </v>
    <v>       0.41660624       0.41548138       0.50001116 </v>
    <v>       0.58398680       0.33144546       0.40650536 </v>
    <v>       0.50029995       0.00037666       0.59347433 </v>
    <v>       0.41733438       0.91625867       0.50092200 </v>
    <v>       0.16690616       0.91484307       0.50045145 </v>
    <v>       0.33276208       0.83274884       0.40598383 </v>
    <v>       0.24935048       0.50039216       0.59348505 </v>
    <v>       0.33226694       0.58385180       0.40644508 </v>
    <v>       0.83300810       0.33291929       0.40640311 </v>
    <v>       0.58379073       0.58301501       0.40637998 </v>
    <v>       0.74920824       0.25000126       0.59330749 </v>
    <v>       0.50019563       0.50102842       0.59349444 </v>
    <v>       0.33453777       0.08443353       0.40603936 </v>
    <v>       0.00038839      -0.00094253       0.59384008 </v>
    <v>       0.08362530       0.33443730       0.40610381 </v>
    <v>       0.91544302       0.41795886       0.50009640 </v>
    <v>       0.00044972       0.24974696       0.59387688 </v>
    <v>       0.16755825       0.16725182       0.50080762 </v>
    <v>       0.08265024       0.58396575       0.40677891 </v>
    <v>       0.66740822       0.66638688       0.50076093 </v>
    <v>       0.91541282       0.91626212       0.49964052 </v>
    <v>      -0.00034791       0.50103193       0.59354293 </v>
    <v>       0.74921013       0.50102687       0.59288827 </v>
    <v>       0.66674968       0.16579220       0.49990950 </v>
    <v>       0.83313128       0.08258921       0.40741458 </v>
    <v>       0.50002444       0.74966281       0.59285379 </v>
    <v>       0.74963525      -0.00039627       0.59261354 </v>
    <v>       0.83360951       0.58410687       0.40709464 </v>
    <v>       0.83310109       0.83384782       0.40749839 </v>
    <v>       0.66697786       0.41614814       0.50024046 </v>
    <v>       0.25026264       0.75024661       0.59271483 </v>
    <v>       0.50046619       0.24894853       0.59263935 </v>
    <v>       0.41742073       0.16730758       0.50002728 </v>
    <v>       0.58358639       0.08334684       0.40754817 </v>
    <v>       0.66765021       0.91742003       0.50002394 </v>
    <v>       0.16604343       0.66705920       0.50017237 </v>
    <v>       0.25064714       0.24958765       0.59270395 </v>
    <v>       0.16738966       0.41657933       0.50002153 </v>
    <v>       0.33365759       0.33269207       0.40731408 </v>
    <v>       0.25046844      -0.00052522       0.59307539 </v>
    <v>      -0.00060528       0.75024714       0.59260904 </v>
    <v>       0.08250555       0.83354905       0.40713494 </v>
    <v>       0.91668898       0.66757004       0.50001850 </v>
    <v>       0.91502857       0.16690314       0.49980906 </v>
    <v>       0.41625723       0.66658163       0.50056371 </v>
    <v>       0.75003311       0.75017328       0.59263280 </v>
   </varray>
  </structure>
  <varray name="forces" >
   <v>      -0.14184680      -0.05549888      -1.04223686 </v>
   <v>       0.30118154       0.05416245      -1.03790581 </v>
   <v>      -0.01602572      -0.06979832       0.01443628 </v>
   <v>      -0.09095239      -0.27072046      -0.95292325 </v>
   <v>       0.09325432       0.03623362       0.99829805 </v>
   <v>       0.13497210      -0.04897089       0.10961901 </v>
   <v>      -0.12001147      -0.11938141       0.06703470 </v>
   <v>      -0.02394873       0.01995749      -1.10064147 </v>
   <v>      -0.02340493       0.06426328       0.97758298 </v>
   <v>      -0.13959765       0.00543622      -0.92950316 </v>
   <v>      -0.03679335      -0.04045153      -1.00016575 </v>
   <v>       0.06525925      -0.01600923      -0.91265409 </v>
   <v>      -0.13797063      -0.02498374       0.88460758 </v>
   <v>       0.05214493       0.12598086       0.96589109 </v>
   <v>       0.20341667       0.07459821      -1.07052676 </v>
   <v>      -0.06599405      -0.14050620       1.08592723 </v>
   <v>       0.08226452       0.09891694      -1.07072912 </v>
   <v>      -0.00605985       0.07149567       0.01197243 </v>
   <v>       0.01637102      -0.01476531       1.12567563 </v>
   <v>       0.08222534       0.05147006       0.09205201 </v>
   <v>      -0.05405872       0.13672131      -0.83248934 </v>
   <v>       0.04230922       0.07516275       0.13216633 </v>
   <v>      -0.13444515      -0.01147870      -0.05135949 </v>
   <v>       0.00067289       0.13956916       0.97139278 </v>
   <v>      -0.01843316       0.13255856       0.73759521 </v>
   <v>      -0.03759377      -0.09360342      -0.02206157 </v>
   <v>      -0.14129030      -0.17942681      -0.55573945 </v>
   <v>      -0.00136048      -0.02406185       0.75027384 </v>
   <v>      -0.07556780      -0.09070890       0.55459047 </v>
   <v>       0.09574326       0.12868708      -0.63855825 </v>
   <v>       0.03135550       0.10237325      -0.55037536 </v>
   <v>      -0.09649976      -0.09555221       0.03283561 </v>
   <v>       0.06179426       0.02162593       0.66166952 </v>
   <v>       0.00851086      -0.11765867       0.56799682 </v>
   <v>       0.16821579      -0.02216970       0.00254281 </v>
   <v>       0.07132117      -0.00461221      -0.48227678 </v>
   <v>       0.10870313       0.12523041       0.01410930 </v>
   <v>      -0.10235252      -0.04724574       0.04865591 </v>
   <v>       0.10890172      -0.04331926       0.62612063 </v>
   <v>       0.04748410       0.05827788       0.01552641 </v>
   <v>       0.04127081      -0.03802621      -0.58367995 </v>
   <v>       0.03117669      -0.10516680       0.80821507 </v>
   <v>      -0.09764872       0.09993526       0.54117720 </v>
   <v>      -0.17762784       0.05073170      -0.64551646 </v>
   <v>       0.12369071       0.06018510       0.01377593 </v>
   <v>      -0.18247558      -0.00406334      -0.00013644 </v>
   <v>      -0.06684074      -0.12399743       0.08055243 </v>
   <v>       0.01656031       0.06860403       0.58718609 </v>
  </varray>
  <energy>
   <i name="e_fr_energy">   -190.47537993 </i>
   <i name="e_wo_entrp">   -190.34804406 </i>
   <i name="e_0_energy">     -0.25467174 </i>
  </energy>
  <time name="totalsc">  118.13  118.50</time>
 </calculation>
 <calculation>
  <scstep>
   <time name="dav">    9.51    9.51</time>
   <time name="total">    9.87    9.88</time>
   <dipole>
    <v name="dipole">      0.00000000       0.00000000       0.01225445 </v>
    <i name="Tr[quadrupol]"> -10264.08235419 </i>
    <i name="Echarged">      0.00000000 </i>
    <i name="Edipol_quadrupol">      0.00000000 </i>
    <i name="Eion">      0.00000000 </i>
   </dipole>
   <energy>
    <i name="alphaZ">    805.87554903 </i>
    <i name="ewald"> 189502.77475961 </i>
    <i name="hartreedc">-231752.10268014 </i>
    <i name="XCdc">   -351.01078374 </i>
    <i name="pawpsdc">  48880.36533206 </i>
    <i name="pawaedc"> -46955.43156041 </i>
    <i name="eentropy">     -0.23121664 </i>
    <i name="bandstr">  -1979.07184680 </i>
    <i name="atom">  41659.78587232 </i>
    <i name="e_fr_energy">   -189.04657472 </i>
    <i name="e_wo_entrp">   -188.81535808 </i>
    <i name="e_0_energy">   -188.93096640 </i>
   </energy>
  </scstep>
  <scstep>
   <time name="diag">    1.64    1.64</time>
   <time name="diis">    4.42    4.42</time>
   <time name="orth">    0.39    0.39</time>
   <time name="total">    6.80    6.80</time>
   <dipole>
    <v name="dipole">      0.00000000       0.00000000      -0.00481770 </v>
    <i name="Tr[quadrupol]"> -10263.27914499 </i>
    <i name="Echarged">      0.00000000 </i>
    <i name="Edipol_quadrupol">      0.00000000 </i>
    <i name="Eion">      0.00000000 </i>
   </dipole>
   <energy>
    <i name="e_fr_energy">   -192.33695893 </i>
    <i name="e_wo_entrp">   -192.10322243 </i>
    <i name="e_0_energy">   -192.22009068 </i>
   </energy>
  </scstep>
  <scstep>
   <time name="diag">    1.64    1.64</time>
   <time name="diis">    4.46    4.46</time>
   <time name="orth">    0.39    0.39</time>
   <time name="total">    6.84    6.85</time>
   <dipole>
    <v name="dipole">      0.00000000       0.00000000      -0.00892868 </v>
    <i name="Tr[quadrupol]"> -10264.50287736 </i>
    <i name="Echarged">      0.00000000 </i>
    <i name="Edipol_quadrupol">      0.00000000 </i>
    <i name="Eion">      0.00000000 </i>
   </dipole>
   <energy>
    <i name="e_fr_energy">   -192.93557043 </i>
    <i name="e_wo_entrp">   -192.72300102 </i>
    <i name="e_0_energy">   -192.82928572 </i>
   </energy>
  </scstep>
  <scstep>
   <time name="diag">    1.64    1.64</time>
   <time name="diis">    4.45    4.45</time>
   <time name="orth">    0.39    0.39</time>
   <time name="total">    6.84    6.84</time>
   <dipole>
    <v name="dipole">      0.00000000       0.00000000       0.06123079 </v>
    <i name="Tr[quadrupol]"> -10264.21184369 </i>
    <i name="Echarged">      0.00000000 </i>
    <i name="Edipol_quadrupol">      0.00000000 </i>
    <i name="Eion">      0.00000000 </i>
   </dipole>
   <energy>
    <i name="e_fr_energy">   -192.12877885 </i>
    <i name="e_wo_entrp">   -191.90075852 </i>
    <i name="e_0_energy">   -192.01476868 </i>
   </energy>
  </scstep>
  <scstep>
   <time name="diag">    1.63    1.63</time>
   <time name="diis">    4.45    4.46</time>
   <time name="orth">    0.39    0.39</time>
   <time name="total">    6.83    6.83</time>
   <dipole>
    <v name="dipole">      0.00000000       0.00000000      -0.21568048 </v>
    <i name="Tr[quadrupol]"> -10264.31120025 </i>
    <i name="Echarged">      0.00000000 </i>
    <i name="Edipol_quadrupol">      0.00000000 </i>
    <i name="Eion">      0.00000000 </i>
   </dipole>
   <energy>
    <i name="e_fr_energy">   -192.77377016 </i>
    <i name="e_wo_entrp">   -192.53117488 </i>
    <i name="e_0_energy">   -192.65247252 </i>
   </energy>
  </scstep>
  <scstep>
   <time name="diag">    1.59    1.66</time>
   <time name="diis">    4.58    4.59</time>
   <time name="orth">    0.47    0.47</time>
   <time name="total">    7.13    7.21</time>
   <dipole>
    <v name="dipole">      0.00000000       0.00000000       0.02990857 </v>
    <i name="Tr[quadrupol]"> -10264.36406648 </i>
    <i name="Echarged">      0.00000000 </i>
    <i name="Edipol_quadrupol">      0.00000000 </i>
    <i name="Eion">      0.00000000 </i>
[...]
       <r>    2.3075    0.0000 </r>
       <r>    2.3698    0.0000 </r>
       <r>    2.4588    0.0000 </r>
       <r>    2.6383    0.0000 </r>
       <r>    2.7413    0.0000 </r>
       <r>    2.9693    0.0000 </r>
       <r>    3.1550    0.0000 </r>
       <r>    3.2316    0.0000 </r>
       <r>    3.4901    0.0000 </r>
       <r>    3.6272    0.0000 </r>
       <r>    3.7521    0.0000 </r>
       <r>    4.0383    0.0000 </r>
       <r>    4.0936    0.0000 </r>
       <r>    4.1946    0.0000 </r>
       <r>    4.4696    0.0000 </r>
       <r>    4.5416    0.0000 </r>
       <r>    4.6104    0.0000 </r>
       <r>    4.6248    0.0000 </r>
       <r>    4.7012    0.0000 </r>
       <r>    4.8176    0.0000 </r>
       <r>    4.8667    0.0000 </r>
       <r>    4.9277    0.0000 </r>
       <r>    4.9668    0.0000 </r>
       <r>    5.0608    0.0000 </r>
       <r>    5.0767    0.0000 </r>
       <r>    5.1154    0.0000 </r>
       <r>    5.1572    0.0000 </r>
       <r>    5.2115    0.0000 </r>
      </set>
     </set>
    </set>
   </array>
  </eigenvalues>
  <separator name="orbital magnetization" >
   <v name="MAGDIPOLOUT">      0.00000000      0.00000000      0.00000000</v>
  </separator>
  <dos>
   <i name="efermi">     -1.08452198 </i>
   <total>
    <array>
     <dimension dim="1">gridpoints</dimension>
     <dimension dim="2">spin</dimension>
     <field>energy</field>
     <field>total</field>
     <field>integrated</field>
     <set>
      <set comment="spin 1">
       <r>    -9.7435     0.0000     0.0000 </r>
       <r>    -9.6898     0.0000     0.0000 </r>
       <r>    -9.6361     0.0000     0.0000 </r>
       <r>    -9.5824     0.0000     0.0000 </r>
       <r>    -9.5287     0.0000     0.0000 </r>
       <r>    -9.4750     0.0000     0.0000 </r>
       <r>    -9.4213     0.0000     0.0000 </r>
       <r>    -9.3676     0.0000     0.0000 </r>
       <r>    -9.3140     0.0000     0.0000 </r>
       <r>    -9.2603     0.0000     0.0000 </r>
       <r>    -9.2066     0.0000     0.0000 </r>
       <r>    -9.1529     0.0000     0.0000 </r>
       <r>    -9.0992     0.0000     0.0000 </r>
       <r>    -9.0455     0.0001     0.0000 </r>
       <r>    -8.9918     0.0019     0.0001 </r>
       <r>    -8.9381     0.0266     0.0015 </r>
       <r>    -8.8844     0.2196     0.0133 </r>
       <r>    -8.8308     1.0661     0.0706 </r>
       <r>    -8.7771     3.0507     0.2343 </r>
       <r>    -8.7234     5.2125     0.5142 </r>
       <r>    -8.6697     5.6478     0.8174 </r>
       <r>    -8.6160     4.8985     1.0804 </r>
       <r>    -8.5623     4.8600     1.3413 </r>
       <r>    -8.5086     4.9687     1.6081 </r>
       <r>    -8.4549     3.9521     1.8203 </r>
       <r>    -8.4013     2.2441     1.9408 </r>
       <r>    -8.3476     0.9247     1.9904 </r>
       <r>    -8.2939     0.5397     2.0194 </r>
       <r>    -8.2402     1.0218     2.0742 </r>
       <r>    -8.1865     1.7741     2.1695 </r>
       <r>    -8.1328     2.0775     2.2810 </r>
       <r>    -8.0791     2.2886     2.4039 </r>
       <r>    -8.0254     3.2503     2.5784 </r>
       <r>    -7.9717     4.5958     2.8251 </r>
       <r>    -7.9181     5.8529     3.1394 </r>
       <r>    -7.8644     7.5541     3.5449 </r>
       <r>    -7.8107     9.7340     4.0675 </r>
       <r>    -7.7570    11.3611     4.6775 </r>
       <r>    -7.7033    11.2423     5.2811 </r>
       <r>    -7.6496     9.4284     5.7873 </r>
       <r>    -7.5959     8.2882     6.2323 </r>
       <r>    -7.5422     9.4437     6.7393 </r>
       <r>    -7.4886    10.6900     7.3132 </r>
       <r>    -7.4349     9.6618     7.8319 </r>
       <r>    -7.3812     7.6597     8.2432 </r>
       <r>    -7.3275     7.6667     8.6548 </r>
       <r>    -7.2738    10.3818     9.2121 </r>
       <r>    -7.2201    13.7995     9.9530 </r>
       <r>    -7.1664    15.9865    10.8113 </r>
       <r>    -7.1127    17.2622    11.7381 </r>
       <r>    -7.0590    19.5944    12.7901 </r>
       <r>    -7.0054    22.7918    14.0137 </r>
       <r>    -6.9517    25.0209    15.3571 </r>
       <r>    -6.8980    26.8125    16.7966 </r>
       <r>    -6.8443    30.2291    18.4195 </r>
       <r>    -6.7906    35.4023    20.3202 </r>
       <r>    -6.7369    39.8807    22.4613 </r>
       <r>    -6.6832    42.5908    24.7480 </r>
       <r>    -6.6295    44.6296    27.1440 </r>
       <r>    -6.5759    46.0723    29.6176 </r>
       <r>    -6.5222    47.5562    32.1708 </r>
       <r>    -6.4685    50.5400    34.8842 </r>
       <r>    -6.4148    54.3774    37.8036 </r>
       <r>    -6.3611    57.9687    40.9159 </r>
       <r>    -6.3074    62.1186    44.2509 </r>
       <r>    -6.2537    67.1717    47.8572 </r>
       <r>    -6.2000    71.1858    51.6791 </r>
       <r>    -6.1463    73.0991    55.6036 </r>
       <r>    -6.0927    74.6822    59.6132 </r>
       <r>    -6.0390    77.8206    63.7912 </r>
       <r>    -5.9853    81.4758    68.1655 </r>
       <r>    -5.9316    83.4666    72.6467 </r>
       <r>    -5.8779    84.1475    77.1644 </r>
       <r>    -5.8242    84.5587    81.7042 </r>
       <r>    -5.7705    83.0414    86.1626 </r>
       <r>    -5.7168    78.8043    90.3935 </r>
       <r>    -5.6632    74.4340    94.3897 </r>
       <r>    -5.6095    71.5868    98.2330 </r>
       <r>    -5.5558    69.7890   101.9799 </r>
       <r>    -5.5021    69.0103   105.6849 </r>
       <r>    -5.4484    69.4177   109.4118 </r>
       <r>    -5.3947    71.3404   113.2420 </r>
       <r>    -5.3410    75.4010   117.2901 </r>
       <r>    -5.2873    80.1749   121.5946 </r>
       <r>    -5.2336    82.9097   126.0459 </r>
       <r>    -5.1800    83.0216   130.5031 </r>
       <r>    -5.1263    82.9252   134.9552 </r>
       <r>    -5.0726    84.6280   139.4988 </r>
       <r>    -5.0189    87.4212   144.1923 </r>
       <r>    -4.9652    90.0842   149.0287 </r>
       <r>    -4.9115    91.7206   153.9531 </r>
       <r>    -4.8578    90.7008   158.8226 </r>
       <r>    -4.8041    87.0615   163.4968 </r>
       <r>    -4.7505    84.0533   168.0095 </r>
       <r>    -4.6968    83.1064   172.4713 </r>
       <r>    -4.6431    82.6662   176.9095 </r>
       <r>    -4.5894    82.7710   181.3533 </r>
       <r>    -4.5357    84.2976   185.8791 </r>
       <r>    -4.4820    86.6472   190.5311 </r>
       <r>    -4.4283    89.2949   195.3251 </r>
       <r>    -4.3746    91.6974   200.2482 </r>
       <r>    -4.3209    91.8718   205.1806 </r>
       <r>    -4.2673    88.6972   209.9426 </r>
       <r>    -4.2136    85.0062   214.5065 </r>
       <r>    -4.1599    84.7641   219.0573 </r>
       <r>    -4.1062    87.4947   223.7547 </r>
       <r>    -4.0525    89.4989   228.5598 </r>
       <r>    -3.9988    89.4857   233.3641 </r>
       <r>    -3.9451    89.4597   238.1670 </r>
       <r>    -3.8914    90.6514   243.0340 </r>
       <r>    -3.8378    92.4079   247.9952 </r>
       <r>    -3.7841    94.8511   253.0876 </r>
       <r>    -3.7304    97.9426   258.3459 </r>
       <r>    -3.6767    99.5323   263.6896 </r>
       <r>    -3.6230    99.2246   269.0168 </r>
       <r>    -3.5693    99.5593   274.3620 </r>
       <r>    -3.5156   100.7063   279.7687 </r>
       <r>    -3.4619   101.0217   285.1924 </r>
       <r>    -3.4082   101.1381   290.6223 </r>
       <r>    -3.3546   102.0564   296.1016 </r>
       <r>    -3.3009   102.2681   301.5922 </r>
       <r>    -3.2472    99.8874   306.9549 </r>
       <r>    -3.1935    96.1371   312.1164 </r>
       <r>    -3.1398    93.5734   317.1402 </r>
       <r>    -3.0861    93.1459   322.1410 </r>
       <r>    -3.0324    93.9897   327.1871 </r>
       <r>    -2.9787    93.9677   332.2321 </r>
       <r>    -2.9251    92.7262   337.2104 </r>
       <r>    -2.8714    91.8743   342.1430 </r>
       <r>    -2.8177    91.2960   347.0445 </r>
       <r>    -2.7640    90.7904   351.9189 </r>
       <r>    -2.7103    91.3240   356.8219 </r>
       <r>    -2.6566    92.2360   361.7739 </r>
       <r>    -2.6029    92.2260   366.7253 </r>
       <r>    -2.5492    91.5801   371.6421 </r>
       <r>    -2.4955    90.7724   376.5155 </r>
       <r>    -2.4419    90.3713   381.3674 </r>
       <r>    -2.3882    90.9225   386.2489 </r>
       <r>    -2.3345    91.2694   391.1490 </r>
       <r>    -2.2808    90.4681   396.0060 </r>
       <r>    -2.2271    89.0446   400.7867 </r>
       <r>    -2.1734    87.5161   405.4853 </r>
       <r>    -2.1197    86.9269   410.1522 </r>
       <r>    -2.0660    88.5250   414.9050 </r>
       <r>    -2.0124    91.0636   419.7940 </r>
       <r>    -1.9587    93.1144   424.7931 </r>
       <r>    -1.9050    95.3141   429.9104 </r>
       <r>    -1.8513    97.5254   435.1464 </r>
       <r>    -1.7976    99.4228   440.4842 </r>
       <r>    -1.7439   101.4559   445.9312 </r>
       <r>    -1.6902   102.5986   451.4395 </r>
       <r>    -1.6365   101.1060   456.8677 </r>
       <r>    -1.5828    97.4852   462.1015 </r>
       <r>    -1.5292    93.8397   467.1396 </r>
       <r>    -1.4755    92.2748   472.0937 </r>
       <r>    -1.4218    93.5731   477.1175 </r>
       <r>    -1.3681    95.4047   482.2396 </r>
       <r>    -1.3144    94.9589   487.3377 </r>
       <r>    -1.2607    90.4349   492.1930 </r>
       <r>    -1.2070    81.0074   496.5422 </r>
       <r>    -1.1533    68.8148   500.2367 </r>
       <r>    -1.0997    56.3522   503.2622 </r>
       <r>    -1.0460    44.8186   505.6684 </r>
       <r>    -0.9923    34.1661   507.5027 </r>
       <r>    -0.9386    23.7768   508.7793 </r>
       <r>    -0.8849    15.1076   509.5904 </r>
       <r>    -0.8312    10.5313   510.1558 </r>
       <r>    -0.7775    10.0236   510.6939 </r>
       <r>    -0.7238    10.7653   511.2719 </r>
       <r>    -0.6701    11.1620   511.8711 </r>
       <r>    -0.6165    12.2492   512.5288 </r>
       <r>    -0.5628    14.4700   513.3057 </r>
       <r>    -0.5091    17.7055   514.2562 </r>
       <r>    -0.4554    21.3890   515.4046 </r>
       <r>    -0.4017    21.8035   516.5752 </r>
       <r>    -0.3480    17.3077   517.5044 </r>
       <r>    -0.2943    13.5990   518.2345 </r>
       <r>    -0.2406    15.8844   519.0873 </r>
       <r>    -0.1870    20.9742   520.2134 </r>
       <r>    -0.1333    22.0375   521.3965 </r>
       <r>    -0.0796    17.9780   522.3617 </r>
       <r>    -0.0259    13.1583   523.0682 </r>
       <r>     0.0278    11.6183   523.6919 </r>
       <r>     0.0815    14.1543   524.4519 </r>
       <r>     0.1352    17.6855   525.4014 </r>
       <r>     0.1889    18.9971   526.4213 </r>
       <r>     0.2426    18.1731   527.3970 </r>
       <r>     0.2962    16.8004   528.2989 </r>
       <r>     0.3499    15.8790   529.1515 </r>
       <r>     0.4036    16.6241   530.0440 </r>
       <r>     0.4573    18.4718   531.0357 </r>
       <r>     0.5110    19.1196   532.0622 </r>
       <r>     0.5647    19.0772   533.0864 </r>
       <r>     0.6184    20.2578   534.1740 </r>
       <r>     0.6721    21.9492   535.3524 </r>
       <r>     0.7257    22.2611   536.5476 </r>
       <r>     0.7794    20.8510   537.6670 </r>
       <r>     0.8331    17.8856   538.6273 </r>
       <r>     0.8868    13.5556   539.3551 </r>
       <r>     0.9405     9.4129   539.8604 </r>
       <r>     0.9942     7.5083   540.2635 </r>
       <r>     1.0479     7.8964   540.6875 </r>
       <r>     1.1016     9.0113   541.1713 </r>
       <r>     1.1553    10.0480   541.7107 </r>
       <r>     1.2089    10.2014   542.2584 </r>
       <r>     1.2626     9.0764   542.7457 </r>
       <r>     1.3163     7.5545   543.1513 </r>
       <r>     1.3700     7.0026   543.5273 </r>
       <r>     1.4237     8.9688   544.0088 </r>
       <r>     1.4774    13.5718   544.7374 </r>
       <r>     1.5311    17.7695   545.6915 </r>
       <r>     1.5848    17.9446   546.6549 </r>
       <r>     1.6384    15.1183   547.4665 </r>
       <r>     1.6921    13.6203   548.1978 </r>
       <r>     1.7458    15.5184   549.0309 </r>
       <r>     1.7995    18.4609   550.0221 </r>
       <r>     1.8532    17.9931   550.9881 </r>
       <r>     1.9069    13.3754   551.7062 </r>
       <r>     1.9606     9.1747   552.1988 </r>
       <r>     2.0143     8.4744   552.6537 </r>
       <r>     2.0680     9.3697   553.1568 </r>
       <r>     2.1216     9.9974   553.6935 </r>
       <r>     2.1753    11.5193   554.3120 </r>
       <r>     2.2290    15.3272   555.1349 </r>
       <r>     2.2827    20.5792   556.2397 </r>
       <r>     2.3364    24.7045   557.5661 </r>
       <r>     2.3901    25.5582   558.9383 </r>
       <r>     2.4438    23.9276   560.2229 </r>
       <r>     2.4975    22.0734   561.4080 </r>
       <r>     2.5511    20.9446   562.5324 </r>
       <r>     2.6048    20.9809   563.6589 </r>
       <r>     2.6585    21.9792   564.8389 </r>
       <r>     2.7122    22.6056   566.0526 </r>
       <r>     2.7659    21.3224   567.1973 </r>
       <r>     2.8196    17.2099   568.1213 </r>
       <r>     2.8733    11.8094   568.7553 </r>
       <r>     2.9270     8.2726   569.1995 </r>
       <r>     2.9807     7.0007   569.5753 </r>
       <r>     3.0343     6.0265   569.8989 </r>
       <r>     3.0880     6.0851   570.2256 </r>
       <r>     3.1417     8.8680   570.7017 </r>
       <r>     3.1954    12.3463   571.3645 </r>
       <r>     3.2491    13.1021   572.0679 </r>
       <r>     3.3028    10.6730   572.6410 </r>
       <r>     3.3565     7.7909   573.0592 </r>
       <r>     3.4102     7.3041   573.4514 </r>
       <r>     3.4638     9.6222   573.9680 </r>
       <r>     3.5175    12.1903   574.6225 </r>
       <r>     3.5712    13.2269   575.3326 </r>
       <r>     3.6249    15.0077   576.1383 </r>
       <r>     3.6786    18.2658   577.1190 </r>
       <r>     3.7323    20.0100   578.1933 </r>
       <r>     3.7860    18.9065   579.2083 </r>
       <r>     3.8397    15.9738   580.0659 </r>
       <r>     3.8934    12.6956   580.7476 </r>
       <r>     3.9470    10.9797   581.3370 </r>
       <r>     4.0007    11.9673   581.9795 </r>
       <r>     4.0544    13.7660   582.7186 </r>
       <r>     4.1081    13.9603   583.4681 </r>
       <r>     4.1618    13.0920   584.1710 </r>
       <r>     4.2155    12.2587   584.8291 </r>
       <r>     4.2692    10.8953   585.4141 </r>
       <r>     4.3229     9.0228   585.8985 </r>
       <r>     4.3765     8.8926   586.3759 </r>
       <r>     4.4302    11.4546   586.9909 </r>
       <r>     4.4839    14.7326   587.7819 </r>
       <r>     4.5376    18.3153   588.7652 </r>
       <r>     4.5913    23.3489   590.0188 </r>
       <r>     4.6450    27.4141   591.4906 </r>
       <r>     4.6987    27.0488   592.9428 </r>
       <r>     4.7524    24.1951   594.2418 </r>
       <r>     4.8061    23.1560   595.4850 </r>
       <r>     4.8597    24.7578   596.8142 </r>
       <r>     4.9134    26.8561   598.2560 </r>
       <r>     4.9671    28.8067   599.8026 </r>
       <r>     5.0208    32.6251   601.5542 </r>
       <r>     5.0745    37.6531   603.5757 </r>
       <r>     5.1282    38.7785   605.6577 </r>
       <r>     5.1819    34.3654   607.5027 </r>
       <r>     5.2356    28.3809   609.0264 </r>
       <r>     5.2892    22.7297   610.2467 </r>
       <r>     5.3429    16.5539   611.1355 </r>
       <r>     5.3966     9.9619   611.6703 </r>
       <r>     5.4503     4.4736   611.9105 </r>
       <r>     5.5040     1.3670   611.9839 </r>
       <r>     5.5577     0.2661   611.9982 </r>
       <r>     5.6114     0.0316   611.9999 </r>
       <r>     5.6651     0.0022   612.0000 </r>
       <r>     5.7188     0.0001   612.0000 </r>
       <r>     5.7724     0.0000   612.0000 </r>
       <r>     5.8261     0.0000   612.0000 </r>
       <r>     5.8798     0.0000   612.0000 </r>
       <r>     5.9335     0.0000   612.0000 </r>
       <r>     5.9872     0.0000   612.0000 </r>
       <r>     6.0409     0.0000   612.0000 </r>
       <r>     6.0946     0.0000   612.0000 </r>
       <r>     6.1483     0.0000   612.0000 </r>
       <r>     6.2019     0.0000   612.0000 </r>
       <r>     6.2556     0.0000   612.0000 </r>
       <r>     6.3093     0.0000   612.0000 </r>
       <r>     6.3630     0.0000   612.0000 </r>
      </set>
     </set>
    </array>
   </total>
  </dos>
 </calculation>
 <structure name="finalpos" >
  <crystal>
   <varray name="basis" >
    <v>      11.00258152       0.00000000       0.00000000 </v>
    <v>       5.50129076       9.52851510       0.00000000 </v>
    <v>       0.00000000       0.00000000      24.49178509 </v>
   </varray>
   <i name="volume">   2567.67623402 </i>
   <varray name="rec_basis" >
    <v>       0.09088776      -0.05247407       0.00000000 </v>
    <v>       0.00000000       0.10494815       0.00000000 </v>
    <v>       0.00000000       0.00000000       0.04083002 </v>
   </varray>
  </crystal>
  <varray name="positions" >
   <v>       0.08226162       0.08272428       0.39654877 </v>
   <v>       0.58792463       0.83438423       0.39530026 </v>
   <v>       0.41679621       0.41467903       0.50071427 </v>
   <v>       0.58446443       0.32895636       0.39804532 </v>
   <v>       0.49935214       0.00119691       0.60171336 </v>
   <v>       0.41833025       0.91517841       0.49883173 </v>
   <v>       0.16730963       0.91363061       0.49998777 </v>
   <v>       0.33314757       0.83383373       0.39236399 </v>
   <v>       0.24826343       0.50196136       0.60288034 </v>
   <v>       0.33156194       0.58423277       0.39812010 </v>
   <v>       0.83365014       0.33215054       0.39901540 </v>
   <v>       0.58467746       0.58310394       0.39731503 </v>
   <v>       0.74810541       0.25034169       0.60132824 </v>
   <v>       0.49916545       0.50316955       0.60060425 </v>
   <v>       0.33615408       0.08545095       0.39389888 </v>
   <v>       0.00072321      -0.00233171       0.60590256 </v>
   <v>       0.08403840       0.33532042       0.39651682 </v>
   <v>       0.91658621       0.41592930       0.50103455 </v>
   <v>       0.00084626       0.24984563       0.60495711 </v>
   <v>       0.16764750       0.16689027       0.50005884 </v>
   <v>       0.08120225       0.58598147       0.40072138 </v>
   <v>       0.66722618       0.66588489       0.49998562 </v>
   <v>       0.91624700       0.91572298       0.50219331 </v>
   <v>      -0.00216517       0.50295710       0.60313801 </v>
   <v>       0.74810887       0.50275179       0.59776807 </v>
   <v>       0.66688625       0.16595302       0.50070181 </v>
   <v>       0.83402660       0.08073557       0.40536864 </v>
   <v>       0.49915436       0.75095195       0.59653433 </v>
   <v>       0.74883734      -0.00052668       0.59813897 </v>
   <v>       0.83396777       0.58511446       0.40320148 </v>
   <v>       0.83333920       0.83560009       0.40568760 </v>
   <v>       0.66702850       0.41356728       0.49968568 </v>
   <v>       0.25001199       0.75148521       0.59667596 </v>
   <v>       0.49992503       0.24923594       0.59740354 </v>
   <v>       0.41841924       0.16479893       0.50029367 </v>
   <v>       0.58399987       0.08340687       0.40448627 </v>
   <v>       0.66669032       0.91799595       0.50076611 </v>
   <v>       0.16710408       0.66383158       0.50059610 </v>
   <v>       0.25023272       0.25015333       0.59703062 </v>
   <v>       0.16640844       0.41682705       0.50123992 </v>
   <v>       0.33351917       0.33353517       0.40459403 </v>
   <v>       0.25058200      -0.00093878       0.59740586 </v>
   <v>      -0.00257015       0.75199257       0.59847818 </v>
   <v>       0.08161406       0.83486470       0.40342612 </v>
   <v>       0.91889129       0.66557864       0.50155001 </v>
   <v>       0.91546411       0.16603900       0.50210436 </v>
   <v>       0.41665581       0.66419928       0.49862734 </v>
   <v>       0.74818689       0.75165238       0.59705942 </v>
  </varray>
 </structure>
</modeling>
