unknown system                          
           1
    11.002582    0.000000    0.000000
     5.501291    9.528515    0.000000
     0.000000    0.000000   24.491785
   Au   Pd
  24  24
Direct configuration=     1
   0.08333333  0.08333333  0.40830017
   0.58333333  0.83333333  0.40830017
   0.41666667  0.41666667  0.50000000
   0.58333333  0.33333333  0.40830017
   0.50000000  0.00000000  0.59169983
   0.41666667  0.91666667  0.50000000
   0.16666667  0.91666667  0.50000000
   0.33333333  0.83333333  0.40830017
   0.25000000  0.50000000  0.59169983
   0.33333333  0.58333333  0.40830017
   0.83333333  0.33333333  0.40830017
   0.58333333  0.58333333  0.40830017
   0.75000000  0.25000000  0.59169983
   0.50000000  0.50000000  0.59169983
   0.33333333  0.08333333  0.40830017
   0.00000000  0.00000000  0.59169983
   0.08333333  0.33333333  0.40830017
   0.91666667  0.41666667  0.50000000
   0.00000000  0.25000000  0.59169983
   0.16666667  0.16666667  0.50000000
   0.08333333  0.58333333  0.40830017
   0.66666667  0.66666667  0.50000000
   0.91666667  0.91666667  0.50000000
   0.00000000  0.50000000  0.59169983
   0.75000000  0.50000000  0.59169983
   0.66666667  0.16666667  0.50000000
   0.83333333  0.08333333  0.40830017
   0.50000000  0.75000000  0.59169983
   0.75000000  0.00000000  0.59169983
   0.83333333  0.58333333  0.40830017
   0.83333333  0.83333333  0.40830017
   0.66666667  0.41666667  0.50000000
   0.25000000  0.75000000  0.59169983
   0.50000000  0.25000000  0.59169983
   0.41666667  0.16666667  0.50000000
   0.58333333  0.08333333  0.40830017
   0.66666667  0.91666667  0.50000000
   0.16666667  0.66666667  0.50000000
   0.25000000  0.25000000  0.59169983
   0.16666667  0.41666667  0.50000000
   0.33333333  0.33333333  0.40830017
   0.25000000  0.00000000  0.59169983
   0.00000000  0.75000000  0.59169983
   0.08333333  0.83333333  0.40830017
   0.91666667  0.66666667  0.50000000
   0.91666667  0.16666667  0.50000000
   0.41666667  0.66666667  0.50000000
   0.75000000  0.75000000  0.59169983
Direct configuration=     2
   0.08200125  0.08289624  0.40601297
   0.58521739  0.83374456  0.40611420
   0.41660624  0.41548138  0.50001116
   0.58398680  0.33144546  0.40650536
   0.50029995  0.00037666  0.59347433
   0.41733438  0.91625867  0.50092200
   0.16690616  0.91484307  0.50045145
   0.33276208  0.83274884  0.40598383
   0.24935048  0.50039216  0.59348505
   0.33226694  0.58385180  0.40644508
   0.83300810  0.33291929  0.40640311
   0.58379073  0.58301501  0.40637998
   0.74920824  0.25000126  0.59330749
   0.50019563  0.50102842  0.59349444
   0.33453777  0.08443353  0.40603936
   0.00038839 -0.00094253  0.59384008
   0.08362530  0.33443730  0.40610381
   0.91544302  0.41795886  0.50009640
   0.00044972  0.24974696  0.59387688
   0.16755825  0.16725182  0.50080762
   0.08265024  0.58396575  0.40677891
   0.66740822  0.66638688  0.50076093
   0.91541282  0.91626212  0.49964052
  -0.00034791  0.50103193  0.59354293
   0.74921013  0.50102687  0.59288827
   0.66674968  0.16579220  0.49990950
   0.83313128  0.08258921  0.40741458
   0.50002444  0.74966281  0.59285379
   0.74963525 -0.00039627  0.59261354
   0.83360951  0.58410687  0.40709464
   0.83310109  0.83384782  0.40749839
   0.66697786  0.41614814  0.50024046
   0.25026264  0.75024661  0.59271483
   0.50046619  0.24894853  0.59263935
   0.41742073  0.16730758  0.50002728
   0.58358639  0.08334684  0.40754817
   0.66765021  0.91742003  0.50002394
   0.16604343  0.66705920  0.50017237
   0.25064714  0.24958765  0.59270395
   0.16738966  0.41657933  0.50002153
   0.33365759  0.33269207  0.40731408
   0.25046844 -0.00052522  0.59307539
  -0.00060528  0.75024714  0.59260904
   0.08250555  0.83354905  0.40713494
   0.91668898  0.66757004  0.50001850
   0.91502857  0.16690314  0.49980906
   0.41625723  0.66658163  0.50056371
   0.75003311  0.75017328  0.59263280
Direct configuration=     3
   0.07804767  0.08159897  0.39922460
   0.59080922  0.83496509  0.39962627
   0.41642691  0.41196346  0.50004427
   0.58592627  0.32584230  0.40117840
   0.50119018  0.00149457  0.59874100
   0.41931616  0.91504774  0.50365850
   0.16761695  0.90943066  0.50179135
   0.33106662  0.83101406  0.39910896
   0.24742271  0.50155610  0.59878355
   0.32910188  0.58539061  0.40093921
   0.83204281  0.33169042  0.40077265
   0.58514827  0.58207023  0.40068089
   0.74685832  0.25000500  0.59807901
   0.50077624  0.50408075  0.59882081
   0.33811254  0.08769891  0.39932932
   0.00154112 -0.00373995  0.60019232
   0.08449184  0.33771386  0.39958505
   0.91181124  0.42179405  0.50038253
   0.00178448  0.24899596  0.60033831
   0.17020444  0.16898855  0.50320462
   0.08062281  0.58584277  0.40226385
   0.66960913  0.66555646  0.50301937
   0.91169144  0.91506144  0.49857357
  -0.00138050  0.50409469  0.59901323
   0.74686580  0.50407460  0.59641552
   0.66699605  0.16319681  0.49964089
   0.83253158  0.08038066  0.40478617
   0.50009697  0.74866205  0.59627871
   0.74855268 -0.00157241  0.59532543
   0.83442921  0.58640271  0.40351665
   0.83241181  0.83537480  0.40511874
   0.66790149  0.41460917  0.50095414
   0.25104215  0.75097854  0.59572733
   0.50184982  0.24582780  0.59542783
   0.41965877  0.16920979  0.50010824
   0.58433745  0.08338694  0.40531626
   0.67056935  0.91965599  0.50009500
   0.16419367  0.66822422  0.50068397
   0.25256785  0.24836381  0.59568417
   0.16953551  0.41632011  0.50008541
   0.33462000  0.33078882  0.40438739
   0.25185876 -0.00208407  0.59715803
  -0.00240174  0.75098066  0.59530756
   0.08004872  0.83418930  0.40367655
   0.91675521  0.67025123  0.50007342
   0.91016674  0.16760498  0.49924234
   0.41504204  0.66632925  0.50223679
   0.75013137  0.75068755  0.59540184
Direct configuration=     4
   0.08012017  0.08199725  0.39817520
   0.58884283  0.83468641  0.39843597
   0.41714355  0.41481722  0.50010625
   0.58473658  0.32735269  0.39986031
   0.50125889  0.00059650  0.60041970
   0.41982983  0.91559388  0.50266551
   0.16578002  0.91319926  0.50121443
   0.33202532  0.83306240  0.39781316
   0.24872722  0.50138969  0.60019995
   0.33029860  0.58363521  0.39988679
   0.83283783  0.33223337  0.39942082
   0.58473855  0.58273608  0.39977276
   0.74769742  0.24950841  0.59934766
   0.49978946  0.50285841  0.60023524
   0.33687534  0.08539415  0.39807928
   0.00058984 -0.00316575  0.60163381
   0.08389315  0.33605452  0.39835828
   0.91519672  0.41891813  0.50022048
   0.00081508  0.24958060  0.60180080
   0.16845705  0.16826578  0.50227181
   0.08087653  0.58633517  0.40108981
   0.66715578  0.66799507  0.50199640
   0.91462036  0.91621343  0.49914379
  -0.00161687  0.50314818  0.60034169
   0.74832806  0.50291125  0.59787293
   0.66681244  0.16510168  0.49978557
   0.83262211  0.07967826  0.40371640
   0.50016655  0.74975806  0.59788730
   0.74961344 -0.00191395  0.59631676
   0.83391421  0.58594724  0.40281266
   0.83309354  0.83539452  0.40386693
   0.66606152  0.41464970  0.50066324
   0.25085877  0.75047002  0.59717620
   0.50138414  0.24741088  0.59643587
   0.41999956  0.16624115  0.50007158
   0.58478765  0.08310845  0.40438466
   0.66717045  0.91919201  0.50017651
   0.16525204  0.66571736  0.50049642
   0.25241480  0.24910636  0.59692571
   0.16721860  0.41779050  0.50010922
   0.33458943  0.33268238  0.40346516
   0.25175653 -0.00215996  0.59851954
  -0.00278254  0.75198588  0.59621407
   0.07954331  0.83435444  0.40284653
   0.91803656  0.66791780  0.50009741
   0.91238609  0.16675844  0.49960156
   0.41660412  0.66401205  0.50149636
   0.74947936  0.75147941  0.59657151
Direct configuration=     5
   0.08094692  0.08215613  0.39775658
   0.58805841  0.83457524  0.39796114
   0.41742942  0.41595563  0.50013097
   0.58426199  0.32795520  0.39933451
   0.50128630  0.00023825  0.60108935
   0.42003474  0.91581174  0.50226939
   0.16504724  0.91470260  0.50098428
   0.33240777  0.83387952  0.39729625
   0.24924761  0.50132330  0.60076498
   0.33077598  0.58293496  0.39946696
   0.83315497  0.33244997  0.39888156
   0.58457512  0.58300170  0.39941049
   0.74803216  0.24931031  0.59985375
   0.49939583  0.50237080  0.60079947
   0.33638181  0.08447475  0.39758062
   0.00021036 -0.00293669  0.60220884
   0.08365432  0.33539259  0.39786890
   0.91654724  0.41777088  0.50015584
   0.00042838  0.24981383  0.60238421
   0.16775999  0.16797746  0.50189970
   0.08097774  0.58653159  0.40062147
   0.66617710  0.66896787  0.50158833
   0.91578874  0.91667297  0.49937126
  -0.00171116  0.50277060  0.60087164
   0.74891137  0.50244717  0.59845431
   0.66673920  0.16586156  0.49984328
   0.83265823  0.07939806  0.40328966
   0.50019430  0.75019528  0.59852899
   0.75003659 -0.00205019  0.59671222
   0.83370877  0.58576555  0.40253183
   0.83336549  0.83540239  0.40336756
   0.66532754  0.41466587  0.50054719
   0.25078562  0.75026716  0.59775417
   0.50119838  0.24804239  0.59683800
   0.42013550  0.16505692  0.50005696
   0.58496724  0.08299735  0.40401303
   0.66581459  0.91900692  0.50020903
   0.16567424  0.66471734  0.50042161
   0.25235375  0.24940258  0.59742099
   0.16629435  0.41837706  0.50011871
   0.33457723  0.33343776  0.40309727
   0.25171575 -0.00219023  0.59906267
  -0.00293444  0.75238688  0.59657569
   0.07934169  0.83442032  0.40251542
   0.91854771  0.66698696  0.50010698
   0.91327142  0.16642074  0.49974485
   0.41722726  0.66308768  0.50120099
   0.74921926  0.75179529  0.59703811
Direct configuration=     6
   0.08158060  0.08240890  0.39750724
   0.58734956  0.83429228  0.39753680
   0.41679202  0.41562177  0.50020793
   0.58456577  0.32879929  0.39883142
   0.50081851  0.00049689  0.60180800
   0.41789443  0.91615695  0.50178904
   0.16669746  0.91474845  0.50079120
   0.33266503  0.83374357  0.39702178
   0.24910585  0.50125128  0.60126504
   0.33145324  0.58366099  0.39911383
   0.83306216  0.33249286  0.39858148
   0.58413139  0.58321038  0.39922914
   0.74852332  0.24940393  0.60026190
   0.49973634  0.50201270  0.60132613
   0.33564107  0.08460681  0.39721964
   0.00035566 -0.00246414  0.60277031
   0.08398824  0.33475048  0.39752404
   0.91588332  0.41723782  0.50017275
   0.00049744  0.24967565  0.60287052
   0.16761782  0.16728318  0.50146469
   0.08097606  0.58590449  0.40017812
   0.66683978  0.66732898  0.50117521
   0.91543161  0.91645582  0.49975001
  -0.00143492  0.50241032  0.60133719
   0.74896998  0.50218010  0.59856777
   0.66673378  0.16621460  0.49989510
   0.83294711  0.08009626  0.40297862
   0.50022173  0.75013495  0.59892639
   0.75005048 -0.00176603  0.59691820
   0.83353042  0.58542397  0.40251735
   0.83315558  0.83524197  0.40315419
   0.66644611  0.41475932  0.50039599
   0.25050733  0.75059222  0.59797010
   0.50091212  0.24853824  0.59705202
   0.41908142  0.16560258  0.50004207
   0.58443599  0.08292836  0.40375450
   0.66659908  0.91866927  0.50019231
   0.16648219  0.66451333  0.50033310
   0.25187218  0.24963733  0.59758587
   0.16671195  0.41771251  0.50018207
   0.33395123  0.33325571  0.40304747
   0.25129056 -0.00180895  0.59927823
  -0.00262932  0.75207032  0.59685710
   0.08053115  0.83443396  0.40233581
   0.91821413  0.66690456  0.50015684
   0.91391161  0.16730482  0.49993853
   0.41668614  0.66436725  0.50084943
   0.74921533  0.75150368  0.59733752
Direct configuration=     7
   0.08174364  0.08247393  0.39744308
   0.58716717  0.83421948  0.39742762
   0.41662802  0.41553587  0.50022773
   0.58464392  0.32901647  0.39870198
   0.50069815  0.00056344  0.60199291
   0.41734374  0.91624577  0.50166544
   0.16712205  0.91476024  0.50074152
   0.33273122  0.83370859  0.39695116
   0.24906938  0.50123276  0.60139371
   0.33162749  0.58384780  0.39902298
   0.83303828  0.33250390  0.39850427
   0.58401722  0.58326407  0.39918248
   0.74864969  0.24942802  0.60036692
   0.49982395  0.50192056  0.60146164
   0.33545049  0.08464079  0.39712676
   0.00039304 -0.00234256  0.60291477
   0.08407416  0.33458527  0.39743530
   0.91571250  0.41710067  0.50017710
   0.00051521  0.24964009  0.60299564
   0.16758124  0.16710454  0.50135277
   0.08097563  0.58574314  0.40006405
   0.66701028  0.66690730  0.50106892
   0.91533972  0.91639995  0.49984746
  -0.00136385  0.50231762  0.60145697
   0.74898506  0.50211139  0.59859696
   0.66673239  0.16630544  0.49990843
   0.83302143  0.08027590  0.40289860
   0.50022879  0.75011943  0.59902863
   0.75005406 -0.00169292  0.59697120
   0.83348453  0.58533608  0.40251363
   0.83310157  0.83520070  0.40309929
   0.66673391  0.41478336  0.50035708
   0.25043573  0.75067586  0.59802566
   0.50083847  0.24866582  0.59710709
   0.41881021  0.16574298  0.50003824
   0.58429930  0.08291061  0.40368798
   0.66680093  0.91858239  0.50018800
   0.16669007  0.66446084  0.50031033
   0.25174827  0.24969773  0.59762830
   0.16681940  0.41754153  0.50019837
   0.33379016  0.33320887  0.40303465
   0.25118116 -0.00171085  0.59933369
  -0.00255081  0.75198887  0.59692951
   0.08083719  0.83443747  0.40228960
   0.91812830  0.66688336  0.50016967
   0.91407633  0.16753229  0.49998837
   0.41654691  0.66469647  0.50075897
   0.74921431  0.75142866  0.59741456
Direct configuration=     8
   0.08157593  0.08252938  0.39730697
   0.58713057  0.83422758  0.39725560
   0.41675066  0.41519506  0.50025786
   0.58459309  0.32905307  0.39852065
   0.50041412  0.00078783  0.60217851
   0.41792118  0.91584435  0.50158148
   0.16687144  0.91420950  0.50074137
   0.33273782  0.83352721  0.39670052
   0.24882258  0.50136281  0.60163499
   0.33155083  0.58411875  0.39887216
   0.83308240  0.33243392  0.39838293
   0.58412337  0.58318480  0.39906378
   0.74865294  0.24955770  0.60050841
   0.49997787  0.50212780  0.60155963
   0.33558270  0.08491965  0.39687349
   0.00068226 -0.00239926  0.60314633
   0.08397902  0.33478273  0.39727226
   0.91577184  0.41708885  0.50027388
   0.00086908  0.24959749  0.60327310
   0.16734436  0.16761087  0.50125490
   0.08112213  0.58552201  0.39993316
   0.66687344  0.66682391  0.50106401
   0.91557002  0.91634998  0.49993198
  -0.00130453  0.50227649  0.60162108
   0.74880412  0.50222177  0.59850214
   0.66675017  0.16645888  0.49986155
   0.83334142  0.08051950  0.40296747
   0.50023767  0.74999639  0.59892990
   0.74975484 -0.00141073  0.59700692
   0.83351501  0.58510882  0.40256990
   0.83301822  0.83524018  0.40317391
   0.66675343  0.41479300  0.50031899
   0.25039882  0.75086067  0.59793031
   0.50083158  0.24862655  0.59711357
   0.41847343  0.16581434  0.50009809
   0.58394343  0.08310845  0.40370091
   0.66674504  0.91845173  0.50021255
   0.16676526  0.66489024  0.50024775
   0.25139769  0.24962385  0.59752694
   0.16674795  0.41706272  0.50029453
   0.33370543  0.33306821  0.40312067
   0.25104865 -0.00143856  0.59933110
  -0.00227468  0.75168280  0.59702734
   0.08129238  0.83444065  0.40240043
   0.91813796  0.66673076  0.50023074
   0.91430417  0.16730969  0.50009905
   0.41647450  0.66492246  0.50073518
   0.74913837  0.75118517  0.59739101
Direct configuration=     9
   0.08149581  0.08255587  0.39724195
   0.58711309  0.83423145  0.39717343
   0.41680925  0.41503224  0.50027225
   0.58456881  0.32907055  0.39843403
   0.50027843  0.00089503  0.60226717
   0.41819703  0.91565259  0.50154138
   0.16675172  0.91394639  0.50074130
   0.33274097  0.83344056  0.39658079
   0.24870468  0.50142493  0.60175025
   0.33151420  0.58424819  0.39880011
   0.83310348  0.33240048  0.39832496
   0.58417408  0.58314693  0.39900708
   0.74865449  0.24961965  0.60057600
   0.50005140  0.50222680  0.60160644
   0.33564586  0.08505287  0.39675250
   0.00082042 -0.00242635  0.60325695
   0.08393357  0.33487705  0.39719437
   0.91580019  0.41708320  0.50032011
   0.00103813  0.24957714  0.60340565
   0.16723120  0.16785276  0.50120814
   0.08119212  0.58541638  0.39987064
   0.66680807  0.66678407  0.50106166
   0.91568004  0.91632611  0.49997235
  -0.00127619  0.50225684  0.60169947
   0.74871768  0.50227450  0.59845683
   0.66675867  0.16653218  0.49983915
   0.83349428  0.08063587  0.40300037
   0.50024191  0.74993760  0.59888273
   0.74961189 -0.00127593  0.59702398
   0.83352957  0.58500026  0.40259678
   0.83297841  0.83525905  0.40320955
   0.66676276  0.41479760  0.50030079
   0.25038119  0.75094896  0.59788477
   0.50082829  0.24860779  0.59711667
   0.41831255  0.16584843  0.50012668
   0.58377342  0.08320296  0.40370709
   0.66671834  0.91838931  0.50022428
   0.16680119  0.66509537  0.50021786
   0.25123021  0.24958855  0.59747851
   0.16671381  0.41683398  0.50034047
   0.33366496  0.33300101  0.40316177
   0.25098534 -0.00130848  0.59932986
  -0.00214276  0.75153659  0.59707408
   0.08150983  0.83444217  0.40245337
   0.91814258  0.66665787  0.50025992
   0.91441302  0.16720335  0.50015193
   0.41643990  0.66503041  0.50072381
   0.74910209  0.75106885  0.59737975
Direct configuration=    10
   0.08160944  0.08261014  0.39710564
   0.58716547  0.83425461  0.39698225
   0.41676562  0.41508850  0.50031354
   0.58436330  0.32904709  0.39826740
   0.50011331  0.00095194  0.60238311
   0.41833630  0.91569486  0.50148491
   0.16670762  0.91400087  0.50076985
   0.33275492  0.83363224  0.39625405
   0.24873043  0.50150156  0.60195465
   0.33147754  0.58407906  0.39866448
   0.83315209  0.33239229  0.39822996
   0.58434269  0.58301504  0.39886028
   0.74874312  0.24968926  0.60070892
   0.49989980  0.50240777  0.60163324
   0.33565390  0.08508507  0.39645612
   0.00090177 -0.00251450  0.60351351
   0.08374758  0.33505238  0.39698513
   0.91575991  0.41714847  0.50044363
   0.00111900  0.24964193  0.60373302
   0.16726753  0.16751735  0.50108087
   0.08127180  0.58550753  0.39981573
   0.66682029  0.66674173  0.50104302
   0.91545624  0.91634123  0.50007347
  -0.00140604  0.50233860  0.60188289
   0.74871297  0.50229148  0.59833780
   0.66687160  0.16648307  0.49976344
   0.83361178  0.08065098  0.40317096
   0.50012480  0.75006573  0.59872279
   0.74945792 -0.00116109  0.59701912
   0.83357353  0.58492949  0.40268056
   0.83305449  0.83536501  0.40339848
   0.66661987  0.41472182  0.50025414
   0.25049863  0.75098444  0.59776332
   0.50071859  0.24868710  0.59709863
   0.41831640  0.16557764  0.50022051
   0.58375090  0.08337439  0.40379917
   0.66672495  0.91838463  0.50027423
   0.16691116  0.66479224  0.50015717
   0.25107244  0.24956876  0.59737076
   0.16659523  0.41693744  0.50046216
   0.33368403  0.33314962  0.40328963
   0.25104038 -0.00119936  0.59920002
  -0.00213527  0.75149320  0.59713626
   0.08156411  0.83441983  0.40258286
   0.91834197  0.66652916  0.50033238
   0.91458903  0.16692937  0.50032443
   0.41654547  0.66478132  0.50069832
   0.74900139  0.75101871  0.59730315
Direct configuration=    11
   0.08175173  0.08267810  0.39693494
   0.58723107  0.83428361  0.39674283
   0.41671099  0.41515896  0.50036526
   0.58410593  0.32901770  0.39805874
   0.49990652  0.00102320  0.60252830
   0.41851072  0.91574780  0.50141420
   0.16665239  0.91406910  0.50080559
   0.33277238  0.83387228  0.39584487
   0.24876269  0.50159751  0.60221061
   0.33143162  0.58386726  0.39849461
   0.83321296  0.33238202  0.39811099
   0.58455383  0.58284987  0.39867644
   0.74885410  0.24977643  0.60087536
   0.49970996  0.50263441  0.60166681
   0.33566396  0.08512538  0.39608496
   0.00100365 -0.00262489  0.60383481
   0.08351465  0.33527193  0.39672310
   0.91570946  0.41723020  0.50059832
   0.00122027  0.24972308  0.60414299
   0.16731304  0.16709732  0.50092149
   0.08137158  0.58562167  0.39974698
   0.66683560  0.66668871  0.50101968
   0.91517597  0.91636018  0.50020010
  -0.00156864  0.50244098  0.60211259
   0.74870706  0.50231274  0.59818874
   0.66701303  0.16642158  0.49966863
   0.83375892  0.08066991  0.40338460
   0.49997814  0.75022619  0.59852250
   0.74926511 -0.00101727  0.59701304
   0.83362859  0.58484086  0.40278548
   0.83314976  0.83549770  0.40363508
   0.66644093  0.41462693  0.50019573
   0.25064570  0.75102887  0.59761124
   0.50058122  0.24878642  0.59707605
   0.41832122  0.16523854  0.50033801
   0.58372271  0.08358907  0.40391449
   0.66673323  0.91837878  0.50033679
   0.16704888  0.66441263  0.50008116
   0.25087487  0.24954398  0.59723582
   0.16644673  0.41706700  0.50061454
   0.33370791  0.33333573  0.40344976
   0.25110931 -0.00106271  0.59903743
  -0.00212588  0.75143887  0.59721413
   0.08163209  0.83439185  0.40274501
   0.91859167  0.66636799  0.50042312
   0.91480944  0.16658626  0.50054045
   0.41667766  0.66446937  0.50066638
   0.74887529  0.75095592  0.59720721
Direct configuration=    12
   0.08180092  0.08270159  0.39687594
   0.58725374  0.83429364  0.39666007
   0.41669211  0.41518332  0.50038314
   0.58401696  0.32900755  0.39798660
   0.49983504  0.00104783  0.60257850
   0.41857102  0.91576610  0.50138976
   0.16663330  0.91409268  0.50081795
   0.33277842  0.83395526  0.39570343
   0.24877384  0.50163068  0.60229910
   0.33141574  0.58379404  0.39843590
   0.83323400  0.33237847  0.39806987
   0.58462682  0.58279278  0.39861289
   0.74889246  0.24980656  0.60093290
   0.49964433  0.50271276  0.60167842
   0.33566744  0.08513932  0.39595666
   0.00103887 -0.00266305  0.60394587
   0.08343413  0.33534783  0.39663252
   0.91569203  0.41725845  0.50065179
   0.00125527  0.24975113  0.60428471
   0.16732876  0.16695212  0.50086640
   0.08140607  0.58566113  0.39972321
   0.66684089  0.66667038  0.50101161
   0.91507908  0.91636672  0.50024388
  -0.00162485  0.50247638  0.60219200
   0.74870502  0.50232009  0.59813722
   0.66706192  0.16640032  0.49963585
   0.83380979  0.08067645  0.40345845
   0.49992744  0.75028165  0.59845326
   0.74919845 -0.00096756  0.59701093
   0.83364763  0.58481022  0.40282175
   0.83318269  0.83554357  0.40371687
   0.66637907  0.41459413  0.50017554
   0.25069654  0.75104423  0.59755866
   0.50053373  0.24882075  0.59706824
   0.41832289  0.16512132  0.50037863
   0.58371296  0.08366329  0.40395435
   0.66673609  0.91837676  0.50035841
   0.16709649  0.66428141  0.50005489
   0.25080657  0.24953542  0.59718918
   0.16639539  0.41711178  0.50066722
   0.33371616  0.33340007  0.40350512
   0.25113314 -0.00101548  0.59898123
  -0.00212263  0.75142009  0.59724105
   0.08165558  0.83438217  0.40280107
   0.91867799  0.66631227  0.50045448
   0.91488564  0.16646765  0.50061512
   0.41672336  0.66436154  0.50065534
   0.74883170  0.75093422  0.59717404
Direct configuration=    13
   0.08193020  0.08274844  0.39674318
   0.58740797  0.83431819  0.39646789
   0.41666625  0.41502774  0.50044895
   0.58411797  0.32901600  0.39782583
   0.49990154  0.00103926  0.60267690
   0.41846529  0.91564561  0.50122523
   0.16685424  0.91394620  0.50079100
   0.33291138  0.83389161  0.39531467
   0.24879296  0.50164721  0.60248612
   0.33157476  0.58388955  0.39830290
   0.83320354  0.33228296  0.39805333
   0.58448580  0.58283671  0.39846206
   0.74884906  0.24985424  0.60102699
   0.49962367  0.50263789  0.60167891
   0.33563301  0.08531281  0.39563470
   0.00100593 -0.00272408  0.60424034
   0.08352101  0.33539563  0.39647093
   0.91587141  0.41683448  0.50074430
   0.00114772  0.24976279  0.60459997
   0.16718965  0.16688728  0.50069700
   0.08122105  0.58575351  0.39972099
   0.66683049  0.66669903  0.50087108
   0.91522771  0.91616431  0.50045736
  -0.00166762  0.50258351  0.60239436
   0.74867944  0.50226260  0.59805621
   0.66694678  0.16650002  0.49962927
   0.83383283  0.08073959  0.40365692
   0.49985090  0.75045653  0.59830059
   0.74914690 -0.00091680  0.59702195
   0.83368815  0.58498936  0.40294403
   0.83320348  0.83558604  0.40395358
   0.66651846  0.41428636  0.50009774
   0.25065351  0.75106810  0.59744177
   0.50048755  0.24895242  0.59703122
   0.41839474  0.16509983  0.50042535
   0.58376144  0.08359993  0.40406389
   0.66670496  0.91835678  0.50039343
   0.16709032  0.66404589  0.50004470
   0.25073527  0.24973878  0.59709727
   0.16636783  0.41706917  0.50076142
   0.33352785  0.33342484  0.40370826
   0.25107583 -0.00100174  0.59882120
  -0.00223677  0.75159565  0.59729082
   0.08167182  0.83448050  0.40295767
   0.91883374  0.66622215  0.50052945
   0.91484952  0.16656546  0.50084522
   0.41674673  0.66429192  0.50048745
   0.74870376  0.75113573  0.59710559
Direct configuration=    14
   0.08206500  0.08279729  0.39660475
   0.58756879  0.83434379  0.39626750
   0.41663929  0.41486551  0.50051758
   0.58422329  0.32902482  0.39765819
   0.49997088  0.00103032  0.60277952
   0.41835504  0.91551998  0.50105368
   0.16708462  0.91379347  0.50076289
   0.33305002  0.83382525  0.39490932
   0.24881290  0.50166444  0.60268113
   0.33174056  0.58398915  0.39816423
   0.83317177  0.33218337  0.39803609
   0.58433875  0.58288251  0.39830478
   0.74880381  0.24990396  0.60112510
   0.49960212  0.50255982  0.60167943
   0.33559711  0.08549372  0.39529900
   0.00097159 -0.00278771  0.60454737
   0.08361160  0.33544547  0.39630244
   0.91605845  0.41639240  0.50084075
   0.00103558  0.24977495  0.60492870
   0.16704459  0.16681967  0.50052037
   0.08102814  0.58584983  0.39971867
   0.66681964  0.66672891  0.50072456
   0.91538268  0.91595326  0.50067996
  -0.00171221  0.50269522  0.60260536
   0.74865277  0.50220265  0.59797174
   0.66682672  0.16660399  0.49962241
   0.83385685  0.08080543  0.40386386
   0.49977108  0.75063887  0.59814139
   0.74909315 -0.00086387  0.59703344
   0.83373039  0.58517615  0.40307153
   0.83322514  0.83563032  0.40420040
   0.66666379  0.41396545  0.50001661
   0.25060864  0.75109299  0.59731989
   0.50043940  0.24908972  0.59699263
   0.41846966  0.16507743  0.50047406
   0.58381199  0.08353387  0.40417810
   0.66667250  0.91833595  0.50042995
   0.16708388  0.66380032  0.50003407
   0.25066091  0.24995083  0.59700145
   0.16633908  0.41702473  0.50085965
   0.33333150  0.33345066  0.40392008
   0.25101607 -0.00098742  0.59865433
  -0.00235578  0.75177872  0.59734273
   0.08168875  0.83458303  0.40312096
   0.91899615  0.66612817  0.50060761
   0.91481186  0.16666745  0.50108514
   0.41677110  0.66421932  0.50031238
   0.74857036  0.75134585  0.59703422
Direct configuration=    15
   0.08210812  0.08281292  0.39656046
   0.58762024  0.83435198  0.39620339
   0.41663067  0.41481361  0.50053953
   0.58425699  0.32902764  0.39760456
   0.49999307  0.00102746  0.60281234
   0.41831977  0.91547979  0.50099880
   0.16715831  0.91374461  0.50075390
   0.33309437  0.83380402  0.39477964
   0.24881928  0.50166996  0.60274351
   0.33179360  0.58402101  0.39811987
   0.83316161  0.33215151  0.39803058
   0.58429171  0.58289716  0.39825447
   0.74878934  0.24991986  0.60115649
   0.49959523  0.50253485  0.60167960
   0.33558562  0.08555159  0.39519160
   0.00096061 -0.00280807  0.60464559
   0.08364057  0.33546141  0.39624854
   0.91611828  0.41625097  0.50087161
   0.00099970  0.24977884  0.60503386
   0.16699819  0.16679804  0.50046386
   0.08096642  0.58588065  0.39971793
   0.66681618  0.66673846  0.50067769
   0.91543225  0.91588574  0.50075117
  -0.00172647  0.50273095  0.60267286
   0.74864424  0.50218348  0.59794472
   0.66678831  0.16663725  0.49962021
   0.83386453  0.08082650  0.40393006
   0.49974555  0.75069720  0.59809047
   0.74907596 -0.00084694  0.59703711
   0.83374391  0.58523590  0.40311232
   0.83323208  0.83564448  0.40427935
   0.66671029  0.41386280  0.49999066
   0.25059429  0.75110095  0.59728090
   0.50042400  0.24913364  0.59698028
   0.41849363  0.16507026  0.50048964
   0.58382816  0.08351274  0.40421464
   0.66666212  0.91832929  0.50044163
   0.16708182  0.66372176  0.50003068
   0.25063713  0.25001866  0.59697079
   0.16632989  0.41701052  0.50089107
   0.33326869  0.33345893  0.40398784
   0.25099695 -0.00098284  0.59860095
  -0.00239385  0.75183728  0.59735933
   0.08169417  0.83461583  0.40317320
   0.91904810  0.66609811  0.50063262
   0.91479982  0.16670007  0.50116189
   0.41677889  0.66419609  0.50025638
   0.74852769  0.75141307  0.59701139
Direct configuration=    16
   0.08214922  0.08278739  0.39648262
   0.58756427  0.83446936  0.39603501
   0.41661865  0.41483740  0.50055033
   0.58427714  0.32898593  0.39751404
   0.49995029  0.00123271  0.60279913
   0.41816706  0.91549262  0.50066947
   0.16712908  0.91355627  0.50061611
   0.33323187  0.83375733  0.39431715
   0.24862329  0.50181992  0.60288193
   0.33170218  0.58415685  0.39806073
   0.83324651  0.33222986  0.39813151
   0.58438237  0.58302121  0.39813983
   0.74861891  0.24984829  0.60120891
   0.49969404  0.50252201  0.60159494
   0.33579359  0.08548044  0.39490256
   0.00084616 -0.00268272  0.60494566
   0.08361412  0.33546570  0.39617689
   0.91625229  0.41607292  0.50089324
   0.00100119  0.24969479  0.60524086
   0.16712149  0.16694899  0.50033134
   0.08100871  0.58594110  0.39979257
   0.66700055  0.66645402  0.50047349
   0.91589769  0.91599382  0.50102253
  -0.00181088  0.50283900  0.60283175
   0.74852313  0.50227269  0.59788868
   0.66673007  0.16659378  0.49972589
   0.83395255  0.08079913  0.40417567
   0.49978548  0.75064396  0.59793045
   0.74906553 -0.00069741  0.59710827
   0.83369202  0.58521795  0.40324233
   0.83322046  0.83574415  0.40452746
   0.66680798  0.41383284  0.49988749
   0.25046213  0.75103207  0.59719133
   0.50051256  0.24909452  0.59700820
   0.41840919  0.16497538  0.50047034
   0.58378346  0.08340268  0.40429914
   0.66646911  0.91834355  0.50047363
   0.16719638  0.66365645  0.50008793
   0.25060593  0.25014163  0.59691268
   0.16627668  0.41673412  0.50094246
   0.33317262  0.33356005  0.40421939
   0.25078293 -0.00083301  0.59843785
  -0.00243922  0.75190061  0.59745594
   0.08174435  0.83480439  0.40331913
   0.91900107  0.66575189  0.50076729
   0.91480953  0.16653878  0.50138901
   0.41683539  0.66402281  0.49996254
   0.74852090  0.75154177  0.59696431
Direct configuration=    17
   0.08216996  0.08277452  0.39644336
   0.58753603  0.83452857  0.39595007
   0.41661259  0.41484940  0.50055579
   0.58428731  0.32896489  0.39746837