  48  48   0   0
  0.5349325E+02  0.1100258E-08  0.1100258E-08  0.2449179E-08  0.3500000E-15
  1.000000000000000E-004
  CAR 
 unknown system                          
      6.37851934     -9.89923136  301     -1.10357594      1.00000000
     -9.899  0.0000E+00  0.0000E+00
     -9.845  0.0000E+00  0.0000E+00
     -9.791  0.0000E+00  0.0000E+00
     -9.736  0.0000E+00  0.0000E+00
     -9.682  0.0000E+00  0.0000E+00
     -9.628  0.0000E+00  0.0000E+00
     -9.574  0.0000E+00  0.0000E+00
     -9.519  0.0000E+00  0.0000E+00
     -9.465  0.1978E-16  0.1073E-17
     -9.411  0.7509E-14  0.4085E-15
     -9.357  0.1623E-11  0.8848E-13
     -9.302  0.1969E-09  0.1077E-10
     -9.248  0.1342E-07  0.7389E-09
     -9.194  0.5152E-06  0.2870E-07
     -9.140  0.1117E-04  0.6348E-06
     -9.085  0.1371E-03  0.8073E-05
     -9.031  0.9547E-03  0.5987E-04
     -8.977  0.3782E-02  0.2651E-03
     -8.923  0.8545E-02  0.7287E-03
     -8.868  0.1107E-01  0.1329E-02
     -8.814  0.8645E-02  0.1798E-02
     -8.760  0.5986E-02  0.2123E-02
     -8.706  0.7789E-02  0.2546E-02
     -8.651  0.1087E-01  0.3136E-02
     -8.597  0.9502E-02  0.3651E-02
     -8.543  0.4797E-02  0.3911E-02
     -8.488  0.1425E-02  0.3989E-02
     -8.434  0.5839E-03  0.4020E-02
     -8.380  0.1815E-02  0.4119E-02
     -8.326  0.5349E-02  0.4409E-02
     -8.271  0.9786E-02  0.4940E-02
     -8.217  0.1229E-01  0.5607E-02
     -8.163  0.1395E-01  0.6364E-02
     -8.109  0.1754E-01  0.7316E-02
     -8.054  0.1998E-01  0.8400E-02
     -8.000  0.1672E-01  0.9307E-02
     -7.946  0.1008E-01  0.9854E-02
     -7.892  0.6134E-02  0.1019E-01
     -7.837  0.6618E-02  0.1055E-01
     -7.783  0.8709E-02  0.1102E-01
     -7.729  0.9519E-02  0.1153E-01
     -7.675  0.8970E-02  0.1202E-01
     -7.620  0.9730E-02  0.1255E-01
     -7.566  0.1236E-01  0.1322E-01
     -7.512  0.1497E-01  0.1403E-01
     -7.458  0.1701E-01  0.1496E-01
     -7.403  0.1863E-01  0.1597E-01
     -7.349  0.2033E-01  0.1707E-01
     -7.295  0.2420E-01  0.1838E-01
     -7.241  0.3162E-01  0.2010E-01
     -7.186  0.3960E-01  0.2225E-01
     -7.132  0.4554E-01  0.2472E-01
     -7.078  0.5206E-01  0.2754E-01
     -7.023  0.6118E-01  0.3086E-01
     -6.969  0.6871E-01  0.3459E-01
     -6.915  0.7054E-01  0.3842E-01
     -6.861  0.6980E-01  0.4220E-01
     -6.806  0.7060E-01  0.4604E-01
     -6.752  0.7408E-01  0.5005E-01
     -6.698  0.8003E-01  0.5440E-01
     -6.644  0.8379E-01  0.5894E-01
     -6.589  0.8210E-01  0.6340E-01
     -6.535  0.8104E-01  0.6780E-01
     -6.481  0.8996E-01  0.7268E-01
     -6.427  0.1083E+00  0.7855E-01
     -6.372  0.1265E+00  0.8542E-01
     -6.318  0.1407E+00  0.9305E-01
     -6.264  0.1533E+00  0.1014E+00
     -6.210  0.1630E+00  0.1102E+00
     -6.155  0.1658E+00  0.1192E+00
     -6.101  0.1622E+00  0.1280E+00
     -6.047  0.1578E+00  0.1366E+00
     -5.993  0.1546E+00  0.1450E+00
     -5.938  0.1515E+00  0.1532E+00
     -5.884  0.1495E+00  0.1613E+00
     -5.830  0.1494E+00  0.1694E+00
     -5.776  0.1488E+00  0.1775E+00
     -5.721  0.1462E+00  0.1854E+00
     -5.667  0.1415E+00  0.1931E+00
     -5.613  0.1359E+00  0.2005E+00
     -5.558  0.1305E+00  0.2075E+00
     -5.504  0.1273E+00  0.2145E+00
     -5.450  0.1286E+00  0.2214E+00
     -5.396  0.1325E+00  0.2286E+00
     -5.341  0.1362E+00  0.2360E+00
     -5.287  0.1440E+00  0.2438E+00
     -5.233  0.1563E+00  0.2523E+00
     -5.179  0.1643E+00  0.2612E+00
     -5.124  0.1636E+00  0.2701E+00
     -5.070  0.1597E+00  0.2788E+00
     -5.016  0.1580E+00  0.2873E+00
     -4.962  0.1611E+00  0.2961E+00
     -4.907  0.1668E+00  0.3051E+00
     -4.853  0.1705E+00  0.3144E+00
     -4.799  0.1725E+00  0.3237E+00
     -4.745  0.1760E+00  0.3333E+00
     -4.690  0.1777E+00  0.3429E+00
     -4.636  0.1723E+00  0.3523E+00
     -4.582  0.1626E+00  0.3611E+00
     -4.528  0.1562E+00  0.3696E+00
     -4.473  0.1575E+00  0.3781E+00
     -4.419  0.1641E+00  0.3870E+00
     -4.365  0.1699E+00  0.3963E+00
     -4.311  0.1738E+00  0.4057E+00
     -4.256  0.1766E+00  0.4153E+00
     -4.202  0.1771E+00  0.4249E+00
     -4.148  0.1752E+00  0.4344E+00
     -4.094  0.1737E+00  0.4438E+00
     -4.039  0.1750E+00  0.4533E+00
     -3.985  0.1766E+00  0.4629E+00
     -3.931  0.1770E+00  0.4725E+00
     -3.876  0.1798E+00  0.4822E+00
     -3.822  0.1863E+00  0.4923E+00
     -3.768  0.1934E+00  0.5028E+00
     -3.714  0.1976E+00  0.5136E+00
     -3.659  0.1972E+00  0.5243E+00
     -3.605  0.1953E+00  0.5349E+00
     -3.551  0.1958E+00  0.5455E+00
     -3.497  0.1991E+00  0.5563E+00
     -3.442  0.2038E+00  0.5673E+00
     -3.388  0.2047E+00  0.5785E+00
     -3.334  0.1986E+00  0.5892E+00
     -3.280  0.1911E+00  0.5996E+00
     -3.225  0.1900E+00  0.6099E+00
     -3.171  0.1934E+00  0.6204E+00
     -3.117  0.1923E+00  0.6308E+00
     -3.063  0.1841E+00  0.6408E+00
     -3.008  0.1760E+00  0.6504E+00
     -2.954  0.1760E+00  0.6599E+00
     -2.900  0.1841E+00  0.6699E+00
     -2.846  0.1939E+00  0.6804E+00
     -2.791  0.2005E+00  0.6913E+00
     -2.737  0.2035E+00  0.7023E+00
     -2.683  0.2044E+00  0.7134E+00
     -2.629  0.2058E+00  0.7246E+00
     -2.574  0.2073E+00  0.7358E+00
     -2.520  0.2060E+00  0.7470E+00
     -2.466  0.2013E+00  0.7579E+00
     -2.411  0.1940E+00  0.7685E+00
     -2.357  0.1841E+00  0.7785E+00
     -2.303  0.1736E+00  0.7879E+00
     -2.249  0.1672E+00  0.7970E+00
     -2.194  0.1674E+00  0.8060E+00
     -2.140  0.1707E+00  0.8153E+00
     -2.086  0.1745E+00  0.8248E+00
     -2.032  0.1811E+00  0.8346E+00
     -1.977  0.1911E+00  0.8450E+00
     -1.923  0.1998E+00  0.8558E+00
     -1.869  0.2034E+00  0.8668E+00
     -1.815  0.2028E+00  0.8778E+00
     -1.760  0.2036E+00  0.8889E+00
     -1.706  0.2095E+00  0.9003E+00
     -1.652  0.2188E+00  0.9121E+00
     -1.598  0.2259E+00  0.9244E+00
     -1.543  0.2267E+00  0.9367E+00
     -1.489  0.2206E+00  0.9486E+00
     -1.435  0.2077E+00  0.9599E+00
     -1.381  0.1905E+00  0.9703E+00
     -1.326  0.1737E+00  0.9797E+00
     -1.272  0.1591E+00  0.9883E+00
     -1.218  0.1420E+00  0.9960E+00
     -1.164  0.1184E+00  0.1002E+01
     -1.109  0.9401E-01  0.1008E+01
     -1.055  0.7320E-01  0.1012E+01
     -1.001  0.5402E-01  0.1014E+01
     -0.946  0.3684E-01  0.1016E+01
     -0.892  0.2406E-01  0.1018E+01
     -0.838  0.1852E-01  0.1019E+01
     -0.784  0.1966E-01  0.1020E+01
     -0.729  0.2238E-01  0.1021E+01
     -0.675  0.2504E-01  0.1022E+01
     -0.621  0.3045E-01  0.1024E+01
     -0.567  0.3923E-01  0.1026E+01
     -0.512  0.4722E-01  0.1029E+01
     -0.458  0.5014E-01  0.1031E+01
     -0.404  0.4994E-01  0.1034E+01
     -0.350  0.5087E-01  0.1037E+01
     -0.295  0.5087E-01  0.1040E+01
     -0.241  0.4460E-01  0.1042E+01
     -0.187  0.3367E-01  0.1044E+01
     -0.133  0.2488E-01  0.1045E+01
     -0.078  0.1915E-01  0.1046E+01
     -0.024  0.1377E-01  0.1047E+01
      0.030  0.1046E-01  0.1048E+01
      0.084  0.1194E-01  0.1048E+01
      0.139  0.1687E-01  0.1049E+01
      0.193  0.2323E-01  0.1050E+01
      0.247  0.3149E-01  0.1052E+01
      0.301  0.4019E-01  0.1054E+01
      0.356  0.4432E-01  0.1057E+01
      0.410  0.4240E-01  0.1059E+01
      0.464  0.3893E-01  0.1061E+01
      0.519  0.3880E-01  0.1063E+01
      0.573  0.4227E-01  0.1066E+01
      0.627  0.4677E-01  0.1068E+01
      0.681  0.5046E-01  0.1071E+01
      0.736  0.5198E-01  0.1074E+01
      0.790  0.4949E-01  0.1076E+01
      0.844  0.4109E-01  0.1079E+01
      0.898  0.2985E-01  0.1080E+01
      0.953  0.2182E-01  0.1081E+01
      1.007  0.1848E-01  0.1082E+01
      1.061  0.1821E-01  0.1083E+01
      1.115  0.1779E-01  0.1084E+01
      1.170  0.1499E-01  0.1085E+01
      1.224  0.1244E-01  0.1086E+01
      1.278  0.1279E-01  0.1087E+01
      1.332  0.1370E-01  0.1087E+01
      1.387  0.1315E-01  0.1088E+01
      1.441  0.1512E-01  0.1089E+01
      1.495  0.2209E-01  0.1090E+01
      1.549  0.3089E-01  0.1092E+01
      1.604  0.3724E-01  0.1094E+01
      1.658  0.3660E-01  0.1096E+01
      1.712  0.2997E-01  0.1097E+01
      1.766  0.2590E-01  0.1099E+01
      1.821  0.2840E-01  0.1100E+01
      1.875  0.3239E-01  0.1102E+01
      1.929  0.3281E-01  0.1104E+01
      1.984  0.2933E-01  0.1105E+01
      2.038  0.2583E-01  0.1107E+01
      2.092  0.2710E-01  0.1108E+01
      2.146  0.3318E-01  0.1110E+01
      2.201  0.3974E-01  0.1112E+01
      2.255  0.4242E-01  0.1115E+01
      2.309  0.4173E-01  0.1117E+01
      2.363  0.4228E-01  0.1119E+01
      2.418  0.4579E-01  0.1122E+01
      2.472  0.4922E-01  0.1124E+01
      2.526  0.4827E-01  0.1127E+01
      2.580  0.4437E-01  0.1129E+01
      2.635  0.4231E-01  0.1132E+01
      2.689  0.3992E-01  0.1134E+01
      2.743  0.3264E-01  0.1135E+01
      2.797  0.2245E-01  0.1137E+01
      2.852  0.1432E-01  0.1137E+01
      2.906  0.1075E-01  0.1138E+01
      2.960  0.1134E-01  0.1139E+01
      3.014  0.1210E-01  0.1139E+01
      3.069  0.1030E-01  0.1140E+01
      3.123  0.9842E-02  0.1140E+01
      3.177  0.1398E-01  0.1141E+01
      3.231  0.2005E-01  0.1142E+01
      3.286  0.2384E-01  0.1144E+01
      3.340  0.2262E-01  0.1145E+01
      3.394  0.1901E-01  0.1146E+01
      3.449  0.2105E-01  0.1147E+01
      3.503  0.3103E-01  0.1149E+01
      3.557  0.4092E-01  0.1151E+01
      3.611  0.4438E-01  0.1153E+01
      3.666  0.4281E-01  0.1156E+01
      3.720  0.3771E-01  0.1158E+01
      3.774  0.2970E-01  0.1159E+01
      3.828  0.2280E-01  0.1160E+01
      3.883  0.2100E-01  0.1162E+01
      3.937  0.2444E-01  0.1163E+01
      3.991  0.2990E-01  0.1165E+01
      4.045  0.3131E-01  0.1166E+01
      4.100  0.2641E-01  0.1168E+01
      4.154  0.2210E-01  0.1169E+01
      4.208  0.2182E-01  0.1170E+01
      4.262  0.1965E-01  0.1171E+01
      4.317  0.1517E-01  0.1172E+01
      4.371  0.1628E-01  0.1173E+01
      4.425  0.2432E-01  0.1174E+01
      4.479  0.3196E-01  0.1176E+01
      4.534  0.3756E-01  0.1178E+01
      4.588  0.4690E-01  0.1180E+01
      4.642  0.5815E-01  0.1184E+01
      4.696  0.6009E-01  0.1187E+01
      4.751  0.5220E-01  0.1190E+01
      4.805  0.4643E-01  0.1192E+01
      4.859  0.4664E-01  0.1195E+01
      4.914  0.5030E-01  0.1198E+01
      4.968  0.5724E-01  0.1201E+01
      5.022  0.6539E-01  0.1204E+01
      5.076  0.6888E-01  0.1208E+01
      5.131  0.6337E-01  0.1211E+01
      5.185  0.5556E-01  0.1214E+01
      5.239  0.5348E-01  0.1217E+01
      5.293  0.5039E-01  0.1220E+01
      5.348  0.3837E-01  0.1222E+01
      5.402  0.2215E-01  0.1223E+01
      5.456  0.9519E-02  0.1224E+01
      5.510  0.2894E-02  0.1224E+01
      5.565  0.5796E-03  0.1224E+01
      5.619  0.7206E-04  0.1224E+01
      5.673  0.5353E-05  0.1224E+01
      5.727  0.2322E-06  0.1224E+01
      5.782  0.5804E-08  0.1224E+01
      5.836  0.8281E-10  0.1224E+01
      5.890  0.6706E-12  0.1224E+01
      5.944  0.3066E-14  0.1224E+01
      5.999  0.8185E-17  0.1224E+01
      6.053  0.0000E+00  0.1224E+01
      6.107  0.0000E+00  0.1224E+01
      6.161  0.0000E+00  0.1224E+01
      6.216  0.0000E+00  0.1224E+01
      6.270  0.0000E+00  0.1224E+01
      6.324  0.0000E+00  0.1224E+01
      6.379  0.0000E+00  0.1224E+01
