unknown system                          
           1
    11.002582    0.000000    0.000000
     5.501291    9.528515    0.000000
     0.000000    0.000000   24.491785
   Au   Pd
  24  24
Direct configuration=     1
   0.25000000  0.75000000  0.59169983
   0.16666667  0.91666667  0.50000000
   0.41666667  0.91666667  0.50000000
   0.25000000  0.50000000  0.59169983
   0.16666667  0.66666667  0.50000000
   0.50000000  0.75000000  0.59169983
   0.83333333  0.08333333  0.40830017
   0.16666667  0.41666667  0.50000000
   0.50000000  0.25000000  0.59169983
   0.25000000  0.00000000  0.59169983
   0.41666667  0.16666667  0.50000000
   0.66666667  0.91666667  0.50000000
   0.50000000  0.00000000  0.59169983
   0.08333333  0.83333333  0.40830017
   0.83333333  0.58333333  0.40830017
   0.66666667  0.66666667  0.50000000
   0.08333333  0.58333333  0.40830017
   0.75000000  0.50000000  0.59169983
   0.91666667  0.41666667  0.50000000
   0.41666667  0.41666667  0.50000000
   0.00000000  0.00000000  0.59169983
   0.91666667  0.16666667  0.50000000
   0.66666667  0.41666667  0.50000000
   0.58333333  0.83333333  0.40830017
   0.50000000  0.50000000  0.59169983
   0.66666667  0.16666667  0.50000000
   0.83333333  0.33333333  0.40830017
   0.75000000  0.25000000  0.59169983
   0.83333333  0.83333333  0.40830017
   0.75000000  0.00000000  0.59169983
   0.41666667  0.66666667  0.50000000
   0.08333333  0.08333333  0.40830017
   0.58333333  0.33333333  0.40830017
   0.58333333  0.08333333  0.40830017
   0.33333333  0.83333333  0.40830017
   0.33333333  0.58333333  0.40830017
   0.25000000  0.25000000  0.59169983
   0.33333333  0.33333333  0.40830017
   0.16666667  0.16666667  0.50000000
   0.33333333  0.08333333  0.40830017
   0.00000000  0.75000000  0.59169983
   0.91666667  0.91666667  0.50000000
   0.00000000  0.50000000  0.59169983
   0.91666667  0.66666667  0.50000000
   0.00000000  0.25000000  0.59169983
   0.08333333  0.33333333  0.40830017
   0.58333333  0.58333333  0.40830017
   0.75000000  0.75000000  0.59169983
Direct configuration=     2
   0.25044607  0.74897810  0.59398164
   0.16696629  0.91712421  0.49918353
   0.41493592  0.91717137  0.49914480
   0.24919538  0.50002744  0.59420901
   0.16569726  0.66757574  0.49996123
   0.50054738  0.74890584  0.59399292
   0.83233069  0.08379324  0.40645532
   0.16572476  0.41552028  0.49998761
   0.50135141  0.24970543  0.59393753
   0.24893562  0.00211944  0.59400142
   0.41588542  0.16714465  0.49916488
   0.66965519  0.91664174  0.49999245
   0.50076417  0.00009359  0.59424986
   0.08358634  0.83355813  0.40612694
   0.83362705  0.58279373  0.40605176
   0.66675286  0.66657051  0.49997149
   0.08354051  0.58284787  0.40607287
   0.75070358  0.49933768  0.59414056
   0.91871365  0.41548952  0.50001986
   0.41810572  0.41689572  0.49921496
  -0.00191027  0.00060503  0.59383268
   0.91657073  0.16693321  0.49996762
   0.66545033  0.41627375  0.49963299
   0.58261170  0.83398410  0.40582818
   0.50025797  0.49991682  0.59303409
   0.66730443  0.16608293  0.49993316
   0.83340330  0.33329224  0.40687046
   0.74986693  0.24958458  0.59289102
   0.83310694  0.83370756  0.40722656
   0.75051561 -0.00010915  0.59267388
   0.41691236  0.66619231  0.49946832
   0.08403665  0.08401002  0.40709974
   0.58304740  0.33335857  0.40719919
   0.58308450  0.08400122  0.40713327
   0.33349130  0.83298292  0.40709636
   0.33431395  0.58310915  0.40711767
   0.24879168  0.25025616  0.59300713
   0.33394426  0.33264687  0.40693354
   0.16640436  0.16719393  0.49968446
   0.33241344  0.08405984  0.40716464
  -0.00114792  0.75006484  0.59268057
   0.91546151  0.91623857  0.50024005
  -0.00016786  0.50040668  0.59288649
   0.91649833  0.66762459  0.50053291
   0.00050223  0.25024266  0.59291272
   0.08393380  0.33211491  0.40711328
   0.58261621  0.58299918  0.40707409
   0.75122088  0.74993224  0.59290429
Direct configuration=     3
   0.25178428  0.74591241  0.60082707
   0.16786514  0.91849682  0.49673412
   0.40974369  0.91868549  0.49657921
   0.24678150  0.50010976  0.60173653
   0.16278905  0.67030296  0.49984490
   0.50218951  0.74562334  0.60087220
   0.82932277  0.08517297  0.40092077
   0.16289902  0.41208111  0.49995043
   0.50540564  0.24882173  0.60065064
   0.24574247  0.00847776  0.60090619
   0.41354166  0.16857862  0.49665952
   0.67862075  0.91656697  0.49996981
   0.50305669  0.00037437  0.60189995
   0.08434537  0.83423253  0.39960726
   0.83450818  0.58117491  0.39930654
   0.66701144  0.66628205  0.49988598
   0.08416204  0.58139149  0.39939096
   0.75281433  0.49735074  0.60146274
   0.92485459  0.41195806  0.50007942
   0.42242289  0.41758286  0.49685985
  -0.00764108  0.00242014  0.60023125
   0.91628292  0.16773284  0.49987047
   0.66180132  0.41509501  0.49853198
   0.58044681  0.83593640  0.39841223
   0.50103189  0.49966730  0.59703688
   0.66921771  0.16433171  0.49973264
   0.83361320  0.33316897  0.40258134
   0.74946770  0.24833832  0.59646458
   0.83242777  0.83483024  0.40400574
   0.75206245 -0.00043658  0.59559605
   0.41764943  0.66476924  0.49787327
   0.08614661  0.08604008  0.40349843
   0.58218959  0.33343428  0.40389626
   0.58233802  0.08600488  0.40363256
   0.33396520  0.83193170  0.40348493
   0.33725579  0.58243661  0.40357017
   0.24516670  0.25102466  0.59692901
   0.33577704  0.33058746  0.40283366
   0.16561745  0.16877572  0.49873784
   0.32965374  0.08623938  0.40375806
  -0.00459167  0.75025936  0.59562280
   0.91184603  0.91495430  0.50096020
  -0.00067146  0.50162674  0.59644645
   0.91599332  0.67049834  0.50213162
   0.00200894  0.25097065  0.59655140
   0.08573518  0.32845963  0.40355260
   0.58046486  0.58199674  0.40339586
   0.75488351  0.74972896  0.59651765
Direct configuration=     4
   0.25047047  0.74781080  0.60280948
   0.16486442  0.91843278  0.49733494
   0.41385719  0.91790707  0.49721005
   0.24748742  0.49873801  0.60383158
   0.16369618  0.66900198  0.49987027
   0.50189974  0.74725672  0.60281654
   0.83023863  0.08520880  0.39895525
   0.16594106  0.41560205  0.49997740
   0.50376735  0.24969486  0.60255185
   0.24632015  0.00631830  0.60299343
   0.41614621  0.16701347  0.49747261
   0.67138600  0.91727448  0.49988604
   0.50297402 -0.00001992  0.60382823
   0.08381800  0.83462638  0.39720083
   0.83397122  0.58123828  0.39725523
   0.66744963  0.66654597  0.49986857
   0.08498504  0.58075144  0.39729325
   0.75357514  0.49650184  0.60364010
   0.91870735  0.41517119  0.49999996
   0.41727320  0.41730451  0.49759735
  -0.00550987  0.00144768  0.60220325
   0.91633207  0.16630987  0.49987386
   0.66662386  0.41524202  0.49894754
   0.58078200  0.83605326  0.39600990
   0.50127329  0.49861816  0.59826418
   0.66859707  0.16487092  0.49984628
   0.83350711  0.33320606  0.40119121
   0.74972832  0.24950097  0.59761658
   0.83267717  0.83415706  0.40250848
   0.75121245 -0.00037473  0.59726320
   0.41652800  0.66674243  0.49849672
   0.08520648  0.08621140  0.40175077
   0.58259601  0.33299344  0.40174847
   0.58193618  0.08559170  0.40215450
   0.33423404  0.83138294  0.40120369
   0.33589916  0.58275172  0.40186305
   0.24655573  0.25178193  0.59821736
   0.33511286  0.33149202  0.40102387
   0.16656579  0.16580237  0.49921267
   0.32993758  0.08610865  0.40164280
  -0.00338070  0.75018407  0.59715616
   0.91720158  0.91634752  0.50058727
  -0.00109390  0.50183613  0.59801314
   0.91745515  0.66695332  0.50146948
   0.00057360  0.25156179  0.59794542
   0.08555599  0.32908017  0.40162050
   0.58152782  0.58197008  0.40183635
   0.75353675  0.74979804  0.59794035
Direct configuration=     5
   0.25020769  0.74819050  0.60320598
   0.16426425  0.91841997  0.49745511
   0.41467993  0.91775138  0.49733622
   0.24762861  0.49846365  0.60425061
   0.16387761  0.66874178  0.49987534
   0.50184178  0.74758341  0.60320542
   0.83042180  0.08521597  0.39856213
   0.16654950  0.41630626  0.49998279
   0.50343967  0.24986950  0.60293211
   0.24643569  0.00588639  0.60341090
   0.41666715  0.16670043  0.49763523
   0.66993899  0.91741599  0.49986928
   0.50295748 -0.00009878  0.60421391
   0.08371252  0.83470515  0.39671953
   0.83386382  0.58125095  0.39684495
   0.66753727  0.66659875  0.49986509
   0.08514965  0.58062342  0.39687369
   0.75372730  0.49633206  0.60407559
   0.91747784  0.41581384  0.49998407
   0.41624322  0.41724884  0.49774486
  -0.00508361  0.00125318  0.60259766
   0.91634190  0.16602527  0.49987453
   0.66758841  0.41527142  0.49903065
   0.58084904  0.83607664  0.39552942
   0.50132157  0.49840832  0.59850966
   0.66847294  0.16497877  0.49986901
   0.83348589  0.33321348  0.40091318
   0.74978044  0.24973351  0.59784699
   0.83272706  0.83402242  0.40220901
   0.75104244 -0.00036236  0.59759665
   0.41630370  0.66713708  0.49862141
   0.08501844  0.08624566  0.40140122
   0.58267729  0.33290527  0.40131889
   0.58185581  0.08550906  0.40185887
   0.33428781  0.83127319  0.40074743
   0.33562783  0.58281475  0.40152162
   0.24683354  0.25193339  0.59847505
   0.33498002  0.33167294  0.40066189
   0.16675547  0.16520768  0.49930764
   0.32999436  0.08608251  0.40121974
  -0.00313850  0.75016901  0.59746284
   0.91827274  0.91662618  0.50051268
  -0.00117839  0.50187802  0.59832649
   0.91774753  0.66624429  0.50133704
   0.00028652  0.25168002  0.59822424
   0.08552016  0.32920428  0.40123406
   0.58174042  0.58196475  0.40152443
   0.75326739  0.74981185  0.59822491
Direct configuration=     6
   0.24989783  0.74879816  0.60337054
   0.16584081  0.91731016  0.49784673
   0.41540040  0.91693045  0.49774598
   0.24826617  0.49877538  0.60455019
   0.16465423  0.66852090  0.49988694
   0.50154498  0.74825552  0.60332609
   0.83105118  0.08490331  0.39828349
   0.16591901  0.41605351  0.49992744
   0.50251650  0.25000770  0.60305614
   0.24727849  0.00441248  0.60356198
   0.41675341  0.16644619  0.49830376
   0.67009169  0.91662029  0.49988752
   0.50207652  0.00008580  0.60438747
   0.08351348  0.83452972  0.39622256
   0.83360668  0.58169636  0.39657188
   0.66697326  0.66732819  0.49985403
   0.08495986  0.58093482  0.39654446
   0.75282392  0.49721122  0.60444524
   0.91834402  0.41593757  0.49986695
   0.41715816  0.41732071  0.49826412
  -0.00380425  0.00104470  0.60285972
   0.91651080  0.16584388  0.49987166
   0.66600135  0.41617292  0.49922920
   0.58134381  0.83555874  0.39508144
   0.50093302  0.49876097  0.59832325
   0.66788358  0.16559130  0.49990011
   0.83352528  0.33312821  0.40082073
   0.75001752  0.24984497  0.59787468
   0.83296829  0.83349306  0.40222697
   0.75081695 -0.00048580  0.59762662
   0.41607146  0.66745609  0.49910394
   0.08449578  0.08571769  0.40111329
   0.58250150  0.33336541  0.40119471
   0.58194724  0.08495810  0.40163684
   0.33411089  0.83174643  0.40049436
   0.33496226  0.58292810  0.40139374
   0.24786149  0.25143757  0.59836564
   0.33462973  0.33195415  0.40038747
   0.16671442  0.16589266  0.49965861
   0.33059277  0.08553407  0.40087227
  -0.00231552  0.75001111  0.59753933
   0.91732199  0.91656944  0.50024063
  -0.00104438  0.50145252  0.59840359
   0.91733868  0.66650872  0.50073449
   0.00024272  0.25130910  0.59824843
   0.08507366  0.33018977  0.40121396
   0.58225831  0.58213117  0.40149317
   0.75237003  0.74980650  0.59818766
Direct configuration=     7
   0.24976190  0.74906475  0.60344273
   0.16653247  0.91682328  0.49801854
   0.41571648  0.91657030  0.49792574
   0.24854588  0.49891214  0.60468162
   0.16499494  0.66842400  0.49989202
   0.50141477  0.74855039  0.60337903
   0.83132730  0.08476614  0.39816125
   0.16564241  0.41594262  0.49990315
   0.50211149  0.25006834  0.60311055
   0.24764824  0.00376586  0.60362826
   0.41679126  0.16633465  0.49859705
   0.67015868  0.91627121  0.49989551
   0.50169003  0.00016678  0.60446361
   0.08342616  0.83445276  0.39600453
   0.83349388  0.58189176  0.39645208
   0.66672583  0.66764821  0.49984918
   0.08487660  0.58107144  0.39640003
   0.75242759  0.49759692  0.60460741
   0.91872402  0.41599185  0.49981557
   0.41755955  0.41735224  0.49849193
  -0.00324298  0.00095325  0.60297469
   0.91658491  0.16576431  0.49987040
   0.66530509  0.41656843  0.49931630
   0.58156087  0.83533153  0.39488490
   0.50076256  0.49891568  0.59824146
   0.66762502  0.16586003  0.49991376
   0.83354256  0.33309080  0.40078017
   0.75012153  0.24989386  0.59788683
   0.83307413  0.83326082  0.40223485
   0.75071803 -0.00053995  0.59763977
   0.41596958  0.66759604  0.49931563
   0.08426649  0.08548606  0.40098697
   0.58242438  0.33356727  0.40114023
   0.58198734  0.08471639  0.40153944
   0.33403327  0.83195405  0.40038333
   0.33467026  0.58297783  0.40133764
   0.24831246  0.25122005  0.59831764
   0.33447606  0.33207752  0.40026708
   0.16669642  0.16619317  0.49981258
   0.33085530  0.08529347  0.40071983
  -0.00195447  0.74994183  0.59757289
   0.91690489  0.91654455  0.50012127
  -0.00098559  0.50126585  0.59843741
   0.91715931  0.66662473  0.50047015
   0.00022350  0.25114638  0.59825904
   0.08487777  0.33062212  0.40120514
   0.58248551  0.58220418  0.40147945
   0.75197635  0.74980416  0.59817132
Direct configuration=     8
   0.24986330  0.74897318  0.60359813
   0.16685115  0.91689516  0.49815738
   0.41549464  0.91684721  0.49804071
   0.24849475  0.49932519  0.60482622
   0.16499036  0.66815246  0.49984884
   0.50125977  0.74857133  0.60349863
   0.83117904  0.08474195  0.39806557
   0.16599599  0.41602306  0.49983220
   0.50218845  0.24991915  0.60320446
   0.24792466  0.00359889  0.60372254
   0.41673572  0.16633457  0.49884092
   0.67037958  0.91644771  0.49987465
   0.50145380  0.00030190  0.60462398
   0.08354401  0.83423157  0.39573753
   0.83343411  0.58194869  0.39625587
   0.66684644  0.66708626  0.49980958
   0.08473702  0.58132257  0.39619084
   0.75200615  0.49803377  0.60477490
   0.91817672  0.41609859  0.49975007
   0.41733038  0.41727600  0.49870098
  -0.00326931  0.00107611  0.60303813
   0.91672268  0.16574015  0.49982284
   0.66550238  0.41700446  0.49939961
   0.58161794  0.83514287  0.39456804
   0.50052269  0.49935807  0.59816292
   0.66760432  0.16569490  0.49985791
   0.83351537  0.33314608  0.40090114
   0.75018899  0.24974489  0.59779994
   0.83311308  0.83321791  0.40224977
   0.75084315 -0.00060840  0.59749565
   0.41603407  0.66763865  0.49953659
   0.08428561  0.08527024  0.40103713
   0.58227386  0.33373513  0.40121200
   0.58204358  0.08457206  0.40160564
   0.33392813  0.83220797  0.40041333
   0.33453320  0.58311975  0.40146150
   0.24848155  0.25090867  0.59820976
   0.33457289  0.33189942  0.40037145
   0.16700406  0.16578506  0.49989501
   0.33097050  0.08511859  0.40078277
  -0.00188117  0.74981682  0.59736468
   0.91646819  0.91649804  0.49994375
  -0.00077395  0.50104178  0.59833995
   0.91724415  0.66685871  0.50009315
   0.00042382  0.25097986  0.59817200
   0.08478932  0.33072596  0.40128778
   0.58240558  0.58242670  0.40162537
   0.75194932  0.74975032  0.59799821
Direct configuration=     9
   0.24993058  0.74891242  0.60370123
   0.16706258  0.91694285  0.49824950
   0.41534746  0.91703094  0.49811698
   0.24846082  0.49959924  0.60492215
   0.16498732  0.66797230  0.49982019
   0.50115693  0.74858523  0.60357798
   0.83108067  0.08472590  0.39800208
   0.16623058  0.41607644  0.49978512
   0.50223951  0.24982016  0.60326677
   0.24810806  0.00348811  0.60378510
   0.41669887  0.16633451  0.49900272
   0.67052614  0.91656482  0.49986081
   0.50129706  0.00039155  0.60473039
   0.08362221  0.83408482  0.39556038
   0.83339445  0.58198646  0.39612568
   0.66692647  0.66671341  0.49978330
   0.08464441  0.58148920  0.39605204
   0.75172652  0.49832361  0.60488604
   0.91781360  0.41616941  0.49970661
   0.41717833  0.41722542  0.49883968
  -0.00328678  0.00115763  0.60308022
   0.91681409  0.16572413  0.49979128
   0.66563328  0.41729376  0.49945488
   0.58165580  0.83501770  0.39435781
   0.50036353  0.49965159  0.59811080
   0.66759059  0.16558534  0.49982086
   0.83349733  0.33318277  0.40098140
   0.75023374  0.24964605  0.59774229
   0.83313892  0.83318943  0.40225967
   0.75092616 -0.00065381  0.59740002
   0.41607686  0.66766692  0.49968319
   0.08429829  0.08512705  0.40107041
   0.58217400  0.33384650  0.40125962
   0.58208089  0.08447629  0.40164957
   0.33385837  0.83237645  0.40043324
   0.33444227  0.58321391  0.40154368
   0.24859374  0.25070208  0.59813818
   0.33463714  0.33178126  0.40044070
   0.16720817  0.16551428  0.49994970
   0.33104694  0.08500257  0.40082453
  -0.00183254  0.74973388  0.59722653
   0.91617845  0.91646719  0.49982597
  -0.00063353  0.50089312  0.59827528
   0.91730044  0.66701395  0.49984301
   0.00055673  0.25086937  0.59811425
   0.08473063  0.33079485  0.40134260
   0.58235255  0.58257433  0.40172218
   0.75193138  0.74971460  0.59788336
Direct configuration=    10
   0.24986866  0.74896377  0.60387924
   0.16691368  0.91688607  0.49836003
   0.41560771  0.91706549  0.49818846
   0.24838493  0.49972084  0.60507400
   0.16486812  0.66813162  0.49974973
   0.50107545  0.74866499  0.60372713
   0.83089561  0.08475814  0.39791455
   0.16617178  0.41609943  0.49970933
   0.50237550  0.24982139  0.60337656
   0.24817451  0.00344789  0.60392371
   0.41675882  0.16625309  0.49917440
   0.67036188  0.91655291  0.49982017
   0.50140040  0.00033683  0.60493291
   0.08376348  0.83401756  0.39532152
   0.83338750  0.58196874  0.39590379
   0.66694230  0.66679456  0.49972301
   0.08460792  0.58152874  0.39580792
   0.75164282  0.49841307  0.60506331
   0.91786462  0.41616493  0.49967274
   0.41726604  0.41710360  0.49902039
  -0.00336847  0.00118159  0.60310467
   0.91689942  0.16554434  0.49973614
   0.66569101  0.41720503  0.49954034
   0.58163052  0.83495713  0.39405725
   0.50028888  0.49978229  0.59807253
   0.66755092  0.16575587  0.49974545
   0.83343757  0.33321469  0.40109700
   0.75020762  0.24962361  0.59761770
   0.83307428  0.83325284  0.40220205
   0.75106144 -0.00074039  0.59724376
   0.41602042  0.66771715  0.49986044
   0.08433414  0.08499921  0.40116707
   0.58201427  0.33400573  0.40141451
   0.58205780  0.08438818  0.40175760
   0.33379049  0.83250921  0.40053004
   0.33442331  0.58333439  0.40174417
   0.24855988  0.25070379  0.59805542
   0.33473654  0.33160281  0.40061894
   0.16725918  0.16547262  0.49999562
   0.33109659  0.08492223  0.40095907
  -0.00188018  0.74966645  0.59693868
   0.91634904  0.91644012  0.49962760
  -0.00046467  0.50069351  0.59808861
   0.91740339  0.66695030  0.49947870
   0.00063592  0.25089050  0.59800905
   0.08471818  0.33074956  0.40147052
   0.58212918  0.58279874  0.40188459
   0.75201159  0.74968484  0.59763960
Direct configuration=    11
   0.24971103  0.74909449  0.60433242
   0.16653459  0.91674152  0.49864141
   0.41627028  0.91715346  0.49837044
   0.24819171  0.50003041  0.60546058
   0.16456464  0.66853723  0.49957034
   0.50086800  0.74886806  0.60410687
   0.83042445  0.08484022  0.39769172
   0.16602209  0.41615795  0.49951638
   0.50272170  0.24982452  0.60365610
   0.24834371  0.00334549  0.60427659
   0.41691146  0.16604580  0.49961148
   0.66994369  0.91652259  0.49971669
   0.50166349  0.00019754  0.60544850
   0.08412314  0.83384632  0.39471339
   0.83336980  0.58192363  0.39533887
   0.66698260  0.66700116  0.49956952
   0.08451503  0.58162941  0.39518642
   0.75142971  0.49864083  0.60551463
   0.91799453  0.41615353  0.49958648
   0.41748934  0.41679348  0.49948045
  -0.00357642  0.00124258  0.60316692
   0.91711667  0.16508660  0.49959577
   0.66583800  0.41697912  0.49975791
   0.58156619  0.83480293  0.39329208
   0.50009884  0.50011502  0.59797510
   0.66744993  0.16619002  0.49955346
   0.83328541  0.33329597  0.40139130
   0.75014112  0.24956649  0.59730051
   0.83290971  0.83341425  0.40205534
   0.75140584 -0.00096081  0.59684593
   0.41587673  0.66784504  0.50031172
   0.08442541  0.08467373  0.40141317
   0.58160762  0.33441110  0.40180884
   0.58199901  0.08416385  0.40203262
   0.33361768  0.83284721  0.40077648
   0.33437505  0.58364109  0.40225460
   0.24847367  0.25070817  0.59784470
   0.33498962  0.33114849  0.40107271
   0.16738906  0.16536657  0.50011252
   0.33122300  0.08471769  0.40130157
  -0.00200148  0.74949480  0.59620584
   0.91678335  0.91637119  0.49912257
  -0.00003476  0.50018533  0.59761336
   0.91766548  0.66678827  0.49855120
   0.00083751  0.25094428  0.59774124
   0.08468649  0.33063425  0.40179619
   0.58156052  0.58337006  0.40229806
   0.75221577  0.74960909  0.59701900
Direct configuration=    12
   0.24965588  0.74914022  0.60449095
   0.16640198  0.91669095  0.49873985
   0.41650205  0.91718423  0.49843410
   0.24812412  0.50013870  0.60559581
   0.16445848  0.66867912  0.49950759
   0.50079543  0.74893910  0.60423970
   0.83025964  0.08486894  0.39761376
   0.16596972  0.41617842  0.49944888
   0.50284281  0.24982561  0.60375389
   0.24840290  0.00330967  0.60440004
   0.41696486  0.16597329  0.49976438
   0.66979740  0.91651199  0.49968049
   0.50175552  0.00014881  0.60562886
   0.08424896  0.83378641  0.39450066
   0.83336361  0.58190785  0.39514125
   0.66699670  0.66707343  0.49951582
   0.08448253  0.58166463  0.39496900
   0.75135517  0.49872051  0.60567251
   0.91803998  0.41614954  0.49955631
   0.41756746  0.41668499  0.49964138
  -0.00364917  0.00126392  0.60318870
   0.91719266  0.16492648  0.49954667
   0.66588941  0.41690009  0.49983403
   0.58154368  0.83474899  0.39302441
   0.50003236  0.50023142  0.59794102
   0.66741460  0.16634189  0.49948630
   0.83323218  0.33332440  0.40149425
   0.75011785  0.24954651  0.59718955
   0.83285213  0.83347071  0.40200402
   0.75152631 -0.00103791  0.59670676
   0.41582647  0.66788977  0.50046959
   0.08445733  0.08455987  0.40149927
   0.58146537  0.33455290  0.40194678
   0.58197845  0.08408537  0.40212883
   0.33355723  0.83296545  0.40086269
   0.33435817  0.58374838  0.40243315
   0.24844351  0.25070969  0.59777098
   0.33507815  0.33098956  0.40123144
   0.16743449  0.16532947  0.50015341
   0.33126722  0.08464614  0.40142139
  -0.00204391  0.74943475  0.59594949
   0.91693528  0.91634708  0.49894590
   0.00011563  0.50000756  0.59744711
   0.91775717  0.66673158  0.49822674
   0.00090803  0.25096309  0.59764755
   0.08467541  0.33059391  0.40191012
   0.58136159  0.58356991  0.40244270
   0.75228720  0.74958259  0.59680191
Direct configuration=    13
   0.24921863  0.74940944  0.60476492
   0.16677293  0.91649796  0.49885739
   0.41643866  0.91669533  0.49851530
   0.24810905  0.49978777  0.60577533
   0.16481180  0.66846082  0.49937279
   0.50106359  0.74899959  0.60446987
   0.83027934  0.08495262  0.39745104
   0.16600390  0.41630425  0.49936932
   0.50281388  0.24993096  0.60396071
   0.24813558  0.00348353  0.60463029
   0.41706436  0.16614212  0.49997505
   0.67007919  0.91643395  0.49954188
   0.50215206  0.00003043  0.60597280
   0.08413077  0.83406795  0.39420216
   0.83325106  0.58177807  0.39480729
   0.66704231  0.66721905  0.49941452
   0.08486081  0.58124504  0.39458911
   0.75177392  0.49839038  0.60585118
   0.91810698  0.41617743  0.49956405
   0.41726885  0.41700392  0.49989198
  -0.00359655  0.00116116  0.60317492
   0.91712649  0.16495552  0.49949657
   0.66593771  0.41686869  0.49996713
   0.58141668  0.83485084  0.39264894
   0.50015697  0.50000033  0.59809618
   0.66761261  0.16613374  0.49939449
   0.83305026  0.33338594  0.40154037
   0.75018208  0.24974630  0.59705018
   0.83271709  0.83356091  0.40172494
   0.75144296 -0.00098542  0.59642490
   0.41573677  0.66811629  0.50071863
   0.08434177  0.08461676  0.40164607
   0.58133747  0.33467508  0.40216622
   0.58171968  0.08411414  0.40226612
   0.33355210  0.83298842  0.40117931
   0.33432759  0.58367021  0.40276705
   0.24862713  0.25092110  0.59779162
   0.33493482  0.33117469  0.40152232
   0.16737226  0.16524672  0.50021722
   0.33124259  0.08466601  0.40166339
  -0.00199221  0.74934211  0.59549362
   0.91680752  0.91655972  0.49860102
  -0.00015412  0.50025661  0.59713506
   0.91762195  0.66649624  0.49775680
   0.00061521  0.25106320  0.59753648
   0.08475354  0.33039414  0.40197991
   0.58124519  0.58367461  0.40266290
   0.75248679  0.74933535  0.59640066
Direct configuration=    14
   0.24889598  0.74960810  0.60496709
   0.16704665  0.91635555  0.49894412
   0.41639188  0.91633458  0.49857522
   0.24809792  0.49952883  0.60590779
   0.16507250  0.66829973  0.49927332
   0.50126145  0.74904423  0.60463971
   0.83029388  0.08501437  0.39733098
   0.16602912  0.41639709  0.49931061
   0.50279253  0.25000869  0.60411333
   0.24793832  0.00361182  0.60480019
   0.41713779  0.16626670  0.50013049
   0.67028713  0.91637637  0.49943961
   0.50244467 -0.00005692  0.60622660
   0.08404357  0.83427569  0.39398190
   0.83316802  0.58168230  0.39456086
   0.66707597  0.66732650  0.49933977
   0.08513993  0.58093543  0.39430879
   0.75208291  0.49814678  0.60598302
   0.91815641  0.41619801  0.49956975
   0.41704851  0.41723925  0.50007689
  -0.00355772  0.00108533  0.60316476
   0.91707766  0.16497694  0.49945961
   0.66597334  0.41684552  0.50006535
   0.58132297  0.83492600  0.39237188
   0.50024892  0.49982981  0.59821067
   0.66775872  0.16598014  0.49932675
   0.83291602  0.33343135  0.40157441
   0.75022947  0.24989373  0.59694733
   0.83261744  0.83362747  0.40151900
   0.75138145 -0.00094669  0.59621692
   0.41567058  0.66828343  0.50090239
   0.08425649  0.08465873  0.40175439
   0.58124310  0.33476524  0.40232814
   0.58152874  0.08413537  0.40236742
   0.33354831  0.83300537  0.40141294
   0.33430503  0.58361252  0.40301343
   0.24876261  0.25107709  0.59780686
   0.33482906  0.33131129  0.40173695
   0.16732633  0.16518566  0.50026430
   0.33122441  0.08468068  0.40184195
  -0.00195406  0.74927376  0.59515725
   0.91671325  0.91671662  0.49834653
  -0.00035317  0.50044039  0.59690480
   0.91752217  0.66632257  0.49741003
   0.00039915  0.25113706  0.59745452
   0.08481120  0.33024673  0.40203141
   0.58115930  0.58375186  0.40282539
   0.75263406  0.74915291  0.59610458
Direct configuration=    15
   0.24897731  0.74936169  0.60509653
   0.16695410  0.91641460  0.49900782
   0.41640855  0.91640775  0.49870624
   0.24805948  0.49948823  0.60595932
   0.16493397  0.66838586  0.49918819
   0.50146946  0.74888698  0.60474045
   0.83030638  0.08517443  0.39719438
   0.16603795  0.41641675  0.49933032
   0.50286463  0.24987330  0.60425483
   0.24785988  0.00398900  0.60493898
   0.41726813  0.16598144  0.50026149
   0.67030357  0.91638741  0.49924152
   0.50250148 -0.00008166  0.60636651
   0.08383583  0.83436262  0.39391454
   0.83316252  0.58156564  0.39438235
   0.66705450  0.66717451  0.49924422
   0.08525487  0.58078915  0.39408882
   0.75229006  0.49799079  0.60599399
   0.91802444  0.41617494  0.49953675
   0.41717558  0.41742662  0.50027191
  -0.00368355  0.00107345  0.60306878
   0.91709742  0.16508623  0.49945971
   0.66574193  0.41719817  0.50014686
   0.58120051  0.83508561  0.39229903
   0.50030533  0.49986668  0.59853361
   0.66773444  0.16588832  0.49931710
   0.83279241  0.33348686  0.40148805
   0.75031529  0.24988602  0.59699132
   0.83270766  0.83343796  0.40115259
   0.75124248 -0.00072205  0.59606823
   0.41601870  0.66798067  0.50112338
   0.08411136  0.08489569  0.40179243
   0.58131331  0.33460306  0.40242800
   0.58134632  0.08431698  0.40235821
   0.33352788  0.83289306  0.40159882
   0.33422053  0.58358934  0.40311126
   0.24885244  0.25100018  0.59795466
   0.33471580  0.33151801  0.40182610
   0.16743872  0.16516404  0.50036320
   0.33113467  0.08480461  0.40200254
  -0.00184277  0.74924813  0.59487106
   0.91690296  0.91654359  0.49814557
  -0.00060419  0.50084704  0.59677024
   0.91762667  0.66626024  0.49716399
   0.00034873  0.25108071  0.59749093
   0.08473083  0.33021394  0.40192488
   0.58130992  0.58360042  0.40289391
   0.75265152  0.74898300  0.59593634
Direct configuration=    16
   0.24905127  0.74913762  0.60521424
   0.16686993  0.91646830  0.49906576
   0.41642370  0.91647429  0.49882539
   0.24802452  0.49945132  0.60600619
   0.16480799  0.66846418  0.49911077
   0.50165861  0.74874398  0.60483205
   0.83031775  0.08531999  0.39707017
   0.16604598  0.41643462  0.49934824
   0.50293019  0.24975017  0.60438351
   0.24778855  0.00433200  0.60506520
   0.41738666  0.16572204  0.50038062
   0.67031851  0.91639744  0.49906139
   0.50255314 -0.00010417  0.60649375
   0.08364690  0.83444167  0.39385329
   0.83315752  0.58145955  0.39422001
   0.66703499  0.66703630  0.49915732
   0.08535939  0.58065612  0.39388877
   0.75247844  0.49784893  0.60600397
   0.91790442  0.41615396  0.49950673
   0.41729114  0.41759701  0.50044926
  -0.00379798  0.00106264  0.60298150
   0.91711538  0.16518561  0.49945979
   0.66553149  0.41751887  0.50022099
   0.58108916  0.83523076  0.39223278
   0.50035663  0.49990021  0.59882730
   0.66771237  0.16580483  0.49930833
   0.83268000  0.33353734  0.40140952
   0.75039333  0.24987901  0.59703133
   0.83278970  0.83326561  0.40081938
   0.75111610 -0.00051776  0.59593301
   0.41633527  0.66770534  0.50132435
   0.08397938  0.08511118  0.40182703
   0.58137716  0.33445557  0.40251881
   0.58118042  0.08448213  0.40234983
   0.33350931  0.83279093  0.40176786
   0.33414369  0.58356826  0.40320023
   0.24893413  0.25093024  0.59808908
   0.33461281  0.33170601  0.40190717
   0.16754092  0.16514439  0.50045314
   0.33105307  0.08491732  0.40214858
  -0.00174157  0.74922483  0.59461081
   0.91707548  0.91638624  0.49796282
  -0.00083247  0.50121684  0.59664787
   0.91772170  0.66620356  0.49694024
   0.00030289  0.25102946  0.59752405
   0.08465775  0.33018411  0.40182800
   0.58144690  0.58346269  0.40295623
   0.75266740  0.74882849  0.59578335
Direct configuration=    17
   0.24933714  0.74906077  0.60530396
   0.16693042  0.91642915  0.49915279
   0.41652364  0.91641211  0.49904636
   0.24805647  0.49941409  0.60601726