  48  48   0   0
  0.5349325E+02  0.1100258E-08  0.1100258E-08  0.2449179E-08  0.3500000E-15
  1.000000000000000E-004
  CAR 
 unknown system                          
      6.37162077     -9.84518436  301     -1.08128952      1.00000000
     -9.845  0.0000E+00  0.0000E+00
     -9.791  0.0000E+00  0.0000E+00
     -9.737  0.0000E+00  0.0000E+00
     -9.683  0.0000E+00  0.0000E+00
     -9.629  0.0000E+00  0.0000E+00
     -9.575  0.0000E+00  0.0000E+00
     -9.521  0.0000E+00  0.0000E+00
     -9.467  0.0000E+00  0.0000E+00
     -9.413  0.8215E-17  0.4441E-18
     -9.359  0.3429E-14  0.1858E-15
     -9.305  0.7682E-12  0.4171E-13
     -9.251  0.9743E-10  0.5308E-11
     -9.197  0.7009E-08  0.3842E-09
     -9.142  0.2867E-06  0.1588E-07
     -9.088  0.6683E-05  0.3772E-06
     -9.034  0.8901E-04  0.5189E-05
     -8.980  0.6791E-03  0.4190E-04
     -8.926  0.2976E-02  0.2027E-03
     -8.872  0.7521E-02  0.6093E-03
     -8.818  0.1115E-01  0.1212E-02
     -8.764  0.1061E-01  0.1785E-02
     -8.710  0.9268E-02  0.2286E-02
     -8.656  0.1049E-01  0.2853E-02
     -8.602  0.1063E-01  0.3428E-02
     -8.548  0.7016E-02  0.3808E-02
     -8.494  0.2816E-02  0.3960E-02
     -8.440  0.8599E-03  0.4006E-02
     -8.386  0.1219E-02  0.4072E-02
     -8.332  0.3863E-02  0.4281E-02
     -8.278  0.8004E-02  0.4714E-02
     -8.224  0.1026E-01  0.5268E-02
     -8.169  0.8525E-02  0.5729E-02
     -8.115  0.6053E-02  0.6057E-02
     -8.061  0.7113E-02  0.6441E-02
     -8.007  0.1038E-01  0.7002E-02
     -7.953  0.1141E-01  0.7619E-02
     -7.899  0.1165E-01  0.8249E-02
     -7.845  0.1605E-01  0.9117E-02
     -7.791  0.2113E-01  0.1026E-01
     -7.737  0.1913E-01  0.1129E-01
     -7.683  0.1321E-01  0.1201E-01
     -7.629  0.1321E-01  0.1272E-01
     -7.575  0.1974E-01  0.1379E-01
     -7.521  0.2444E-01  0.1511E-01
     -7.467  0.2353E-01  0.1638E-01
     -7.413  0.2153E-01  0.1755E-01
     -7.359  0.2202E-01  0.1874E-01
     -7.305  0.2405E-01  0.2004E-01
     -7.250  0.2673E-01  0.2148E-01
     -7.196  0.3055E-01  0.2313E-01
     -7.142  0.3422E-01  0.2498E-01
     -7.088  0.3629E-01  0.2694E-01
     -7.034  0.3945E-01  0.2908E-01
     -6.980  0.4559E-01  0.3154E-01
     -6.926  0.5299E-01  0.3440E-01
     -6.872  0.6172E-01  0.3774E-01
     -6.818  0.7352E-01  0.4171E-01
     -6.764  0.8631E-01  0.4638E-01
     -6.710  0.9778E-01  0.5167E-01
     -6.656  0.1088E+00  0.5754E-01
     -6.602  0.1161E+00  0.6382E-01
     -6.548  0.1164E+00  0.7011E-01
     -6.494  0.1164E+00  0.7640E-01
     -6.440  0.1212E+00  0.8295E-01
     -6.386  0.1252E+00  0.8972E-01
     -6.332  0.1250E+00  0.9648E-01
     -6.277  0.1239E+00  0.1032E+00
     -6.223  0.1267E+00  0.1100E+00
     -6.169  0.1319E+00  0.1172E+00
     -6.115  0.1356E+00  0.1245E+00
     -6.061  0.1376E+00  0.1319E+00
     -6.007  0.1380E+00  0.1394E+00
     -5.953  0.1370E+00  0.1468E+00
     -5.899  0.1360E+00  0.1541E+00
     -5.845  0.1376E+00  0.1616E+00
     -5.791  0.1434E+00  0.1693E+00
     -5.737  0.1485E+00  0.1774E+00
     -5.683  0.1486E+00  0.1854E+00
     -5.629  0.1474E+00  0.1934E+00
     -5.575  0.1483E+00  0.2014E+00
     -5.521  0.1497E+00  0.2095E+00
     -5.467  0.1515E+00  0.2177E+00
     -5.413  0.1553E+00  0.2260E+00
     -5.359  0.1591E+00  0.2346E+00
     -5.304  0.1596E+00  0.2433E+00
     -5.250  0.1572E+00  0.2518E+00
     -5.196  0.1547E+00  0.2601E+00
     -5.142  0.1540E+00  0.2685E+00
     -5.088  0.1551E+00  0.2768E+00
     -5.034  0.1551E+00  0.2852E+00
     -4.980  0.1532E+00  0.2935E+00
     -4.926  0.1541E+00  0.3018E+00
     -4.872  0.1594E+00  0.3105E+00
     -4.818  0.1647E+00  0.3194E+00
     -4.764  0.1660E+00  0.3283E+00
     -4.710  0.1651E+00  0.3373E+00
     -4.656  0.1660E+00  0.3462E+00
     -4.602  0.1696E+00  0.3554E+00
     -4.548  0.1722E+00  0.3647E+00
     -4.494  0.1710E+00  0.3740E+00
     -4.440  0.1696E+00  0.3831E+00
     -4.386  0.1729E+00  0.3925E+00
     -4.331  0.1829E+00  0.4024E+00
     -4.277  0.1957E+00  0.4129E+00
     -4.223  0.2026E+00  0.4239E+00
     -4.169  0.2003E+00  0.4347E+00
     -4.115  0.1931E+00  0.4452E+00
     -4.061  0.1857E+00  0.4552E+00
     -4.007  0.1809E+00  0.4650E+00
     -3.953  0.1803E+00  0.4747E+00
     -3.899  0.1833E+00  0.4846E+00
     -3.845  0.1869E+00  0.4947E+00
     -3.791  0.1875E+00  0.5049E+00
     -3.737  0.1847E+00  0.5148E+00
     -3.683  0.1821E+00  0.5247E+00
     -3.629  0.1842E+00  0.5347E+00
     -3.575  0.1904E+00  0.5449E+00
     -3.521  0.1956E+00  0.5555E+00
     -3.467  0.1983E+00  0.5662E+00
     -3.413  0.2008E+00  0.5771E+00
     -3.358  0.2055E+00  0.5882E+00
     -3.304  0.2115E+00  0.5996E+00
     -3.250  0.2135E+00  0.6112E+00
     -3.196  0.2101E+00  0.6225E+00
     -3.142  0.2049E+00  0.6336E+00
     -3.088  0.1992E+00  0.6444E+00
     -3.034  0.1914E+00  0.6547E+00
     -2.980  0.1825E+00  0.6646E+00
     -2.926  0.1759E+00  0.6741E+00
     -2.872  0.1727E+00  0.6834E+00
     -2.818  0.1736E+00  0.6928E+00
     -2.764  0.1789E+00  0.7025E+00
     -2.710  0.1842E+00  0.7124E+00
     -2.656  0.1857E+00  0.7225E+00
     -2.602  0.1844E+00  0.7325E+00
     -2.548  0.1816E+00  0.7423E+00
     -2.494  0.1766E+00  0.7518E+00
     -2.440  0.1707E+00  0.7610E+00
     -2.385  0.1690E+00  0.7702E+00
     -2.331  0.1741E+00  0.7796E+00
     -2.277  0.1825E+00  0.7894E+00
     -2.223  0.1886E+00  0.7996E+00
     -2.169  0.1899E+00  0.8099E+00
     -2.115  0.1893E+00  0.8201E+00
     -2.061  0.1902E+00  0.8304E+00
     -2.007  0.1926E+00  0.8408E+00
     -1.953  0.1926E+00  0.8512E+00
     -1.899  0.1872E+00  0.8614E+00
     -1.845  0.1822E+00  0.8712E+00
     -1.791  0.1835E+00  0.8811E+00
     -1.737  0.1881E+00  0.8913E+00
     -1.683  0.1908E+00  0.9016E+00
     -1.629  0.1904E+00  0.9119E+00
     -1.575  0.1898E+00  0.9222E+00
     -1.521  0.1931E+00  0.9326E+00
     -1.467  0.1999E+00  0.9434E+00
     -1.412  0.2049E+00  0.9545E+00
     -1.358  0.2036E+00  0.9655E+00
     -1.304  0.1941E+00  0.9760E+00
     -1.250  0.1766E+00  0.9855E+00
     -1.196  0.1541E+00  0.9939E+00
     -1.142  0.1329E+00  0.1001E+01
     -1.088  0.1156E+00  0.1007E+01
     -1.034  0.9571E-01  0.1012E+01
     -0.980  0.6795E-01  0.1016E+01
     -0.926  0.3985E-01  0.1018E+01
     -0.872  0.2236E-01  0.1019E+01
     -0.818  0.1683E-01  0.1020E+01
     -0.764  0.1817E-01  0.1021E+01
     -0.710  0.2085E-01  0.1023E+01
     -0.656  0.2260E-01  0.1024E+01
     -0.602  0.2723E-01  0.1025E+01
     -0.548  0.3718E-01  0.1027E+01
     -0.493  0.4646E-01  0.1030E+01
     -0.439  0.4730E-01  0.1032E+01
     -0.385  0.3833E-01  0.1034E+01
     -0.331  0.2747E-01  0.1036E+01
     -0.277  0.2620E-01  0.1037E+01
     -0.223  0.3469E-01  0.1039E+01
     -0.169  0.4104E-01  0.1041E+01
     -0.115  0.3918E-01  0.1043E+01
     -0.061  0.3291E-01  0.1045E+01
     -0.007  0.2674E-01  0.1047E+01
      0.047  0.2362E-01  0.1048E+01
      0.101  0.2435E-01  0.1049E+01
      0.155  0.2809E-01  0.1051E+01
      0.209  0.3387E-01  0.1053E+01
      0.263  0.4001E-01  0.1055E+01
      0.317  0.4293E-01  0.1057E+01
      0.371  0.4132E-01  0.1059E+01
      0.425  0.3942E-01  0.1061E+01
      0.480  0.3754E-01  0.1064E+01
      0.534  0.3462E-01  0.1065E+01
      0.588  0.3528E-01  0.1067E+01
      0.642  0.3930E-01  0.1069E+01
      0.696  0.4089E-01  0.1072E+01
      0.750  0.3864E-01  0.1074E+01
      0.804  0.3513E-01  0.1076E+01
      0.858  0.3117E-01  0.1077E+01
      0.912  0.2699E-01  0.1079E+01
      0.966  0.2438E-01  0.1080E+01
      1.020  0.2308E-01  0.1081E+01
      1.074  0.2256E-01  0.1083E+01
      1.128  0.2325E-01  0.1084E+01
      1.182  0.2255E-01  0.1085E+01
      1.236  0.1777E-01  0.1086E+01
      1.290  0.1151E-01  0.1087E+01
      1.344  0.8435E-02  0.1087E+01
      1.398  0.9818E-02  0.1088E+01
      1.453  0.1503E-01  0.1088E+01
      1.507  0.2339E-01  0.1090E+01
      1.561  0.3134E-01  0.1091E+01
      1.615  0.3379E-01  0.1093E+01
      1.669  0.3222E-01  0.1095E+01
      1.723  0.3271E-01  0.1097E+01
      1.777  0.3589E-01  0.1099E+01
      1.831  0.3726E-01  0.1101E+01
      1.885  0.3468E-01  0.1103E+01
      1.939  0.3116E-01  0.1104E+01
      1.993  0.2815E-01  0.1106E+01
      2.047  0.2426E-01  0.1107E+01
      2.101  0.2153E-01  0.1108E+01
      2.155  0.2396E-01  0.1109E+01
      2.209  0.3248E-01  0.1111E+01
      2.263  0.4213E-01  0.1114E+01
      2.317  0.4569E-01  0.1116E+01
      2.371  0.4244E-01  0.1118E+01
      2.426  0.3731E-01  0.1120E+01
      2.480  0.3280E-01  0.1122E+01
      2.534  0.3116E-01  0.1124E+01
      2.588  0.3622E-01  0.1126E+01
      2.642  0.4489E-01  0.1128E+01
      2.696  0.5030E-01  0.1131E+01
      2.750  0.4998E-01  0.1134E+01
      2.804  0.4203E-01  0.1136E+01
      2.858  0.2853E-01  0.1137E+01
      2.912  0.1818E-01  0.1138E+01
      2.966  0.1395E-01  0.1139E+01
      3.020  0.1065E-01  0.1140E+01
      3.074  0.8109E-02  0.1140E+01
      3.128  0.1103E-01  0.1141E+01
      3.182  0.1901E-01  0.1142E+01
      3.236  0.2626E-01  0.1143E+01
      3.290  0.2722E-01  0.1145E+01
      3.344  0.2211E-01  0.1146E+01
      3.399  0.1744E-01  0.1147E+01
      3.453  0.1762E-01  0.1148E+01
      3.507  0.2235E-01  0.1149E+01
      3.561  0.2978E-01  0.1151E+01
      3.615  0.3572E-01  0.1152E+01
      3.669  0.3727E-01  0.1155E+01
      3.723  0.3724E-01  0.1157E+01
      3.777  0.3696E-01  0.1159E+01
      3.831  0.3361E-01  0.1160E+01
      3.885  0.2828E-01  0.1162E+01
      3.939  0.2486E-01  0.1163E+01
      3.993  0.2371E-01  0.1164E+01
      4.047  0.2277E-01  0.1166E+01
      4.101  0.2242E-01  0.1167E+01
      4.155  0.2346E-01  0.1168E+01
      4.209  0.2338E-01  0.1169E+01
      4.263  0.2078E-01  0.1171E+01
      4.317  0.1785E-01  0.1172E+01
      4.372  0.1823E-01  0.1173E+01
      4.426  0.2286E-01  0.1174E+01
      4.480  0.2763E-01  0.1175E+01
      4.534  0.3350E-01  0.1177E+01
      4.588  0.4517E-01  0.1180E+01
      4.642  0.5562E-01  0.1183E+01
      4.696  0.5619E-01  0.1186E+01
      4.750  0.5119E-01  0.1188E+01
      4.804  0.4843E-01  0.1191E+01
      4.858  0.4904E-01  0.1194E+01
      4.912  0.5063E-01  0.1196E+01
      4.966  0.5583E-01  0.1199E+01
      5.020  0.6812E-01  0.1203E+01
      5.074  0.7993E-01  0.1207E+01
      5.128  0.7868E-01  0.1212E+01
      5.182  0.6630E-01  0.1215E+01
      5.236  0.5449E-01  0.1218E+01
      5.291  0.4486E-01  0.1221E+01
      5.345  0.3286E-01  0.1222E+01
      5.399  0.1923E-01  0.1223E+01
      5.453  0.8361E-02  0.1224E+01
      5.507  0.2520E-02  0.1224E+01
      5.561  0.4937E-03  0.1224E+01
      5.615  0.5988E-04  0.1224E+01
      5.669  0.4355E-05  0.1224E+01
      5.723  0.1861E-06  0.1224E+01
      5.777  0.4607E-08  0.1224E+01
      5.831  0.6550E-10  0.1224E+01
      5.885  0.5311E-12  0.1224E+01
      5.939  0.2443E-14  0.1224E+01
      5.993  0.5477E-17  0.1224E+01
      6.047  0.0000E+00  0.1224E+01
      6.101  0.0000E+00  0.1224E+01
      6.155  0.0000E+00  0.1224E+01
      6.209  0.0000E+00  0.1224E+01
      6.264  0.0000E+00  0.1224E+01
      6.318  0.0000E+00  0.1224E+01
      6.372  0.0000E+00  0.1224E+01
