<?xml version="1.0" encoding="ISO-8859-1"?>
<modeling>
 <generator>
  <i name="program" type="string">vasp </i>
  <i name="version" type="string">5.4.1  </i>
  <i name="subversion" type="string">24Jun15 (build Mar 14 2019 10:18:33) complex                          parallel </i>
  <i name="platform" type="string">INTEL-19.0.2+OPENMPI-3.1.3 </i>
  <i name="date" type="string">2023 01 31 </i>
  <i name="time" type="string">00:30:44 </i>
 </generator>
 <incar>
  <i type="int" name="ISTART">     0</i>
  <i type="string" name="PREC">normal</i>
  <i type="string" name="ALGO"> Fast</i>
  <i type="int" name="NELM">   500</i>
  <i type="int" name="IBRION">     2</i>
  <i type="int" name="NFREE">     2</i>
  <i name="EDIFF">      0.00000100</i>
  <i name="EDIFFG">     -0.02000000</i>
  <i type="int" name="NSW">   500</i>
  <i type="int" name="ISIF">     0</i>
  <i type="int" name="ISYM">     2</i>
  <i name="ENCUT">    400.00000000</i>
  <i name="POTIM">      0.35000000</i>
  <i type="string" name="LREAL"> Auto</i>
  <i type="logical" name="LPLANE"> T  </i>
  <i type="int" name="ISMEAR">     0</i>
  <i name="SIGMA">      0.10000000</i>
  <i type="int" name="NWRITE">     1</i>
  <i type="logical" name="LWAVE"> F  </i>
  <i type="logical" name="LCHARG"> F  </i>
  <i type="logical" name="LVTOT"> F  </i>
  <i type="logical" name="LORBIT"> F  </i>
  <i type="logical" name="LAECHG"> F  </i>
  <v type="int" name="KPOINT_BSE">    -1     0     0     0</v>
  <i type="int" name="NELM">   500</i>
  <i type="string" name="GGA"> PE          ! optPBE-vdW XC-functional</i>
  <i type="int" name="VOSKOWN">     1</i>
  <i type="logical" name="LDIPOL"> T  </i>
  <i type="logical" name="LMONO"> F  </i>
  <i type="int" name="IDIPOL">     3</i>
  <v name="DIPOL">      0.00000000      0.00000000      0.50000000</v>
 </incar>
 <kpoints>
  <generation param="Monkhorst-Pack">
   <v type="int" name="divisions">       2        2        1 </v>
   <v name="usershift">      0.00000000       0.00000000       0.00000000 </v>
   <v name="genvec1">      0.50000000      -0.00000000       0.00000000 </v>
   <v name="genvec2">      0.00000000       0.50000000       0.00000000 </v>
   <v name="genvec3">      0.00000000       0.00000000       1.00000000 </v>
   <v name="shift">      0.50000000       0.50000000       0.00000000 </v>
  </generation>
  <varray name="kpointlist" >
   <v>       0.25000000       0.25000000       0.00000000 </v>
   <v>       0.00000000       0.25000000       0.00000000 </v>
   <v>      -0.25000000       0.00000000       0.00000000 </v>
   <v>      -0.25000000       0.25000000       0.00000000 </v>
   <v>       0.50000000      -0.25000000       0.00000000 </v>
   <v>      -0.25000000       0.50000000       0.00000000 </v>
  </varray>
  <varray name="weights" >
   <v>       0.16666667 </v>
   <v>       0.16666667 </v>
   <v>       0.16666667 </v>
   <v>       0.16666667 </v>
   <v>       0.16666667 </v>
   <v>       0.16666667 </v>
  </varray>
 </kpoints>
 <parameters>
  <separator name="general" >
   <i type="string" name="SYSTEM">unknown system</i>
   <i type="logical" name="LCOMPAT"> F  </i>
  </separator>
  <separator name="electronic" >
   <i type="string" name="PREC">normal</i>
   <i name="ENMAX">    400.00000000</i>
   <i name="ENAUG">    416.23000000</i>
   <i name="EDIFF">      0.00000100</i>
   <i type="int" name="IALGO">    68</i>
   <i type="int" name="IWAVPR">    11</i>
   <i type="int" name="NBANDS">   306</i>
   <i name="NELECT">    504.00000000</i>
   <i type="int" name="TURBO">     0</i>
   <i type="int" name="IRESTART">     0</i>
   <i type="int" name="NREBOOT">     0</i>
   <i type="int" name="NMIN">     0</i>
   <i name="EREF">      0.00000000</i>
   <separator name="electronic smearing" >
    <i type="int" name="ISMEAR">     0</i>
    <i name="SIGMA">      0.10000000</i>
    <i name="KSPACING">      0.50000000</i>
    <i type="logical" name="KGAMMA"> T  </i>
   </separator>
   <separator name="electronic projectors" >
    <i type="logical" name="LREAL"> T  </i>
    <v name="ROPT">     -0.00050000     -0.00050000</v>
    <i type="int" name="LMAXPAW">  -100</i>
    <i type="int" name="LMAXMIX">     2</i>
    <i type="logical" name="NLSPLINE"> F  </i>
   </separator>
   <separator name="electronic startup" >
    <i type="int" name="ISTART">     0</i>
    <i type="int" name="ICHARG">     2</i>
    <i type="int" name="INIWAV">     1</i>
   </separator>
   <separator name="electronic spin" >
    <i type="int" name="ISPIN">     1</i>
    <i type="logical" name="LNONCOLLINEAR"> F  </i>
    <v name="MAGMOM">      1.00000000      1.00000000      1.00000000      1.00000000      1.00000000      1.00000000      1.00000000      1.00000000      1.00000000      1.00000000      1.00000000      1.00000000      1.00000000      1.00000000      1.00000000      1.00000000      1.00000000      1.00000000      1.00000000      1.00000000
      1.00000000      1.00000000      1.00000000      1.00000000      1.00000000      1.00000000      1.00000000      1.00000000      1.00000000      1.00000000      1.00000000      1.00000000      1.00000000      1.00000000      1.00000000      1.00000000      1.00000000      1.00000000      1.00000000      1.00000000
      1.00000000      1.00000000      1.00000000      1.00000000      1.00000000      1.00000000      1.00000000      1.00000000</v>
    <i name="NUPDOWN">     -1.00000000</i>
    <i type="logical" name="LSORBIT"> F  </i>
    <v name="SAXIS">      0.00000000      0.00000000      1.00000000</v>
    <i type="logical" name="LSPIRAL"> F  </i>
    <v name="QSPIRAL">      0.00000000      0.00000000      0.00000000</v>
    <i type="logical" name="LZEROZ"> F  </i>
   </separator>
   <separator name="electronic exchange-correlation" >
    <i type="logical" name="LASPH"> F  </i>
    <i type="logical" name="LMETAGGA"> F  </i>
   </separator>
   <separator name="electronic convergence" >
    <i type="int" name="NELM">   500</i>
    <i type="int" name="NELMDL">    -5</i>
    <i type="int" name="NELMIN">     2</i>
    <i name="ENINI">    400.00000000</i>
    <separator name="electronic convergence detail" >
     <i type="logical" name="LDIAG"> T  </i>
     <i type="logical" name="LSUBROT"> F  </i>
     <i name="WEIMIN">      0.00100000</i>
     <i name="EBREAK">      0.00000000</i>
     <i name="DEPER">      0.30000000</i>
     <i type="int" name="NRMM">     4</i>
     <i name="TIME">      0.40000000</i>
    </separator>
   </separator>
   <separator name="electronic mixer" >
    <i name="AMIX">      0.40000000</i>
    <i name="BMIX">      1.00000000</i>
    <i name="AMIN">      0.10000000</i>
    <i name="AMIX_MAG">      1.60000000</i>
    <i name="BMIX_MAG">      1.00000000</i>
    <separator name="electronic mixer details" >
     <i type="int" name="IMIX">     4</i>
     <i type="logical" name="MIXFIRST"> F  </i>
     <i type="int" name="MAXMIX">   -45</i>
     <i name="WC">    100.00000000</i>
     <i type="int" name="INIMIX">     1</i>
     <i type="int" name="MIXPRE">     1</i>
     <i type="int" name="MREMOVE">     5</i>
    </separator>
   </separator>
   <separator name="electronic dipolcorrection" >
    <i type="logical" name="LDIPOL"> T  </i>
    <i type="logical" name="LMONO"> F  </i>
    <i type="int" name="IDIPOL">     3</i>
    <i name="EPSILON">      1.00000000</i>
    <v name="DIPOL">      0.00000000      0.00000000      0.50000000</v>
    <i name="EFIELD">      0.00000000</i>
   </separator>
  </separator>
  <separator name="grids" >
   <i type="int" name="NGX">    54</i>
   <i type="int" name="NGY">    54</i>
   <i type="int" name="NGZ">   120</i>
   <i type="int" name="NGXF">   108</i>
   <i type="int" name="NGYF">   108</i>
   <i type="int" name="NGZF">   240</i>
   <i type="logical" name="ADDGRID"> F  </i>
  </separator>
  <separator name="ionic" >
   <i type="int" name="NSW">   500</i>
   <i type="int" name="IBRION">     2</i>
   <i type="int" name="ISIF">     0</i>
   <i name="PSTRESS">      0.00000000</i>
   <i name="EDIFFG">     -0.02000000</i>
   <i type="int" name="NFREE">     2</i>
   <i name="POTIM">      0.35000000</i>
   <i name="SMASS">     -3.00000000</i>
   <i name="SCALEE">      1.00000000</i>
  </separator>
  <separator name="ionic md" >
   <i name="TEBEG">      0.00010000</i>
   <i name="TEEND">      0.00010000</i>
   <i type="int" name="NBLOCK">     1</i>
   <i type="int" name="KBLOCK">   500</i>
   <i type="int" name="NPACO">   256</i>
   <i name="APACO">     16.00000000</i>
  </separator>
  <separator name="symmetry" >
   <i type="int" name="ISYM">     2</i>
   <i name="SYMPREC">      0.00001000</i>
  </separator>
  <separator name="dos" >
   <i type="logical" name="LORBIT"> F  </i>
   <v name="RWIGS">     -1.00000000     -1.00000000</v>
   <i type="int" name="NEDOS">   301</i>
   <i name="EMIN">     10.00000000</i>
   <i name="EMAX">    -10.00000000</i>
   <i name="EFERMI">      0.00000000</i>
  </separator>
  <separator name="writing" >
   <i type="int" name="NWRITE">     1</i>
   <i type="logical" name="LWAVE"> F  </i>
   <i type="logical" name="LCHARG"> F  </i>
   <i type="logical" name="LPARD"> F  </i>
   <i type="logical" name="LVTOT"> F  </i>
   <i type="logical" name="LVHAR"> F  </i>
   <i type="logical" name="LELF"> F  </i>
   <i type="logical" name="LOPTICS"> F  </i>
   <v name="STM">      0.00000000      0.00000000      0.00000000      0.00000000      0.00000000      0.00000000      0.00000000</v>
  </separator>
  <separator name="performance" >
   <i type="int" name="NPAR">     6</i>
   <i type="int" name="NSIM">     4</i>
   <i type="int" name="NBLK">    -1</i>
   <i type="logical" name="LPLANE"> T  </i>
   <i type="logical" name="LSCALAPACK"> T  </i>
   <i type="logical" name="LSCAAWARE"> F  </i>
   <i type="logical" name="LSCALU"> F  </i>
   <i type="logical" name="LASYNC"> F  </i>
   <i type="logical" name="LORBITALREAL"> F  </i>
  </separator>
  <separator name="miscellaneous" >
   <i type="int" name="IDIOT">     3</i>
   <i type="logical" name="LMUSIC"> F  </i>
   <v name="POMASS">    196.96600000    106.42000000</v>
   <v name="DARWINR">      0.00000000      0.00000000</v>
   <v name="DARWINV">      1.00000000      1.00000000</v>
   <i type="logical" name="LCORR"> T  </i>
  </separator>
  <i type="logical" name="GGA_COMPAT"> T  </i>
  <i type="logical" name="LBERRY"> F  </i>
  <i type="int" name="ICORELEVEL">     0</i>
  <i type="logical" name="LDAU"> F  </i>
  <i type="int" name="I_CONSTRAINED_M">     0</i>
  <separator name="electronic exchange-correlation" >
   <i type="string" name="GGA">PE</i>
   <i type="int" name="VOSKOWN">     1</i>
   <i type="logical" name="LHFCALC"> F  </i>
   <i type="string" name="PRECFOCK"></i>
   <i type="logical" name="LSYMGRAD"> F  </i>
   <i type="logical" name="LHFONE"> F  </i>
   <i type="logical" name="LRHFCALC"> F  </i>
   <i type="logical" name="LTHOMAS"> F  </i>
   <i type="logical" name="LMODELHF"> F  </i>
   <i name="ENCUT4O">     -1.00000000</i>
   <i type="int" name="EXXOEP">     0</i>
   <i type="int" name="FOURORBIT">     0</i>
   <i name="AEXX">      0.00000000</i>
   <i name="HFALPHA">      0.00000000</i>
   <i name="MCALPHA">      0.00000000</i>
   <i name="ALDAX">      1.00000000</i>
   <i name="AGGAX">      1.00000000</i>
   <i name="ALDAC">      1.00000000</i>
   <i name="AGGAC">      1.00000000</i>
   <i type="int" name="NKREDX">     1</i>
   <i type="int" name="NKREDY">     1</i>
   <i type="int" name="NKREDZ">     1</i>
   <i type="logical" name="SHIFTRED"> F  </i>
   <i type="logical" name="ODDONLY"> F  </i>
   <i type="logical" name="EVENONLY"> F  </i>
   <i type="int" name="LMAXFOCK">     0</i>
   <i type="int" name="NMAXFOCKAE">     0</i>
   <i type="logical" name="LFOCKAEDFT"> F  </i>
   <i name="HFSCREEN">      0.00000000</i>
   <i name="HFSCREENC">      0.00000000</i>
   <i type="int" name="NBANDSGWLOW">     0</i>
  </separator>
  <separator name="vdW DFT" >
   <i type="logical" name="LUSE_VDW"> F  </i>
   <i name="Zab_VDW">     -0.84910000</i>
   <i name="PARAM1">      0.12340000</i>
   <i name="PARAM2">      1.00000000</i>
   <i name="PARAM3">      0.00000000</i>
  </separator>
  <separator name="model GW" >
   <i type="int" name="MODEL_GW">     0</i>
   <i name="MODEL_EPS0">     32.09595293</i>
   <i name="MODEL_ALPHA">      1.00000000</i>
  </separator>
  <separator name="linear response parameters" >
   <i type="logical" name="LEPSILON"> F  </i>
   <i type="logical" name="LRPA"> F  </i>
   <i type="logical" name="LNABLA"> F  </i>
   <i type="logical" name="LVEL"> F  </i>
   <i type="int" name="KINTER">     0</i>
   <i name="CSHIFT">      0.10000000</i>
   <i name="OMEGAMAX">     -1.00000000</i>
   <i name="DEG_THRESHOLD">      0.00200000</i>
  </separator>
  <separator name="orbital magnetization" >
   <i type="logical" name="NUCIND"> F  </i>
   <v name="MAGPOS">      0.00000000      0.00000000      0.00000000</v>
   <i type="logical" name="LNICSALL"> T  </i>
   <i type="logical" name="ORBITALMAG"> F  </i>
   <i type="logical" name="LMAGBLOCH"> F  </i>
   <i type="logical" name="LCHIMAG"> F  </i>
   <i type="logical" name="LGAUGE"> T  </i>
   <i type="int" name="MAGATOM">     0</i>
   <v name="MAGDIPOL">      0.00000000      0.00000000      0.00000000</v>
   <v name="AVECCONST">      0.00000000      0.00000000      0.00000000</v>
  </separator>
  <separator name="response functions" >
   <i type="logical" name="LADDER"> F  </i>
   <i type="logical" name="LFXC"> F  </i>
   <i type="logical" name="LHARTREE"> T  </i>
   <i type="int" name="IBSE">     0</i>
   <v type="int" name="KPOINT">    -1     0     0     0</v>
   <i type="logical" name="LTCTE"> F  </i>
   <i type="logical" name="LTETE"> F  </i>
   <i type="logical" name="LTRIPLET"> F  </i>
   <i type="logical" name="LFXCEPS"> F  </i>
   <i type="logical" name="LFXHEG"> F  </i>
   <i type="int" name="NATURALO">     0</i>
   <i type="logical" name="L2ORDER"> F  </i>
   <i type="logical" name="LUSEW"> F  </i>
   <i name="ENCUTGW">     -2.00000000</i>
   <i name="ENCUTGWSOFT">     -2.00000000</i>
   <i name="ENCUTLF">     -1.00000000</i>
   <i type="int" name="LMAXMP2">    -1</i>
   <i name="SCISSOR">      0.00000000</i>
   <i type="int" name="NOMEGA">     0</i>
   <i type="int" name="NOMEGAR">     0</i>
   <i type="int" name="NBANDSGW">    -1</i>
   <i type="int" name="NBANDSO">    -1</i>
   <i type="int" name="NBANDSV">    -1</i>
   <i type="int" name="NELM">   500</i>
   <i type="int" name="NELMHF">     1</i>
   <i type="int" name="DIM">     3</i>
   <i type="int" name="ANTIRES">     0</i>
   <i name="OMEGAMAX">    -30.00000000</i>
   <i name="OMEGAMIN">    -30.00000000</i>
   <i name="OMEGATL">   -200.00000000</i>
   <i type="int" name="OMEGAGRID">     0</i>
   <i name="CSHIFT">     -0.10000000</i>
   <i type="logical" name="SELFENERGY"> F  </i>
   <i type="logical" name="LSPECTRAL"> F  </i>
   <i type="logical" name="LSPECTRALGW"> F  </i>
   <i type="logical" name="LSINGLES"> F  </i>
   <i type="logical" name="LFERMIGW"> F  </i>
   <i type="logical" name="ODDONLYGW"> F  </i>
   <i type="logical" name="EVENONLYGW"> F  </i>
   <i type="int" name="NKREDLFX">     1</i>
   <i type="int" name="NKREDLFY">     1</i>
   <i type="int" name="NKREDLFZ">     1</i>
   <i type="int" name="MAXMEM">  1800</i>
   <i type="int" name="TELESCOPE">     0</i>
   <i type="int" name="TAUPAR">     1</i>
   <i type="int" name="OMEGAPAR">    -1</i>
   <i name="LAMBDA">      1.00000000</i>
  </separator>
  <separator name="External order field" >
   <i name="OFIELD_KAPPA">      0.00000000</i>
   <v name="OFIELD_K">      0.00000000      0.00000000      0.00000000</v>
   <i name="OFIELD_Q6_NEAR">      0.00000000</i>
   <i name="OFIELD_Q6_FAR">      0.00000000</i>
   <i name="OFIELD_A">      0.00000000</i>
  </separator>
 </parameters>
 <atominfo>
  <atoms>      48 </atoms>
  <types>       2 </types>
  <array name="atoms" >
   <dimension dim="1">ion</dimension>
   <field type="string">element</field>
   <field type="int">atomtype</field>
   <set>
    <rc><c>Au</c><c>   1</c></rc>
    <rc><c>Au</c><c>   1</c></rc>
    <rc><c>Au</c><c>   1</c></rc>
    <rc><c>Au</c><c>   1</c></rc>
    <rc><c>Au</c><c>   1</c></rc>
    <rc><c>Au</c><c>   1</c></rc>
    <rc><c>Au</c><c>   1</c></rc>
    <rc><c>Au</c><c>   1</c></rc>
    <rc><c>Au</c><c>   1</c></rc>
    <rc><c>Au</c><c>   1</c></rc>
    <rc><c>Au</c><c>   1</c></rc>
    <rc><c>Au</c><c>   1</c></rc>
    <rc><c>Au</c><c>   1</c></rc>
    <rc><c>Au</c><c>   1</c></rc>
    <rc><c>Au</c><c>   1</c></rc>
    <rc><c>Au</c><c>   1</c></rc>
    <rc><c>Au</c><c>   1</c></rc>
    <rc><c>Au</c><c>   1</c></rc>
    <rc><c>Au</c><c>   1</c></rc>
    <rc><c>Au</c><c>   1</c></rc>
    <rc><c>Au</c><c>   1</c></rc>
    <rc><c>Au</c><c>   1</c></rc>
    <rc><c>Au</c><c>   1</c></rc>
    <rc><c>Au</c><c>   1</c></rc>
    <rc><c>Pd</c><c>   2</c></rc>
    <rc><c>Pd</c><c>   2</c></rc>
    <rc><c>Pd</c><c>   2</c></rc>
    <rc><c>Pd</c><c>   2</c></rc>
    <rc><c>Pd</c><c>   2</c></rc>
    <rc><c>Pd</c><c>   2</c></rc>
    <rc><c>Pd</c><c>   2</c></rc>
    <rc><c>Pd</c><c>   2</c></rc>
    <rc><c>Pd</c><c>   2</c></rc>
    <rc><c>Pd</c><c>   2</c></rc>
    <rc><c>Pd</c><c>   2</c></rc>
    <rc><c>Pd</c><c>   2</c></rc>
    <rc><c>Pd</c><c>   2</c></rc>
    <rc><c>Pd</c><c>   2</c></rc>
    <rc><c>Pd</c><c>   2</c></rc>
    <rc><c>Pd</c><c>   2</c></rc>
    <rc><c>Pd</c><c>   2</c></rc>
    <rc><c>Pd</c><c>   2</c></rc>
    <rc><c>Pd</c><c>   2</c></rc>
    <rc><c>Pd</c><c>   2</c></rc>
    <rc><c>Pd</c><c>   2</c></rc>
    <rc><c>Pd</c><c>   2</c></rc>
    <rc><c>Pd</c><c>   2</c></rc>
    <rc><c>Pd</c><c>   2</c></rc>
   </set>
  </array>
  <array name="atomtypes" >
   <dimension dim="1">type</dimension>
   <field type="int">atomspertype</field>
   <field type="string">element</field>
   <field>mass</field>
   <field>valence</field>
   <field type="string">pseudopotential</field>
   <set>
    <rc><c>  24</c><c>Au</c><c>    196.96600000</c><c>     11.00000000</c><c>  PAW_PBE Au 04Oct2007                  </c></rc>
    <rc><c>  24</c><c>Pd</c><c>    106.42000000</c><c>     10.00000000</c><c>  PAW_PBE Pd 04Jan2005                  </c></rc>
   </set>
  </array>
 </atominfo>
 <structure name="initialpos" >
  <crystal>
   <varray name="basis" >
    <v>      11.00258152       0.00000000       0.00000000 </v>
    <v>       5.50129076       9.52851510       0.00000000 </v>
    <v>       0.00000000       0.00000000      24.49178509 </v>
   </varray>
   <i name="volume">   2567.67623402 </i>
   <varray name="rec_basis" >
    <v>       0.09088776      -0.05247407       0.00000000 </v>
    <v>       0.00000000       0.10494815       0.00000000 </v>
    <v>       0.00000000       0.00000000       0.04083002 </v>
   </varray>
  </crystal>
  <varray name="positions" >
   <v>       0.08333333       0.08333333       0.40830017 </v>
   <v>       0.33333333       0.08333333       0.40830017 </v>
   <v>       0.00000000       0.00000000       0.59169983 </v>
   <v>       0.91666667       0.16666667       0.50000000 </v>
   <v>       0.91666667       0.66666667       0.50000000 </v>
   <v>       0.25000000       0.75000000       0.59169983 </v>
   <v>       0.33333333       0.58333333       0.40830017 </v>
   <v>       0.25000000       0.50000000       0.59169983 </v>
   <v>       0.75000000       0.50000000       0.59169983 </v>
   <v>       0.75000000       0.25000000       0.59169983 </v>
   <v>       0.66666667       0.41666667       0.50000000 </v>
   <v>       0.66666667       0.16666667       0.50000000 </v>
   <v>       0.00000000       0.75000000       0.59169983 </v>
   <v>       0.41666667       0.91666667       0.50000000 </v>
   <v>       0.58333333       0.83333333       0.40830017 </v>
   <v>       0.50000000       0.50000000       0.59169983 </v>
   <v>       0.41666667       0.66666667       0.50000000 </v>
   <v>       0.58333333       0.58333333       0.40830017 </v>
   <v>       0.50000000       0.25000000       0.59169983 </v>
   <v>       0.58333333       0.33333333       0.40830017 </v>
   <v>       0.41666667       0.16666667       0.50000000 </v>
   <v>       0.58333333       0.08333333       0.40830017 </v>
   <v>       0.16666667       0.91666667       0.50000000 </v>
   <v>       0.83333333       0.08333333       0.40830017 </v>
   <v>       0.91666667       0.91666667       0.50000000 </v>
   <v>       0.41666667       0.41666667       0.50000000 </v>
   <v>       0.50000000       0.00000000       0.59169983 </v>
   <v>       0.16666667       0.16666667       0.50000000 </v>
   <v>       0.16666667       0.41666667       0.50000000 </v>
   <v>       0.66666667       0.91666667       0.50000000 </v>
   <v>       0.33333333       0.33333333       0.40830017 </v>
   <v>       0.33333333       0.83333333       0.40830017 </v>
   <v>       0.08333333       0.83333333       0.40830017 </v>
   <v>       0.25000000       0.00000000       0.59169983 </v>
   <v>       0.00000000       0.50000000       0.59169983 </v>
   <v>       0.91666667       0.41666667       0.50000000 </v>
   <v>       0.08333333       0.58333333       0.40830017 </v>
   <v>       0.50000000       0.75000000       0.59169983 </v>
   <v>       0.00000000       0.25000000       0.59169983 </v>
   <v>       0.75000000       0.00000000       0.59169983 </v>
   <v>       0.83333333       0.33333333       0.40830017 </v>
   <v>       0.08333333       0.33333333       0.40830017 </v>
   <v>       0.83333333       0.58333333       0.40830017 </v>
   <v>       0.66666667       0.66666667       0.50000000 </v>
   <v>       0.83333333       0.83333333       0.40830017 </v>
   <v>       0.25000000       0.25000000       0.59169983 </v>
   <v>       0.16666667       0.66666667       0.50000000 </v>
   <v>       0.75000000       0.75000000       0.59169983 </v>
  </varray>
  <varray name="selective"  type="logical" >
   <v type="logical" >  F  F  F </v>
   <v type="logical" >  F  F  F </v>
   <v type="logical" >  T  T  T </v>
   <v type="logical" >  T  T  T </v>
   <v type="logical" >  T  T  T </v>
   <v type="logical" >  T  T  T </v>
   <v type="logical" >  F  F  F </v>
   <v type="logical" >  T  T  T </v>
   <v type="logical" >  T  T  T </v>
   <v type="logical" >  T  T  T </v>
   <v type="logical" >  T  T  T </v>
   <v type="logical" >  T  T  T </v>
   <v type="logical" >  T  T  T </v>
   <v type="logical" >  T  T  T </v>
   <v type="logical" >  F  F  F </v>
   <v type="logical" >  T  T  T </v>
   <v type="logical" >  T  T  T </v>
   <v type="logical" >  F  F  F </v>
   <v type="logical" >  T  T  T </v>
   <v type="logical" >  F  F  F </v>
   <v type="logical" >  T  T  T </v>
   <v type="logical" >  F  F  F </v>
   <v type="logical" >  T  T  T </v>
   <v type="logical" >  F  F  F </v>
   <v type="logical" >  T  T  T </v>
   <v type="logical" >  T  T  T </v>
   <v type="logical" >  T  T  T </v>
   <v type="logical" >  T  T  T </v>
   <v type="logical" >  T  T  T </v>
   <v type="logical" >  T  T  T </v>
   <v type="logical" >  F  F  F </v>
   <v type="logical" >  F  F  F </v>
   <v type="logical" >  F  F  F </v>
   <v type="logical" >  T  T  T </v>
   <v type="logical" >  T  T  T </v>
   <v type="logical" >  T  T  T </v>
   <v type="logical" >  F  F  F </v>
   <v type="logical" >  T  T  T </v>
   <v type="logical" >  T  T  T </v>
   <v type="logical" >  T  T  T </v>
   <v type="logical" >  F  F  F </v>
   <v type="logical" >  F  F  F </v>
   <v type="logical" >  F  F  F </v>
   <v type="logical" >  T  T  T </v>
   <v type="logical" >  F  F  F </v>
   <v type="logical" >  T  T  T </v>
   <v type="logical" >  T  T  T </v>
   <v type="logical" >  T  T  T </v>
  </varray>
  <nose>
   <v>      -3.00000000       0.00000000       0.00010000       0.00010000 </v>
  </nose>
 </structure>
 <calculation>
  <scstep>
   <time name="dav">    9.17    9.18</time>
   <time name="total">    9.23    9.24</time>
   <dipole>
    <v name="dipole">      0.00000000       0.00000000       0.00000000 </v>
    <i name="Tr[quadrupol]"> -10324.39976130 </i>
    <i name="Echarged">      0.00000000 </i>
    <i name="Edipol_quadrupol">      0.00000000 </i>
    <i name="Eion">      0.00000000 </i>
   </dipole>
   <energy>
    <i name="alphaZ">    805.86936429 </i>
    <i name="ewald"> 200175.20056588 </i>
    <i name="hartreedc">-242590.05189405 </i>
    <i name="XCdc">   -327.62572914 </i>
    <i name="pawpsdc">  40340.05962942 </i>
    <i name="pawaedc"> -38292.62782345 </i>
    <i name="eentropy">     -0.15170191 </i>
    <i name="bandstr">   1429.26639627 </i>
    <i name="atom">  41659.78587232 </i>
    <i name="e_fr_energy">   3199.72467962 </i>
    <i name="e_wo_entrp">   3199.87638153 </i>
    <i name="e_0_energy">   3199.80053058 </i>
   </energy>
  </scstep>
  <scstep>
   <time name="dav">   10.89   10.89</time>
   <time name="total">   10.89   10.90</time>
   <dipole>
    <v name="dipole">      0.00000000       0.00000000       0.00000000 </v>
    <i name="Tr[quadrupol]"> -10324.39976130 </i>
    <i name="Echarged">      0.00000000 </i>
    <i name="Edipol_quadrupol">      0.00000000 </i>
    <i name="Eion">      0.00000000 </i>
   </dipole>
   <energy>
    <i name="e_fr_energy">     14.37775453 </i>
    <i name="e_wo_entrp">     14.50615850 </i>
    <i name="e_0_energy">     14.44195652 </i>
   </energy>
  </scstep>
  <scstep>
   <time name="dav">   11.17   11.21</time>
   <time name="total">   11.17   11.22</time>
   <dipole>
    <v name="dipole">      0.00000000       0.00000000       0.00000000 </v>
    <i name="Tr[quadrupol]"> -10324.39976130 </i>
    <i name="Echarged">      0.00000000 </i>
    <i name="Edipol_quadrupol">      0.00000000 </i>
    <i name="Eion">      0.00000000 </i>
   </dipole>
   <energy>
    <i name="e_fr_energy">   -201.06731840 </i>
    <i name="e_wo_entrp">   -200.86597849 </i>
    <i name="e_0_energy">   -200.96664845 </i>
   </energy>
  </scstep>
  <scstep>
   <time name="dav">   10.85   10.94</time>
   <time name="total">   10.86   10.94</time>
   <dipole>
    <v name="dipole">      0.00000000       0.00000000       0.00000000 </v>
    <i name="Tr[quadrupol]"> -10324.39976130 </i>
    <i name="Echarged">      0.00000000 </i>
    <i name="Edipol_quadrupol">      0.00000000 </i>
    <i name="Eion">      0.00000000 </i>
   </dipole>
   <energy>
    <i name="e_fr_energy">   -206.84186952 </i>
    <i name="e_wo_entrp">   -206.63283279 </i>
    <i name="e_0_energy">   -206.73735115 </i>
   </energy>
  </scstep>
  <scstep>
   <time name="dav">   11.17   11.18</time>
   <time name="total">   11.48   11.49</time>
   <dipole>
    <v name="dipole">      0.00000000       0.00000000       0.00000000 </v>
    <i name="Tr[quadrupol]"> -10324.39976130 </i>
    <i name="Echarged">      0.00000000 </i>
    <i name="Edipol_quadrupol">      0.00000000 </i>
    <i name="Eion">      0.00000000 </i>
   </dipole>
   <energy>
    <i name="e_fr_energy">   -207.01201219 </i>
    <i name="e_wo_entrp">   -206.80319676 </i>
    <i name="e_0_energy">   -206.90760448 </i>
   </energy>
  </scstep>
  <scstep>
   <time name="diag">    1.62    1.62</time>
   <time name="diis">    4.38    4.38</time>
   <time name="orth">    0.41    0.41</time>
   <time name="total">    6.77    6.77</time>
   <dipole>
    <v name="dipole">      0.00000000       0.00000000      -0.00123396 </v>
    <i name="Tr[quadrupol]"> -10325.76677937 </i>
    <i name="Echarged">      0.00000000 </i>
    <i name="Edipol_quadrupol">      0.00000000 </i>
    <i name="Eion">      0.00000000 </i>
   </dipole>
   <energy>
    <i name="e_fr_energy">   -201.35844765 </i>
    <i name="e_wo_entrp">   -201.13586056 </i>
    <i name="e_0_energy">   -201.24715411 </i>
   </energy>
  </scstep>
  <scstep>
   <time name="diag">    1.65    1.66</time>
   <time name="diis">    4.41    4.42</time>
   <time name="orth">    0.40    0.41</time>
   <time name="total">    6.83    6.84</time>
   <dipole>
    <v name="dipole">      0.00000000       0.00000000       0.08555527 </v>
    <i name="Tr[quadrupol]"> -10324.37980136 </i>
    <i name="Echarged">      0.00000000 </i>
    <i name="Edipol_quadrupol">      0.00000000 </i>
    <i name="Eion">      0.00000000 </i>
   </dipole>
   <energy>
    <i name="e_fr_energy">   -198.04256949 </i>
    <i name="e_wo_entrp">   -197.81861742 </i>
    <i name="e_0_energy">   -197.93059345 </i>
   </energy>
  </scstep>
  <scstep>
   <time name="diag">    1.64    1.64</time>
   <time name="diis">    4.43    4.43</time>
   <time name="orth">    0.41    0.41</time>
   <time name="total">    6.84    6.85</time>
   <dipole>
    <v name="dipole">      0.00000000       0.00000000      -0.19227719 </v>
    <i name="Tr[quadrupol]"> -10326.50531049 </i>
    <i name="Echarged">      0.00000000 </i>
    <i name="Edipol_quadrupol">      0.00000000 </i>
    <i name="Eion">      0.00000000 </i>
   </dipole>
   <energy>
    <i name="e_fr_energy">   -199.38667372 </i>
    <i name="e_wo_entrp">   -199.14332657 </i>
    <i name="e_0_energy">   -199.26500014 </i>
   </energy>
  </scstep>
  <scstep>
   <time name="diag">    1.63    1.63</time>
   <time name="diis">    4.23    4.35</time>
   <time name="orth">    0.41    0.41</time>
   <time name="total">    6.64    6.75</time>
   <dipole>
    <v name="dipole">      0.00000000       0.00000000       0.47079202 </v>
    <i name="Tr[quadrupol]"> -10327.38540404 </i>
    <i name="Echarged">      0.00000000 </i>
    <i name="Edipol_quadrupol">      0.00000000 </i>
    <i name="Eion">      0.00000000 </i>
   </dipole>
   <energy>
    <i name="e_fr_energy">   -194.23685857 </i>
    <i name="e_wo_entrp">   -194.05362089 </i>
    <i name="e_0_energy">   -194.14523973 </i>
   </energy>
  </scstep>
  <scstep>
   <time name="diag">    1.72    1.73</time>
   <time name="diis">    4.71    4.74</time>
   <time name="orth">    0.40    0.40</time>
   <time name="total">    7.19    7.23</time>
   <dipole>
    <v name="dipole">      0.00000000       0.00000000      -0.44589549 </v>
    <i name="Tr[quadrupol]"> -10327.41133671 </i>
    <i name="Echarged">      0.00000000 </i>
    <i name="Edipol_quadrupol">      0.00000000 </i>
    <i name="Eion">      0.00000000 </i>
   </dipole>
   <energy>
    <i name="e_fr_energy">   -191.59757948 </i>
    <i name="e_wo_entrp">   -191.39983712 </i>
    <i name="e_0_energy">   -191.49870830 </i>
   </energy>
  </scstep>
  <scstep>
   <time name="diag">    1.64    1.64</time>
   <time name="diis">    4.43    4.43</time>
   <time name="orth">    0.40    0.40</time>
   <time name="total">    6.83    6.83</time>
   <dipole>
    <v name="dipole">      0.00000000       0.00000000       0.22828224 </v>
    <i name="Tr[quadrupol]"> -10327.58901765 </i>
    <i name="Echarged">      0.00000000 </i>
    <i name="Edipol_quadrupol">      0.00000000 </i>
    <i name="Eion">      0.00000000 </i>
   </dipole>
   <energy>
    <i name="e_fr_energy">   -189.82184225 </i>
    <i name="e_wo_entrp">   -189.59084783 </i>
    <i name="e_0_energy">   -189.70634504 </i>
   </energy>
  </scstep>
  <scstep>
   <time name="diag">    1.63    1.63</time>
   <time name="diis">    4.40    4.41</time>
   <time name="orth">    0.40    0.40</time>
   <time name="total">    6.79    6.80</time>
   <dipole>
    <v name="dipole">      0.00000000       0.00000000      -0.09761979 </v>
    <i name="Tr[quadrupol]"> -10327.71813895 </i>
    <i name="Echarged">      0.00000000 </i>
    <i name="Edipol_quadrupol">      0.00000000 </i>
    <i name="Eion">      0.00000000 </i>
   </dipole>
   <energy>
    <i name="e_fr_energy">   -188.64120601 </i>
    <i name="e_wo_entrp">   -188.39619720 </i>
    <i name="e_0_energy">   -188.51870160 </i>
   </energy>
  </scstep>
  <scstep>
   <time name="diag">    1.62    1.62</time>
   <time name="diis">    4.42    4.43</time>
   <time name="orth">    0.40    0.40</time>
   <time name="total">    6.80    6.81</time>
   <dipole>
    <v name="dipole">      0.00000000       0.00000000      -0.01247282 </v>
    <i name="Tr[quadrupol]"> -10327.81979849 </i>
    <i name="Echarged">      0.00000000 </i>
    <i name="Edipol_quadrupol">      0.00000000 </i>
    <i name="Eion">      0.00000000 </i>
   </dipole>
   <energy>
    <i name="e_fr_energy">   -188.37130431 </i>
    <i name="e_wo_entrp">   -188.11873007 </i>
    <i name="e_0_energy">   -188.24501719 </i>
   </energy>
  </scstep>
  <scstep>
   <time name="diag">    1.61    1.61</time>
   <time name="diis">    4.35    4.35</time>
   <time name="orth">    0.40    0.40</time>
   <time name="total">    6.71    6.72</time>
   <dipole>
    <v name="dipole">      0.00000000       0.00000000      -0.00521061 </v>
    <i name="Tr[quadrupol]"> -10328.15819987 </i>
    <i name="Echarged">      0.00000000 </i>
    <i name="Edipol_quadrupol">      0.00000000 </i>
    <i name="Eion">      0.00000000 </i>
   </dipole>
   <energy>
    <i name="e_fr_energy">   -188.32397571 </i>
    <i name="e_wo_entrp">   -188.06102800 </i>
    <i name="e_0_energy">   -188.19250186 </i>
   </energy>
  </scstep>
  <scstep>
   <time name="diag">    1.64    1.64</time>
   <time name="diis">    4.27    4.38</time>
   <time name="orth">    0.40    0.40</time>
   <time name="total">    6.66    6.78</time>
   <dipole>
    <v name="dipole">      0.00000000       0.00000000       0.00143782 </v>
    <i name="Tr[quadrupol]"> -10328.36773170 </i>
    <i name="Echarged">      0.00000000 </i>
    <i name="Edipol_quadrupol">      0.00000000 </i>
    <i name="Eion">      0.00000000 </i>
   </dipole>
   <energy>
    <i name="e_fr_energy">   -188.31123220 </i>
    <i name="e_wo_entrp">   -188.05370230 </i>
    <i name="e_0_energy">   -188.18246725 </i>
   </energy>
  </scstep>
  <scstep>
   <time name="diag">    1.63    1.63</time>
   <time name="diis">    4.43    4.43</time>
   <time name="orth">    0.40    0.40</time>
   <time name="total">    6.82    6.82</time>
   <dipole>
    <v name="dipole">      0.00000000       0.00000000      -0.00883339 </v>
    <i name="Tr[quadrupol]"> -10328.66437532 </i>
    <i name="Echarged">      0.00000000 </i>
    <i name="Edipol_quadrupol">      0.00000000 </i>
    <i name="Eion">      0.00000000 </i>
   </dipole>
   <energy>
    <i name="e_fr_energy">   -188.30950012 </i>
    <i name="e_wo_entrp">   -188.05391068 </i>
    <i name="e_0_energy">   -188.18170540 </i>
   </energy>
  </scstep>
  <scstep>
   <time name="diag">    1.63    1.63</time>
   <time name="diis">    4.43    4.44</time>
   <time name="orth">    0.40    0.40</time>
   <time name="total">    6.82    6.83</time>
   <dipole>
    <v name="dipole">      0.00000000       0.00000000      -0.00846546 </v>
    <i name="Tr[quadrupol]"> -10328.75931286 </i>
    <i name="Echarged">      0.00000000 </i>
    <i name="Edipol_quadrupol">      0.00000000 </i>
    <i name="Eion">      0.00000000 </i>
   </dipole>
   <energy>
    <i name="e_fr_energy">   -188.25809321 </i>
    <i name="e_wo_entrp">   -187.99120508 </i>
    <i name="e_0_energy">   -188.12464915 </i>
   </energy>
  </scstep>
  <scstep>
   <time name="diag">    1.61    1.62</time>
   <time name="diis">    4.37    4.38</time>
   <time name="orth">    0.41    0.42</time>
   <time name="total">    6.88    6.90</time>
   <dipole>
    <v name="dipole">      0.00000000       0.00000000      -0.00733254 </v>
    <i name="Tr[quadrupol]"> -10328.85251700 </i>
    <i name="Echarged">      0.00000000 </i>
    <i name="Edipol_quadrupol">      0.00000000 </i>
    <i name="Eion">      0.00000000 </i>
   </dipole>
   <energy>
    <i name="e_fr_energy">   -188.25032690 </i>
    <i name="e_wo_entrp">   -187.98551280 </i>
    <i name="e_0_energy">   -188.11791985 </i>
   </energy>
  </scstep>
  <scstep>
   <time name="diag">    1.99    2.00</time>
   <time name="diis">    4.37    4.37</time>
   <time name="orth">    0.39    0.39</time>
   <time name="total">    7.13    7.14</time>
   <dipole>
    <v name="dipole">      0.00000000       0.00000000      -0.00447729 </v>
    <i name="Tr[quadrupol]"> -10328.98945399 </i>
    <i name="Echarged">      0.00000000 </i>
    <i name="Edipol_quadrupol">      0.00000000 </i>
    <i name="Eion">      0.00000000 </i>
   </dipole>
   <energy>
    <i name="e_fr_energy">   -188.24697060 </i>
    <i name="e_wo_entrp">   -187.97954744 </i>
    <i name="e_0_energy">   -188.11325902 </i>
   </energy>
  </scstep>
  <scstep>
   <time name="diag">    1.63    1.63</time>
   <time name="diis">    4.34    4.34</time>
   <time name="orth">    0.39    0.39</time>
   <time name="total">    6.72    6.72</time>
   <dipole>
    <v name="dipole">      0.00000000       0.00000000      -0.00164636 </v>
    <i name="Tr[quadrupol]"> -10329.06612559 </i>
    <i name="Echarged">      0.00000000 </i>
    <i name="Edipol_quadrupol">      0.00000000 </i>
    <i name="Eion">      0.00000000 </i>
   </dipole>
   <energy>
    <i name="e_fr_energy">   -188.24594440 </i>
    <i name="e_wo_entrp">   -187.98017835 </i>
    <i name="e_0_energy">   -188.11306138 </i>
   </energy>
  </scstep>
  <scstep>
   <time name="diag">    1.58    1.66</time>
   <time name="diis">    4.41    4.42</time>
   <time name="orth">    0.39    0.39</time>
   <time name="total">    6.74    6.84</time>
   <dipole>
    <v name="dipole">      0.00000000       0.00000000      -0.00153597 </v>
    <i name="Tr[quadrupol]"> -10329.17618223 </i>
    <i name="Echarged">      0.00000000 </i>
    <i name="Edipol_quadrupol">      0.00000000 </i>
    <i name="Eion">      0.00000000 </i>
   </dipole>
   <energy>
    <i name="e_fr_energy">   -188.24579441 </i>
    <i name="e_wo_entrp">   -187.97928451 </i>
    <i name="e_0_energy">   -188.11253946 </i>
   </energy>
  </scstep>
  <scstep>
   <time name="diag">    1.61    1.61</time>
   <time name="diis">    4.44    4.44</time>
   <time name="orth">    0.39    0.39</time>
   <time name="total">    6.80    6.81</time>
   <dipole>
    <v name="dipole">      0.00000000       0.00000000      -0.00279876 </v>
    <i name="Tr[quadrupol]"> -10329.26418388 </i>
    <i name="Echarged">      0.00000000 </i>
    <i name="Edipol_quadrupol">      0.00000000 </i>
    <i name="Eion">      0.00000000 </i>
   </dipole>
   <energy>
    <i name="e_fr_energy">   -188.24566438 </i>
    <i name="e_wo_entrp">   -187.97939939 </i>
    <i name="e_0_energy">   -188.11253189 </i>
   </energy>
  </scstep>
  <scstep>
   <time name="diag">    1.64    1.64</time>
   <time name="diis">    4.44    4.44</time>
   <time name="orth">    0.39    0.39</time>
   <time name="total">    6.83    6.84</time>
   <dipole>
    <v name="dipole">      0.00000000       0.00000000      -0.00376737 </v>
    <i name="Tr[quadrupol]"> -10329.30407323 </i>
    <i name="Echarged">      0.00000000 </i>
    <i name="Edipol_quadrupol">      0.00000000 </i>
    <i name="Eion">      0.00000000 </i>
   </dipole>
   <energy>
    <i name="e_fr_energy">   -188.24583076 </i>
    <i name="e_wo_entrp">   -187.97942510 </i>
    <i name="e_0_energy">   -188.11262793 </i>
   </energy>
  </scstep>
  <scstep>
   <time name="diag">    1.63    1.63</time>
   <time name="diis">    4.44    4.44</time>
   <time name="orth">    0.39    0.39</time>
   <time name="total">    6.82    6.83</time>
   <dipole>
    <v name="dipole">      0.00000000       0.00000000      -0.00243977 </v>
    <i name="Tr[quadrupol]"> -10329.38675119 </i>
    <i name="Echarged">      0.00000000 </i>
    <i name="Edipol_quadrupol">      0.00000000 </i>
    <i name="Eion">      0.00000000 </i>
   </dipole>
   <energy>
    <i name="e_fr_energy">   -188.24629894 </i>
    <i name="e_wo_entrp">   -187.98004300 </i>
    <i name="e_0_energy">   -188.11317097 </i>
   </energy>
  </scstep>
  <scstep>
   <time name="diag">    1.62    1.62</time>
   <time name="diis">    4.33    4.33</time>
   <time name="orth">    0.39    0.39</time>
   <time name="total">    6.70    6.70</time>
   <dipole>
    <v name="dipole">      0.00000000       0.00000000      -0.00211134 </v>
    <i name="Tr[quadrupol]"> -10329.43176135 </i>
    <i name="Echarged">      0.00000000 </i>
    <i name="Edipol_quadrupol">      0.00000000 </i>
    <i name="Eion">      0.00000000 </i>
   </dipole>
   <energy>
    <i name="e_fr_energy">   -188.24666989 </i>
    <i name="e_wo_entrp">   -187.98035235 </i>
    <i name="e_0_energy">   -188.11351112 </i>
   </energy>
  </scstep>
  <scstep>
   <time name="diag">    1.61    1.61</time>
   <time name="diis">    4.42    4.43</time>
   <time name="orth">    0.39    0.39</time>
   <time name="total">    6.78    6.79</time>
   <dipole>
    <v name="dipole">      0.00000000       0.00000000      -0.00202827 </v>
    <i name="Tr[quadrupol]"> -10329.49824521 </i>
    <i name="Echarged">      0.00000000 </i>
    <i name="Edipol_quadrupol">      0.00000000 </i>
    <i name="Eion">      0.00000000 </i>
   </dipole>
   <energy>
    <i name="e_fr_energy">   -188.24724597 </i>
    <i name="e_wo_entrp">   -187.98093079 </i>
    <i name="e_0_energy">   -188.11408838 </i>
   </energy>
  </scstep>
  <scstep>
   <time name="diag">    1.60    1.68</time>
   <time name="diis">    4.24    4.25</time>
   <time name="orth">    0.47    0.48</time>
   <time name="total">    6.79    6.90</time>
   <dipole>
    <v name="dipole">      0.00000000       0.00000000      -0.00207422 </v>
    <i name="Tr[quadrupol]"> -10329.54539598 </i>
    <i name="Echarged">      0.00000000 </i>
    <i name="Edipol_quadrupol">      0.00000000 </i>
    <i name="Eion">      0.00000000 </i>
   </dipole>
   <energy>
    <i name="e_fr_energy">   -188.24772929 </i>
    <i name="e_wo_entrp">   -187.98133400 </i>
    <i name="e_0_energy">   -188.11453165 </i>
   </energy>
  </scstep>
  <scstep>
   <time name="diag">    1.96    1.97</time>
   <time name="diis">    4.34    4.34</time>
   <time name="orth">    0.39    0.39</time>
   <time name="total">    7.06    7.09</time>
   <dipole>
    <v name="dipole">      0.00000000       0.00000000      -0.00184063 </v>
    <i name="Tr[quadrupol]"> -10329.62013953 </i>
    <i name="Echarged">      0.00000000 </i>
    <i name="Edipol_quadrupol">      0.00000000 </i>
    <i name="Eion">      0.00000000 </i>
   </dipole>
   <energy>
    <i name="e_fr_energy">   -188.24846906 </i>
    <i name="e_wo_entrp">   -187.98208299 </i>
    <i name="e_0_energy">   -188.11527603 </i>
   </energy>
  </scstep>
  <scstep>
   <time name="diag">    1.61    1.61</time>
   <time name="diis">    3.88    3.88</time>
   <time name="orth">    0.39    0.39</time>
   <time name="total">    6.24    6.25</time>
   <dipole>
    <v name="dipole">      0.00000000       0.00000000      -0.00149805 </v>
    <i name="Tr[quadrupol]"> -10329.65814272 </i>
    <i name="Echarged">      0.00000000 </i>
    <i name="Edipol_quadrupol">      0.00000000 </i>
    <i name="Eion">      0.00000000 </i>
   </dipole>
   <energy>
    <i name="e_fr_energy">   -188.24886748 </i>
    <i name="e_wo_entrp">   -187.98241680 </i>
    <i name="e_0_energy">   -188.11564214 </i>
   </energy>
  </scstep>
  <scstep>
   <time name="diag">    1.60    1.60</time>
   <time name="diis">    3.63    3.63</time>
   <time name="orth">    0.39    0.39</time>
   <time name="total">    5.98    5.99</time>
   <dipole>
    <v name="dipole">      0.00000000       0.00000000      -0.00137297 </v>
    <i name="Tr[quadrupol]"> -10329.68810572 </i>
    <i name="Echarged">      0.00000000 </i>
    <i name="Edipol_quadrupol">      0.00000000 </i>
    <i name="Eion">      0.00000000 </i>
   </dipole>
   <energy>
    <i name="e_fr_energy">   -188.24911111 </i>
    <i name="e_wo_entrp">   -187.98269995 </i>
    <i name="e_0_energy">   -188.11590553 </i>
   </energy>
  </scstep>
  <scstep>
   <time name="diag">    1.63    1.64</time>
   <time name="diis">    3.29    3.29</time>
   <time name="orth">    0.39    0.39</time>
   <time name="total">    5.68    5.68</time>
   <dipole>
    <v name="dipole">      0.00000000       0.00000000      -0.00136187 </v>
    <i name="Tr[quadrupol]"> -10329.70645002 </i>
    <i name="Echarged">      0.00000000 </i>
    <i name="Edipol_quadrupol">      0.00000000 </i>
    <i name="Eion">      0.00000000 </i>
   </dipole>
   <energy>
    <i name="e_fr_energy">   -188.24925330 </i>
    <i name="e_wo_entrp">   -187.98282590 </i>
    <i name="e_0_energy">   -188.11603960 </i>
   </energy>
  </scstep>
  <scstep>
   <time name="diag">    1.64    1.64</time>
   <time name="diis">    2.82    2.82</time>
   <time name="orth">    0.39    0.39</time>
   <time name="total">    5.21    5.22</time>
   <dipole>
    <v name="dipole">      0.00000000       0.00000000      -0.00133929 </v>
    <i name="Tr[quadrupol]"> -10329.71258726 </i>
    <i name="Echarged">      0.00000000 </i>
    <i name="Edipol_quadrupol">      0.00000000 </i>
    <i name="Eion">      0.00000000 </i>
   </dipole>
   <energy>
    <i name="e_fr_energy">   -188.24929547 </i>
    <i name="e_wo_entrp">   -187.98287452 </i>
    <i name="e_0_energy">   -188.11608500 </i>
   </energy>
  </scstep>
  <scstep>
   <time name="diag">    1.62    1.62</time>
   <time name="diis">    2.66    2.77</time>
   <time name="orth">    0.39    0.39</time>
   <time name="total">    5.04    5.15</time>
   <dipole>
    <v name="dipole">      0.00000000       0.00000000      -0.00125291 </v>
    <i name="Tr[quadrupol]"> -10329.72145783 </i>
    <i name="Echarged">      0.00000000 </i>
    <i name="Edipol_quadrupol">      0.00000000 </i>
    <i name="Eion">      0.00000000 </i>
   </dipole>
   <energy>
    <i name="e_fr_energy">   -188.24936944 </i>
    <i name="e_wo_entrp">   -187.98293633 </i>
    <i name="e_0_energy">   -188.11615288 </i>
   </energy>
  </scstep>
  <scstep>
   <time name="diag">    1.61    1.61</time>
   <time name="diis">    2.60    2.60</time>
   <time name="orth">    0.39    0.39</time>
   <time name="total">    4.96    4.97</time>
   <dipole>
    <v name="dipole">      0.00000000       0.00000000      -0.00122494 </v>
    <i name="Tr[quadrupol]"> -10329.72430136 </i>
    <i name="Echarged">      0.00000000 </i>
    <i name="Edipol_quadrupol">      0.00000000 </i>
    <i name="Eion">      0.00000000 </i>
   </dipole>
   <energy>
    <i name="e_fr_energy">   -188.24938826 </i>
    <i name="e_wo_entrp">   -187.98296076 </i>
    <i name="e_0_energy">   -188.11617451 </i>
   </energy>
  </scstep>
  <scstep>
   <time name="diag">    1.63    1.63</time>
   <time name="diis">    2.68    2.68</time>
   <time name="orth">    0.39    0.39</time>
   <time name="total">    5.08    5.09</time>
   <dipole>
    <v name="dipole">      0.00000000       0.00000000      -0.00119577 </v>
    <i name="Tr[quadrupol]"> -10329.72951036 </i>
    <i name="Echarged">      0.00000000 </i>
    <i name="Edipol_quadrupol">      0.00000000 </i>
    <i name="Eion">      0.00000000 </i>
   </dipole>
   <energy>
    <i name="e_fr_energy">   -188.24941532 </i>
    <i name="e_wo_entrp">   -187.98298774 </i>
    <i name="e_0_energy">   -188.11620153 </i>
   </energy>
  </scstep>
  <scstep>
   <time name="diag">    1.64    1.64</time>
   <time name="diis">    2.31    2.31</time>
   <time name="orth">    0.39    0.39</time>
   <time name="total">    4.71    4.71</time>
   <dipole>
    <v name="dipole">      0.00000000       0.00000000      -0.00116177 </v>
    <i name="Tr[quadrupol]"> -10329.73220735 </i>
    <i name="Echarged">      0.00000000 </i>
    <i name="Edipol_quadrupol">      0.00000000 </i>
    <i name="Eion">      0.00000000 </i>
   </dipole>
   <energy>
    <i name="e_fr_energy">   -188.24942409 </i>
    <i name="e_wo_entrp">   -187.98299855 </i>
    <i name="e_0_energy">   -188.11621132 </i>
   </energy>
  </scstep>
  <scstep>
   <time name="diag">    1.62    1.62</time>
   <time name="diis">    2.42    2.42</time>
   <time name="orth">    0.39    0.39</time>
   <time name="total">    4.79    4.80</time>
   <dipole>
    <v name="dipole">      0.00000000       0.00000000      -0.00112769 </v>
    <i name="Tr[quadrupol]"> -10329.73564107 </i>
    <i name="Echarged">      0.00000000 </i>
    <i name="Edipol_quadrupol">      0.00000000 </i>
    <i name="Eion">      0.00000000 </i>
   </dipole>
   <energy>
    <i name="e_fr_energy">   -188.24942911 </i>
    <i name="e_wo_entrp">   -187.98300248 </i>
    <i name="e_0_energy">   -188.11621580 </i>
   </energy>
  </scstep>
  <scstep>
   <time name="diag">    1.62    1.62</time>
   <time name="diis">    2.05    2.06</time>
   <time name="orth">    0.44    0.45</time>
   <time name="total">    4.17    4.18</time>
   <dipole>
    <v name="dipole">      0.00000000       0.00000000      -0.00111249 </v>
    <i name="Tr[quadrupol]"> -10329.73715922 </i>
    <i name="Echarged">      0.00000000 </i>
    <i name="Edipol_quadrupol">      0.00000000 </i>
    <i name="Eion">      0.00000000 </i>
   </dipole>
   <energy>
    <i name="alphaZ">    805.86936424 </i>
    <i name="ewald"> 200175.20056588 </i>
    <i name="hartreedc">-242360.98464511 </i>
    <i name="XCdc">   -343.39415871 </i>
    <i name="pawpsdc">  49395.19685824 </i>
    <i name="pawaedc"> -47473.49340326 </i>
    <i name="eentropy">     -0.26642587 </i>
    <i name="bandstr">  -2046.16345756 </i>
    <i name="atom">  41659.78587232 </i>
    <i name="e_fr_energy">   -188.24942981 </i>
    <i name="e_wo_entrp">   -187.98300394 </i>
    <i name="e_0_energy">   -188.11621688 </i>
   </energy>
  </scstep>
  <structure>
   <crystal>
    <varray name="basis" >
     <v>      11.00258152       0.00000000       0.00000000 </v>
     <v>       5.50129076       9.52851510       0.00000000 </v>
     <v>       0.00000000       0.00000000      24.49178509 </v>
    </varray>
    <i name="volume">   2567.67623402 </i>
    <varray name="rec_basis" >
     <v>       0.09088776      -0.05247407       0.00000000 </v>
     <v>       0.00000000       0.10494815       0.00000000 </v>
     <v>       0.00000000       0.00000000       0.04083002 </v>
    </varray>
   </crystal>
   <varray name="positions" >
    <v>       0.08333333       0.08333333       0.40830017 </v>
    <v>       0.33333333       0.08333333       0.40830017 </v>
    <v>       0.00000000       0.00000000       0.59169983 </v>
    <v>       0.91666667       0.16666667       0.50000000 </v>
    <v>       0.91666667       0.66666667       0.50000000 </v>
    <v>       0.25000000       0.75000000       0.59169983 </v>
    <v>       0.33333333       0.58333333       0.40830017 </v>
    <v>       0.25000000       0.50000000       0.59169983 </v>
    <v>       0.75000000       0.50000000       0.59169983 </v>
    <v>       0.75000000       0.25000000       0.59169983 </v>
    <v>       0.66666667       0.41666667       0.50000000 </v>
    <v>       0.66666667       0.16666667       0.50000000 </v>
    <v>       0.00000000       0.75000000       0.59169983 </v>
    <v>       0.41666667       0.91666667       0.50000000 </v>
    <v>       0.58333333       0.83333333       0.40830017 </v>
    <v>       0.50000000       0.50000000       0.59169983 </v>
    <v>       0.41666667       0.66666667       0.50000000 </v>
    <v>       0.58333333       0.58333333       0.40830017 </v>
    <v>       0.50000000       0.25000000       0.59169983 </v>
    <v>       0.58333333       0.33333333       0.40830017 </v>
    <v>       0.41666667       0.16666667       0.50000000 </v>
    <v>       0.58333333       0.08333333       0.40830017 </v>
    <v>       0.16666667       0.91666667       0.50000000 </v>
    <v>       0.83333333       0.08333333       0.40830017 </v>
    <v>       0.91666667       0.91666667       0.50000000 </v>
    <v>       0.41666667       0.41666667       0.50000000 </v>
    <v>       0.50000000       0.00000000       0.59169983 </v>
    <v>       0.16666667       0.16666667       0.50000000 </v>
    <v>       0.16666667       0.41666667       0.50000000 </v>
    <v>       0.66666667       0.91666667       0.50000000 </v>
    <v>       0.33333333       0.33333333       0.40830017 </v>
    <v>       0.33333333       0.83333333       0.40830017 </v>
    <v>       0.08333333       0.83333333       0.40830017 </v>
    <v>       0.25000000       0.00000000       0.59169983 </v>
    <v>       0.00000000       0.50000000       0.59169983 </v>
    <v>       0.91666667       0.41666667       0.50000000 </v>
    <v>       0.08333333       0.58333333       0.40830017 </v>
    <v>       0.50000000       0.75000000       0.59169983 </v>
    <v>       0.00000000       0.25000000       0.59169983 </v>
    <v>       0.75000000       0.00000000       0.59169983 </v>
    <v>       0.83333333       0.33333333       0.40830017 </v>
    <v>       0.08333333       0.33333333       0.40830017 </v>
    <v>       0.83333333       0.58333333       0.40830017 </v>
    <v>       0.66666667       0.66666667       0.50000000 </v>
    <v>       0.83333333       0.83333333       0.40830017 </v>
    <v>       0.25000000       0.25000000       0.59169983 </v>
    <v>       0.16666667       0.66666667       0.50000000 </v>
    <v>       0.75000000       0.75000000       0.59169983 </v>
   </varray>
  </structure>
  <varray name="forces" >
   <v>       0.13045931       0.09506229      -1.57378360 </v>
   <v>      -0.26979474       0.32670009      -1.60901811 </v>
   <v>       0.00080195       0.12244898       1.60318497 </v>
   <v>       0.54162944       0.31481839      -0.01571804 </v>
   <v>      -0.15185897      -0.06359183      -0.30244245 </v>
   <v>       0.19883757       0.14213270       1.62902834 </v>
   <v>      -0.51968926       0.10865983      -1.32078652 </v>
   <v>      -0.36452749      -0.23109573       1.17244616 </v>
   <v>       0.48892273       0.28801103       1.39614806 </v>
   <v>       0.15427014      -0.22650991       1.88604261 </v>
   <v>       0.44162195       0.16199285      -0.28771384 </v>
   <v>      -0.18596322      -0.53762957       0.25450345 </v>
   <v>      -0.40246231       0.06222201       1.30591392 </v>
   <v>       0.14021505      -0.06774454       0.62641134 </v>
   <v>       0.25379503      -0.27934116      -1.39790799 </v>
   <v>       0.00145878       0.15950441       1.63761809 </v>
   <v>       0.03570505       0.15251223      -0.01219617 </v>
   <v>       0.39148377       0.07124109      -1.61308133 </v>
   <v>      -0.29181850      -0.29236846       1.58877723 </v>
   <v>      -0.15193282       0.09289962      -1.64272262 </v>
   <v>      -0.36152619       0.34328882       0.30439219 </v>
   <v>       0.01520763      -0.18452545      -1.64634346 </v>
   <v>      -0.09210186      -0.09440276      -0.25013794 </v>
   <v>       0.12848594      -0.40927661      -1.61209181 </v>
   <v>      -0.28700694      -0.33934795      -0.19940489 </v>
   <v>      -0.53673503       0.07945198      -0.17214909 </v>
   <v>       0.04392276      -0.22189285       0.76570680 </v>
   <v>       0.01782716       0.56220569       0.35725805 </v>
   <v>      -0.12982325      -0.02405960      -0.20987679 </v>
   <v>       0.23810159      -0.30747321       0.37344399 </v>
   <v>      -0.32768439       0.29900839      -0.67598428 </v>
   <v>      -0.18309148      -0.03198628      -1.05849681 </v>
   <v>      -0.13294193      -0.12578256      -0.72963378 </v>
   <v>       0.21144908       0.25273018       0.83991206 </v>
   <v>      -0.10077806      -0.26698671       0.59262595 </v>
   <v>       0.40929291      -0.00420012      -0.15820460 </v>
   <v>      -0.09592151      -0.06762860      -0.49454606 </v>
   <v>       0.26349296       0.19340132       0.83589045 </v>
   <v>       0.38002717       0.07081295       0.68055137 </v>
   <v>      -0.21577852      -0.17973667       0.74039903 </v>
   <v>       0.39093847       0.23477499      -0.84306642 </v>
   <v>      -0.00833642       0.20095314      -0.52548983 </v>
   <v>       0.16348926      -0.17440448      -0.57243111 </v>
   <v>       0.44788800       0.06059937       0.16657287 </v>
   <v>       0.13707095      -0.25113253      -0.60963193 </v>
   <v>      -0.34624059      -0.01679655       0.60523333 </v>
   <v>      -0.31237688      -0.15091007      -0.44996154 </v>
   <v>      -0.15800433       0.15339184       0.62076075 </v>
  </varray>
  <energy>
   <i name="e_fr_energy">   -188.24942981 </i>
   <i name="e_wo_entrp">   -188.11621688 </i>
   <i name="e_0_energy">     -0.26642587 </i>
  </energy>
  <time name="totalsc">  266.10  267.37</time>
 </calculation>
 <calculation>
  <scstep>
   <time name="dav">    9.48    9.48</time>
   <time name="total">    9.84    9.84</time>
   <dipole>
    <v name="dipole">      0.00000000       0.00000000      -0.00109945 </v>
    <i name="Tr[quadrupol]"> -10314.27022412 </i>
    <i name="Echarged">      0.00000000 </i>
    <i name="Edipol_quadrupol">      0.00000000 </i>
    <i name="Eion">      0.00000000 </i>
   </dipole>
   <energy>
    <i name="alphaZ">    805.86986607 </i>
    <i name="ewald"> 198812.68252221 </i>
    <i name="hartreedc">-241007.04770851 </i>
    <i name="XCdc">   -344.53354658 </i>
    <i name="pawpsdc">  49395.19020163 </i>
    <i name="pawaedc"> -47473.48679291 </i>
    <i name="eentropy">     -0.26764763 </i>
    <i name="bandstr">  -2037.05448034 </i>
    <i name="atom">  41659.78587232 </i>
    <i name="e_fr_energy">   -188.86171374 </i>
    <i name="e_wo_entrp">   -188.59406611 </i>
    <i name="e_0_energy">   -188.72788993 </i>
   </energy>
  </scstep>
  <scstep>
   <time name="diag">    1.59    1.68</time>
   <time name="diis">    4.41    4.42</time>
   <time name="orth">    0.39    0.39</time>
   <time name="total">    6.76    6.85</time>
   <dipole>
    <v name="dipole">      0.00000000       0.00000000       0.04435865 </v>
    <i name="Tr[quadrupol]"> -10314.12837723 </i>
    <i name="Echarged">      0.00000000 </i>
    <i name="Edipol_quadrupol">      0.00000000 </i>
    <i name="Eion">      0.00000000 </i>
   </dipole>
   <energy>
    <i name="e_fr_energy">   -189.09223765 </i>
    <i name="e_wo_entrp">   -188.82590816 </i>
    <i name="e_0_energy">   -188.95907290 </i>
   </energy>
  </scstep>
  <scstep>
   <time name="diag">    1.62    1.62</time>
   <time name="diis">    4.38    4.39</time>
   <time name="orth">    0.40    0.40</time>
   <time name="total">    6.77    6.77</time>
   <dipole>
    <v name="dipole">      0.00000000       0.00000000      -0.10841839 </v>
    <i name="Tr[quadrupol]"> -10314.31064291 </i>
    <i name="Echarged">      0.00000000 </i>
    <i name="Edipol_quadrupol">      0.00000000 </i>
    <i name="Eion">      0.00000000 </i>
   </dipole>
   <energy>
    <i name="e_fr_energy">   -189.27657691 </i>
    <i name="e_wo_entrp">   -189.02279877 </i>
    <i name="e_0_energy">   -189.14968784 </i>
   </energy>
  </scstep>
  <scstep>
   <time name="diag">    1.62    1.62</time>
   <time name="diis">    4.33    4.33</time>
   <time name="orth">    0.39    0.39</time>
   <time name="total">    6.71    6.71</time>
   <dipole>
    <v name="dipole">      0.00000000       0.00000000       0.01663572 </v>
    <i name="Tr[quadrupol]"> -10314.37517016 </i>
    <i name="Echarged">      0.00000000 </i>
    <i name="Edipol_quadrupol">      0.00000000 </i>
    <i name="Eion">      0.00000000 </i>
   </dipole>
   <energy>
    <i name="e_fr_energy">   -189.09888524 </i>
    <i name="e_wo_entrp">   -188.83463366 </i>
    <i name="e_0_energy">   -188.96675945 </i>
   </energy>
  </scstep>
  <scstep>
   <time name="diag">    1.62    1.62</time>
   <time name="diis">    4.30    4.30</time>
   <time name="orth">    0.39    0.39</time>
   <time name="total">    6.67    6.68</time>
   <dipole>
    <v name="dipole">      0.00000000       0.00000000      -0.01049970 </v>
    <i name="Tr[quadrupol]"> -10314.28380632 </i>
    <i name="Echarged">      0.00000000 </i>
    <i name="Edipol_quadrupol">      0.00000000 </i>
    <i name="Eion">      0.00000000 </i>
   </dipole>
   <energy>
    <i name="e_fr_energy">   -189.07182136 </i>
    <i name="e_wo_entrp">   -188.80280434 </i>
    <i name="e_0_energy">   -188.93731285 </i>
   </energy>
  </scstep>
  <scstep>
   <time name="diag">    1.64    1.64</time>
   <time name="diis">    4.36    4.36</time>
   <time name="orth">    0.39    0.39</time>
   <time name="total">    6.75    6.75</time>
   <dipole>
    <v name="dipole">      0.00000000       0.00000000       0.01950093 </v>
    <i name="Tr[quadrupol]"> -10314.30049652 </i>
    <i name="Echarged">      0.00000000 </i>
    <i name="Edipol_quadrupol">      0.00000000 </i>
    <i name="Eion">      0.00000000 </i>
   </dipole>
   <energy>
    <i name="e_fr_energy">   -189.07237045 </i>
    <i name="e_wo_entrp">   -188.80697894 </i>
    <i name="e_0_energy">   -188.93967469 </i>
   </energy>
  </scstep>
  <scstep>
   <time name="diag">    1.63    1.63</time>
   <time name="diis">    4.42    4.43</time>
   <time name="orth">    0.39    0.39</time>
   <time name="total">    6.80    6.82</time>
   <dipole>
    <v name="dipole">      0.00000000       0.00000000       0.01735881 </v>
    <i name="Tr[quadrupol]"> -10314.29607010 </i>
    <i name="Echarged">      0.00000000 </i>
    <i name="Edipol_quadrupol">      0.00000000 </i>
    <i name="Eion">      0.00000000 </i>
   </dipole>
   <energy>
    <i name="e_fr_energy">   -189.06619572 </i>
    <i name="e_wo_entrp">   -188.79713994 </i>
    <i name="e_0_energy">   -188.93166783 </i>
   </energy>
  </scstep>
  <scstep>
   <time name="diag">    1.58    1.65</time>
   <time name="diis">    4.16    4.48</time>
   <time name="orth">    0.34    0.53</time>
   <time name="total">    6.46    7.21</time>
   <dipole>
    <v name="dipole">      0.00000000       0.00000000       0.00769990 </v>
    <i name="Tr[quadrupol]"> -10314.28007228 </i>
    <i name="Echarged">      0.00000000 </i>
    <i name="Edipol_quadrupol">      0.00000000 </i>
    <i name="Eion">      0.00000000 </i>
   </dipole>
   <energy>
    <i name="e_fr_energy">   -189.06448444 </i>
    <i name="e_wo_entrp">   -188.79653369 </i>
    <i name="e_0_energy">   -188.93050906 </i>
   </energy>
  </scstep>
  <scstep>
   <time name="diag">    1.57    1.72</time>
   <time name="diis">    4.40    4.40</time>
   <time name="orth">    0.39    0.39</time>
   <time name="total">    6.72    6.90</time>
   <dipole>
    <v name="dipole">      0.00000000       0.00000000       0.00655141 </v>
    <i name="Tr[quadrupol]"> -10314.28078402 </i>
    <i name="Echarged">      0.00000000 </i>
    <i name="Edipol_quadrupol">      0.00000000 </i>
    <i name="Eion">      0.00000000 </i>
   </dipole>
   <energy>
    <i name="e_fr_energy">   -189.06410655 </i>
    <i name="e_wo_entrp">   -188.79610133 </i>
    <i name="e_0_energy">   -188.93010394 </i>
   </energy>
  </scstep>
  <scstep>
   <time name="diag">    1.63    1.63</time>
   <time name="diis">    4.42    4.42</time>
   <time name="orth">    0.39    0.39</time>
   <time name="total">    6.80    6.81</time>
   <dipole>
    <v name="dipole">      0.00000000       0.00000000       0.00722604 </v>
    <i name="Tr[quadrupol]"> -10314.27658481 </i>
    <i name="Echarged">      0.00000000 </i>
    <i name="Edipol_quadrupol">      0.00000000 </i>
    <i name="Eion">      0.00000000 </i>
   </dipole>
   <energy>
    <i name="e_fr_energy">   -189.06400942 </i>
    <i name="e_wo_entrp">   -188.79570580 </i>
    <i name="e_0_energy">   -188.92985761 </i>
   </energy>
  </scstep>
  <scstep>
   <time name="diag">    1.63    1.63</time>
   <time name="diis">    4.41    4.41</time>
   <time name="orth">    0.39    0.39</time>
   <time name="total">    6.79    6.80</time>
   <dipole>
    <v name="dipole">      0.00000000       0.00000000       0.00746610 </v>
    <i name="Tr[quadrupol]"> -10314.27649720 </i>
    <i name="Echarged">      0.00000000 </i>
    <i name="Edipol_quadrupol">      0.00000000 </i>
    <i name="Eion">      0.00000000 </i>
   </dipole>
   <energy>
    <i name="e_fr_energy">   -189.06390365 </i>
    <i name="e_wo_entrp">   -188.79561347 </i>
    <i name="e_0_energy">   -188.92975856 </i>
   </energy>
  </scstep>
  <scstep>
   <time name="diag">    1.62    1.62</time>
   <time name="diis">    4.38    4.38</time>
   <time name="orth">    0.39    0.39</time>
   <time name="total">    6.75    6.76</time>
   <dipole>
    <v name="dipole">      0.00000000       0.00000000       0.00776879 </v>
    <i name="Tr[quadrupol]"> -10314.27778698 </i>
    <i name="Echarged">      0.00000000 </i>
    <i name="Edipol_quadrupol">      0.00000000 </i>
    <i name="Eion">      0.00000000 </i>
   </dipole>
   <energy>
    <i name="e_fr_energy">   -189.06389271 </i>
    <i name="e_wo_entrp">   -188.79583031 </i>
    <i name="e_0_energy">   -188.92986151 </i>
   </energy>
  </scstep>
  <scstep>
   <time name="diag">    1.61    1.61</time>
   <time name="diis">    4.26    4.33</time>
   <time name="orth">    0.37    0.41</time>
   <time name="total">    6.61    6.72</time>
   <dipole>
    <v name="dipole">      0.00000000       0.00000000       0.00765090 </v>
    <i name="Tr[quadrupol]"> -10314.28035328 </i>
    <i name="Echarged">      0.00000000 </i>
    <i name="Edipol_quadrupol">      0.00000000 </i>
    <i name="Eion">      0.00000000 </i>
   </dipole>
   <energy>
    <i name="e_fr_energy">   -189.06388467 </i>
    <i name="e_wo_entrp">   -188.79561250 </i>
    <i name="e_0_energy">   -188.92974859 </i>
   </energy>
  </scstep>
  <scstep>
   <time name="diag">    1.64    1.64</time>
   <time name="diis">    3.68    3.68</time>
   <time name="orth">    0.39    0.39</time>
   <time name="total">    6.07    6.08</time>
   <dipole>
    <v name="dipole">      0.00000000       0.00000000       0.00754928 </v>
    <i name="Tr[quadrupol]"> -10314.28211607 </i>
    <i name="Echarged">      0.00000000 </i>
    <i name="Edipol_quadrupol">      0.00000000 </i>
    <i name="Eion">      0.00000000 </i>
   </dipole>
   <energy>
    <i name="e_fr_energy">   -189.06388264 </i>
    <i name="e_wo_entrp">   -188.79568391 </i>
    <i name="e_0_energy">   -188.92978327 </i>
   </energy>
  </scstep>
  <scstep>
   <time name="diag">    1.62    1.62</time>
   <time name="diis">    2.62    2.62</time>
   <time name="orth">    0.39    0.39</time>
   <time name="total">    4.68    4.69</time>
   <dipole>
    <v name="dipole">      0.00000000       0.00000000       0.00756918 </v>
    <i name="Tr[quadrupol]"> -10314.28398673 </i>
    <i name="Echarged">      0.00000000 </i>
    <i name="Edipol_quadrupol">      0.00000000 </i>
    <i name="Eion">      0.00000000 </i>
   </dipole>
   <energy>
    <i name="alphaZ">    805.86590742 </i>
    <i name="ewald"> 198812.68252221 </i>
    <i name="hartreedc">-241007.56037312 </i>
    <i name="XCdc">   -344.50738227 </i>
    <i name="pawpsdc">  49157.36196115 </i>
    <i name="pawaedc"> -47234.16783999 </i>
    <i name="eentropy">     -0.26822011 </i>
    <i name="bandstr">  -2038.25633023 </i>
    <i name="atom">  41659.78587232 </i>
    <i name="e_fr_energy">   -189.06388262 </i>
    <i name="e_wo_entrp">   -188.79566251 </i>
    <i name="e_0_energy">   -188.92977256 </i>
   </energy>
  </scstep>
  <structure>
   <crystal>
    <varray name="basis" >
     <v>      11.00258152       0.00000000       0.00000000 </v>
     <v>       5.50129076       9.52851510       0.00000000 </v>
     <v>       0.00000000       0.00000000      24.49178509 </v>
    </varray>
    <i name="volume">   2567.67623402 </i>
    <varray name="rec_basis" >
     <v>       0.09088776      -0.05247407       0.00000000 </v>
     <v>       0.00000000       0.10494815       0.00000000 </v>
     <v>       0.00000000       0.00000000       0.04083002 </v>
    </varray>
   </crystal>
   <varray name="positions" >
    <v>       0.08333333       0.08333333       0.40830017 </v>
    <v>       0.33333333       0.08333333       0.40830017 </v>
    <v>      -0.00021452       0.00043397       0.59391034 </v>
    <v>       0.91777120       0.16778241       0.49997833 </v>
    <v>       0.91631326       0.66644129       0.49958299 </v>
    <v>       0.25035842       0.75050373       0.59394597 </v>
    <v>       0.33333333       0.58333333       0.40830017 </v>
    <v>       0.24929068       0.49918098       0.59331643 </v>
    <v>       0.75099027       0.50102074       0.59362487 </v>
    <v>       0.75087488       0.24919723       0.59430035 </v>
    <v>       0.66773506       0.41724078       0.49960329 </v>
    <v>       0.66704860       0.16476126       0.50035092 </v>
    <v>      -0.00134552       0.75022052       0.59350046 </v>
    <v>       0.41721707       0.91642657       0.50086371 </v>
    <v>       0.58333333       0.83333333       0.40830017 </v>
    <v>       0.49972183       0.50056530       0.59395782 </v>
    <v>       0.41650600       0.66720718       0.49998318 </v>
    <v>       0.58333333       0.58333333       0.40830017 </v>
    <v>       0.49962242       0.24896382       0.59389047 </v>
    <v>       0.58333333       0.33333333       0.40830017 </v>
    <v>       0.41494872       0.16788331       0.50041970 </v>
    <v>       0.58333333       0.08333333       0.40830017 </v>
    <v>       0.16655127       0.91633210       0.49965510 </v>
    <v>       0.83333333       0.08333333       0.40830017 </v>
    <v>       0.91638710       0.91546399       0.49972506 </v>
    <v>       0.41487849       0.41694825       0.49976264 </v>
    <v>       0.50052801      -0.00078641       0.59275561 </v>
    <v>       0.16572513       0.16865917       0.50049260 </v>
    <v>       0.16631084       0.41658140       0.49971062 </v>
    <v>       0.66794232       0.91557696       0.50051491 </v>
    <v>       0.33333333       0.33333333       0.40830017 </v>
    <v>       0.33333333       0.83333333       0.40830017 </v>
    <v>       0.08333333       0.83333333       0.40830017 </v>
    <v>       0.25020115       0.00089570       0.59285792 </v>
    <v>       0.00016380       0.49905378       0.59251696 </v>
    <v>       0.91793034       0.41665178       0.49978186 </v>
    <v>       0.08333333       0.58333333       0.40830017 </v>
    <v>       0.50046601       0.75068543       0.59285238 </v>
    <v>       0.00104092       0.25025097       0.59263819 </v>
    <v>       0.74965622      -0.00063700       0.59272071 </v>
    <v>       0.83333333       0.33333333       0.40830017 </v>
    <v>       0.08333333       0.33333333       0.40830017 </v>
    <v>       0.83333333       0.58333333       0.40830017 </v>
    <v>       0.66793397       0.66688144       0.50022967 </v>
    <v>       0.83333333       0.83333333       0.40830017 </v>
    <v>       0.24896706       0.24994047       0.59253434 </v>
    <v>       0.16597532       0.66613183       0.49937958 </v>
    <v>       0.74924323       0.75054363       0.59255575 </v>
   </varray>
  </structure>
  <varray name="forces" >
   <v>       0.17279785       0.10535272      -1.56801794 </v>
   <v>      -0.27749804       0.28125619      -1.47554109 </v>
   <v>       0.02647181       0.04309583       1.08542879 </v>
   <v>       0.18921567       0.13864755       0.37546105 </v>
   <v>      -0.01578018      -0.07499599       0.05098450 </v>
   <v>       0.06305678       0.10447054       1.13287920 </v>
   <v>      -0.48211939       0.11217746      -1.34893703 </v>
   <v>      -0.22592483      -0.08588726       0.85153737 </v>
   <v>       0.24669314       0.11279907       1.02101485 </v>
   <v>       0.08346806      -0.04675726       1.29235159 </v>
   <v>       0.18851865       0.02805054       0.36048497 </v>
   <v>      -0.03202837      -0.16778147       0.54282608 </v>
   <v>      -0.22741328      -0.00529973       0.92815181 </v>
   <v>       0.08908199       0.02585396       0.51895994 </v>
   <v>       0.22739745      -0.24035009      -1.30513475 </v>
   <v>       0.04680490       0.01751225       1.07224143 </v>
   <v>      -0.01748280       0.00892328       0.37852167 </v>
   <v>       0.40202347       0.11771976      -1.60525908 </v>
   <v>      -0.14497709      -0.15887530       1.17622009 </v>
   <v>      -0.15801925       0.04826984      -1.53044059 </v>
   <v>      -0.16384943       0.16827549       0.40734266 </v>
   <v>      -0.03025230      -0.19219317      -1.53219203 </v>
   <v>      -0.13319744      -0.05656417       0.23453625 </v>
   <v>       0.14000319      -0.37712177      -1.53175031 </v>
   <v>      -0.05575448      -0.20213058       0.15239126 </v>
   <v>      -0.22242113       0.03364168       0.27250188 </v>
   <v>       0.03029157      -0.10969290       0.65971895 </v>
   <v>       0.03278475       0.28869235       0.32201956 </v>
   <v>      -0.07822215       0.07472198      -0.00403425 </v>
   <v>       0.08232194      -0.15850580       0.33917868 </v>
   <v>      -0.32554986       0.27128703      -0.71228028 </v>
   <v>      -0.13101948      -0.00840582      -1.02688322 </v>
   <v>      -0.13579763      -0.11355676      -0.78472849 </v>
   <v>       0.09622845       0.15686045       0.65850784 </v>
   <v>      -0.04686551      -0.12373740       0.46255700 </v>
   <v>       0.24274670       0.07078764       0.06247694 </v>
   <v>      -0.10687369      -0.07645954      -0.56996619 </v>
   <v>       0.14806362       0.08316488       0.69608753 </v>
   <v>       0.19557114       0.05324938       0.59337537 </v>
   <v>      -0.11536076      -0.09919838       0.63894718 </v>
   <v>       0.40116421       0.22646149      -0.90113906 </v>
   <v>      -0.00521434       0.17576836      -0.57836841 </v>
   <v>       0.13776467      -0.17757368      -0.62455484 </v>
   <v>       0.26707359      -0.01840767       0.28010354 </v>
   <v>       0.11495846      -0.23894249      -0.65812146 </v>
   <v>      -0.21697279      -0.02083804       0.56572034 </v>
   <v>      -0.20861959      -0.07832298       0.07466627 </v>
   <v>      -0.06728823       0.08455853       0.55015443 </v>
  </varray>
  <energy>
   <i name="e_fr_energy">   -189.06388262 </i>
   <i name="e_wo_entrp">   -188.92977256 </i>
   <i name="e_0_energy">     -0.26822011 </i>
  </energy>
  <time name="totalsc">  104.20  105.43</time>
 </calculation>
 <calculation>
  <scstep>
   <time name="dav">    9.48    9.49</time>
   <time name="total">    9.85    9.87</time>
   <dipole>
    <v name="dipole">      0.00000000       0.00000000       0.00738138 </v>
    <i name="Tr[quadrupol]"> -10268.57000941 </i>
    <i name="Echarged">      0.00000000 </i>
    <i name="Edipol_quadrupol">      0.00000000 </i>
    <i name="Eion">      0.00000000 </i>
   </dipole>
   <energy>
    <i name="alphaZ">    805.85588586 </i>
    <i name="ewald"> 194779.61251560 </i>
    <i name="hartreedc">-236996.21061505 </i>
    <i name="XCdc">   -347.28226080 </i>
    <i name="pawpsdc">  49157.22468556 </i>
    <i name="pawaedc"> -47234.03025269 </i>
    <i name="eentropy">     -0.26843547 </i>
    <i name="bandstr">  -2012.72842274 </i>
    <i name="atom">  41659.78587232 </i>
    <i name="e_fr_energy">   -188.04102740 </i>
    <i name="e_wo_entrp">   -187.77259193 </i>
    <i name="e_0_energy">   -187.90680967 </i>
   </energy>
  </scstep>
  <scstep>
   <time name="diag">    1.45    2.04</time>
   <time name="diis">    4.22    4.34</time>
   <time name="orth">    0.39    0.39</time>
   <time name="total">    6.43    7.14</time>
   <dipole>
    <v name="dipole">      0.00000000       0.00000000       0.10045052 </v>
    <i name="Tr[quadrupol]"> -10268.05912645 </i>
    <i name="Echarged">      0.00000000 </i>
    <i name="Edipol_quadrupol">      0.00000000 </i>
    <i name="Eion">      0.00000000 </i>
   </dipole>
   <energy>
    <i name="e_fr_energy">   -190.10485513 </i>
    <i name="e_wo_entrp">   -189.84351817 </i>
    <i name="e_0_energy">   -189.97418665 </i>
   </energy>
  </scstep>
  <scstep>
   <time name="diag">    1.62    1.62</time>
   <time name="diis">    4.41    4.41</time>
   <time name="orth">    0.39    0.39</time>
   <time name="total">    6.78    6.79</time>
   <dipole>
    <v name="dipole">      0.00000000       0.00000000      -0.16737952 </v>
    <i name="Tr[quadrupol]"> -10268.74812075 </i>
    <i name="Echarged">      0.00000000 </i>
    <i name="Edipol_quadrupol">      0.00000000 </i>
    <i name="Eion">      0.00000000 </i>
   </dipole>
   <energy>
    <i name="e_fr_energy">   -190.73400156 </i>
    <i name="e_wo_entrp">   -190.49139705 </i>
    <i name="e_0_energy">   -190.61269931 </i>
   </energy>
  </scstep>
  <scstep>
   <time name="diag">    1.61    1.67</time>
   <time name="diis">    4.30    4.34</time>
   <time name="orth">    0.39    0.39</time>
   <time name="total">    6.66    6.77</time>
   <dipole>
    <v name="dipole">      0.00000000       0.00000000       0.08859987 </v>
    <i name="Tr[quadrupol]"> -10268.63484076 </i>
    <i name="Echarged">      0.00000000 </i>
    <i name="Edipol_quadrupol">      0.00000000 </i>
    <i name="Eion">      0.00000000 </i>
   </dipole>
   <energy>
    <i name="e_fr_energy">   -190.08154306 </i>
    <i name="e_wo_entrp">   -189.82268601 </i>
    <i name="e_0_energy">   -189.95211453 </i>
   </energy>
  </scstep>
  <scstep>
   <time name="diag">    1.63    1.63</time>
   <time name="diis">    4.41    4.41</time>
   <time name="orth">    0.39    0.39</time>
   <time name="total">    6.79    6.80</time>
   <dipole>
    <v name="dipole">      0.00000000       0.00000000      -0.03575078 </v>
    <i name="Tr[quadrupol]"> -10268.52349735 </i>
    <i name="Echarged">      0.00000000 </i>
    <i name="Edipol_quadrupol">      0.00000000 </i>
    <i name="Eion">      0.00000000 </i>
   </dipole>
   <energy>
    <i name="e_fr_energy">   -190.00679438 </i>
    <i name="e_wo_entrp">   -189.74160188 </i>
    <i name="e_0_energy">   -189.87419813 </i>
   </energy>
  </scstep>
  <scstep>
   <time name="diag">    1.63    1.63</time>
   <time name="diis">    4.37    4.37</time>
   <time name="orth">    0.39    0.39</time>
   <time name="total">    6.76    6.76</time>
   <dipole>
    <v name="dipole">      0.00000000       0.00000000       0.09813328 </v>
    <i name="Tr[quadrupol]"> -10268.65292254 </i>
    <i name="Echarged">      0.00000000 </i>
    <i name="Edipol_quadrupol">      0.00000000 </i>
    <i name="Eion">      0.00000000 </i>
   </dipole>
   <energy>
    <i name="e_fr_energy">   -189.99648028 </i>
    <i name="e_wo_entrp">   -189.73919375 </i>
    <i name="e_0_energy">   -189.86783701 </i>
   </energy>
  </scstep>
  <scstep>
   <time name="diag">    1.62    1.62</time>
   <time name="diis">    4.41    4.41</time>
   <time name="orth">    0.39    0.39</time>
   <time name="total">    6.77    6.78</time>
   <dipole>
    <v name="dipole">      0.00000000       0.00000000       0.04771616 </v>
    <i name="Tr[quadrupol]"> -10268.56012267 </i>
    <i name="Echarged">      0.00000000 </i>
    <i name="Edipol_quadrupol">      0.00000000 </i>
    <i name="Eion">      0.00000000 </i>
   </dipole>
   <energy>
    <i name="e_fr_energy">   -189.92761546 </i>
    <i name="e_wo_entrp">   -189.65556982 </i>
    <i name="e_0_energy">   -189.79159264 </i>
   </energy>
  </scstep>
  <scstep>
   <time name="diag">    1.63    1.63</time>
   <time name="diis">    4.35    4.35</time>
   <time name="orth">    0.39    0.39</time>
   <time name="total">    6.73    6.74</time>
   <dipole>
    <v name="dipole">      0.00000000       0.00000000       0.04202475 </v>
    <i name="Tr[quadrupol]"> -10268.53688880 </i>
    <i name="Echarged">      0.00000000 </i>
    <i name="Edipol_quadrupol">      0.00000000 </i>
    <i name="Eion">      0.00000000 </i>
   </dipole>
   <energy>
    <i name="e_fr_energy">   -189.91857901 </i>
    <i name="e_wo_entrp">   -189.64994183 </i>
    <i name="e_0_energy">   -189.78426042 </i>
   </energy>
  </scstep>
  <scstep>
   <time name="diag">    1.63    1.63</time>
   <time name="diis">    4.41    4.42</time>
   <time name="orth">    0.39    0.39</time>
   <time name="total">    6.80    6.80</time>
   <dipole>
    <v name="dipole">      0.00000000       0.00000000       0.03048874 </v>
    <i name="Tr[quadrupol]"> -10268.52440225 </i>
    <i name="Echarged">      0.00000000 </i>
    <i name="Edipol_quadrupol">      0.00000000 </i>
    <i name="Eion">      0.00000000 </i>
   </dipole>
   <energy>
[...]
       <r>    -9.3587     0.0000     0.0000 </r>
       <r>    -9.3046     0.0000     0.0000 </r>
       <r>    -9.2506     0.0000     0.0000 </r>
       <r>    -9.1965     0.0000     0.0000 </r>
       <r>    -9.1425     0.0001     0.0000 </r>
       <r>    -9.0884     0.0033     0.0002 </r>
       <r>    -9.0343     0.0445     0.0026 </r>
       <r>    -8.9803     0.3395     0.0209 </r>
       <r>    -8.9262     1.4878     0.1014 </r>
       <r>    -8.8722     3.7606     0.3047 </r>
       <r>    -8.8181     5.5739     0.6060 </r>
       <r>    -8.7641     5.3051     0.8927 </r>
       <r>    -8.7100     4.6340     1.1432 </r>
       <r>    -8.6560     5.2447     1.4267 </r>
       <r>    -8.6019     5.3168     1.7141 </r>
       <r>    -8.5478     3.5082     1.9038 </r>
       <r>    -8.4938     1.4081     1.9799 </r>
       <r>    -8.4397     0.4299     2.0031 </r>
       <r>    -8.3857     0.6095     2.0361 </r>
       <r>    -8.3316     1.9317     2.1405 </r>
       <r>    -8.2776     4.0021     2.3568 </r>
       <r>    -8.2235     5.1316     2.6342 </r>
       <r>    -8.1694     4.2624     2.8646 </r>
       <r>    -8.1154     3.0265     3.0283 </r>
       <r>    -8.0613     3.5565     3.2205 </r>
       <r>    -8.0073     5.1898     3.5010 </r>
       <r>    -7.9532     5.7062     3.8095 </r>
       <r>    -7.8992     5.8260     4.1244 </r>
       <r>    -7.8451     8.0259     4.5583 </r>
       <r>    -7.7911    10.5655     5.1294 </r>
       <r>    -7.7370     9.5661     5.6465 </r>
       <r>    -7.6829     6.6062     6.0036 </r>
       <r>    -7.6289     6.6036     6.3606 </r>
       <r>    -7.5748     9.8717     6.8942 </r>
       <r>    -7.5208    12.2222     7.5549 </r>
       <r>    -7.4667    11.7665     8.1909 </r>
       <r>    -7.4127    10.7672     8.7730 </r>
       <r>    -7.3586    11.0076     9.3680 </r>
       <r>    -7.3046    12.0262    10.0181 </r>
       <r>    -7.2505    13.3630    10.7404 </r>
       <r>    -7.1964    15.2732    11.5660 </r>
       <r>    -7.1424    17.1083    12.4908 </r>
       <r>    -7.0883    18.1463    13.4718 </r>
       <r>    -7.0343    19.7230    14.5379 </r>
       <r>    -6.9802    22.7971    15.7702 </r>
       <r>    -6.9262    26.4932    17.2023 </r>
       <r>    -6.8721    30.8589    18.8705 </r>
       <r>    -6.8180    36.7581    20.8574 </r>
       <r>    -6.7640    43.1530    23.1901 </r>
       <r>    -6.7099    48.8885    25.8328 </r>
       <r>    -6.6559    54.3770    28.7722 </r>
       <r>    -6.6018    58.0339    31.9093 </r>
       <r>    -6.5478    58.1888    35.0548 </r>
       <r>    -6.4937    58.2016    38.2009 </r>
       <r>    -6.4397    60.5837    41.4758 </r>
       <r>    -6.3856    62.6166    44.8606 </r>
       <r>    -6.3315    62.4791    48.2380 </r>
       <r>    -6.2775    61.9430    51.5864 </r>
       <r>    -6.2234    63.3598    55.0114 </r>
       <r>    -6.1694    65.9677    58.5773 </r>
       <r>    -6.1153    67.8147    62.2431 </r>
       <r>    -6.0613    68.7896    65.9616 </r>
       <r>    -6.0072    68.9935    69.6911 </r>
       <r>    -5.9532    68.5158    73.3948 </r>
       <r>    -5.8991    67.9920    77.0702 </r>
       <r>    -5.8450    68.8094    80.7898 </r>
       <r>    -5.7910    71.6931    84.6652 </r>
       <r>    -5.7369    74.2293    88.6778 </r>
       <r>    -5.6829    74.2979    92.6940 </r>
       <r>    -5.6288    73.7095    96.6784 </r>
       <r>    -5.5748    74.1458   100.6865 </r>
       <r>    -5.5207    74.8282   104.7314 </r>
       <r>    -5.4666    75.7484   108.8260 </r>
       <r>    -5.4126    77.6540   113.0237 </r>
       <r>    -5.3585    79.5504   117.3239 </r>
       <r>    -5.3045    79.7787   121.6364 </r>
       <r>    -5.2504    78.6037   125.8854 </r>
       <r>    -5.1964    77.3739   130.0679 </r>
       <r>    -5.1423    77.0121   134.2309 </r>
       <r>    -5.0883    77.5640   138.4237 </r>
       <r>    -5.0342    77.5532   142.6159 </r>
       <r>    -4.9801    76.6150   146.7574 </r>
       <r>    -4.9261    77.0596   150.9230 </r>
       <r>    -4.8720    79.7232   155.2325 </r>
       <r>    -4.8180    82.3350   159.6832 </r>
       <r>    -4.7639    83.0141   164.1706 </r>
       <r>    -4.7099    82.5685   168.6339 </r>
       <r>    -4.6558    83.0090   173.1211 </r>
       <r>    -4.6018    84.8007   177.7050 </r>
       <r>    -4.5477    86.0780   182.3581 </r>
       <r>    -4.4936    85.5122   186.9805 </r>
       <r>    -4.4396    84.8041   191.5647 </r>
       <r>    -4.3855    86.4649   196.2387 </r>
       <r>    -4.3315    91.4701   201.1832 </r>
       <r>    -4.2774    97.8717   206.4737 </r>
       <r>    -4.2234   101.3052   211.9499 </r>
       <r>    -4.1693   100.1355   217.3628 </r>
       <r>    -4.1152    96.5375   222.5812 </r>
       <r>    -4.0612    92.8377   227.5997 </r>
       <r>    -4.0071    90.4343   232.4882 </r>
       <r>    -3.9531    90.1327   237.3604 </r>
       <r>    -3.8990    91.6697   242.3157 </r>
       <r>    -3.8450    93.4393   247.3666 </r>
       <r>    -3.7909    93.7252   252.4331 </r>
       <r>    -3.7369    92.3342   257.4243 </r>
       <r>    -3.6828    91.0522   262.3462 </r>
       <r>    -3.6287    92.1218   267.3259 </r>
       <r>    -3.5747    95.1945   272.4718 </r>
       <r>    -3.5206    97.8226   277.7597 </r>
       <r>    -3.4666    99.1731   283.1206 </r>
       <r>    -3.4125   100.3876   288.5471 </r>
       <r>    -3.3585   102.7618   294.1020 </r>
       <r>    -3.3044   105.7630   299.8192 </r>
       <r>    -3.2504   106.7561   305.5900 </r>
       <r>    -3.1963   105.0254   311.2672 </r>
       <r>    -3.1422   102.4440   316.8049 </r>
       <r>    -3.0882    99.6009   322.1890 </r>
       <r>    -3.0341    95.7047   327.3624 </r>
       <r>    -2.9801    91.2256   332.2937 </r>
       <r>    -2.9260    87.9282   337.0467 </r>
       <r>    -2.8720    86.3748   341.7158 </r>
       <r>    -2.8179    86.8231   346.4091 </r>
       <r>    -2.7638    89.4480   351.2443 </r>
       <r>    -2.7098    92.1208   356.2240 </r>
       <r>    -2.6557    92.8626   361.2438 </r>
       <r>    -2.6017    92.1752   366.2264 </r>
       <r>    -2.5476    90.7891   371.1341 </r>
       <r>    -2.4936    88.2855   375.9064 </r>
       <r>    -2.4395    85.3317   380.5191 </r>
       <r>    -2.3855    84.4785   385.0857 </r>
       <r>    -2.3314    87.0321   389.7903 </r>
       <r>    -2.2773    91.2429   394.7225 </r>
       <r>    -2.2233    94.2871   399.8193 </r>
       <r>    -2.1692    94.9404   404.9514 </r>
       <r>    -2.1152    94.6277   410.0666 </r>
       <r>    -2.0611    95.0900   415.2068 </r>
       <r>    -2.0071    96.3198   420.4135 </r>
       <r>    -1.9530    96.3124   425.6197 </r>
       <r>    -1.8989    93.5953   430.6791 </r>
       <r>    -1.8449    91.0958   435.6034 </r>
       <r>    -1.7908    91.7613   440.5637 </r>
       <r>    -1.7368    94.0425   445.6472 </r>
       <r>    -1.6827    95.3790   450.8030 </r>
       <r>    -1.6287    95.1754   455.9478 </r>
       <r>    -1.5746    94.8787   461.0766 </r>
       <r>    -1.5206    96.5287   466.2946 </r>
       <r>    -1.4665    99.9653   471.6983 </r>
       <r>    -1.4124   102.4710   477.2375 </r>
       <r>    -1.3584   101.8042   482.7406 </r>
       <r>    -1.3043    97.0570   487.9871 </r>
       <r>    -1.2503    88.2895   492.7597 </r>
       <r>    -1.1962    77.0587   496.9252 </r>
       <r>    -1.1422    66.4403   500.5167 </r>
       <r>    -1.0881    57.7767   503.6398 </r>
       <r>    -1.0341    47.8545   506.2267 </r>
       <r>    -0.9800    33.9760   508.0633 </r>
       <r>    -0.9259    19.9267   509.1404 </r>
       <r>    -0.8719    11.1796   509.7448 </r>
       <r>    -0.8178     8.4127   510.1995 </r>
       <r>    -0.7638     9.0861   510.6907 </r>
       <r>    -0.7097    10.4236   511.2541 </r>
       <r>    -0.6557    11.3018   511.8651 </r>
       <r>    -0.6016    13.6169   512.6011 </r>
       <r>    -0.5475    18.5921   513.6061 </r>
       <r>    -0.4935    23.2323   514.8620 </r>
       <r>    -0.4394    23.6476   516.1403 </r>
       <r>    -0.3854    19.1634   517.1762 </r>
       <r>    -0.3313    13.7350   517.9186 </r>
       <r>    -0.2773    13.1020   518.6269 </r>
       <r>    -0.2232    17.3449   519.5645 </r>
       <r>    -0.1692    20.5211   520.6738 </r>
       <r>    -0.1151    19.5902   521.7327 </r>
       <r>    -0.0610    16.4545   522.6222 </r>
       <r>    -0.0070    13.3718   523.3450 </r>
       <r>     0.0471    11.8086   523.9834 </r>
       <r>     0.1011    12.1750   524.6415 </r>
       <r>     0.1552    14.0463   525.4008 </r>
       <r>     0.2092    16.9327   526.3161 </r>
       <r>     0.2633    20.0028   527.3974 </r>
       <r>     0.3173    21.4636   528.5576 </r>
       <r>     0.3714    20.6621   529.6745 </r>
       <r>     0.4255    19.7114   530.7400 </r>
       <r>     0.4795    18.7724   531.7548 </r>
       <r>     0.5336    17.3086   532.6904 </r>
       <r>     0.5876    17.6393   533.6439 </r>
       <r>     0.6417    19.6491   534.7061 </r>
       <r>     0.6957    20.4425   535.8111 </r>
       <r>     0.7498    19.3205   536.8555 </r>
       <r>     0.8039    17.5651   537.8050 </r>
       <r>     0.8579    15.5851   538.6475 </r>
       <r>     0.9120    13.4955   539.3770 </r>
       <r>     0.9660    12.1893   540.0359 </r>
       <r>     1.0201    11.5394   540.6597 </r>
       <r>     1.0741    11.2810   541.2695 </r>
       <r>     1.1282    11.6262   541.8979 </r>
       <r>     1.1822    11.2744   542.5074 </r>
       <r>     1.2363     8.8851   542.9877 </r>
       <r>     1.2904     5.7544   543.2988 </r>
       <r>     1.3444     4.2177   543.5267 </r>
       <r>     1.3985     4.9091   543.7921 </r>
       <r>     1.4525     7.5167   544.1984 </r>
       <r>     1.5066    11.6951   544.8306 </r>
       <r>     1.5606    15.6712   545.6777 </r>
       <r>     1.6147    16.8942   546.5910 </r>
       <r>     1.6687    16.1094   547.4618 </r>
       <r>     1.7228    16.3573   548.3460 </r>
       <r>     1.7769    17.9434   549.3159 </r>
       <r>     1.8309    18.6310   550.3231 </r>
       <r>     1.8850    17.3405   551.2604 </r>
       <r>     1.9390    15.5783   552.1025 </r>
       <r>     1.9931    14.0760   552.8634 </r>
       <r>     2.0471    12.1303   553.5191 </r>
       <r>     2.1012    10.7645   554.1010 </r>
       <r>     2.1553    11.9783   554.7485 </r>
       <r>     2.2093    16.2414   555.6265 </r>
       <r>     2.2634    21.0666   556.7652 </r>
       <r>     2.3174    22.8428   558.0000 </r>
       <r>     2.3715    21.2211   559.1472 </r>
       <r>     2.4255    18.6530   560.1555 </r>
       <r>     2.4796    16.4022   561.0421 </r>
       <r>     2.5336    15.5823   561.8844 </r>
       <r>     2.5877    18.1108   562.8634 </r>
       <r>     2.6418    22.4432   564.0766 </r>
       <r>     2.6958    25.1499   565.4361 </r>
       <r>     2.7499    24.9876   566.7868 </r>
       <r>     2.8039    21.0159   567.9229 </r>
       <r>     2.8580    14.2640   568.6939 </r>
       <r>     2.9120     9.0924   569.1854 </r>
       <r>     2.9661     6.9739   569.5624 </r>
       <r>     3.0201     5.3253   569.8503 </r>
       <r>     3.0742     4.0545   570.0694 </r>
       <r>     3.1283     5.5131   570.3675 </r>
       <r>     3.1823     9.5054   570.8813 </r>
       <r>     3.2364    13.1320   571.5911 </r>
       <r>     3.2904    13.6119   572.3270 </r>
       <r>     3.3445    11.0539   572.9245 </r>
       <r>     3.3985     8.7177   573.3957 </r>
       <r>     3.4526     8.8108   573.8720 </r>
       <r>     3.5067    11.1772   574.4762 </r>
       <r>     3.5607    14.8908   575.2811 </r>
       <r>     3.6148    17.8624   576.2467 </r>
       <r>     3.6688    18.6372   577.2542 </r>
       <r>     3.7229    18.6220   578.2608 </r>
       <r>     3.7769    18.4796   579.2597 </r>
       <r>     3.8310    16.8045   580.1681 </r>
       <r>     3.8850    14.1379   580.9324 </r>
       <r>     3.9391    12.4279   581.6042 </r>
       <r>     3.9932    11.8565   582.2451 </r>
       <r>     4.0472    11.3852   582.8605 </r>
       <r>     4.1013    11.2092   583.4664 </r>
       <r>     4.1553    11.7302   584.1005 </r>
       <r>     4.2094    11.6913   584.7325 </r>
       <r>     4.2634    10.3893   585.2941 </r>
       <r>     4.3175     8.9274   585.7767 </r>
       <r>     4.3715     9.1159   586.2695 </r>
       <r>     4.4256    11.4287   586.8873 </r>
       <r>     4.4797    13.8126   587.6339 </r>
       <r>     4.5337    16.7490   588.5393 </r>
       <r>     4.5878    22.5831   589.7600 </r>
       <r>     4.6418    27.8085   591.2633 </r>
       <r>     4.6959    28.0935   592.7819 </r>
       <r>     4.7499    25.5974   594.1656 </r>
       <r>     4.8040    24.2159   595.4746 </r>
       <r>     4.8581    24.5191   596.8000 </r>
       <r>     4.9121    25.3131   598.1683 </r>
       <r>     4.9662    27.9165   599.6774 </r>
       <r>     5.0202    34.0621   601.5186 </r>
       <r>     5.0743    39.9669   603.6791 </r>
       <r>     5.1283    39.3411   605.8057 </r>
       <r>     5.1824    33.1515   607.5978 </r>
       <r>     5.2364    27.2453   609.0705 </r>
       <r>     5.2905    22.4316   610.2831 </r>
       <r>     5.3446    16.4282   611.1711 </r>
       <r>     5.3986     9.6140   611.6908 </r>
       <r>     5.4527     4.1805   611.9168 </r>
       <r>     5.5067     1.2600   611.9849 </r>
       <r>     5.5608     0.2468   611.9983 </r>
       <r>     5.6148     0.0299   611.9999 </r>
       <r>     5.6689     0.0022   612.0000 </r>
       <r>     5.7229     0.0001   612.0000 </r>
       <r>     5.7770     0.0000   612.0000 </r>
       <r>     5.8311     0.0000   612.0000 </r>
       <r>     5.8851     0.0000   612.0000 </r>
       <r>     5.9392     0.0000   612.0000 </r>
       <r>     5.9932     0.0000   612.0000 </r>
       <r>     6.0473     0.0000   612.0000 </r>
       <r>     6.1013     0.0000   612.0000 </r>
       <r>     6.1554     0.0000   612.0000 </r>
       <r>     6.2095     0.0000   612.0000 </r>
       <r>     6.2635     0.0000   612.0000 </r>
       <r>     6.3176     0.0000   612.0000 </r>
       <r>     6.3716     0.0000   612.0000 </r>
      </set>
     </set>
    </array>
   </total>
  </dos>
 </calculation>
 <structure name="finalpos" >
  <crystal>
   <varray name="basis" >
    <v>      11.00258152       0.00000000       0.00000000 </v>
    <v>       5.50129076       9.52851510       0.00000000 </v>
    <v>       0.00000000       0.00000000      24.49178509 </v>
   </varray>
   <i name="volume">   2567.67623402 </i>
   <varray name="rec_basis" >
    <v>       0.09088776      -0.05247407       0.00000000 </v>
    <v>       0.00000000       0.10494815       0.00000000 </v>
    <v>       0.00000000       0.00000000       0.04083002 </v>
   </varray>
  </crystal>
  <varray name="positions" >
   <v>       0.08333333       0.08333333       0.40830017 </v>
   <v>       0.33333333       0.08333333       0.40830017 </v>
   <v>      -0.00023767       0.00122872       0.61334759 </v>
   <v>       0.91752203       0.16850021       0.50997368 </v>
   <v>       0.91673203       0.66784824       0.50454005 </v>
   <v>       0.25017695       0.75165584       0.61352733 </v>
   <v>       0.33333333       0.58333333       0.40830017 </v>
   <v>       0.24782152       0.49816778       0.60808241 </v>
   <v>       0.75244168       0.50195552       0.61148734 </v>
   <v>       0.75157096       0.24907496       0.61893827 </v>
   <v>       0.66870219       0.41734034       0.51030064 </v>
   <v>       0.66732943       0.16588549       0.51271320 </v>
   <v>      -0.00345828       0.75004109       0.60859366 </v>
   <v>       0.41780815       0.91681217       0.50950438 </v>
   <v>       0.58333333       0.83333333       0.40830017 </v>
   <v>       0.50014633       0.49996316       0.61445731 </v>
   <v>       0.41667543       0.66602052       0.51015201 </v>
   <v>       0.58333333       0.58333333       0.40830017 </v>
   <v>       0.49834324       0.24675677       0.61523523 </v>
   <v>       0.58333333       0.33333333       0.40830017 </v>
   <v>       0.41476399       0.17010886       0.50957590 </v>
   <v>       0.58333333       0.08333333       0.40830017 </v>
   <v>       0.16542386       0.91594176       0.50816327 </v>
   <v>       0.83333333       0.08333333       0.40830017 </v>
   <v>       0.91717138       0.91550149       0.50797032 </v>
   <v>       0.41479535       0.41731692       0.50947272 </v>
   <v>       0.50075617      -0.00193094       0.60564541 </v>
   <v>       0.16452209       0.17140494       0.50759944 </v>
   <v>       0.16681488       0.41794247       0.50477875 </v>
   <v>       0.66838304       0.91642443       0.50783441 </v>
   <v>       0.33333333       0.33333333       0.40830017 </v>
   <v>       0.33333333       0.83333333       0.40830017 </v>
   <v>       0.08333333       0.83333333       0.40830017 </v>
   <v>       0.24964657       0.00216406       0.60520290 </v>
   <v>      -0.00039674       0.49861155       0.60127699 </v>
   <v>       0.91832080       0.41772309       0.50562415 </v>
   <v>       0.08333333       0.58333333       0.40830017 </v>
   <v>       0.50081489       0.75065835       0.60637226 </v>
   <v>       0.00070315       0.25107851       0.60497866 </v>
   <v>       0.74911567      -0.00086052       0.60673571 </v>
   <v>       0.83333333       0.33333333       0.40830017 </v>
   <v>       0.08333333       0.33333333       0.40830017 </v>
   <v>       0.83333333       0.58333333       0.40830017 </v>
   <v>       0.67009096       0.66541556       0.50826019 </v>
   <v>       0.83333333       0.83333333       0.40830017 </v>
   <v>       0.24682436       0.24934953       0.60424734 </v>
   <v>       0.16624139       0.66546403       0.50701995 </v>
   <v>       0.74835804       0.75143043       0.60320636 </v>
  </varray>
  <varray name="selective"  type="logical" >
   <v type="logical" >  F  F  F </v>
   <v type="logical" >  F  F  F </v>
   <v type="logical" >  T  T  T </v>
   <v type="logical" >  T  T  T </v>
   <v type="logical" >  T  T  T </v>
   <v type="logical" >  T  T  T </v>
   <v type="logical" >  F  F  F </v>
   <v type="logical" >  T  T  T </v>
   <v type="logical" >  T  T  T </v>
   <v type="logical" >  T  T  T </v>
   <v type="logical" >  T  T  T </v>
   <v type="logical" >  T  T  T </v>
   <v type="logical" >  T  T  T </v>
   <v type="logical" >  T  T  T </v>
   <v type="logical" >  F  F  F </v>
   <v type="logical" >  T  T  T </v>
   <v type="logical" >  T  T  T </v>
   <v type="logical" >  F  F  F </v>
   <v type="logical" >  T  T  T </v>
   <v type="logical" >  F  F  F </v>
   <v type="logical" >  T  T  T </v>
   <v type="logical" >  F  F  F </v>
   <v type="logical" >  T  T  T </v>
   <v type="logical" >  F  F  F </v>
   <v type="logical" >  T  T  T </v>
   <v type="logical" >  T  T  T </v>
   <v type="logical" >  T  T  T </v>
   <v type="logical" >  T  T  T </v>
   <v type="logical" >  T  T  T </v>
   <v type="logical" >  T  T  T </v>
   <v type="logical" >  F  F  F </v>
   <v type="logical" >  F  F  F </v>
   <v type="logical" >  F  F  F </v>
   <v type="logical" >  T  T  T </v>
   <v type="logical" >  T  T  T </v>
   <v type="logical" >  T  T  T </v>
   <v type="logical" >  F  F  F </v>
   <v type="logical" >  T  T  T </v>
   <v type="logical" >  T  T  T </v>
   <v type="logical" >  T  T  T </v>
   <v type="logical" >  F  F  F </v>
   <v type="logical" >  F  F  F </v>
   <v type="logical" >  F  F  F </v>
   <v type="logical" >  T  T  T </v>
   <v type="logical" >  F  F  F </v>
   <v type="logical" >  T  T  T </v>
   <v type="logical" >  T  T  T </v>
   <v type="logical" >  T  T  T </v>
  </varray>
  <nose>
   <v>      -3.00000000       0.00000000       0.00010000       0.00010000 </v>
  </nose>
 </structure>
</modeling>
