  56  56   0   0
  0.4903395E+02  0.1100258E-08  0.1100258E-08  0.2619179E-08  0.3500000E-15
  1.000000000000000E-004
  CAR 
 unknown system                          
      6.45699117    -21.75917329  301     -1.45770500      1.00000000
    -21.759  0.0000E+00  0.0000E+00
    -21.665  0.0000E+00  0.0000E+00
    -21.571  0.0000E+00  0.0000E+00
    -21.477  0.0000E+00  0.0000E+00
    -21.383  0.0000E+00  0.0000E+00
    -21.289  0.0000E+00  0.0000E+00
    -21.195  0.0000E+00  0.0000E+00
    -21.101  0.0000E+00  0.0000E+00
    -21.007  0.1343E-14  0.1263E-15
    -20.913  0.1441E-10  0.1355E-11
    -20.819  0.2744E-07  0.2582E-08
    -20.725  0.9465E-05  0.8928E-06
    -20.631  0.6112E-03  0.5838E-04
    -20.536  0.7777E-02  0.7898E-03
    -20.442  0.2073E-01  0.2740E-02
    -20.348  0.1327E-01  0.3987E-02
    -20.254  0.1297E-01  0.5208E-02
    -20.160  0.2326E-01  0.7395E-02
    -20.066  0.2630E-01  0.9869E-02
    -19.972  0.4469E-01  0.1407E-01
    -19.878  0.4743E-01  0.1853E-01
    -19.784  0.3108E-01  0.2146E-01
    -19.690  0.2935E-01  0.2422E-01
    -19.596  0.2763E-01  0.2682E-01
    -19.502  0.2121E-01  0.2881E-01
    -19.408  0.2237E-01  0.3092E-01
    -19.314  0.1042E-01  0.3190E-01
    -19.220  0.1087E-02  0.3200E-01
    -19.126  0.2263E-04  0.3200E-01
    -19.032  0.8893E-07  0.3200E-01
    -18.938  0.6359E-10  0.3200E-01
    -18.844  0.8097E-14  0.3200E-01
    -18.749  0.0000E+00  0.3200E-01
    -18.655  0.0000E+00  0.3200E-01
    -18.561  0.0000E+00  0.3200E-01
    -18.467  0.0000E+00  0.3200E-01
    -18.373  0.0000E+00  0.3200E-01
    -18.279  0.0000E+00  0.3200E-01
    -18.185  0.0000E+00  0.3200E-01
    -18.091  0.0000E+00  0.3200E-01
    -17.997  0.0000E+00  0.3200E-01
    -17.903  0.0000E+00  0.3200E-01
    -17.809  0.0000E+00  0.3200E-01
    -17.715  0.0000E+00  0.3200E-01
    -17.621  0.0000E+00  0.3200E-01
    -17.527  0.0000E+00  0.3200E-01
    -17.433  0.0000E+00  0.3200E-01
    -17.339  0.0000E+00  0.3200E-01
    -17.245  0.0000E+00  0.3200E-01
    -17.151  0.0000E+00  0.3200E-01
    -17.056  0.0000E+00  0.3200E-01
    -16.962  0.0000E+00  0.3200E-01
    -16.868  0.0000E+00  0.3200E-01
    -16.774  0.0000E+00  0.3200E-01
    -16.680  0.0000E+00  0.3200E-01
    -16.586  0.0000E+00  0.3200E-01
    -16.492  0.0000E+00  0.3200E-01
    -16.398  0.0000E+00  0.3200E-01
    -16.304  0.0000E+00  0.3200E-01
    -16.210  0.0000E+00  0.3200E-01
    -16.116  0.0000E+00  0.3200E-01
    -16.022  0.0000E+00  0.3200E-01
    -15.928  0.0000E+00  0.3200E-01
    -15.834  0.0000E+00  0.3200E-01
    -15.740  0.0000E+00  0.3200E-01
    -15.646  0.0000E+00  0.3200E-01
    -15.552  0.0000E+00  0.3200E-01
    -15.458  0.0000E+00  0.3200E-01
    -15.364  0.0000E+00  0.3200E-01
    -15.269  0.0000E+00  0.3200E-01
    -15.175  0.0000E+00  0.3200E-01
    -15.081  0.0000E+00  0.3200E-01
    -14.987  0.0000E+00  0.3200E-01
    -14.893  0.0000E+00  0.3200E-01
    -14.799  0.0000E+00  0.3200E-01
    -14.705  0.0000E+00  0.3200E-01
    -14.611  0.0000E+00  0.3200E-01
    -14.517  0.0000E+00  0.3200E-01
    -14.423  0.0000E+00  0.3200E-01
    -14.329  0.0000E+00  0.3200E-01
    -14.235  0.0000E+00  0.3200E-01
    -14.141  0.0000E+00  0.3200E-01
    -14.047  0.0000E+00  0.3200E-01
    -13.953  0.0000E+00  0.3200E-01
    -13.859  0.0000E+00  0.3200E-01
    -13.765  0.0000E+00  0.3200E-01
    -13.671  0.0000E+00  0.3200E-01
    -13.576  0.0000E+00  0.3200E-01
    -13.482  0.0000E+00  0.3200E-01
    -13.388  0.0000E+00  0.3200E-01
    -13.294  0.0000E+00  0.3200E-01
    -13.200  0.0000E+00  0.3200E-01
    -13.106  0.0000E+00  0.3200E-01
    -13.012  0.0000E+00  0.3200E-01
    -12.918  0.0000E+00  0.3200E-01
    -12.824  0.0000E+00  0.3200E-01
    -12.730  0.0000E+00  0.3200E-01
    -12.636  0.0000E+00  0.3200E-01
    -12.542  0.0000E+00  0.3200E-01
    -12.448  0.0000E+00  0.3200E-01
    -12.354  0.0000E+00  0.3200E-01
    -12.260  0.0000E+00  0.3200E-01
    -12.166  0.0000E+00  0.3200E-01
    -12.072  0.0000E+00  0.3200E-01
    -11.978  0.0000E+00  0.3200E-01
    -11.884  0.0000E+00  0.3200E-01
    -11.789  0.0000E+00  0.3200E-01
    -11.695  0.0000E+00  0.3200E-01
    -11.601  0.0000E+00  0.3200E-01
    -11.507  0.0000E+00  0.3200E-01
    -11.413  0.0000E+00  0.3200E-01
    -11.319  0.0000E+00  0.3200E-01
    -11.225  0.0000E+00  0.3200E-01
    -11.131  0.0000E+00  0.3200E-01
    -11.037  0.0000E+00  0.3200E-01
    -10.943  0.0000E+00  0.3200E-01
    -10.849  0.0000E+00  0.3200E-01
    -10.755  0.0000E+00  0.3200E-01
    -10.661  0.0000E+00  0.3200E-01
    -10.567  0.0000E+00  0.3200E-01
    -10.473  0.0000E+00  0.3200E-01
    -10.379  0.0000E+00  0.3200E-01
    -10.285  0.0000E+00  0.3200E-01
    -10.191  0.0000E+00  0.3200E-01
    -10.096  0.0000E+00  0.3200E-01
    -10.002  0.0000E+00  0.3200E-01
     -9.908  0.0000E+00  0.3200E-01
     -9.814  0.1220E-16  0.3200E-01
     -9.720  0.2465E-12  0.3200E-01
     -9.626  0.9033E-09  0.3200E-01
     -9.532  0.5972E-06  0.3200E-01
     -9.438  0.7318E-04  0.3201E-01
     -9.344  0.1737E-02  0.3217E-01
     -9.250  0.8572E-02  0.3298E-01
     -9.156  0.1110E-01  0.3402E-01
     -9.062  0.1105E-01  0.3506E-01
     -8.968  0.8277E-02  0.3584E-01
     -8.874  0.1818E-02  0.3601E-01
     -8.780  0.2122E-02  0.3621E-01
     -8.686  0.8186E-02  0.3698E-01
     -8.592  0.1771E-01  0.3864E-01
     -8.498  0.2368E-01  0.4087E-01
     -8.404  0.1851E-01  0.4261E-01
     -8.309  0.1712E-01  0.4422E-01
     -8.215  0.2337E-01  0.4642E-01
     -8.121  0.2986E-01  0.4923E-01
     -8.027  0.4851E-01  0.5379E-01
     -7.933  0.5961E-01  0.5940E-01
     -7.839  0.5883E-01  0.6493E-01
     -7.745  0.6640E-01  0.7118E-01
     -7.651  0.8034E-01  0.7873E-01
     -7.557  0.9194E-01  0.8738E-01
     -7.463  0.1053E+00  0.9728E-01
     -7.369  0.1207E+00  0.1086E+00
     -7.275  0.1238E+00  0.1203E+00
     -7.181  0.1257E+00  0.1321E+00
     -7.087  0.1336E+00  0.1447E+00
     -6.993  0.1507E+00  0.1588E+00
     -6.899  0.1585E+00  0.1737E+00
     -6.805  0.1596E+00  0.1888E+00
     -6.711  0.1708E+00  0.2048E+00
     -6.616  0.1851E+00  0.2222E+00
     -6.522  0.1795E+00  0.2391E+00
     -6.428  0.1650E+00  0.2546E+00
     -6.334  0.1522E+00  0.2690E+00
     -6.240  0.1480E+00  0.2829E+00
     -6.146  0.1546E+00  0.2974E+00
     -6.052  0.1530E+00  0.3118E+00
     -5.958  0.1464E+00  0.3256E+00
     -5.864  0.1519E+00  0.3399E+00
     -5.770  0.1644E+00  0.3553E+00
     -5.676  0.1777E+00  0.3720E+00
     -5.582  0.1832E+00  0.3893E+00
     -5.488  0.1832E+00  0.4065E+00
     -5.394  0.1702E+00  0.4225E+00
     -5.300  0.1651E+00  0.4380E+00
     -5.206  0.1756E+00  0.4545E+00
     -5.112  0.1795E+00  0.4714E+00
     -5.018  0.1782E+00  0.4882E+00
     -4.924  0.1755E+00  0.5047E+00
     -4.829  0.1701E+00  0.5207E+00
     -4.735  0.1738E+00  0.5370E+00
     -4.641  0.1761E+00  0.5536E+00
     -4.547  0.1729E+00  0.5699E+00
     -4.453  0.1728E+00  0.5861E+00
     -4.359  0.1730E+00  0.6024E+00
     -4.265  0.1748E+00  0.6188E+00
     -4.171  0.1842E+00  0.6362E+00
     -4.077  0.1886E+00  0.6539E+00
     -3.983  0.1859E+00  0.6714E+00
     -3.889  0.1866E+00  0.6889E+00
     -3.795  0.1907E+00  0.7069E+00
     -3.701  0.1918E+00  0.7249E+00
     -3.607  0.1899E+00  0.7428E+00
     -3.513  0.1798E+00  0.7597E+00
     -3.419  0.1787E+00  0.7765E+00
     -3.325  0.1873E+00  0.7941E+00
     -3.231  0.1869E+00  0.8117E+00
     -3.137  0.1805E+00  0.8287E+00
     -3.042  0.1752E+00  0.8452E+00
     -2.948  0.1704E+00  0.8612E+00
     -2.854  0.1751E+00  0.8777E+00
     -2.760  0.1852E+00  0.8951E+00
     -2.666  0.1927E+00  0.9132E+00
     -2.572  0.1983E+00  0.9318E+00
     -2.478  0.1874E+00  0.9495E+00
     -2.384  0.1827E+00  0.9667E+00
     -2.290  0.1841E+00  0.9840E+00
     -2.196  0.1848E+00  0.1001E+01
     -2.102  0.1905E+00  0.1019E+01
     -2.008  0.1825E+00  0.1036E+01
     -1.914  0.1623E+00  0.1052E+01
     -1.820  0.1450E+00  0.1065E+01
     -1.726  0.1356E+00  0.1078E+01
     -1.632  0.1231E+00  0.1090E+01
     -1.538  0.9316E-01  0.1098E+01
     -1.444  0.6929E-01  0.1105E+01
     -1.349  0.6974E-01  0.1111E+01
     -1.255  0.7177E-01  0.1118E+01
     -1.161  0.5616E-01  0.1124E+01
     -1.067  0.4951E-01  0.1128E+01
     -0.973  0.6040E-01  0.1134E+01
     -0.879  0.6512E-01  0.1140E+01
     -0.785  0.5778E-01  0.1145E+01
     -0.691  0.5391E-01  0.1150E+01
     -0.597  0.5632E-01  0.1156E+01
     -0.503  0.4696E-01  0.1160E+01
     -0.409  0.2913E-01  0.1163E+01
     -0.315  0.2164E-01  0.1165E+01
     -0.221  0.2582E-01  0.1167E+01
     -0.127  0.2270E-01  0.1170E+01
     -0.033  0.2050E-01  0.1171E+01
      0.061  0.2264E-01  0.1174E+01
      0.155  0.2283E-01  0.1176E+01
      0.249  0.2914E-01  0.1178E+01
      0.343  0.3409E-01  0.1182E+01
      0.438  0.4040E-01  0.1186E+01
      0.532  0.4281E-01  0.1190E+01
      0.626  0.3713E-01  0.1193E+01
      0.720  0.3004E-01  0.1196E+01
      0.814  0.2672E-01  0.1198E+01
      0.908  0.2470E-01  0.1201E+01
      1.002  0.2496E-01  0.1203E+01
      1.096  0.2295E-01  0.1205E+01
      1.190  0.2199E-01  0.1207E+01
      1.284  0.2613E-01  0.1210E+01
      1.378  0.2843E-01  0.1212E+01
      1.472  0.2864E-01  0.1215E+01
      1.566  0.3020E-01  0.1218E+01
      1.660  0.3068E-01  0.1221E+01
      1.754  0.3270E-01  0.1224E+01
      1.848  0.3415E-01  0.1227E+01
      1.942  0.3538E-01  0.1230E+01
      2.036  0.3772E-01  0.1234E+01
      2.131  0.2844E-01  0.1237E+01
      2.225  0.2771E-01  0.1239E+01
      2.319  0.2886E-01  0.1242E+01
      2.413  0.2589E-01  0.1244E+01
      2.507  0.2254E-01  0.1247E+01
      2.601  0.2258E-01  0.1249E+01
      2.695  0.2417E-01  0.1251E+01
      2.789  0.2464E-01  0.1253E+01
      2.883  0.2020E-01  0.1255E+01
      2.977  0.1773E-01  0.1257E+01
      3.071  0.2514E-01  0.1259E+01
      3.165  0.3443E-01  0.1262E+01
      3.259  0.3236E-01  0.1265E+01
      3.353  0.3278E-01  0.1269E+01
      3.447  0.3012E-01  0.1271E+01
      3.541  0.3019E-01  0.1274E+01
      3.635  0.2708E-01  0.1277E+01
      3.729  0.3003E-01  0.1280E+01
      3.823  0.3630E-01  0.1283E+01
      3.918  0.3398E-01  0.1286E+01
      4.012  0.2978E-01  0.1289E+01
      4.106  0.2934E-01  0.1292E+01
      4.200  0.3064E-01  0.1295E+01
      4.294  0.4063E-01  0.1298E+01
      4.388  0.4906E-01  0.1303E+01
      4.482  0.4848E-01  0.1308E+01
      4.576  0.4329E-01  0.1312E+01
      4.670  0.4603E-01  0.1316E+01
      4.764  0.5434E-01  0.1321E+01
      4.858  0.5865E-01  0.1327E+01
      4.952  0.5808E-01  0.1332E+01
      5.046  0.5651E-01  0.1337E+01
      5.140  0.4674E-01  0.1342E+01
      5.234  0.1956E-01  0.1344E+01
      5.328  0.3372E-02  0.1344E+01
      5.422  0.1864E-03  0.1344E+01
      5.516  0.2459E-05  0.1344E+01
      5.611  0.6515E-08  0.1344E+01
      5.705  0.3214E-11  0.1344E+01
      5.799  0.2857E-15  0.1344E+01
      5.893  0.0000E+00  0.1344E+01
      5.987  0.0000E+00  0.1344E+01
      6.081  0.0000E+00  0.1344E+01
      6.175  0.0000E+00  0.1344E+01
      6.269  0.0000E+00  0.1344E+01
      6.363  0.0000E+00  0.1344E+01
      6.457  0.0000E+00  0.1344E+01
