<?xml version="1.0" encoding="ISO-8859-1"?>
<modeling>
 <generator>
  <i name="program" type="string">vasp </i>
  <i name="version" type="string">5.4.1  </i>
  <i name="subversion" type="string">24Jun15 (build Mar 14 2019 10:18:33) complex                          parallel </i>
  <i name="platform" type="string">INTEL-19.0.2+OPENMPI-3.1.3 </i>
  <i name="date" type="string">2023 01 23 </i>
  <i name="time" type="string">14:49:51 </i>
 </generator>
 <incar>
  <i type="int" name="ISTART">     0</i>
  <i type="string" name="PREC">normal</i>
  <i type="string" name="ALGO"> Fast</i>
  <i type="int" name="NELM">   500</i>
  <i type="int" name="IBRION">     2</i>
  <i type="int" name="NFREE">     2</i>
  <i name="EDIFF">      0.00000100</i>
  <i name="EDIFFG">     -0.02000000</i>
  <i type="int" name="NSW">   500</i>
  <i type="int" name="ISIF">     0</i>
  <i type="int" name="ISYM">     2</i>
  <i name="ENCUT">    400.00000000</i>
  <i name="POTIM">      0.35000000</i>
  <i type="string" name="LREAL"> Auto</i>
  <i type="logical" name="LPLANE"> T  </i>
  <i type="int" name="ISMEAR">     0</i>
  <i name="SIGMA">      0.10000000</i>
  <i type="int" name="NWRITE">     1</i>
  <i type="logical" name="LWAVE"> F  </i>
  <i type="logical" name="LCHARG"> F  </i>
  <i type="logical" name="LVTOT"> F  </i>
  <i type="logical" name="LORBIT"> F  </i>
  <i type="logical" name="LAECHG"> F  </i>
  <v type="int" name="KPOINT_BSE">    -1     0     0     0</v>
  <i type="int" name="NELM">   500</i>
  <i type="string" name="GGA"> PE          ! optPBE-vdW XC-functional</i>
  <i type="int" name="VOSKOWN">     1</i>
  <i type="logical" name="LDIPOL"> T  </i>
  <i type="logical" name="LMONO"> F  </i>
  <i type="int" name="IDIPOL">     3</i>
  <v name="DIPOL">      0.00000000      0.00000000      0.50000000</v>
 </incar>
 <kpoints>
  <generation param="Monkhorst-Pack">
   <v type="int" name="divisions">       2        2        1 </v>
   <v name="usershift">      0.00000000       0.00000000       0.00000000 </v>
   <v name="genvec1">      0.50000000       0.00000000       0.00000000 </v>
   <v name="genvec2">      0.00000000       0.50000000       0.00000000 </v>
   <v name="genvec3">      0.00000000       0.00000000       1.00000000 </v>
   <v name="shift">      0.50000000       0.50000000       0.00000000 </v>
  </generation>
  <varray name="kpointlist" >
   <v>       0.25000000       0.25000000       0.00000000 </v>
   <v>       0.00000000       0.25000000       0.00000000 </v>
   <v>      -0.25000000       0.00000000       0.00000000 </v>
   <v>      -0.25000000       0.25000000       0.00000000 </v>
   <v>       0.50000000      -0.25000000       0.00000000 </v>
   <v>      -0.25000000       0.50000000       0.00000000 </v>
  </varray>
  <varray name="weights" >
   <v>       0.16666667 </v>
   <v>       0.16666667 </v>
   <v>       0.16666667 </v>
   <v>       0.16666667 </v>
   <v>       0.16666667 </v>
   <v>       0.16666667 </v>
  </varray>
 </kpoints>
 <parameters>
  <separator name="general" >
   <i type="string" name="SYSTEM">unknown system</i>
   <i type="logical" name="LCOMPAT"> F  </i>
  </separator>
  <separator name="electronic" >
   <i type="string" name="PREC">normal</i>
   <i name="ENMAX">    400.00000000</i>
   <i name="ENAUG">    605.39200000</i>
   <i name="EDIFF">      0.00000100</i>
   <i type="int" name="IALGO">    68</i>
   <i type="int" name="IWAVPR">    11</i>
   <i type="int" name="NBANDS">   336</i>
   <i name="NELECT">    552.00000000</i>
   <i type="int" name="TURBO">     0</i>
   <i type="int" name="IRESTART">     0</i>
   <i type="int" name="NREBOOT">     0</i>
   <i type="int" name="NMIN">     0</i>
   <i name="EREF">      0.00000000</i>
   <separator name="electronic smearing" >
    <i type="int" name="ISMEAR">     0</i>
    <i name="SIGMA">      0.10000000</i>
    <i name="KSPACING">      0.50000000</i>
    <i type="logical" name="KGAMMA"> T  </i>
   </separator>
   <separator name="electronic projectors" >
    <i type="logical" name="LREAL"> T  </i>
    <v name="ROPT">     -0.00050000     -0.00050000     -0.00050000</v>
    <i type="int" name="LMAXPAW">  -100</i>
    <i type="int" name="LMAXMIX">     2</i>
    <i type="logical" name="NLSPLINE"> F  </i>
   </separator>
   <separator name="electronic startup" >
    <i type="int" name="ISTART">     0</i>
    <i type="int" name="ICHARG">     2</i>
    <i type="int" name="INIWAV">     1</i>
   </separator>
   <separator name="electronic spin" >
    <i type="int" name="ISPIN">     1</i>
    <i type="logical" name="LNONCOLLINEAR"> F  </i>
    <v name="MAGMOM">      1.00000000      1.00000000      1.00000000      1.00000000      1.00000000      1.00000000      1.00000000      1.00000000      1.00000000      1.00000000      1.00000000      1.00000000      1.00000000      1.00000000      1.00000000      1.00000000      1.00000000      1.00000000      1.00000000      1.00000000
      1.00000000      1.00000000      1.00000000      1.00000000      1.00000000      1.00000000      1.00000000      1.00000000      1.00000000      1.00000000      1.00000000      1.00000000      1.00000000      1.00000000      1.00000000      1.00000000      1.00000000      1.00000000      1.00000000      1.00000000
      1.00000000      1.00000000      1.00000000      1.00000000      1.00000000      1.00000000      1.00000000      1.00000000      1.00000000      1.00000000      1.00000000      1.00000000      1.00000000      1.00000000      1.00000000      1.00000000</v>
    <i name="NUPDOWN">     -1.00000000</i>
    <i type="logical" name="LSORBIT"> F  </i>
    <v name="SAXIS">      0.00000000      0.00000000      1.00000000</v>
    <i type="logical" name="LSPIRAL"> F  </i>
    <v name="QSPIRAL">      0.00000000      0.00000000      0.00000000</v>
    <i type="logical" name="LZEROZ"> F  </i>
   </separator>
   <separator name="electronic exchange-correlation" >
    <i type="logical" name="LASPH"> F  </i>
    <i type="logical" name="LMETAGGA"> F  </i>
   </separator>
   <separator name="electronic convergence" >
    <i type="int" name="NELM">   500</i>
    <i type="int" name="NELMDL">    -5</i>
    <i type="int" name="NELMIN">     2</i>
    <i name="ENINI">    400.00000000</i>
    <separator name="electronic convergence detail" >
     <i type="logical" name="LDIAG"> T  </i>
     <i type="logical" name="LSUBROT"> F  </i>
     <i name="WEIMIN">      0.00100000</i>
     <i name="EBREAK">      0.00000000</i>
     <i name="DEPER">      0.30000000</i>
     <i type="int" name="NRMM">     4</i>
     <i name="TIME">      0.40000000</i>
    </separator>
   </separator>
   <separator name="electronic mixer" >
    <i name="AMIX">      0.40000000</i>
    <i name="BMIX">      1.00000000</i>
    <i name="AMIN">      0.10000000</i>
    <i name="AMIX_MAG">      1.60000000</i>
    <i name="BMIX_MAG">      1.00000000</i>
    <separator name="electronic mixer details" >
     <i type="int" name="IMIX">     4</i>
     <i type="logical" name="MIXFIRST"> F  </i>
     <i type="int" name="MAXMIX">   -45</i>
     <i name="WC">    100.00000000</i>
     <i type="int" name="INIMIX">     1</i>
     <i type="int" name="MIXPRE">     1</i>
     <i type="int" name="MREMOVE">     5</i>
    </separator>
   </separator>
   <separator name="electronic dipolcorrection" >
    <i type="logical" name="LDIPOL"> T  </i>
    <i type="logical" name="LMONO"> F  </i>
    <i type="int" name="IDIPOL">     3</i>
    <i name="EPSILON">      1.00000000</i>
    <v name="DIPOL">      0.00000000      0.00000000      0.50000000</v>
    <i name="EFIELD">      0.00000000</i>
   </separator>
  </separator>
  <separator name="grids" >
   <i type="int" name="NGX">    54</i>
   <i type="int" name="NGY">    54</i>
   <i type="int" name="NGZ">   128</i>
   <i type="int" name="NGXF">   108</i>
   <i type="int" name="NGYF">   108</i>
   <i type="int" name="NGZF">   256</i>
   <i type="logical" name="ADDGRID"> F  </i>
  </separator>
  <separator name="ionic" >
   <i type="int" name="NSW">   500</i>
   <i type="int" name="IBRION">     2</i>
   <i type="int" name="ISIF">     0</i>
   <i name="PSTRESS">      0.00000000</i>
   <i name="EDIFFG">     -0.02000000</i>
   <i type="int" name="NFREE">     2</i>
   <i name="POTIM">      0.35000000</i>
   <i name="SMASS">     -3.00000000</i>
   <i name="SCALEE">      1.00000000</i>
  </separator>
  <separator name="ionic md" >
   <i name="TEBEG">      0.00010000</i>
   <i name="TEEND">      0.00010000</i>
   <i type="int" name="NBLOCK">     1</i>
   <i type="int" name="KBLOCK">   500</i>
   <i type="int" name="NPACO">   256</i>
   <i name="APACO">     16.00000000</i>
  </separator>
  <separator name="symmetry" >
   <i type="int" name="ISYM">     2</i>
   <i name="SYMPREC">      0.00001000</i>
  </separator>
  <separator name="dos" >
   <i type="logical" name="LORBIT"> F  </i>
   <v name="RWIGS">     -1.00000000     -1.00000000     -1.00000000</v>
   <i type="int" name="NEDOS">   301</i>
   <i name="EMIN">     10.00000000</i>
   <i name="EMAX">    -10.00000000</i>
   <i name="EFERMI">      0.00000000</i>
  </separator>
  <separator name="writing" >
   <i type="int" name="NWRITE">     1</i>
   <i type="logical" name="LWAVE"> F  </i>
   <i type="logical" name="LCHARG"> F  </i>
   <i type="logical" name="LPARD"> F  </i>
   <i type="logical" name="LVTOT"> F  </i>
   <i type="logical" name="LVHAR"> F  </i>
   <i type="logical" name="LELF"> F  </i>
   <i type="logical" name="LOPTICS"> F  </i>
   <v name="STM">      0.00000000      0.00000000      0.00000000      0.00000000      0.00000000      0.00000000      0.00000000</v>
  </separator>
  <separator name="performance" >
   <i type="int" name="NPAR">     6</i>
   <i type="int" name="NSIM">     4</i>
   <i type="int" name="NBLK">    -1</i>
   <i type="logical" name="LPLANE"> T  </i>
   <i type="logical" name="LSCALAPACK"> T  </i>
   <i type="logical" name="LSCAAWARE"> F  </i>
   <i type="logical" name="LSCALU"> F  </i>
   <i type="logical" name="LASYNC"> F  </i>
   <i type="logical" name="LORBITALREAL"> F  </i>
  </separator>
  <separator name="miscellaneous" >
   <i type="int" name="IDIOT">     3</i>
   <i type="logical" name="LMUSIC"> F  </i>
   <v name="POMASS">    196.96600000     16.00000000    106.42000000</v>
   <v name="DARWINR">      0.00000000      0.00000000      0.00000000</v>
   <v name="DARWINV">      1.00000000      1.00000000      1.00000000</v>
   <i type="logical" name="LCORR"> T  </i>
  </separator>
  <i type="logical" name="GGA_COMPAT"> T  </i>
  <i type="logical" name="LBERRY"> F  </i>
  <i type="int" name="ICORELEVEL">     0</i>
  <i type="logical" name="LDAU"> F  </i>
  <i type="int" name="I_CONSTRAINED_M">     0</i>
  <separator name="electronic exchange-correlation" >
   <i type="string" name="GGA">PE</i>
   <i type="int" name="VOSKOWN">     1</i>
   <i type="logical" name="LHFCALC"> F  </i>
   <i type="string" name="PRECFOCK"></i>
   <i type="logical" name="LSYMGRAD"> F  </i>
   <i type="logical" name="LHFONE"> F  </i>
   <i type="logical" name="LRHFCALC"> F  </i>
   <i type="logical" name="LTHOMAS"> F  </i>
   <i type="logical" name="LMODELHF"> F  </i>
   <i name="ENCUT4O">     -1.00000000</i>
   <i type="int" name="EXXOEP">     0</i>
   <i type="int" name="FOURORBIT">     0</i>
   <i name="AEXX">      0.00000000</i>
   <i name="HFALPHA">      0.00000000</i>
   <i name="MCALPHA">      0.00000000</i>
   <i name="ALDAX">      1.00000000</i>
   <i name="AGGAX">      1.00000000</i>
   <i name="ALDAC">      1.00000000</i>
   <i name="AGGAC">      1.00000000</i>
   <i type="int" name="NKREDX">     1</i>
   <i type="int" name="NKREDY">     1</i>
   <i type="int" name="NKREDZ">     1</i>
   <i type="logical" name="SHIFTRED"> F  </i>
   <i type="logical" name="ODDONLY"> F  </i>
   <i type="logical" name="EVENONLY"> F  </i>
   <i type="int" name="LMAXFOCK">     0</i>
   <i type="int" name="NMAXFOCKAE">     0</i>
   <i type="logical" name="LFOCKAEDFT"> F  </i>
   <i name="HFSCREEN">      0.00000000</i>
   <i name="HFSCREENC">      0.00000000</i>
   <i type="int" name="NBANDSGWLOW">     0</i>
  </separator>
  <separator name="vdW DFT" >
   <i type="logical" name="LUSE_VDW"> F  </i>
   <i name="Zab_VDW">     -0.84910000</i>
   <i name="PARAM1">      0.12340000</i>
   <i name="PARAM2">      1.00000000</i>
   <i name="PARAM3">      0.00000000</i>
  </separator>
  <separator name="model GW" >
   <i type="int" name="MODEL_GW">     0</i>
   <i name="MODEL_EPS0">     29.42037089</i>
   <i name="MODEL_ALPHA">      1.00000000</i>
  </separator>
  <separator name="linear response parameters" >
   <i type="logical" name="LEPSILON"> F  </i>
   <i type="logical" name="LRPA"> F  </i>
   <i type="logical" name="LNABLA"> F  </i>
   <i type="logical" name="LVEL"> F  </i>
   <i type="int" name="KINTER">     0</i>
   <i name="CSHIFT">      0.10000000</i>
   <i name="OMEGAMAX">     -1.00000000</i>
   <i name="DEG_THRESHOLD">      0.00200000</i>
  </separator>
  <separator name="orbital magnetization" >
   <i type="logical" name="NUCIND"> F  </i>
   <v name="MAGPOS">      0.00000000      0.00000000      0.00000000</v>
   <i type="logical" name="LNICSALL"> T  </i>
   <i type="logical" name="ORBITALMAG"> F  </i>
   <i type="logical" name="LMAGBLOCH"> F  </i>
   <i type="logical" name="LCHIMAG"> F  </i>
   <i type="logical" name="LGAUGE"> T  </i>
   <i type="int" name="MAGATOM">     0</i>
   <v name="MAGDIPOL">      0.00000000      0.00000000      0.00000000</v>
   <v name="AVECCONST">      0.00000000      0.00000000      0.00000000</v>
  </separator>
  <separator name="response functions" >
   <i type="logical" name="LADDER"> F  </i>
   <i type="logical" name="LFXC"> F  </i>
   <i type="logical" name="LHARTREE"> T  </i>
   <i type="int" name="IBSE">     0</i>
   <v type="int" name="KPOINT">    -1     0     0     0</v>
   <i type="logical" name="LTCTE"> F  </i>
   <i type="logical" name="LTETE"> F  </i>
   <i type="logical" name="LTRIPLET"> F  </i>
   <i type="logical" name="LFXCEPS"> F  </i>
   <i type="logical" name="LFXHEG"> F  </i>
   <i type="int" name="NATURALO">     0</i>
   <i type="logical" name="L2ORDER"> F  </i>
   <i type="logical" name="LUSEW"> F  </i>
   <i name="ENCUTGW">     -2.00000000</i>
   <i name="ENCUTGWSOFT">     -2.00000000</i>
   <i name="ENCUTLF">     -1.00000000</i>
   <i type="int" name="LMAXMP2">    -1</i>
   <i name="SCISSOR">      0.00000000</i>
   <i type="int" name="NOMEGA">     0</i>
   <i type="int" name="NOMEGAR">     0</i>
   <i type="int" name="NBANDSGW">    -1</i>
   <i type="int" name="NBANDSO">    -1</i>
   <i type="int" name="NBANDSV">    -1</i>
   <i type="int" name="NELM">   500</i>
   <i type="int" name="NELMHF">     1</i>
   <i type="int" name="DIM">     3</i>
   <i type="int" name="ANTIRES">     0</i>
   <i name="OMEGAMAX">    -30.00000000</i>
   <i name="OMEGAMIN">    -30.00000000</i>
   <i name="OMEGATL">   -200.00000000</i>
   <i type="int" name="OMEGAGRID">     0</i>
   <i name="CSHIFT">     -0.10000000</i>
   <i type="logical" name="SELFENERGY"> F  </i>
   <i type="logical" name="LSPECTRAL"> F  </i>
   <i type="logical" name="LSPECTRALGW"> F  </i>
   <i type="logical" name="LSINGLES"> F  </i>
   <i type="logical" name="LFERMIGW"> F  </i>
   <i type="logical" name="ODDONLYGW"> F  </i>
   <i type="logical" name="EVENONLYGW"> F  </i>
   <i type="int" name="NKREDLFX">     1</i>
   <i type="int" name="NKREDLFY">     1</i>
   <i type="int" name="NKREDLFZ">     1</i>
   <i type="int" name="MAXMEM">  1800</i>
   <i type="int" name="TELESCOPE">     0</i>
   <i type="int" name="TAUPAR">     1</i>
   <i type="int" name="OMEGAPAR">    -1</i>
   <i name="LAMBDA">      1.00000000</i>
  </separator>
  <separator name="External order field" >
   <i name="OFIELD_KAPPA">      0.00000000</i>
   <v name="OFIELD_K">      0.00000000      0.00000000      0.00000000</v>
   <i name="OFIELD_Q6_NEAR">      0.00000000</i>
   <i name="OFIELD_Q6_FAR">      0.00000000</i>
   <i name="OFIELD_A">      0.00000000</i>
  </separator>
 </parameters>
 <atominfo>
  <atoms>      56 </atoms>
  <types>       3 </types>
  <array name="atoms" >
   <dimension dim="1">ion</dimension>
   <field type="string">element</field>
   <field type="int">atomtype</field>
   <set>
    <rc><c>Au</c><c>   1</c></rc>
    <rc><c>Au</c><c>   1</c></rc>
    <rc><c>Au</c><c>   1</c></rc>
    <rc><c>Au</c><c>   1</c></rc>
    <rc><c>Au</c><c>   1</c></rc>
    <rc><c>Au</c><c>   1</c></rc>
    <rc><c>Au</c><c>   1</c></rc>
    <rc><c>Au</c><c>   1</c></rc>
    <rc><c>Au</c><c>   1</c></rc>
    <rc><c>Au</c><c>   1</c></rc>
    <rc><c>Au</c><c>   1</c></rc>
    <rc><c>Au</c><c>   1</c></rc>
    <rc><c>Au</c><c>   1</c></rc>
    <rc><c>Au</c><c>   1</c></rc>
    <rc><c>Au</c><c>   1</c></rc>
    <rc><c>Au</c><c>   1</c></rc>
    <rc><c>Au</c><c>   1</c></rc>
    <rc><c>Au</c><c>   1</c></rc>
    <rc><c>Au</c><c>   1</c></rc>
    <rc><c>Au</c><c>   1</c></rc>
    <rc><c>Au</c><c>   1</c></rc>
    <rc><c>Au</c><c>   1</c></rc>
    <rc><c>Au</c><c>   1</c></rc>
    <rc><c>Au</c><c>   1</c></rc>
    <rc><c>O </c><c>   2</c></rc>
    <rc><c>O </c><c>   2</c></rc>
    <rc><c>O </c><c>   2</c></rc>
    <rc><c>O </c><c>   2</c></rc>
    <rc><c>O </c><c>   2</c></rc>
    <rc><c>O </c><c>   2</c></rc>
    <rc><c>O </c><c>   2</c></rc>
    <rc><c>O </c><c>   2</c></rc>
    <rc><c>Pd</c><c>   3</c></rc>
    <rc><c>Pd</c><c>   3</c></rc>
    <rc><c>Pd</c><c>   3</c></rc>
    <rc><c>Pd</c><c>   3</c></rc>
    <rc><c>Pd</c><c>   3</c></rc>
    <rc><c>Pd</c><c>   3</c></rc>
    <rc><c>Pd</c><c>   3</c></rc>
    <rc><c>Pd</c><c>   3</c></rc>
    <rc><c>Pd</c><c>   3</c></rc>
    <rc><c>Pd</c><c>   3</c></rc>
    <rc><c>Pd</c><c>   3</c></rc>
    <rc><c>Pd</c><c>   3</c></rc>
    <rc><c>Pd</c><c>   3</c></rc>
    <rc><c>Pd</c><c>   3</c></rc>
    <rc><c>Pd</c><c>   3</c></rc>
    <rc><c>Pd</c><c>   3</c></rc>
    <rc><c>Pd</c><c>   3</c></rc>
    <rc><c>Pd</c><c>   3</c></rc>
    <rc><c>Pd</c><c>   3</c></rc>
    <rc><c>Pd</c><c>   3</c></rc>
    <rc><c>Pd</c><c>   3</c></rc>
    <rc><c>Pd</c><c>   3</c></rc>
    <rc><c>Pd</c><c>   3</c></rc>
    <rc><c>Pd</c><c>   3</c></rc>
   </set>
  </array>
  <array name="atomtypes" >
   <dimension dim="1">type</dimension>
   <field type="int">atomspertype</field>
   <field type="string">element</field>
   <field>mass</field>
   <field>valence</field>
   <field type="string">pseudopotential</field>
   <set>
    <rc><c>  24</c><c>Au</c><c>    196.96600000</c><c>     11.00000000</c><c>  PAW_PBE Au 04Oct2007                  </c></rc>
    <rc><c>   8</c><c>O </c><c>     16.00000000</c><c>      6.00000000</c><c>  PAW_PBE O 08Apr2002                   </c></rc>
    <rc><c>  24</c><c>Pd</c><c>    106.42000000</c><c>     10.00000000</c><c>  PAW_PBE Pd 04Jan2005                  </c></rc>
   </set>
  </array>
 </atominfo>
 <structure name="initialpos" >
  <crystal>
   <varray name="basis" >
    <v>      11.00258152       0.00000000       0.00000000 </v>
    <v>       5.50129076       9.52851510       0.00000000 </v>
    <v>       0.00000000       0.00000000      26.19178509 </v>
   </varray>
   <i name="volume">   2745.90128299 </i>
   <varray name="rec_basis" >
    <v>       0.09088776      -0.05247407       0.00000000 </v>
    <v>       0.00000000       0.10494815       0.00000000 </v>
    <v>       0.00000000       0.00000000       0.03817991 </v>
   </varray>
  </crystal>
  <varray name="positions" >
   <v>       0.08333333       0.83333333       0.38179910 </v>
   <v>       0.17136772       0.91421476       0.47308718 </v>
   <v>       0.49791900       0.51059202       0.57369272 </v>
   <v>       0.99413049       0.01545849       0.56583086 </v>
   <v>       0.83333333       0.83333333       0.38179910 </v>
   <v>       0.08333333       0.33333333       0.38179910 </v>
   <v>       0.91499950       0.42236389       0.47865222 </v>
   <v>       0.48344386       0.03878930       0.56237224 </v>
   <v>       0.41648884       0.17306528       0.47447616 </v>
   <v>       0.66496216       0.67310664       0.47534537 </v>
   <v>       0.58333333       0.08333333       0.38179910 </v>
   <v>       0.27572365       0.47845817       0.56321163 </v>
   <v>       0.50585154       0.75668684       0.57054799 </v>
   <v>       0.91564032       0.91630095       0.47782313 </v>
   <v>       0.74171901       0.24949628       0.56819130 </v>
   <v>       0.66533985       0.41887368       0.47669375 </v>
   <v>       0.16748329       0.16835544       0.47572185 </v>
   <v>       0.83333333       0.33333333       0.38179910 </v>
   <v>       0.58333333       0.58333333       0.38179910 </v>
   <v>       0.33333333       0.33333333       0.38179910 </v>
   <v>       0.16513367       0.42299177       0.47609079 </v>
   <v>       0.23432013       0.24018868       0.61271040 </v>
   <v>       0.83333333       0.08333333       0.38179910 </v>
   <v>       0.33333333       0.58333333       0.38179910 </v>
   <v>       0.09649281       0.58210081       0.61396901 </v>
   <v>       0.83898095       0.59488091       0.61044857 </v>
   <v>       0.85187187       0.33540709       0.61470766 </v>
   <v>       0.07382451       0.84784819       0.61868830 </v>
   <v>       0.36972088       0.24869661       0.66266656 </v>
   <v>       0.58223803       0.35490676       0.63279505 </v>
   <v>       0.31649682       0.86792761       0.61647387 </v>
   <v>       0.59718227       0.86720028       0.61228399 </v>
   <v>       0.25165631       0.75274285       0.57891215 </v>
   <v>       0.33333333       0.83333333       0.38179910 </v>
   <v>       0.16890137       0.66779023       0.47708275 </v>
   <v>       0.24754047       0.01309488       0.56287172 </v>
   <v>       0.50216422       0.24240533       0.61589322 </v>
   <v>       0.33333333       0.08333333       0.38179910 </v>
   <v>       0.00070525       0.75530270       0.57210295 </v>
   <v>       0.01848757       0.48941948       0.57098614 </v>
   <v>       0.91909592       0.66946762       0.47675463 </v>
   <v>       0.08333333       0.58333333       0.38179910 </v>
   <v>       0.01212758       0.25142430       0.56747742 </v>
   <v>       0.91714290       0.16720852       0.47624849 </v>
   <v>       0.41988023       0.41899844       0.47522617 </v>
   <v>       0.08333333       0.08333333       0.38179910 </v>
   <v>       0.74208093       0.00807602       0.56570226 </v>
   <v>       0.66606248       0.16981964       0.47752597 </v>
   <v>       0.41623215       0.66862646       0.48368376 </v>
   <v>       0.66593672       0.92047949       0.47473369 </v>
   <v>       0.58333333       0.83333333       0.38179910 </v>
   <v>       0.74496171       0.50858027       0.57316171 </v>
   <v>       0.83333333       0.58333333       0.38179910 </v>
   <v>       0.41701152       0.91990343       0.47139049 </v>
   <v>       0.75884171       0.76113652       0.56404436 </v>
   <v>       0.58333333       0.33333333       0.38179910 </v>
  </varray>
  <varray name="selective"  type="logical" >
   <v type="logical" >  F  F  F </v>
   <v type="logical" >  T  T  T </v>
   <v type="logical" >  T  T  T </v>
   <v type="logical" >  T  T  T </v>
   <v type="logical" >  F  F  F </v>
   <v type="logical" >  F  F  F </v>
   <v type="logical" >  T  T  T </v>
   <v type="logical" >  T  T  T </v>
   <v type="logical" >  T  T  T </v>
   <v type="logical" >  T  T  T </v>
   <v type="logical" >  F  F  F </v>
   <v type="logical" >  T  T  T </v>
   <v type="logical" >  T  T  T </v>
   <v type="logical" >  T  T  T </v>
   <v type="logical" >  T  T  T </v>
   <v type="logical" >  T  T  T </v>
   <v type="logical" >  T  T  T </v>
   <v type="logical" >  F  F  F </v>
   <v type="logical" >  F  F  F </v>
   <v type="logical" >  F  F  F </v>
   <v type="logical" >  T  T  T </v>
   <v type="logical" >  T  T  T </v>
   <v type="logical" >  F  F  F </v>
   <v type="logical" >  F  F  F </v>
   <v type="logical" >  T  T  T </v>
   <v type="logical" >  T  T  T </v>
   <v type="logical" >  T  T  T </v>
   <v type="logical" >  T  T  T </v>
   <v type="logical" >  T  T  T </v>
   <v type="logical" >  T  T  T </v>
   <v type="logical" >  T  T  T </v>
   <v type="logical" >  T  T  T </v>
   <v type="logical" >  T  T  T </v>
   <v type="logical" >  F  F  F </v>
   <v type="logical" >  T  T  T </v>
   <v type="logical" >  T  T  T </v>
   <v type="logical" >  T  T  T </v>
   <v type="logical" >  F  F  F </v>
   <v type="logical" >  T  T  T </v>
   <v type="logical" >  T  T  T </v>
   <v type="logical" >  T  T  T </v>
   <v type="logical" >  F  F  F </v>
   <v type="logical" >  T  T  T </v>
   <v type="logical" >  T  T  T </v>
   <v type="logical" >  T  T  T </v>
   <v type="logical" >  F  F  F </v>
   <v type="logical" >  T  T  T </v>
   <v type="logical" >  T  T  T </v>
   <v type="logical" >  T  T  T </v>
   <v type="logical" >  T  T  T </v>
   <v type="logical" >  F  F  F </v>
   <v type="logical" >  T  T  T </v>
   <v type="logical" >  F  F  F </v>
   <v type="logical" >  T  T  T </v>
   <v type="logical" >  T  T  T </v>
   <v type="logical" >  F  F  F </v>
  </varray>
  <nose>
   <v>      -3.00000000       0.00000000       0.00010000       0.00010000 </v>
  </nose>
 </structure>
 <calculation>
  <scstep>
   <time name="dav">    8.33    8.43</time>
   <time name="total">    8.39    8.50</time>
   <dipole>
    <v name="dipole">      0.00000000       0.00000000       0.00007452 </v>
    <i name="Tr[quadrupol]"> -11174.00967898 </i>
    <i name="Echarged">      0.00000000 </i>
    <i name="Edipol_quadrupol">      0.00000000 </i>
    <i name="Eion">      0.00000000 </i>
   </dipole>
   <energy>
    <i name="alphaZ">    862.57721154 </i>
    <i name="ewald"> 237212.11234568 </i>
    <i name="hartreedc">-282828.75641266 </i>
    <i name="XCdc">   -115.67966550 </i>
    <i name="pawpsdc">  43112.45544455 </i>
    <i name="pawaedc"> -41079.41300390 </i>
    <i name="eentropy">     -0.14117352 </i>
    <i name="bandstr">   1342.85469066 </i>
    <i name="atom">  45117.89144060 </i>
    <i name="e_fr_energy">   3623.90087745 </i>
    <i name="e_wo_entrp">   3624.04205097 </i>
    <i name="e_0_energy">   3623.97146421 </i>
   </energy>
  </scstep>
  <scstep>
   <time name="dav">    9.95    9.98</time>
   <time name="total">    9.96    9.99</time>
   <dipole>
    <v name="dipole">      0.00000000       0.00000000       0.00007452 </v>
    <i name="Tr[quadrupol]"> -11174.00967898 </i>
    <i name="Echarged">      0.00000000 </i>
    <i name="Edipol_quadrupol">      0.00000000 </i>
    <i name="Eion">      0.00000000 </i>
   </dipole>
   <energy>
    <i name="e_fr_energy">     51.69177638 </i>
    <i name="e_wo_entrp">     51.83742365 </i>
    <i name="e_0_energy">     51.76460002 </i>
   </energy>
  </scstep>
  <scstep>
   <time name="dav">    9.81    9.83</time>
   <time name="total">    9.81    9.84</time>
   <dipole>
    <v name="dipole">      0.00000000       0.00000000       0.00007452 </v>
    <i name="Tr[quadrupol]"> -11174.00967898 </i>
    <i name="Echarged">      0.00000000 </i>
    <i name="Edipol_quadrupol">      0.00000000 </i>
    <i name="Eion">      0.00000000 </i>
   </dipole>
   <energy>
    <i name="e_fr_energy">   -252.89505504 </i>
    <i name="e_wo_entrp">   -252.68858825 </i>
    <i name="e_0_energy">   -252.79182164 </i>
   </energy>
  </scstep>
  <scstep>
   <time name="dav">    9.43    9.45</time>
   <time name="total">    9.43    9.46</time>
   <dipole>
    <v name="dipole">      0.00000000       0.00000000       0.00007452 </v>
    <i name="Tr[quadrupol]"> -11174.00967898 </i>
    <i name="Echarged">      0.00000000 </i>
    <i name="Edipol_quadrupol">      0.00000000 </i>
    <i name="Eion">      0.00000000 </i>
   </dipole>
   <energy>
    <i name="e_fr_energy">   -263.74657630 </i>
    <i name="e_wo_entrp">   -263.52537279 </i>
    <i name="e_0_energy">   -263.63597454 </i>
   </energy>
  </scstep>
  <scstep>
   <time name="dav">    9.71    9.81</time>
   <time name="total">   10.00   10.10</time>
   <dipole>
    <v name="dipole">      0.00000000       0.00000000       0.00007452 </v>
    <i name="Tr[quadrupol]"> -11174.00967898 </i>
    <i name="Echarged">      0.00000000 </i>
    <i name="Edipol_quadrupol">      0.00000000 </i>
    <i name="Eion">      0.00000000 </i>
   </dipole>
   <energy>
    <i name="e_fr_energy">   -264.06956719 </i>
    <i name="e_wo_entrp">   -263.84741285 </i>
    <i name="e_0_energy">   -263.95849002 </i>
   </energy>
  </scstep>
  <scstep>
   <time name="diag">    1.48    1.49</time>
   <time name="diis">    4.06    4.08</time>
   <time name="orth">    0.35    0.35</time>
   <time name="total">    6.22    6.25</time>
   <dipole>
    <v name="dipole">      0.00000000       0.00000000       1.43875100 </v>
    <i name="Tr[quadrupol]"> -11170.74590080 </i>
    <i name="Echarged">      0.00000000 </i>
    <i name="Edipol_quadrupol">      0.00000000 </i>
    <i name="Eion">      0.00000000 </i>
   </dipole>
   <energy>
    <i name="e_fr_energy">   -254.70003047 </i>
    <i name="e_wo_entrp">   -254.53516352 </i>
    <i name="e_0_energy">   -254.61759699 </i>
   </energy>
  </scstep>
  <scstep>
   <time name="diag">    1.48    1.48</time>
   <time name="diis">    4.06    4.07</time>
   <time name="orth">    0.35    0.35</time>
   <time name="total">    6.22    6.24</time>
   <dipole>
    <v name="dipole">      0.00000000       0.00000000      -2.34183028 </v>
    <i name="Tr[quadrupol]"> -11173.09101273 </i>
    <i name="Echarged">      0.00000000 </i>
    <i name="Edipol_quadrupol">      0.00000000 </i>
    <i name="Eion">      0.00000000 </i>
   </dipole>
   <energy>
    <i name="e_fr_energy">   -308.00683710 </i>
    <i name="e_wo_entrp">   -307.75176520 </i>
    <i name="e_0_energy">   -307.87930115 </i>
   </energy>
  </scstep>
  <scstep>
   <time name="diag">    1.47    1.48</time>
   <time name="diis">    4.08    4.09</time>
   <time name="orth">    0.35    0.35</time>
   <time name="total">    6.24    6.26</time>
   <dipole>
    <v name="dipole">      0.00000000       0.00000000      -0.30171105 </v>
    <i name="Tr[quadrupol]"> -11175.52617739 </i>
    <i name="Echarged">      0.00000000 </i>
    <i name="Edipol_quadrupol">      0.00000000 </i>
    <i name="Eion">      0.00000000 </i>
   </dipole>
   <energy>
    <i name="e_fr_energy">   -245.63137913 </i>
    <i name="e_wo_entrp">   -245.38367210 </i>
    <i name="e_0_energy">   -245.50752561 </i>
   </energy>
  </scstep>
  <scstep>
   <time name="diag">    1.48    1.48</time>
   <time name="diis">    3.94    3.99</time>
   <time name="orth">    0.35    0.35</time>
   <time name="total">    6.10    6.16</time>
   <dipole>
    <v name="dipole">      0.00000000       0.00000000       0.36732295 </v>
    <i name="Tr[quadrupol]"> -11169.36400749 </i>
    <i name="Echarged">      0.00000000 </i>
    <i name="Edipol_quadrupol">      0.00000000 </i>
    <i name="Eion">      0.00000000 </i>
   </dipole>
   <energy>
    <i name="e_fr_energy">   -258.25444622 </i>
    <i name="e_wo_entrp">   -258.09900711 </i>
    <i name="e_0_energy">   -258.17672667 </i>
   </energy>
  </scstep>
  <scstep>
   <time name="diag">    1.47    1.48</time>
   <time name="diis">    4.07    4.08</time>
   <time name="orth">    0.34    0.34</time>
   <time name="total">    6.22    6.24</time>
   <dipole>
    <v name="dipole">      0.00000000       0.00000000       0.26611079 </v>
    <i name="Tr[quadrupol]"> -11171.55340660 </i>
    <i name="Echarged">      0.00000000 </i>
    <i name="Edipol_quadrupol">      0.00000000 </i>
    <i name="Eion">      0.00000000 </i>
   </dipole>
   <energy>
    <i name="e_fr_energy">   -252.30675145 </i>
    <i name="e_wo_entrp">   -252.13963862 </i>
    <i name="e_0_energy">   -252.22319503 </i>
   </energy>
  </scstep>
  <scstep>
   <time name="diag">    1.49    1.49</time>
   <time name="diis">    3.95    4.05</time>
   <time name="orth">    0.34    0.34</time>
   <time name="total">    6.11    6.22</time>
   <dipole>
    <v name="dipole">      0.00000000       0.00000000       0.29794344 </v>
    <i name="Tr[quadrupol]"> -11171.91894097 </i>
    <i name="Echarged">      0.00000000 </i>
    <i name="Edipol_quadrupol">      0.00000000 </i>
    <i name="Eion">      0.00000000 </i>
   </dipole>
   <energy>
    <i name="e_fr_energy">   -239.33534945 </i>
    <i name="e_wo_entrp">   -239.13762230 </i>
    <i name="e_0_energy">   -239.23648587 </i>
   </energy>
  </scstep>
  <scstep>
   <time name="diag">    1.46    1.47</time>
   <time name="diis">    4.09    4.10</time>
   <time name="orth">    0.35    0.35</time>
   <time name="total">    6.23    6.25</time>
   <dipole>
    <v name="dipole">      0.00000000       0.00000000       0.62199905 </v>
    <i name="Tr[quadrupol]"> -11172.97981479 </i>
    <i name="Echarged">      0.00000000 </i>
    <i name="Edipol_quadrupol">      0.00000000 </i>
    <i name="Eion">      0.00000000 </i>
   </dipole>
   <energy>
    <i name="e_fr_energy">   -234.50964670 </i>
    <i name="e_wo_entrp">   -234.39098793 </i>
    <i name="e_0_energy">   -234.45031731 </i>
   </energy>
  </scstep>
  <scstep>
   <time name="diag">    1.46    1.47</time>
   <time name="diis">    4.07    4.08</time>
   <time name="orth">    0.34    0.34</time>
   <time name="total">    6.21    6.23</time>
   <dipole>
    <v name="dipole">      0.00000000       0.00000000       0.64817623 </v>
    <i name="Tr[quadrupol]"> -11173.15685627 </i>
    <i name="Echarged">      0.00000000 </i>
    <i name="Edipol_quadrupol">      0.00000000 </i>
    <i name="Eion">      0.00000000 </i>
   </dipole>
   <energy>
    <i name="e_fr_energy">   -232.66508460 </i>
    <i name="e_wo_entrp">   -232.52880069 </i>
    <i name="e_0_energy">   -232.59694264 </i>
   </energy>
  </scstep>
  <scstep>
   <time name="diag">    1.46    1.46</time>
   <time name="diis">    4.07    4.08</time>
   <time name="orth">    0.34    0.34</time>
   <time name="total">    6.19    6.21</time>
   <dipole>
    <v name="dipole">      0.00000000       0.00000000       0.57509351 </v>
    <i name="Tr[quadrupol]"> -11173.48169698 </i>
    <i name="Echarged">      0.00000000 </i>
    <i name="Edipol_quadrupol">      0.00000000 </i>
    <i name="Eion">      0.00000000 </i>
   </dipole>
   <energy>
    <i name="e_fr_energy">   -232.21212577 </i>
    <i name="e_wo_entrp">   -232.06632717 </i>
    <i name="e_0_energy">   -232.13922647 </i>
   </energy>
  </scstep>
  <scstep>
   <time name="diag">    1.47    1.47</time>
   <time name="diis">    4.12    4.13</time>
   <time name="orth">    0.34    0.34</time>
   <time name="total">    6.26    6.28</time>
   <dipole>
    <v name="dipole">      0.00000000       0.00000000       0.53553761 </v>
    <i name="Tr[quadrupol]"> -11173.66125926 </i>
    <i name="Echarged">      0.00000000 </i>
    <i name="Edipol_quadrupol">      0.00000000 </i>
    <i name="Eion">      0.00000000 </i>
   </dipole>
   <energy>
    <i name="e_fr_energy">   -231.89534644 </i>
    <i name="e_wo_entrp">   -231.75344222 </i>
    <i name="e_0_energy">   -231.82439433 </i>
   </energy>
  </scstep>
  <scstep>
   <time name="diag">    1.46    1.47</time>
   <time name="diis">    4.11    4.12</time>
   <time name="orth">    0.34    0.34</time>
   <time name="total">    6.23    6.25</time>
   <dipole>
    <v name="dipole">      0.00000000       0.00000000       0.52877383 </v>
    <i name="Tr[quadrupol]"> -11173.69237431 </i>
    <i name="Echarged">      0.00000000 </i>
    <i name="Edipol_quadrupol">      0.00000000 </i>
    <i name="Eion">      0.00000000 </i>
   </dipole>
   <energy>
    <i name="e_fr_energy">   -231.89245167 </i>
    <i name="e_wo_entrp">   -231.73792115 </i>
    <i name="e_0_energy">   -231.81518641 </i>
   </energy>
  </scstep>
  <scstep>
   <time name="diag">    1.47    1.47</time>
   <time name="diis">    4.05    4.10</time>
   <time name="orth">    0.34    0.36</time>
   <time name="total">    6.18    6.28</time>
   <dipole>
    <v name="dipole">      0.00000000       0.00000000       0.53550910 </v>
    <i name="Tr[quadrupol]"> -11173.77452929 </i>
    <i name="Echarged">      0.00000000 </i>
    <i name="Edipol_quadrupol">      0.00000000 </i>
    <i name="Eion">      0.00000000 </i>
   </dipole>
   <energy>
    <i name="e_fr_energy">   -231.86341666 </i>
    <i name="e_wo_entrp">   -231.70159123 </i>
    <i name="e_0_energy">   -231.78250395 </i>
   </energy>
  </scstep>
  <scstep>
   <time name="diag">    1.46    1.47</time>
   <time name="diis">    4.12    4.13</time>
   <time name="orth">    0.34    0.34</time>
   <time name="total">    6.25    6.27</time>
   <dipole>
    <v name="dipole">      0.00000000       0.00000000       0.56956806 </v>
    <i name="Tr[quadrupol]"> -11173.87757295 </i>
    <i name="Echarged">      0.00000000 </i>
    <i name="Edipol_quadrupol">      0.00000000 </i>
    <i name="Eion">      0.00000000 </i>
   </dipole>
   <energy>
    <i name="e_fr_energy">   -231.81342687 </i>
    <i name="e_wo_entrp">   -231.65355141 </i>
    <i name="e_0_energy">   -231.73348914 </i>
   </energy>
  </scstep>
  <scstep>
   <time name="diag">    1.47    1.48</time>
   <time name="diis">    4.01    4.03</time>
   <time name="orth">    0.34    0.34</time>
   <time name="total">    6.15    6.18</time>
   <dipole>
    <v name="dipole">      0.00000000       0.00000000       0.58222357 </v>
    <i name="Tr[quadrupol]"> -11173.97557348 </i>
    <i name="Echarged">      0.00000000 </i>
    <i name="Edipol_quadrupol">      0.00000000 </i>
    <i name="Eion">      0.00000000 </i>
   </dipole>
   <energy>
    <i name="e_fr_energy">   -231.78847007 </i>
    <i name="e_wo_entrp">   -231.62754447 </i>
    <i name="e_0_energy">   -231.70800727 </i>
   </energy>
  </scstep>
  <scstep>
   <time name="diag">    1.47    1.48</time>
   <time name="diis">    4.05    4.06</time>
   <time name="orth">    0.34    0.34</time>
   <time name="total">    6.19    6.21</time>
   <dipole>
    <v name="dipole">      0.00000000       0.00000000       0.59258078 </v>
    <i name="Tr[quadrupol]"> -11174.02214798 </i>
    <i name="Echarged">      0.00000000 </i>
    <i name="Edipol_quadrupol">      0.00000000 </i>
    <i name="Eion">      0.00000000 </i>
   </dipole>
   <energy>
    <i name="e_fr_energy">   -231.78425349 </i>
    <i name="e_wo_entrp">   -231.62377737 </i>
    <i name="e_0_energy">   -231.70401543 </i>
   </energy>
  </scstep>
  <scstep>
   <time name="diag">    1.46    1.47</time>
   <time name="diis">    4.12    4.13</time>
   <time name="orth">    0.34    0.34</time>
   <time name="total">    6.25    6.27</time>
   <dipole>
    <v name="dipole">      0.00000000       0.00000000       0.59983187 </v>
    <i name="Tr[quadrupol]"> -11174.07988949 </i>
    <i name="Echarged">      0.00000000 </i>
    <i name="Edipol_quadrupol">      0.00000000 </i>
    <i name="Eion">      0.00000000 </i>
   </dipole>
   <energy>
    <i name="e_fr_energy">   -231.78385732 </i>
    <i name="e_wo_entrp">   -231.62342778 </i>
    <i name="e_0_energy">   -231.70364255 </i>
   </energy>
  </scstep>
  <scstep>
   <time name="diag">    1.46    1.47</time>
   <time name="diis">    4.11    4.12</time>
   <time name="orth">    0.34    0.34</time>
   <time name="total">    6.24    6.26</time>
   <dipole>
    <v name="dipole">      0.00000000       0.00000000       0.60738509 </v>
    <i name="Tr[quadrupol]"> -11174.16306266 </i>
    <i name="Echarged">      0.00000000 </i>
    <i name="Edipol_quadrupol">      0.00000000 </i>
    <i name="Eion">      0.00000000 </i>
   </dipole>
   <energy>
    <i name="e_fr_energy">   -231.78410813 </i>
    <i name="e_wo_entrp">   -231.62191996 </i>
    <i name="e_0_energy">   -231.70301404 </i>
   </energy>
  </scstep>
  <scstep>
   <time name="diag">    1.47    1.48</time>
   <time name="diis">    4.07    4.08</time>
   <time name="orth">    0.34    0.34</time>
   <time name="total">    6.21    6.23</time>
   <dipole>
    <v name="dipole">      0.00000000       0.00000000       0.61377776 </v>
    <i name="Tr[quadrupol]"> -11174.20960646 </i>
    <i name="Echarged">      0.00000000 </i>
    <i name="Edipol_quadrupol">      0.00000000 </i>
    <i name="Eion">      0.00000000 </i>
   </dipole>
   <energy>
    <i name="e_fr_energy">   -231.78397141 </i>
    <i name="e_wo_entrp">   -231.62207681 </i>
    <i name="e_0_energy">   -231.70302411 </i>
   </energy>
  </scstep>
  <scstep>
   <time name="diag">    1.46    1.47</time>
   <time name="diis">    3.99    4.08</time>
   <time name="orth">    0.34    0.34</time>
   <time name="total">    6.11    6.22</time>
   <dipole>
    <v name="dipole">      0.00000000       0.00000000       0.61976030 </v>
    <i name="Tr[quadrupol]"> -11174.25347329 </i>
    <i name="Echarged">      0.00000000 </i>
    <i name="Edipol_quadrupol">      0.00000000 </i>
    <i name="Eion">      0.00000000 </i>
   </dipole>
   <energy>
    <i name="e_fr_energy">   -231.78402850 </i>
    <i name="e_wo_entrp">   -231.62224140 </i>
    <i name="e_0_energy">   -231.70313495 </i>
   </energy>
  </scstep>
  <scstep>
   <time name="diag">    1.46    1.47</time>
   <time name="diis">    4.10    4.11</time>
   <time name="orth">    0.34    0.34</time>
   <time name="total">    6.24    6.26</time>
   <dipole>
    <v name="dipole">      0.00000000       0.00000000       0.62402410 </v>
    <i name="Tr[quadrupol]"> -11174.28042414 </i>
    <i name="Echarged">      0.00000000 </i>
    <i name="Edipol_quadrupol">      0.00000000 </i>
    <i name="Eion">      0.00000000 </i>
   </dipole>
   <energy>
    <i name="e_fr_energy">   -231.78415415 </i>
    <i name="e_wo_entrp">   -231.62223126 </i>
    <i name="e_0_energy">   -231.70319271 </i>
   </energy>
  </scstep>
  <scstep>
   <time name="diag">    1.46    1.47</time>
   <time name="diis">    4.07    4.08</time>
   <time name="orth">    0.34    0.34</time>
   <time name="total">    6.20    6.22</time>
   <dipole>
    <v name="dipole">      0.00000000       0.00000000       0.62856464 </v>
    <i name="Tr[quadrupol]"> -11174.31042949 </i>
    <i name="Echarged">      0.00000000 </i>
    <i name="Edipol_quadrupol">      0.00000000 </i>
    <i name="Eion">      0.00000000 </i>
   </dipole>
   <energy>
    <i name="e_fr_energy">   -231.78435935 </i>
    <i name="e_wo_entrp">   -231.62237892 </i>
    <i name="e_0_energy">   -231.70336913 </i>
   </energy>
  </scstep>
  <scstep>
   <time name="diag">    1.47    1.47</time>
   <time name="diis">    4.09    4.10</time>
   <time name="orth">    0.34    0.34</time>
   <time name="total">    6.23    6.25</time>
   <dipole>
    <v name="dipole">      0.00000000       0.00000000       0.63326503 </v>
    <i name="Tr[quadrupol]"> -11174.34032081 </i>
    <i name="Echarged">      0.00000000 </i>
    <i name="Edipol_quadrupol">      0.00000000 </i>
    <i name="Eion">      0.00000000 </i>
   </dipole>
   <energy>
    <i name="e_fr_energy">   -231.78457583 </i>
    <i name="e_wo_entrp">   -231.62266745 </i>
    <i name="e_0_energy">   -231.70362164 </i>
   </energy>
  </scstep>
  <scstep>
   <time name="diag">    1.45    1.46</time>
   <time name="diis">    4.04    4.08</time>
   <time name="orth">    0.34    0.34</time>
   <time name="total">    6.16    6.21</time>
   <dipole>
    <v name="dipole">      0.00000000       0.00000000       0.63774602 </v>
    <i name="Tr[quadrupol]"> -11174.37038950 </i>
    <i name="Echarged">      0.00000000 </i>
    <i name="Edipol_quadrupol">      0.00000000 </i>
    <i name="Eion">      0.00000000 </i>
   </dipole>
   <energy>
    <i name="e_fr_energy">   -231.78481857 </i>
    <i name="e_wo_entrp">   -231.62271198 </i>
    <i name="e_0_energy">   -231.70376528 </i>
   </energy>
  </scstep>
  <scstep>
   <time name="diag">    1.46    1.47</time>
   <time name="diis">    3.99    4.00</time>
   <time name="orth">    0.34    0.34</time>
   <time name="total">    6.13    6.14</time>
   <dipole>
    <v name="dipole">      0.00000000       0.00000000       0.64120521 </v>
    <i name="Tr[quadrupol]"> -11174.39330570 </i>
    <i name="Echarged">      0.00000000 </i>
    <i name="Edipol_quadrupol">      0.00000000 </i>
    <i name="Eion">      0.00000000 </i>
   </dipole>
   <energy>
    <i name="e_fr_energy">   -231.78500980 </i>
    <i name="e_wo_entrp">   -231.62278319 </i>
    <i name="e_0_energy">   -231.70389650 </i>
   </energy>
  </scstep>
  <scstep>
   <time name="diag">    1.46    1.46</time>
   <time name="diis">    3.37    3.45</time>
   <time name="orth">    0.34    0.35</time>
   <time name="total">    5.49    5.59</time>
   <dipole>
    <v name="dipole">      0.00000000       0.00000000       0.64481858 </v>
    <i name="Tr[quadrupol]"> -11174.41444595 </i>
    <i name="Echarged">      0.00000000 </i>
    <i name="Edipol_quadrupol">      0.00000000 </i>
    <i name="Eion">      0.00000000 </i>
   </dipole>
   <energy>
    <i name="e_fr_energy">   -231.78516714 </i>
    <i name="e_wo_entrp">   -231.62286116 </i>
    <i name="e_0_energy">   -231.70401415 </i>
   </energy>
  </scstep>
  <scstep>
   <time name="diag">    1.46    1.47</time>
   <time name="diis">    3.54    3.55</time>
   <time name="orth">    0.34    0.34</time>
   <time name="total">    5.68    5.70</time>
   <dipole>
    <v name="dipole">      0.00000000       0.00000000       0.64940579 </v>
    <i name="Tr[quadrupol]"> -11174.43893156 </i>
    <i name="Echarged">      0.00000000 </i>
    <i name="Edipol_quadrupol">      0.00000000 </i>
    <i name="Eion">      0.00000000 </i>
   </dipole>
   <energy>
    <i name="e_fr_energy">   -231.78533597 </i>
    <i name="e_wo_entrp">   -231.62305741 </i>
    <i name="e_0_energy">   -231.70419669 </i>
   </energy>
  </scstep>
  <scstep>
   <time name="diag">    1.45    1.46</time>
   <time name="diis">    3.55    3.56</time>
   <time name="orth">    0.34    0.34</time>
   <time name="total">    5.68    5.70</time>
   <dipole>
    <v name="dipole">      0.00000000       0.00000000       0.65487249 </v>
    <i name="Tr[quadrupol]"> -11174.46699300 </i>
    <i name="Echarged">      0.00000000 </i>
    <i name="Edipol_quadrupol">      0.00000000 </i>
    <i name="Eion">      0.00000000 </i>
   </dipole>
   <energy>
    <i name="e_fr_energy">   -231.78549013 </i>
    <i name="e_wo_entrp">   -231.62319422 </i>
    <i name="e_0_energy">   -231.70434217 </i>
   </energy>
  </scstep>
  <scstep>
   <time name="diag">    1.46    1.46</time>
   <time name="diis">    2.76    2.77</time>
   <time name="orth">    0.34    0.34</time>
   <time name="total">    4.89    4.91</time>
   <dipole>
    <v name="dipole">      0.00000000       0.00000000       0.65701643 </v>
    <i name="Tr[quadrupol]"> -11174.47642954 </i>
    <i name="Echarged">      0.00000000 </i>
    <i name="Edipol_quadrupol">      0.00000000 </i>
    <i name="Eion">      0.00000000 </i>
   </dipole>
   <energy>
    <i name="e_fr_energy">   -231.78553666 </i>
    <i name="e_wo_entrp">   -231.62324845 </i>
    <i name="e_0_energy">   -231.70439256 </i>
   </energy>
  </scstep>
  <scstep>
   <time name="diag">    1.45    1.46</time>
   <time name="diis">    2.55    2.55</time>
   <time name="orth">    0.34    0.34</time>
   <time name="total">    4.67    4.68</time>
   <dipole>
    <v name="dipole">      0.00000000       0.00000000       0.65919756 </v>
    <i name="Tr[quadrupol]"> -11174.48503595 </i>
    <i name="Echarged">      0.00000000 </i>
    <i name="Edipol_quadrupol">      0.00000000 </i>
    <i name="Eion">      0.00000000 </i>
   </dipole>
   <energy>
    <i name="e_fr_energy">   -231.78557790 </i>
    <i name="e_wo_entrp">   -231.62328410 </i>
    <i name="e_0_energy">   -231.70443100 </i>
   </energy>
  </scstep>
  <scstep>
   <time name="diag">    1.46    1.47</time>
   <time name="diis">    2.81    2.82</time>
   <time name="orth">    0.34    0.34</time>
   <time name="total">    4.95    4.96</time>
   <dipole>
    <v name="dipole">      0.00000000       0.00000000       0.66286935 </v>
    <i name="Tr[quadrupol]"> -11174.50021790 </i>
    <i name="Echarged">      0.00000000 </i>
    <i name="Edipol_quadrupol">      0.00000000 </i>
    <i name="Eion">      0.00000000 </i>
   </dipole>
   <energy>
    <i name="e_fr_energy">   -231.78563032 </i>
    <i name="e_wo_entrp">   -231.62331268 </i>
    <i name="e_0_energy">   -231.70447150 </i>
   </energy>
  </scstep>
  <scstep>
   <time name="diag">    1.46    1.46</time>
   <time name="diis">    2.62    2.63</time>
   <time name="orth">    0.34    0.34</time>
   <time name="total">    4.75    4.77</time>
   <dipole>
    <v name="dipole">      0.00000000       0.00000000       0.66616546 </v>
    <i name="Tr[quadrupol]"> -11174.51312544 </i>
    <i name="Echarged">      0.00000000 </i>
    <i name="Edipol_quadrupol">      0.00000000 </i>
    <i name="Eion">      0.00000000 </i>
   </dipole>
   <energy>
    <i name="e_fr_energy">   -231.78566094 </i>
    <i name="e_wo_entrp">   -231.62330785 </i>
    <i name="e_0_energy">   -231.70448440 </i>
   </energy>
  </scstep>
  <scstep>
   <time name="diag">    1.46    1.46</time>
   <time name="diis">    2.50    2.50</time>
   <time name="orth">    0.34    0.34</time>
   <time name="total">    4.63    4.64</time>
   <dipole>
    <v name="dipole">      0.00000000       0.00000000       0.66738904 </v>
    <i name="Tr[quadrupol]"> -11174.51710945 </i>
    <i name="Echarged">      0.00000000 </i>
    <i name="Edipol_quadrupol">      0.00000000 </i>
    <i name="Eion">      0.00000000 </i>
   </dipole>
   <energy>
    <i name="e_fr_energy">   -231.78567093 </i>
    <i name="e_wo_entrp">   -231.62330590 </i>
    <i name="e_0_energy">   -231.70448841 </i>
   </energy>
  </scstep>
  <scstep>
   <time name="diag">    1.46    1.46</time>
   <time name="diis">    2.19    2.24</time>
   <time name="orth">    0.34    0.37</time>
   <time name="total">    4.30    4.40</time>
   <dipole>
    <v name="dipole">      0.00000000       0.00000000       0.66846255 </v>
    <i name="Tr[quadrupol]"> -11174.51971952 </i>
    <i name="Echarged">      0.00000000 </i>
    <i name="Edipol_quadrupol">      0.00000000 </i>
    <i name="Eion">      0.00000000 </i>
   </dipole>
   <energy>
    <i name="e_fr_energy">   -231.78568219 </i>
    <i name="e_wo_entrp">   -231.62330859 </i>
    <i name="e_0_energy">   -231.70449539 </i>
   </energy>
  </scstep>
  <scstep>
   <time name="diag">    1.46    1.47</time>
   <time name="diis">    2.42    2.43</time>
   <time name="orth">    0.35    0.35</time>
   <time name="total">    4.57    4.58</time>
   <dipole>
    <v name="dipole">      0.00000000       0.00000000       0.66968553 </v>
    <i name="Tr[quadrupol]"> -11174.52209941 </i>
    <i name="Echarged">      0.00000000 </i>
    <i name="Edipol_quadrupol">      0.00000000 </i>
    <i name="Eion">      0.00000000 </i>
   </dipole>
   <energy>
    <i name="e_fr_energy">   -231.78569472 </i>
    <i name="e_wo_entrp">   -231.62332042 </i>
    <i name="e_0_energy">   -231.70450757 </i>
   </energy>
  </scstep>
  <scstep>
   <time name="diag">    1.45    1.46</time>
   <time name="diis">    2.14    2.15</time>
   <time name="orth">    0.34    0.34</time>
   <time name="total">    4.28    4.34</time>
   <dipole>
    <v name="dipole">      0.00000000       0.00000000       0.67063653 </v>
    <i name="Tr[quadrupol]"> -11174.52391884 </i>
    <i name="Echarged">      0.00000000 </i>
    <i name="Edipol_quadrupol">      0.00000000 </i>
    <i name="Eion">      0.00000000 </i>
   </dipole>
   <energy>
    <i name="e_fr_energy">   -231.78570240 </i>
    <i name="e_wo_entrp">   -231.62332103 </i>
    <i name="e_0_energy">   -231.70451172 </i>
   </energy>
  </scstep>
  <scstep>
   <time name="diag">    1.46    1.46</time>
   <time name="diis">    2.07    2.08</time>
   <time name="orth">    0.34    0.34</time>
   <time name="total">    4.21    4.23</time>
   <dipole>
    <v name="dipole">      0.00000000       0.00000000       0.67107489 </v>
    <i name="Tr[quadrupol]"> -11174.52460295 </i>
    <i name="Echarged">      0.00000000 </i>
    <i name="Edipol_quadrupol">      0.00000000 </i>
    <i name="Eion">      0.00000000 </i>
   </dipole>
   <energy>
    <i name="e_fr_energy">   -231.78570556 </i>
    <i name="e_wo_entrp">   -231.62331624 </i>
    <i name="e_0_energy">   -231.70451090 </i>
   </energy>
  </scstep>
  <scstep>
   <time name="diag">    1.46    1.46</time>
   <time name="diis">    1.95    1.96</time>
   <time name="orth">    0.35    0.35</time>
   <time name="total">    4.09    4.10</time>
   <dipole>
    <v name="dipole">      0.00000000       0.00000000       0.67142157 </v>
    <i name="Tr[quadrupol]"> -11174.52507485 </i>
    <i name="Echarged">      0.00000000 </i>
    <i name="Edipol_quadrupol">      0.00000000 </i>
    <i name="Eion">      0.00000000 </i>
   </dipole>
   <energy>
    <i name="e_fr_energy">   -231.78570744 </i>
    <i name="e_wo_entrp">   -231.62331476 </i>
    <i name="e_0_energy">   -231.70451110 </i>
   </energy>
  </scstep>
  <scstep>
   <time name="diag">    1.48    1.48</time>
   <time name="diis">    1.80    1.80</time>
   <time name="orth">    0.34    0.34</time>
   <time name="total">    3.67    3.68</time>
   <dipole>
    <v name="dipole">      0.00000000       0.00000000       0.67172846 </v>
    <i name="Tr[quadrupol]"> -11174.52557331 </i>
    <i name="Echarged">      0.00000000 </i>
    <i name="Edipol_quadrupol">      0.00000000 </i>
    <i name="Eion">      0.00000000 </i>
   </dipole>
   <energy>
    <i name="alphaZ">    869.14346849 </i>
    <i name="ewald"> 237212.11234568 </i>
    <i name="hartreedc">-282410.38041282 </i>
    <i name="XCdc">   -127.97012459 </i>
    <i name="pawpsdc">  52113.66033838 </i>
    <i name="pawaedc"> -50206.55642874 </i>
    <i name="eentropy">     -0.16239583 </i>
    <i name="bandstr">  -2799.52393942 </i>
    <i name="atom">  45117.89144060 </i>
    <i name="e_fr_energy">   -231.78570824 </i>
    <i name="e_wo_entrp">   -231.62331241 </i>
    <i name="e_0_energy">   -231.70451032 </i>
   </energy>
  </scstep>
  <structure>
   <crystal>
    <varray name="basis" >
     <v>      11.00258152       0.00000000       0.00000000 </v>
     <v>       5.50129076       9.52851510       0.00000000 </v>
     <v>       0.00000000       0.00000000      26.19178509 </v>
    </varray>
    <i name="volume">   2745.90128299 </i>
    <varray name="rec_basis" >
     <v>       0.09088776      -0.05247407       0.00000000 </v>
     <v>       0.00000000       0.10494815       0.00000000 </v>
     <v>       0.00000000       0.00000000       0.03817991 </v>
    </varray>
   </crystal>
   <varray name="positions" >
    <v>       0.08333333       0.83333333       0.38179910 </v>
    <v>       0.17136772       0.91421476       0.47308718 </v>
    <v>       0.49791900       0.51059202       0.57369272 </v>
    <v>       0.99413049       0.01545849       0.56583086 </v>
    <v>       0.83333333       0.83333333       0.38179910 </v>
    <v>       0.08333333       0.33333333       0.38179910 </v>
    <v>       0.91499950       0.42236389       0.47865222 </v>
    <v>       0.48344386       0.03878930       0.56237224 </v>
    <v>       0.41648884       0.17306528       0.47447616 </v>
    <v>       0.66496216       0.67310664       0.47534537 </v>
    <v>       0.58333333       0.08333333       0.38179910 </v>
    <v>       0.27572365       0.47845817       0.56321163 </v>
    <v>       0.50585154       0.75668684       0.57054799 </v>
    <v>       0.91564032       0.91630095       0.47782313 </v>
    <v>       0.74171901       0.24949628       0.56819130 </v>
    <v>       0.66533985       0.41887368       0.47669375 </v>
    <v>       0.16748329       0.16835544       0.47572185 </v>
    <v>       0.83333333       0.33333333       0.38179910 </v>
    <v>       0.58333333       0.58333333       0.38179910 </v>
    <v>       0.33333333       0.33333333       0.38179910 </v>
    <v>       0.16513367       0.42299177       0.47609079 </v>
    <v>       0.23432013       0.24018868       0.61271040 </v>
    <v>       0.83333333       0.08333333       0.38179910 </v>
    <v>       0.33333333       0.58333333       0.38179910 </v>
    <v>       0.09649281       0.58210081       0.61396901 </v>
    <v>       0.83898095       0.59488091       0.61044857 </v>
    <v>       0.85187187       0.33540709       0.61470766 </v>
    <v>       0.07382451       0.84784819       0.61868830 </v>
    <v>       0.36972088       0.24869661       0.66266656 </v>
    <v>       0.58223803       0.35490676       0.63279505 </v>
    <v>       0.31649682       0.86792761       0.61647387 </v>
    <v>       0.59718227       0.86720028       0.61228399 </v>
    <v>       0.25165631       0.75274285       0.57891215 </v>
    <v>       0.33333333       0.83333333       0.38179910 </v>
    <v>       0.16890137       0.66779023       0.47708275 </v>
    <v>       0.24754047       0.01309488       0.56287172 </v>
    <v>       0.50216422       0.24240533       0.61589322 </v>
    <v>       0.33333333       0.08333333       0.38179910 </v>
    <v>       0.00070525       0.75530270       0.57210295 </v>
    <v>       0.01848757       0.48941948       0.57098614 </v>
    <v>       0.91909592       0.66946762       0.47675463 </v>
    <v>       0.08333333       0.58333333       0.38179910 </v>
    <v>       0.01212758       0.25142430       0.56747742 </v>
    <v>       0.91714290       0.16720852       0.47624849 </v>
    <v>       0.41988023       0.41899844       0.47522617 </v>
    <v>       0.08333333       0.08333333       0.38179910 </v>
    <v>       0.74208093       0.00807602       0.56570226 </v>
    <v>       0.66606248       0.16981964       0.47752597 </v>
    <v>       0.41623215       0.66862646       0.48368376 </v>
    <v>       0.66593672       0.92047949       0.47473369 </v>
    <v>       0.58333333       0.83333333       0.38179910 </v>
    <v>       0.74496171       0.50858027       0.57316171 </v>
    <v>       0.83333333       0.58333333       0.38179910 </v>
    <v>       0.41701152       0.91990343       0.47139049 </v>
    <v>       0.75884171       0.76113652       0.56404436 </v>
    <v>       0.58333333       0.33333333       0.38179910 </v>
   </varray>
  </structure>
  <varray name="forces" >
   <v>       0.10676855      -0.14568932      -0.19169469 </v>
   <v>       0.02075437      -0.02212041      -0.00093440 </v>
   <v>       0.04146796       0.02096088      -0.04737845 </v>
   <v>       0.00952106      -0.03059351       0.01633026 </v>
   <v>      -0.22256292      -0.41763874      -0.12059054 </v>
   <v>      -0.03874805      -0.01245316      -0.34836591 </v>
   <v>       0.02802709       0.00471975      -0.04272761 </v>
   <v>       0.01827154       0.00078653      -0.02235733 </v>
   <v>      -0.00798221       0.00708911       0.03439063 </v>
   <v>       0.00719613      -0.00365195      -0.02502994 </v>
   <v>      -0.03916700      -0.02504145      -0.21931928 </v>
   <v>      -0.02954102      -0.03848700      -0.03421288 </v>
   <v>       0.03567518       0.04687800      -0.01078599 </v>
   <v>      -0.00280256      -0.00508475      -0.00297081 </v>
   <v>       0.01261328      -0.04604395      -0.03058159 </v>
   <v>      -0.02209040       0.00841734       0.00598974 </v>
   <v>       0.01957148       0.00855969       0.02896476 </v>
   <v>       0.10468074      -0.11027421      -0.12624710 </v>
   <v>      -0.09118443       0.30972332      -0.09137590 </v>
   <v>       0.02309988       0.04792678      -0.27119443 </v>
   <v>       0.01325887      -0.01925480      -0.01509694 </v>
   <v>       0.04691668      -0.01600384       0.00976955 </v>
   <v>       0.09977692       0.21153886      -0.07207189 </v>
   <v>       0.11922891       0.14141760       0.14739561 </v>
   <v>      -0.00601291      -0.02267995       0.01625918 </v>
   <v>       0.02381818       0.01263042       0.01088860 </v>
   <v>       0.02719571      -0.05000617       0.01414528 </v>
   <v>      -0.00074875       0.01639006      -0.01107348 </v>
   <v>      -0.04250925      -0.00894650      -0.04958286 </v>
   <v>       0.03193963       0.02103559       0.03673094 </v>
   <v>       0.00587126      -0.00230651      -0.04391248 </v>
   <v>      -0.05541098      -0.03153193      -0.00964096 </v>
   <v>       0.00660301      -0.00550635      -0.05218081 </v>
   <v>       0.16539925       0.02230700       0.25556549 </v>
   <v>      -0.00721942       0.01102004       0.00420793 </v>
   <v>       0.00540055       0.03245936      -0.02973321 </v>
   <v>      -0.01047560      -0.02060272      -0.04511236 </v>
   <v>      -0.14952712      -0.21246763       0.12572345 </v>
   <v>      -0.03961600       0.01576580      -0.01871188 </v>
   <v>      -0.03725086       0.05158195      -0.00064428 </v>
   <v>      -0.02095085       0.01186192      -0.01332876 </v>
   <v>      -0.11321935       0.08339515       0.26842716 </v>
   <v>       0.00041881       0.01187262      -0.03720739 </v>
   <v>      -0.01636732       0.03900318      -0.01043162 </v>
   <v>      -0.00850184      -0.03524064       0.03708038 </v>
   <v>       0.08376882       0.02119068       0.18177657 </v>
   <v>      -0.02760399      -0.00173357      -0.02808348 </v>
   <v>      -0.04497475       0.00877186       0.00716203 </v>
   <v>      -0.00103369       0.02458103      -0.06496017 </v>
   <v>      -0.01245338       0.00322815      -0.00551768 </v>
   <v>      -0.08152157      -0.02351216       0.23047213 </v>
   <v>       0.00315829       0.01575348      -0.01022919 </v>
   <v>       0.07451891       0.12789423       0.37756006 </v>
   <v>       0.00400520       0.00520471      -0.04616768 </v>
   <v>       0.00690316      -0.05229030       0.03219820 </v>
   <v>      -0.01635321       0.01519642       0.30841600 </v>
  </varray>
  <energy>
   <i name="e_fr_energy">   -231.78570824 </i>
   <i name="e_wo_entrp">   -231.70451032 </i>
   <i name="e_0_energy">     -0.16239583 </i>
  </energy>
  <time name="totalsc">  265.13  266.67</time>
 </calculation>
 <calculation>
  <scstep>
   <time name="dav">    8.63    8.66</time>
   <time name="total">    8.96    8.99</time>
   <dipole>
    <v name="dipole">      0.00000000       0.00000000       0.67181740 </v>
    <i name="Tr[quadrupol]"> -11174.36119031 </i>
    <i name="Echarged">      0.00000000 </i>
    <i name="Edipol_quadrupol">      0.00000000 </i>
    <i name="Eion">      0.00000000 </i>
   </dipole>
   <energy>
    <i name="alphaZ">    869.15111866 </i>
    <i name="ewald"> 237232.18866451 </i>
    <i name="hartreedc">-282430.47477273 </i>
    <i name="XCdc">   -127.96734517 </i>
    <i name="pawpsdc">  52113.66156332 </i>
    <i name="pawaedc"> -50206.55770585 </i>
    <i name="eentropy">     -0.16271425 </i>
    <i name="bandstr">  -2799.51728226 </i>
    <i name="atom">  45117.89144060 </i>
    <i name="e_fr_energy">   -231.78703316 </i>
    <i name="e_wo_entrp">   -231.62431891 </i>
    <i name="e_0_energy">   -231.70567604 </i>
   </energy>
  </scstep>
  <scstep>
   <time name="diag">    1.46    1.46</time>
   <time name="diis">    4.02    4.03</time>
   <time name="orth">    0.34    0.34</time>
   <time name="total">    6.15    6.19</time>
   <dipole>
    <v name="dipole">      0.00000000       0.00000000       0.67389355 </v>
    <i name="Tr[quadrupol]"> -11174.35832646 </i>
    <i name="Echarged">      0.00000000 </i>
    <i name="Edipol_quadrupol">      0.00000000 </i>
    <i name="Eion">      0.00000000 </i>
   </dipole>
   <energy>
    <i name="e_fr_energy">   -231.78830881 </i>
    <i name="e_wo_entrp">   -231.62594679 </i>
    <i name="e_0_energy">   -231.70712780 </i>
   </energy>
  </scstep>
  <scstep>
   <time name="diag">    1.45    1.51</time>
   <time name="diis">    4.13    4.14</time>
   <time name="orth">    0.34    0.34</time>
   <time name="total">    6.25    6.33</time>
   <dipole>
    <v name="dipole">      0.00000000       0.00000000       0.67043737 </v>
    <i name="Tr[quadrupol]"> -11174.36017562 </i>
    <i name="Echarged">      0.00000000 </i>
    <i name="Edipol_quadrupol">      0.00000000 </i>
    <i name="Eion">      0.00000000 </i>
   </dipole>
   <energy>
    <i name="e_fr_energy">   -231.78800286 </i>
    <i name="e_wo_entrp">   -231.62463339 </i>
    <i name="e_0_energy">   -231.70631812 </i>
   </energy>
  </scstep>
  <scstep>
   <time name="diag">    1.47    1.47</time>
   <time name="diis">    4.06    4.07</time>
   <time name="orth">    0.34    0.34</time>
   <time name="total">    6.20    6.21</time>
   <dipole>
    <v name="dipole">      0.00000000       0.00000000       0.68033978 </v>
    <i name="Tr[quadrupol]"> -11174.36168707 </i>
    <i name="Echarged">      0.00000000 </i>
    <i name="Edipol_quadrupol">      0.00000000 </i>
    <i name="Eion">      0.00000000 </i>
   </dipole>
   <energy>
    <i name="e_fr_energy">   -231.78868686 </i>
    <i name="e_wo_entrp">   -231.62936081 </i>
    <i name="e_0_energy">   -231.70902384 </i>
   </energy>
  </scstep>
  <scstep>
   <time name="diag">    1.46    1.47</time>
   <time name="diis">    4.08    4.09</time>
   <time name="orth">    0.34    0.34</time>
   <time name="total">    6.22    6.23</time>
   <dipole>
    <v name="dipole">      0.00000000       0.00000000       0.67107937 </v>
    <i name="Tr[quadrupol]"> -11174.35498395 </i>
    <i name="Echarged">      0.00000000 </i>
    <i name="Edipol_quadrupol">      0.00000000 </i>
    <i name="Eion">      0.00000000 </i>
   </dipole>
   <energy>
    <i name="e_fr_energy">   -231.78805355 </i>
    <i name="e_wo_entrp">   -231.62428387 </i>
    <i name="e_0_energy">   -231.70616871 </i>
   </energy>
  </scstep>
  <scstep>
   <time name="diag">    1.45    1.47</time>
   <time name="diis">    4.09    4.10</time>
   <time name="orth">    0.34    0.34</time>
   <time name="total">    6.22    6.25</time>
   <dipole>
    <v name="dipole">      0.00000000       0.00000000       0.67336460 </v>
    <i name="Tr[quadrupol]"> -11174.35972729 </i>
    <i name="Echarged">      0.00000000 </i>
    <i name="Edipol_quadrupol">      0.00000000 </i>
    <i name="Eion">      0.00000000 </i>
   </dipole>
   <energy>
    <i name="e_fr_energy">   -231.78799934 </i>
    <i name="e_wo_entrp">   -231.62573154 </i>
    <i name="e_0_energy">   -231.70686544 </i>
   </energy>
  </scstep>
  <scstep>
   <time name="diag">    1.46    1.47</time>
   <time name="diis">    4.05    4.07</time>
   <time name="orth">    0.34    0.34</time>
   <time name="total">    6.19    6.22</time>
   <dipole>
    <v name="dipole">      0.00000000       0.00000000       0.67233342 </v>
    <i name="Tr[quadrupol]"> -11174.35909736 </i>
    <i name="Echarged">      0.00000000 </i>
    <i name="Edipol_quadrupol">      0.00000000 </i>
    <i name="Eion">      0.00000000 </i>
   </dipole>
   <energy>
    <i name="e_fr_energy">   -231.78795804 </i>
    <i name="e_wo_entrp">   -231.62522698 </i>
    <i name="e_0_energy">   -231.70659251 </i>
   </energy>
  </scstep>
  <scstep>
   <time name="diag">    1.46    1.46</time>
   <time name="diis">    4.09    4.10</time>
   <time name="orth">    0.34    0.34</time>
   <time name="total">    6.22    6.23</time>
   <dipole>
    <v name="dipole">      0.00000000       0.00000000       0.67258017 </v>
    <i name="Tr[quadrupol]"> -11174.35900828 </i>
    <i name="Echarged">      0.00000000 </i>
    <i name="Edipol_quadrupol">      0.00000000 </i>
    <i name="Eion">      0.00000000 </i>
   </dipole>
   <energy>
    <i name="e_fr_energy">   -231.78794909 </i>
    <i name="e_wo_entrp">   -231.62528504 </i>
    <i name="e_0_energy">   -231.70661707 </i>
   </energy>
  </scstep>
  <scstep>
   <time name="diag">    1.46    1.47</time>
   <time name="diis">    2.51    2.52</time>
   <time name="orth">    0.34    0.37</time>
   <time name="total">    4.64    4.72</time>
   <dipole>
    <v name="dipole">      0.00000000       0.00000000       0.67253485 </v>
    <i name="Tr[quadrupol]"> -11174.35919140 </i>
    <i name="Echarged">      0.00000000 </i>
    <i name="Edipol_quadrupol">      0.00000000 </i>
    <i name="Eion">      0.00000000 </i>
   </dipole>
   <energy>
    <i name="e_fr_energy">   -231.78794757 </i>
    <i name="e_wo_entrp">   -231.62527827 </i>
    <i name="e_0_energy">   -231.70661292 </i>
   </energy>
  </scstep>
  <scstep>
   <time name="diag">    1.45    1.47</time>
   <time name="diis">    2.33    2.34</time>
   <time name="orth">    0.34    0.34</time>
   <time name="total">    4.18    4.20</time>
   <dipole>
    <v name="dipole">      0.00000000       0.00000000       0.67251929 </v>
    <i name="Tr[quadrupol]"> -11174.35943796 </i>
    <i name="Echarged">      0.00000000 </i>
    <i name="Edipol_quadrupol">      0.00000000 </i>
    <i name="Eion">      0.00000000 </i>
   </dipole>
   <energy>
    <i name="alphaZ">    869.15797199 </i>
    <i name="ewald"> 237232.18866451 </i>
    <i name="hartreedc">-282430.32783335 </i>
    <i name="XCdc">   -127.97194888 </i>
    <i name="pawpsdc">  52112.65812413 </i>
    <i name="pawaedc"> -50205.55465385 </i>
    <i name="eentropy">     -0.16266962 </i>
    <i name="bandstr">  -2799.66704283 </i>
    <i name="atom">  45117.89144060 </i>
    <i name="e_fr_energy">   -231.78794730 </i>
    <i name="e_wo_entrp">   -231.62527768 </i>
    <i name="e_0_energy">   -231.70661249 </i>
   </energy>
  </scstep>
  <structure>
   <crystal>
    <varray name="basis" >
     <v>      11.00258152       0.00000000       0.00000000 </v>
     <v>       5.50129076       9.52851510       0.00000000 </v>
     <v>       0.00000000       0.00000000      26.19178509 </v>
    </varray>
    <i name="volume">   2745.90128299 </i>
    <varray name="rec_basis" >
     <v>       0.09088776      -0.05247407       0.00000000 </v>
     <v>       0.00000000       0.10494815       0.00000000 </v>
     <v>       0.00000000       0.00000000       0.03817991 </v>
    </varray>
   </crystal>
   <varray name="positions" >
    <v>       0.08333333       0.83333333       0.38179910 </v>
    <v>       0.17147062       0.91413637       0.47308598 </v>
    <v>       0.49800914       0.51066630       0.57363163 </v>
    <v>       0.99421392       0.01535007       0.56585192 </v>
    <v>       0.83333333       0.83333333       0.38179910 </v>
    <v>       0.08333333       0.33333333       0.38179910 </v>
    <v>       0.91507716       0.42238062       0.47859713 </v>
    <v>       0.48349855       0.03879209       0.56234341 </v>
    <v>       0.41645177       0.17309041       0.47452050 </v>
    <v>       0.66499072       0.67309370       0.47531310 </v>
    <v>       0.58333333       0.08333333       0.38179910 </v>
    <v>       0.27570118       0.47832177       0.56316752 </v>
    <v>       0.50587797       0.75685298       0.57053409 </v>
    <v>       0.91564073       0.91628293       0.47781929 </v>
    <v>       0.74183932       0.24933310       0.56815187 </v>
    <v>       0.66525713       0.41890351       0.47670147 </v>
    <v>       0.16752819       0.16838578       0.47575920 </v>
    <v>       0.83333333       0.33333333       0.38179910 </v>
    <v>       0.58333333       0.58333333       0.38179910 </v>
    <v>       0.33333333       0.33333333       0.38179910 </v>
    <v>       0.16520848       0.42292353       0.47607133 </v>
    <v>       0.23449249       0.24013196       0.61272299 </v>
    <v>       0.83333333       0.08333333       0.38179910 </v>
    <v>       0.33333333       0.58333333       0.38179910 </v>
    <v>       0.09651455       0.58202043       0.61398997 </v>
    <v>       0.83903167       0.59492567       0.61046261 </v>
    <v>       0.85204396       0.33522986       0.61472589 </v>
    <v>       0.07379317       0.84790628       0.61867402 </v>
    <v>       0.36960626       0.24866490       0.66260263 </v>
    <v>       0.58229878       0.35498131       0.63284240 </v>
    <v>       0.31651893       0.86791944       0.61641725 </v>
    <v>       0.59706808       0.86708852       0.61227156 </v>
    <v>       0.25168634       0.75272334       0.57884488 </v>
    <v>       0.33333333       0.83333333       0.38179910 </v>
    <v>       0.16885968       0.66782928       0.47708818 </v>
    <v>       0.24749952       0.01320992       0.56283339 </v>
    <v>       0.50216857       0.24233231       0.61583506 </v>
    <v>       0.33333333       0.08333333       0.38179910 </v>
    <v>       0.00055572       0.75535857       0.57207883 </v>
    <v>       0.01828183       0.48960229       0.57098531 </v>
    <v>       0.91901060       0.66950965       0.47673744 </v>
    <v>       0.08333333       0.58333333       0.38179910 </v>
    <v>       0.01210783       0.25146638       0.56742945 </v>
    <v>       0.91702355       0.16734676       0.47623504 </v>
    <v>       0.41991659       0.41887354       0.47527397 </v>
    <v>       0.08333333       0.08333333       0.38179910 </v>
    <v>       0.74199928       0.00806987       0.56566605 </v>
    <v>       0.66590890       0.16985073       0.47753520 </v>
    <v>       0.41618542       0.66871358       0.48360001 </v>
    <v>       0.66589277       0.92049093       0.47472658 </v>
    <v>       0.58333333       0.83333333       0.38179910 </v>
    <v>       0.74494348       0.50863610       0.57314853 </v>
    <v>       0.83333333       0.58333333       0.38179910 </v>
    <v>       0.41701459       0.91992187       0.47133097 </v>
    <v>       0.75895555       0.76095120       0.56408587 </v>
    <v>       0.58333333       0.33333333       0.38179910 </v>
   </varray>
  </structure>
  <varray name="forces" >
   <v>       0.10666113      -0.14526022      -0.19185496 </v>
   <v>       0.00977702      -0.00400327      -0.00061910 </v>
   <v>       0.02517774       0.00545220      -0.03498117 </v>
   <v>       0.00944457      -0.01607547       0.00534017 </v>
   <v>      -0.22221903      -0.41707974      -0.12135723 </v>
   <v>      -0.03818138      -0.01450084      -0.34975795 </v>
   <v>       0.01676779       0.00590443      -0.03570443 </v>
   <v>       0.01251347      -0.00764364      -0.01433827 </v>
   <v>      -0.00759882       0.00478737       0.02060681 </v>
   <v>       0.00189636      -0.00323803      -0.01920956 </v>
   <v>      -0.04018085      -0.02390997      -0.21873498 </v>
   <v>      -0.02147900      -0.02649787      -0.02005678 </v>
   <v>       0.01890067       0.03225339      -0.01971692 </v>
   <v>      -0.00053874       0.00393599      -0.00394184 </v>
   <v>       0.01087377      -0.02397904      -0.01483975 </v>
   <v>      -0.01372979       0.00916391       0.00593124 </v>
   <v>       0.00971073       0.00514535       0.01850058 </v>
   <v>       0.10372643      -0.11016058      -0.12716297 </v>
   <v>      -0.09157343       0.30885803      -0.09283847 </v>
   <v>       0.02454907       0.04668206      -0.27071836 </v>
   <v>       0.00653796      -0.00516310      -0.01485181 </v>
   <v>       0.00313912      -0.01229630      -0.01839971 </v>
   <v>       0.09955670       0.21144114      -0.07079687 </v>
   <v>       0.11873079       0.13954675       0.14908665 </v>
   <v>      -0.00053451      -0.01085912       0.00302238 </v>
   <v>       0.00810895      -0.00079559       0.02428315 </v>
   <v>       0.02091604      -0.03353958      -0.00452070 </v>
   <v>       0.00048199      -0.00013667      -0.01793395 </v>
   <v>      -0.01105176      -0.00686248      -0.02809892 </v>
   <v>       0.00259934       0.00344669       0.00506928 </v>
   <v>       0.00419545      -0.00078351      -0.04582970 </v>
   <v>      -0.04722351      -0.02706437      -0.00772529 </v>
   <v>       0.00081146      -0.00006302      -0.04536008 </v>
   <v>       0.16465218       0.02170142       0.25170798 </v>
   <v>      -0.00635161       0.00181878       0.00598091 </v>
   <v>       0.00849905       0.02024941      -0.02038168 </v>
   <v>       0.02348865       0.00813640      -0.03259758 </v>
   <v>      -0.14946622      -0.21011296       0.12517282 </v>
   <v>      -0.01847333       0.00428884      -0.00096628 </v>
   <v>      -0.02204423       0.03024269      -0.01094344 </v>
   <v>      -0.01242529       0.00607152      -0.01353736 </v>
   <v>      -0.11280942       0.08363607       0.26831079 </v>
   <v>       0.00272555       0.01547693      -0.02906285 </v>
   <v>      -0.01247369       0.02340358      -0.00810072 </v>
   <v>      -0.00778926      -0.02111933       0.02879864 </v>
   <v>       0.08423595       0.02102972       0.18416890 </v>
   <v>      -0.01981594      -0.01187564      -0.02513334 </v>
   <v>      -0.02950853       0.00231501       0.00279870 </v>
   <v>       0.00244706       0.01720942      -0.05740729 </v>
   <v>      -0.01069695       0.00031156      -0.00393593 </v>
   <v>      -0.08028971      -0.02340250       0.22640587 </v>
   <v>       0.01080215      -0.00693336       0.00390241 </v>
   <v>       0.07484690       0.12798238       0.37453378 </v>
   <v>       0.00556473       0.00407804      -0.04056508 </v>
   <v>       0.00098033      -0.01650634       0.01939115 </v>
   <v>      -0.01686409       0.01529349       0.30896911 </v>
  </varray>
  <energy>
   <i name="e_fr_energy">   -231.78794730 </i>
   <i name="e_wo_entrp">   -231.70661249 </i>
   <i name="e_0_energy">     -0.16266962 </i>
  </energy>
  <time name="totalsc">   64.09   64.47</time>
 </calculation>
 <calculation>
  <scstep>
   <time name="dav">    8.63    8.67</time>
   <time name="total">    8.97    9.01</time>
   <dipole>
    <v name="dipole">      0.00000000       0.00000000       0.67253682 </v>
    <i name="Tr[quadrupol]"> -11174.13348172 </i>
    <i name="Echarged">      0.00000000 </i>
    <i name="Edipol_quadrupol">      0.00000000 </i>
    <i name="Eion">      0.00000000 </i>
   </dipole>
   <energy>
    <i name="alphaZ">    869.16757336 </i>
    <i name="ewald"> 237260.10128575 </i>
    <i name="hartreedc">-282458.26652139 </i>
    <i name="XCdc">   -127.96747466 </i>
    <i name="pawpsdc">  52112.65048785 </i>
    <i name="pawaedc"> -50205.54683381 </i>
    <i name="eentropy">     -0.16312693 </i>
    <i name="bandstr">  -2799.65435445 </i>
    <i name="atom">  45117.89144060 </i>
    <i name="e_fr_energy">   -231.78752368 </i>
    <i name="e_wo_entrp">   -231.62439675 </i>
    <i name="e_0_energy">   -231.70596021 </i>
   </energy>
  </scstep>
  <scstep>
   <time name="diag">    1.47    1.47</time>
   <time name="diis">    4.05    4.06</time>
   <time name="orth">    0.34    0.34</time>
   <time name="total">    6.19    6.21</time>
   <dipole>
    <v name="dipole">      0.00000000       0.00000000       0.67528852 </v>
    <i name="Tr[quadrupol]"> -11174.12908169 </i>
    <i name="Echarged">      0.00000000 </i>
    <i name="Edipol_quadrupol">      0.00000000 </i>
    <i name="Eion">      0.00000000 </i>
   </dipole>
   <energy>
    <i name="e_fr_energy">   -231.78998039 </i>
    <i name="e_wo_entrp">   -231.62732973 </i>
    <i name="e_0_energy">   -231.70865506 </i>
   </energy>
  </scstep>
  <scstep>
   <time name="diag">    1.47    1.47</time>
   <time name="diis">    4.14    4.15</time>
   <time name="orth">    0.34    0.34</time>
   <time name="total">    6.28    6.30</time>
   <dipole>
    <v name="dipole">      0.00000000       0.00000000       0.67069511 </v>
    <i name="Tr[quadrupol]"> -11174.13196536 </i>
    <i name="Echarged">      0.00000000 </i>
    <i name="Edipol_quadrupol">      0.00000000 </i>
    <i name="Eion">      0.00000000 </i>
   </dipole>
   <energy>
    <i name="e_fr_energy">   -231.78939481 </i>
    <i name="e_wo_entrp">   -231.62541054 </i>
    <i name="e_0_energy">   -231.70740268 </i>
   </energy>
  </scstep>
  <scstep>
   <time name="diag">    1.46    1.46</time>
   <time name="diis">    4.10    4.11</time>
   <time name="orth">    0.34    0.34</time>
   <time name="total">    6.23    6.25</time>
   <dipole>
    <v name="dipole">      0.00000000       0.00000000       0.68424705 </v>
    <i name="Tr[quadrupol]"> -11174.13358168 </i>
    <i name="Echarged">      0.00000000 </i>
[...]
       <r>   -19.4078    11.1865    15.4577 </r>
       <r>   -19.3138     5.2116    15.9478 </r>
       <r>   -19.2197     0.5434    15.9989 </r>
       <r>   -19.1257     0.0113    16.0000 </r>
       <r>   -19.0316     0.0000    16.0000 </r>
       <r>   -18.9376     0.0000    16.0000 </r>
       <r>   -18.8435     0.0000    16.0000 </r>
       <r>   -18.7494     0.0000    16.0000 </r>
       <r>   -18.6554     0.0000    16.0000 </r>
       <r>   -18.5613     0.0000    16.0000 </r>
       <r>   -18.4673     0.0000    16.0000 </r>
       <r>   -18.3732     0.0000    16.0000 </r>
       <r>   -18.2792     0.0000    16.0000 </r>
       <r>   -18.1851     0.0000    16.0000 </r>
       <r>   -18.0911     0.0000    16.0000 </r>
       <r>   -17.9970     0.0000    16.0000 </r>
       <r>   -17.9030     0.0000    16.0000 </r>
       <r>   -17.8089     0.0000    16.0000 </r>
       <r>   -17.7149     0.0000    16.0000 </r>
       <r>   -17.6208     0.0000    16.0000 </r>
       <r>   -17.5267     0.0000    16.0000 </r>
       <r>   -17.4327     0.0000    16.0000 </r>
       <r>   -17.3386     0.0000    16.0000 </r>
       <r>   -17.2446     0.0000    16.0000 </r>
       <r>   -17.1505     0.0000    16.0000 </r>
       <r>   -17.0565     0.0000    16.0000 </r>
       <r>   -16.9624     0.0000    16.0000 </r>
       <r>   -16.8684     0.0000    16.0000 </r>
       <r>   -16.7743     0.0000    16.0000 </r>
       <r>   -16.6803     0.0000    16.0000 </r>
       <r>   -16.5862     0.0000    16.0000 </r>
       <r>   -16.4922     0.0000    16.0000 </r>
       <r>   -16.3981     0.0000    16.0000 </r>
       <r>   -16.3040     0.0000    16.0000 </r>
       <r>   -16.2100     0.0000    16.0000 </r>
       <r>   -16.1159     0.0000    16.0000 </r>
       <r>   -16.0219     0.0000    16.0000 </r>
       <r>   -15.9278     0.0000    16.0000 </r>
       <r>   -15.8338     0.0000    16.0000 </r>
       <r>   -15.7397     0.0000    16.0000 </r>
       <r>   -15.6457     0.0000    16.0000 </r>
       <r>   -15.5516     0.0000    16.0000 </r>
       <r>   -15.4576     0.0000    16.0000 </r>
       <r>   -15.3635     0.0000    16.0000 </r>
       <r>   -15.2695     0.0000    16.0000 </r>
       <r>   -15.1754     0.0000    16.0000 </r>
       <r>   -15.0813     0.0000    16.0000 </r>
       <r>   -14.9873     0.0000    16.0000 </r>
       <r>   -14.8932     0.0000    16.0000 </r>
       <r>   -14.7992     0.0000    16.0000 </r>
       <r>   -14.7051     0.0000    16.0000 </r>
       <r>   -14.6111     0.0000    16.0000 </r>
       <r>   -14.5170     0.0000    16.0000 </r>
       <r>   -14.4230     0.0000    16.0000 </r>
       <r>   -14.3289     0.0000    16.0000 </r>
       <r>   -14.2349     0.0000    16.0000 </r>
       <r>   -14.1408     0.0000    16.0000 </r>
       <r>   -14.0468     0.0000    16.0000 </r>
       <r>   -13.9527     0.0000    16.0000 </r>
       <r>   -13.8586     0.0000    16.0000 </r>
       <r>   -13.7646     0.0000    16.0000 </r>
       <r>   -13.6705     0.0000    16.0000 </r>
       <r>   -13.5765     0.0000    16.0000 </r>
       <r>   -13.4824     0.0000    16.0000 </r>
       <r>   -13.3884     0.0000    16.0000 </r>
       <r>   -13.2943     0.0000    16.0000 </r>
       <r>   -13.2003     0.0000    16.0000 </r>
       <r>   -13.1062     0.0000    16.0000 </r>
       <r>   -13.0122     0.0000    16.0000 </r>
       <r>   -12.9181     0.0000    16.0000 </r>
       <r>   -12.8241     0.0000    16.0000 </r>
       <r>   -12.7300     0.0000    16.0000 </r>
       <r>   -12.6359     0.0000    16.0000 </r>
       <r>   -12.5419     0.0000    16.0000 </r>
       <r>   -12.4478     0.0000    16.0000 </r>
       <r>   -12.3538     0.0000    16.0000 </r>
       <r>   -12.2597     0.0000    16.0000 </r>
       <r>   -12.1657     0.0000    16.0000 </r>
       <r>   -12.0716     0.0000    16.0000 </r>
       <r>   -11.9776     0.0000    16.0000 </r>
       <r>   -11.8835     0.0000    16.0000 </r>
       <r>   -11.7895     0.0000    16.0000 </r>
       <r>   -11.6954     0.0000    16.0000 </r>
       <r>   -11.6014     0.0000    16.0000 </r>
       <r>   -11.5073     0.0000    16.0000 </r>
       <r>   -11.4132     0.0000    16.0000 </r>
       <r>   -11.3192     0.0000    16.0000 </r>
       <r>   -11.2251     0.0000    16.0000 </r>
       <r>   -11.1311     0.0000    16.0000 </r>
       <r>   -11.0370     0.0000    16.0000 </r>
       <r>   -10.9430     0.0000    16.0000 </r>
       <r>   -10.8489     0.0000    16.0000 </r>
       <r>   -10.7549     0.0000    16.0000 </r>
       <r>   -10.6608     0.0000    16.0000 </r>
       <r>   -10.5668     0.0000    16.0000 </r>
       <r>   -10.4727     0.0000    16.0000 </r>
       <r>   -10.3787     0.0000    16.0000 </r>
       <r>   -10.2846     0.0000    16.0000 </r>
       <r>   -10.1905     0.0000    16.0000 </r>
       <r>   -10.0965     0.0000    16.0000 </r>
       <r>   -10.0024     0.0000    16.0000 </r>
       <r>    -9.9084     0.0000    16.0000 </r>
       <r>    -9.8143     0.0000    16.0000 </r>
       <r>    -9.7203     0.0000    16.0000 </r>
       <r>    -9.6262     0.0000    16.0000 </r>
       <r>    -9.5322     0.0003    16.0000 </r>
       <r>    -9.4381     0.0366    16.0035 </r>
       <r>    -9.3441     0.8687    16.0852 </r>
       <r>    -9.2500     4.2860    16.4883 </r>
       <r>    -9.1560     5.5519    17.0105 </r>
       <r>    -9.0619     5.5228    17.5299 </r>
       <r>    -8.9678     4.1384    17.9191 </r>
       <r>    -8.8738     0.9092    18.0047 </r>
       <r>    -8.7797     1.0611    18.1045 </r>
       <r>    -8.6857     4.0932    18.4894 </r>
       <r>    -8.5916     8.8543    19.3222 </r>
       <r>    -8.4976    11.8402    20.4358 </r>
       <r>    -8.4035     9.2528    21.3061 </r>
       <r>    -8.3095     8.5580    22.1110 </r>
       <r>    -8.2154    11.6850    23.2100 </r>
       <r>    -8.1214    14.9276    24.6140 </r>
       <r>    -8.0273    24.2562    26.8954 </r>
       <r>    -7.9333    29.8037    29.6986 </r>
       <r>    -7.8392    29.4143    32.4651 </r>
       <r>    -7.7451    33.2025    35.5879 </r>
       <r>    -7.6511    40.1721    39.3663 </r>
       <r>    -7.5570    45.9719    43.6901 </r>
       <r>    -7.4630    52.6446    48.6415 </r>
       <r>    -7.3689    60.3736    54.3199 </r>
       <r>    -7.2749    61.8758    60.1396 </r>
       <r>    -7.1808    62.8603    66.0518 </r>
       <r>    -7.0868    66.7784    72.3326 </r>
       <r>    -6.9927    75.3515    79.4197 </r>
       <r>    -6.8987    79.2464    86.8731 </r>
       <r>    -6.8046    79.8081    94.3794 </r>
       <r>    -6.7106    85.3958   102.4112 </r>
       <r>    -6.6165    92.5689   111.1176 </r>
       <r>    -6.5224    89.7714   119.5610 </r>
       <r>    -6.4284    82.4847   127.3190 </r>
       <r>    -6.3343    76.0888   134.4754 </r>
       <r>    -6.2403    73.9818   141.4337 </r>
       <r>    -6.1462    77.3057   148.7046 </r>
       <r>    -6.0522    76.5230   155.9019 </r>
       <r>    -5.9581    73.1831   162.7851 </r>
       <r>    -5.8641    75.9705   169.9304 </r>
       <r>    -5.7700    82.1946   177.6611 </r>
       <r>    -5.6760    88.8564   186.0184 </r>
       <r>    -5.5819    91.5833   194.6322 </r>
       <r>    -5.4879    91.5857   203.2461 </r>
       <r>    -5.3938    85.1032   211.2504 </r>
       <r>    -5.2997    82.5420   219.0138 </r>
       <r>    -5.2057    87.8242   227.2740 </r>
       <r>    -5.1116    89.7471   235.7151 </r>
       <r>    -5.0176    89.1200   244.0972 </r>
       <r>    -4.9235    87.7530   252.3507 </r>
       <r>    -4.8295    85.0442   260.3494 </r>
       <r>    -4.7354    86.8919   268.5219 </r>
       <r>    -4.6414    88.0693   276.8052 </r>
       <r>    -4.5473    86.4596   284.9370 </r>
       <r>    -4.4533    86.3932   293.0627 </r>
       <r>    -4.3592    86.5077   301.1990 </r>
       <r>    -4.2652    87.4013   309.4195 </r>
       <r>    -4.1711    92.1176   318.0835 </r>
       <r>    -4.0770    94.2824   326.9511 </r>
       <r>    -3.9830    92.9337   335.6919 </r>
       <r>    -3.8889    93.3225   344.4692 </r>
       <r>    -3.7949    95.3721   353.4394 </r>
       <r>    -3.7008    95.8832   362.4575 </r>
       <r>    -3.6068    94.9708   371.3899 </r>
       <r>    -3.5127    89.9202   379.8473 </r>
       <r>    -3.4187    89.3260   388.2487 </r>
       <r>    -3.3246    93.6595   397.0578 </r>
       <r>    -3.2306    93.4654   405.8485 </r>
       <r>    -3.1365    90.2634   414.3382 </r>
       <r>    -3.0425    87.6225   422.5794 </r>
       <r>    -2.9484    85.1916   430.5920 </r>
       <r>    -2.8543    87.5462   438.8261 </r>
       <r>    -2.7603    92.5956   447.5350 </r>
       <r>    -2.6662    96.3582   456.5979 </r>
       <r>    -2.5722    99.1297   465.9214 </r>
       <r>    -2.4781    93.6921   474.7335 </r>
       <r>    -2.3841    91.3547   483.3258 </r>
       <r>    -2.2900    92.0610   491.9845 </r>
       <r>    -2.1960    92.3756   500.6728 </r>
       <r>    -2.1019    95.2601   509.6324 </r>
       <r>    -2.0079    91.2283   518.2127 </r>
       <r>    -1.9138    81.1542   525.8456 </r>
       <r>    -1.8198    72.4852   532.6631 </r>
       <r>    -1.7257    67.8240   539.0422 </r>
       <r>    -1.6316    61.5316   544.8295 </r>
       <r>    -1.5376    46.5781   549.2104 </r>
       <r>    -1.4435    34.6450   552.4689 </r>
       <r>    -1.3495    34.8697   555.7485 </r>
       <r>    -1.2554    35.8849   559.1236 </r>
       <r>    -1.1614    28.0811   561.7647 </r>
       <r>    -1.0673    24.7565   564.0932 </r>
       <r>    -0.9733    30.1986   566.9335 </r>
       <r>    -0.8792    32.5584   569.9957 </r>
       <r>    -0.7852    28.8880   572.7128 </r>
       <r>    -0.6911    26.9569   575.2482 </r>
       <r>    -0.5970    28.1605   577.8968 </r>
       <r>    -0.5030    23.4825   580.1054 </r>
       <r>    -0.4089    14.5669   581.4754 </r>
       <r>    -0.3149    10.8189   582.4930 </r>
       <r>    -0.2208    12.9117   583.7074 </r>
       <r>    -0.1268    11.3516   584.7751 </r>
       <r>    -0.0327    10.2498   585.7391 </r>
       <r>     0.0613    11.3212   586.8039 </r>
       <r>     0.1554    11.4143   587.8775 </r>
       <r>     0.2494    14.5679   589.2476 </r>
       <r>     0.3435    17.0474   590.8510 </r>
       <r>     0.4375    20.2001   592.7509 </r>
       <r>     0.5316    21.4051   594.7641 </r>
       <r>     0.6257    18.5673   596.5105 </r>
       <r>     0.7197    15.0187   597.9230 </r>
       <r>     0.8138    13.3597   599.1796 </r>
       <r>     0.9078    12.3475   600.3409 </r>
       <r>     1.0019    12.4819   601.5149 </r>
       <r>     1.0959    11.4767   602.5943 </r>
       <r>     1.1900    10.9959   603.6285 </r>
       <r>     1.2840    13.0628   604.8571 </r>
       <r>     1.3781    14.2171   606.1943 </r>
       <r>     1.4721    14.3186   607.5410 </r>
       <r>     1.5662    15.0992   608.9611 </r>
       <r>     1.6602    15.3379   610.4037 </r>
       <r>     1.7543    16.3525   611.9417 </r>
       <r>     1.8484    17.0729   613.5475 </r>
       <r>     1.9424    17.6922   615.2115 </r>
       <r>     2.0365    18.8583   616.9852 </r>
       <r>     2.1305    14.2189   618.3226 </r>
       <r>     2.2246    13.8548   619.6257 </r>
       <r>     2.3186    14.4287   620.9827 </r>
       <r>     2.4127    12.9431   622.2001 </r>
       <r>     2.5067    11.2709   623.2602 </r>
       <r>     2.6008    11.2883   624.3219 </r>
       <r>     2.6948    12.0847   625.4585 </r>
       <r>     2.7889    12.3208   626.6173 </r>
       <r>     2.8829    10.0996   627.5672 </r>
       <r>     2.9770     8.8668   628.4012 </r>
       <r>     3.0711    12.5679   629.5832 </r>
       <r>     3.1651    17.2168   631.2025 </r>
       <r>     3.2592    16.1820   632.7245 </r>
       <r>     3.3532    16.3919   634.2662 </r>
       <r>     3.4473    15.0592   635.6826 </r>
       <r>     3.5413    15.0953   637.1024 </r>
       <r>     3.6354    13.5385   638.3757 </r>
       <r>     3.7294    15.0132   639.7878 </r>
       <r>     3.8235    18.1504   641.4949 </r>
       <r>     3.9175    16.9921   643.0931 </r>
       <r>     4.0116    14.8909   644.4936 </r>
       <r>     4.1056    14.6704   645.8734 </r>
       <r>     4.1997    15.3186   647.3142 </r>
       <r>     4.2938    20.3145   649.2249 </r>
       <r>     4.3878    24.5306   651.5321 </r>
       <r>     4.4819    24.2424   653.8122 </r>
       <r>     4.5759    21.6444   655.8479 </r>
       <r>     4.6700    23.0130   658.0124 </r>
       <r>     4.7640    27.1721   660.5680 </r>
       <r>     4.8581    29.3247   663.3261 </r>
       <r>     4.9521    29.0415   666.0576 </r>
       <r>     5.0462    28.2527   668.7148 </r>
       <r>     5.1402    23.3680   670.9127 </r>
       <r>     5.2343     9.7803   671.8326 </r>
       <r>     5.3283     1.6858   671.9911 </r>
       <r>     5.4224     0.0932   671.9999 </r>
       <r>     5.5165     0.0012   672.0000 </r>
       <r>     5.6105     0.0000   672.0000 </r>
       <r>     5.7046     0.0000   672.0000 </r>
       <r>     5.7986     0.0000   672.0000 </r>
       <r>     5.8927     0.0000   672.0000 </r>
       <r>     5.9867     0.0000   672.0000 </r>
       <r>     6.0808     0.0000   672.0000 </r>
       <r>     6.1748     0.0000   672.0000 </r>
       <r>     6.2689     0.0000   672.0000 </r>
       <r>     6.3629     0.0000   672.0000 </r>
       <r>     6.4570     0.0000   672.0000 </r>
      </set>
     </set>
    </array>
   </total>
  </dos>
 </calculation>
 <structure name="finalpos" >
  <crystal>
   <varray name="basis" >
    <v>      11.00258152       0.00000000       0.00000000 </v>
    <v>       5.50129076       9.52851510       0.00000000 </v>
    <v>       0.00000000       0.00000000      26.19178509 </v>
   </varray>
   <i name="volume">   2745.90128299 </i>
   <varray name="rec_basis" >
    <v>       0.09088776      -0.05247407       0.00000000 </v>
    <v>       0.00000000       0.10494815       0.00000000 </v>
    <v>       0.00000000       0.00000000       0.03817991 </v>
   </varray>
  </crystal>
  <varray name="positions" >
   <v>       0.08333333       0.83333333       0.38179910 </v>
   <v>       0.17095068       0.91521358       0.47260255 </v>
   <v>       0.49762572       0.50982891       0.57053105 </v>
   <v>       0.99447719       0.01547439       0.56590253 </v>
   <v>       0.83333333       0.83333333       0.38179910 </v>
   <v>       0.08333333       0.33333333       0.38179910 </v>
   <v>       0.91482524       0.42306734       0.47796291 </v>
   <v>       0.48467890       0.03705543       0.56246177 </v>
   <v>       0.41640871       0.17329224       0.47503320 </v>
   <v>       0.66560148       0.67300851       0.47477837 </v>
   <v>       0.58333333       0.08333333       0.38179910 </v>
   <v>       0.27501912       0.47623480       0.56307050 </v>
   <v>       0.50595651       0.75549610       0.56771467 </v>
   <v>       0.91539048       0.91690948       0.47766409 </v>
   <v>       0.74297398       0.24831174       0.56861573 </v>
   <v>       0.66548033       0.41852193       0.47647884 </v>
   <v>       0.16752482       0.16918977       0.47536219 </v>
   <v>       0.83333333       0.33333333       0.38179910 </v>
   <v>       0.58333333       0.58333333       0.38179910 </v>
   <v>       0.33333333       0.33333333       0.38179910 </v>
   <v>       0.16475659       0.42358112       0.47559687 </v>
   <v>       0.23451233       0.24146608       0.61050508 </v>
   <v>       0.83333333       0.08333333       0.38179910 </v>
   <v>       0.33333333       0.58333333       0.38179910 </v>
   <v>       0.09592367       0.58119484       0.61387261 </v>
   <v>       0.83854379       0.59425516       0.61083438 </v>
   <v>       0.85513406       0.33303595       0.61476578 </v>
   <v>       0.07775732       0.84531210       0.61723106 </v>
   <v>       0.37447627       0.24319475       0.65974749 </v>
   <v>       0.57945122       0.35995446       0.63170583 </v>
   <v>       0.31786628       0.86310292       0.61376272 </v>
   <v>       0.59358856       0.86318325       0.61195245 </v>
   <v>       0.25080037       0.75215130       0.57423874 </v>
   <v>       0.33333333       0.83333333       0.38179910 </v>
   <v>       0.16847166       0.66838161       0.47753140 </v>
   <v>       0.24747637       0.01322889       0.56207863 </v>
   <v>       0.50664239       0.24112508       0.61382335 </v>
   <v>       0.33333333       0.08333333       0.38179910 </v>
   <v>      -0.00154115       0.75549187       0.57248703 </v>
   <v>       0.01600019       0.49149485       0.57020292 </v>
   <v>       0.91855683       0.67049619       0.47652769 </v>
   <v>       0.08333333       0.58333333       0.38179910 </v>
   <v>       0.01208533       0.25195139       0.56616341 </v>
   <v>       0.91654358       0.16789948       0.47602835 </v>
   <v>       0.41956644       0.41848136       0.47510713 </v>
   <v>       0.08333333       0.08333333       0.38179910 </v>
   <v>       0.74324658       0.00652660       0.56532653 </v>
   <v>       0.66536136       0.17006360       0.47774853 </v>
   <v>       0.41626038       0.66899692       0.48034790 </v>
   <v>       0.66572107       0.92062264       0.47471341 </v>
   <v>       0.58333333       0.83333333       0.38179910 </v>
   <v>       0.74507991       0.50721070       0.57363033 </v>
   <v>       0.83333333       0.58333333       0.38179910 </v>
   <v>       0.41715857       0.92049124       0.47058060 </v>
   <v>       0.75819382       0.76023156       0.56452057 </v>
   <v>       0.58333333       0.33333333       0.38179910 </v>
  </varray>
  <varray name="selective"  type="logical" >
   <v type="logical" >  F  F  F </v>
   <v type="logical" >  T  T  T </v>
   <v type="logical" >  T  T  T </v>
   <v type="logical" >  T  T  T </v>
   <v type="logical" >  F  F  F </v>
   <v type="logical" >  F  F  F </v>
   <v type="logical" >  T  T  T </v>
   <v type="logical" >  T  T  T </v>
   <v type="logical" >  T  T  T </v>
   <v type="logical" >  T  T  T </v>
   <v type="logical" >  F  F  F </v>
   <v type="logical" >  T  T  T </v>
   <v type="logical" >  T  T  T </v>
   <v type="logical" >  T  T  T </v>
   <v type="logical" >  T  T  T </v>
   <v type="logical" >  T  T  T </v>
   <v type="logical" >  T  T  T </v>
   <v type="logical" >  F  F  F </v>
   <v type="logical" >  F  F  F </v>
   <v type="logical" >  F  F  F </v>
   <v type="logical" >  T  T  T </v>
   <v type="logical" >  T  T  T </v>
   <v type="logical" >  F  F  F </v>
   <v type="logical" >  F  F  F </v>
   <v type="logical" >  T  T  T </v>
   <v type="logical" >  T  T  T </v>
   <v type="logical" >  T  T  T </v>
   <v type="logical" >  T  T  T </v>
   <v type="logical" >  T  T  T </v>
   <v type="logical" >  T  T  T </v>
   <v type="logical" >  T  T  T </v>
   <v type="logical" >  T  T  T </v>
   <v type="logical" >  T  T  T </v>
   <v type="logical" >  F  F  F </v>
   <v type="logical" >  T  T  T </v>
   <v type="logical" >  T  T  T </v>
   <v type="logical" >  T  T  T </v>
   <v type="logical" >  F  F  F </v>
   <v type="logical" >  T  T  T </v>
   <v type="logical" >  T  T  T </v>
   <v type="logical" >  T  T  T </v>
   <v type="logical" >  F  F  F </v>
   <v type="logical" >  T  T  T </v>
   <v type="logical" >  T  T  T </v>
   <v type="logical" >  T  T  T </v>
   <v type="logical" >  F  F  F </v>
   <v type="logical" >  T  T  T </v>
   <v type="logical" >  T  T  T </v>
   <v type="logical" >  T  T  T </v>
   <v type="logical" >  T  T  T </v>
   <v type="logical" >  F  F  F </v>
   <v type="logical" >  T  T  T </v>
   <v type="logical" >  F  F  F </v>
   <v type="logical" >  T  T  T </v>
   <v type="logical" >  T  T  T </v>
   <v type="logical" >  F  F  F </v>
  </varray>
  <nose>
   <v>      -3.00000000       0.00000000       0.00010000       0.00010000 </v>
  </nose>
 </structure>
</modeling>
