unknown system                          
           1
    11.002582    0.000000    0.000000
     5.501291    9.528515    0.000000
     0.000000    0.000000   26.191785
   Au   O    Pd
  24   8  24
Direct configuration=     1
   0.08333333  0.83333333  0.38179910
   0.17136772  0.91421476  0.47308718
   0.49791900  0.51059202  0.57369272
   0.99413049  0.01545849  0.56583086
   0.83333333  0.83333333  0.38179910
   0.08333333  0.33333333  0.38179910
   0.91499950  0.42236389  0.47865222
   0.48344386  0.03878930  0.56237224
   0.41648884  0.17306528  0.47447616
   0.66496216  0.67310664  0.47534537
   0.58333333  0.08333333  0.38179910
   0.27572365  0.47845817  0.56321163
   0.50585154  0.75668684  0.57054799
   0.91564032  0.91630095  0.47782313
   0.74171901  0.24949628  0.56819130
   0.66533985  0.41887368  0.47669375
   0.16748329  0.16835544  0.47572185
   0.83333333  0.33333333  0.38179910
   0.58333333  0.58333333  0.38179910
   0.33333333  0.33333333  0.38179910
   0.16513367  0.42299177  0.47609079
   0.23432013  0.24018868  0.61271040
   0.83333333  0.08333333  0.38179910
   0.33333333  0.58333333  0.38179910
   0.09649281  0.58210081  0.61396901
   0.83898095  0.59488091  0.61044857
   0.85187187  0.33540709  0.61470766
   0.07382451  0.84784819  0.61868830
   0.36972088  0.24869661  0.66266656
   0.58223803  0.35490676  0.63279505
   0.31649682  0.86792761  0.61647387
   0.59718227  0.86720028  0.61228399
   0.25165631  0.75274285  0.57891215
   0.33333333  0.83333333  0.38179910
   0.16890137  0.66779023  0.47708275
   0.24754047  0.01309488  0.56287172
   0.50216422  0.24240533  0.61589322
   0.33333333  0.08333333  0.38179910
   0.00070525  0.75530270  0.57210295
   0.01848757  0.48941948  0.57098614
   0.91909592  0.66946762  0.47675463
   0.08333333  0.58333333  0.38179910
   0.01212758  0.25142430  0.56747742
   0.91714290  0.16720852  0.47624849
   0.41988023  0.41899844  0.47522617
   0.08333333  0.08333333  0.38179910
   0.74208093  0.00807602  0.56570226
   0.66606248  0.16981964  0.47752597
   0.41623215  0.66862646  0.48368376
   0.66593672  0.92047949  0.47473369
   0.58333333  0.83333333  0.38179910
   0.74496171  0.50858027  0.57316171
   0.83333333  0.58333333  0.38179910
   0.41701152  0.91990343  0.47139049
   0.75884171  0.76113652  0.56404436
   0.58333333  0.33333333  0.38179910
Direct configuration=     2
   0.08333333  0.83333333  0.38179910
   0.17147062  0.91413637  0.47308598
   0.49800914  0.51066630  0.57363163
   0.99421392  0.01535007  0.56585192
   0.83333333  0.83333333  0.38179910
   0.08333333  0.33333333  0.38179910
   0.91507716  0.42238062  0.47859713
   0.48349855  0.03879209  0.56234341
   0.41645177  0.17309041  0.47452050
   0.66499072  0.67309370  0.47531310
   0.58333333  0.08333333  0.38179910
   0.27570118  0.47832177  0.56316752
   0.50587797  0.75685298  0.57053409
   0.91564073  0.91628293  0.47781929
   0.74183932  0.24933310  0.56815187
   0.66525713  0.41890351  0.47670147
   0.16752819  0.16838578  0.47575920
   0.83333333  0.33333333  0.38179910
   0.58333333  0.58333333  0.38179910
   0.33333333  0.33333333  0.38179910
   0.16520848  0.42292353  0.47607133
   0.23449249  0.24013196  0.61272299
   0.83333333  0.08333333  0.38179910
   0.33333333  0.58333333  0.38179910
   0.09651455  0.58202043  0.61398997
   0.83903167  0.59492567  0.61046261
   0.85204396  0.33522986  0.61472589
   0.07379317  0.84790628  0.61867402
   0.36960626  0.24866490  0.66260263
   0.58229878  0.35498131  0.63284240
   0.31651893  0.86791944  0.61641725
   0.59706808  0.86708852  0.61227156
   0.25168634  0.75272334  0.57884488
   0.33333333  0.83333333  0.38179910
   0.16885968  0.66782928  0.47708818
   0.24749952  0.01320992  0.56283339
   0.50216857  0.24233231  0.61583506
   0.33333333  0.08333333  0.38179910
   0.00055572  0.75535857  0.57207883
   0.01828183  0.48960229  0.57098531
   0.91901060  0.66950965  0.47673744
   0.08333333  0.58333333  0.38179910
   0.01210783  0.25146638  0.56742945
   0.91702355  0.16734676  0.47623504
   0.41991659  0.41887354  0.47527397
   0.08333333  0.08333333  0.38179910
   0.74199928  0.00806987  0.56566605
   0.66590890  0.16985073  0.47753520
   0.41618542  0.66871358  0.48360001
   0.66589277  0.92049093  0.47472658
   0.58333333  0.83333333  0.38179910
   0.74494348  0.50863610  0.57314853
   0.83333333  0.58333333  0.38179910
   0.41701459  0.91992187  0.47133097
   0.75895555  0.76095120  0.56408587
   0.58333333  0.33333333  0.38179910
Direct configuration=     3
   0.08333333  0.83333333  0.38179910
   0.17161353  0.91402749  0.47308431
   0.49813432  0.51076948  0.57354679
   0.99432980  0.01519948  0.56588116
   0.83333333  0.83333333  0.38179910
   0.08333333  0.33333333  0.38179910
   0.91518502  0.42240385  0.47852061
   0.48357450  0.03879596  0.56230338
   0.41640030  0.17312530  0.47458208
   0.66503038  0.67307573  0.47526828
   0.58333333  0.08333333  0.38179910
   0.27566997  0.47813233  0.56310625
   0.50591467  0.75708372  0.57051477
   0.91564129  0.91625790  0.47781397
   0.74200640  0.24910646  0.56809711
   0.66514225  0.41894494  0.47671220
   0.16759055  0.16842791  0.47581106
   0.83333333  0.33333333  0.38179910
   0.58333333  0.58333333  0.38179910
   0.33333333  0.33333333  0.38179910
   0.16531239  0.42282875  0.47604429
   0.23473187  0.24005319  0.61274049
   0.83333333  0.08333333  0.38179910
   0.33333333  0.58333333  0.38179910
   0.09654473  0.58190880  0.61401909
   0.83910212  0.59498784  0.61048211
   0.85228296  0.33498372  0.61475122
   0.07374964  0.84798695  0.61865419
   0.36944707  0.24862086  0.66251384
   0.58238316  0.35508485  0.63290818
   0.31654964  0.86790808  0.61633861
   0.59690947  0.86693332  0.61225429
   0.25172803  0.75269623  0.57875144
   0.33333333  0.83333333  0.38179910
   0.16880178  0.66788353  0.47709571
   0.24744266  0.01336969  0.56278014
   0.50217462  0.24223090  0.61575427
   0.33333333  0.08333333  0.38179910
   0.00034804  0.75543617  0.57204532
   0.01799609  0.48985619  0.57098415
   0.91889209  0.66956804  0.47671357
   0.08333333  0.58333333  0.38179910
   0.01208039  0.25152482  0.56736282
   0.91685779  0.16753874  0.47621636
   0.41996708  0.41870008  0.47534037
   0.08333333  0.08333333  0.38179910
   0.74188588  0.00806134  0.56561577
   0.66569559  0.16989390  0.47754803
   0.41612052  0.66883457  0.48348369
   0.66583174  0.92050682  0.47471670
   0.58333333  0.83333333  0.38179910
   0.74491818  0.50871365  0.57313021
   0.83333333  0.58333333  0.38179910
   0.41701885  0.91994749  0.47124830
   0.75911367  0.76069381  0.56414353
   0.58333333  0.33333333  0.38179910
Direct configuration=     4
   0.08333333  0.83333333  0.38179910
   0.17159389  0.91407971  0.47308459
   0.49823455  0.51073645  0.57347999
   0.99439473  0.01515757  0.56587581
   0.83333333  0.83333333  0.38179910
   0.08333333  0.33333333  0.38179910
   0.91522038  0.42244760  0.47843941
   0.48366356  0.03871302  0.56227711
   0.41633748  0.17315438  0.47461499
   0.66504870  0.67305260  0.47522650
   0.58333333  0.08333333  0.38179910
   0.27564279  0.47799687  0.56307748
   0.50588552  0.75723548  0.57045829
   0.91561980  0.91632219  0.47780449
   0.74209841  0.24902801  0.56808620
   0.66505198  0.41901472  0.47672482
   0.16760177  0.16845480  0.47583935
   0.83333333  0.33333333  0.38179910
   0.58333333  0.58333333  0.38179910
   0.33333333  0.33333333  0.38179910
   0.16531564  0.42285446  0.47600946
   0.23463732  0.23999132  0.61265055
   0.83333333  0.08333333  0.38179910
   0.33333333  0.58333333  0.38179910
   0.09657427  0.58188276  0.61400752
   0.83912123  0.59493121  0.61056357
   0.85246576  0.33481958  0.61471398
   0.07379136  0.84792142  0.61859998
   0.36951676  0.24858322  0.66247932
   0.58232206  0.35504140  0.63287512
   0.31656638  0.86790813  0.61622282
   0.59674392  0.86676576  0.61223907
   0.25170051  0.75269496  0.57864003
   0.33333333  0.83333333  0.38179910
   0.16878227  0.66786278  0.47710801
   0.24742485  0.01347391  0.56274398
   0.50234660  0.24241197  0.61569381
   0.33333333  0.08333333  0.38179910
   0.00033062  0.75540015  0.57206947
   0.01786089  0.48997961  0.57094707
   0.91885229  0.66957867  0.47667978
   0.08333333  0.58333333  0.38179910
   0.01205189  0.25164114  0.56730272
   0.91676652  0.16762116  0.47620022
   0.41997427  0.41862970  0.47539910
   0.08333333  0.08333333  0.38179910
   0.74184068  0.00795944  0.56556046
   0.66555120  0.16989062  0.47755078
   0.41613234  0.66889953  0.48334767
   0.66578418  0.92049839  0.47470874
   0.58333333  0.83333333  0.38179910
   0.74506082  0.50858662  0.57316100
   0.83333333  0.58333333  0.38179910
   0.41705070  0.91997418  0.47116128
   0.75911279  0.76069694  0.56416969
   0.58333333  0.33333333  0.38179910
Direct configuration=     5
   0.08333333  0.83333333  0.38179910
   0.17157723  0.91412401  0.47308482
   0.49831957  0.51070843  0.57342332
   0.99444981  0.01512202  0.56587126
   0.83333333  0.83333333  0.38179910
   0.08333333  0.33333333  0.38179910
   0.91525039  0.42248471  0.47837053
   0.48373911  0.03864266  0.56225483
   0.41628419  0.17317905  0.47464290
   0.66506425  0.67303297  0.47519106
   0.58333333  0.08333333  0.38179910
   0.27561972  0.47788195  0.56305308
   0.50586079  0.75736422  0.57041037
   0.91560156  0.91637672  0.47779644
   0.74217646  0.24896146  0.56807694
   0.66497540  0.41907391  0.47673553
   0.16761129  0.16847761  0.47586335
   0.83333333  0.33333333  0.38179910
   0.58333333  0.58333333  0.38179910
   0.33333333  0.33333333  0.38179910
   0.16531840  0.42287627  0.47597992
   0.23455712  0.23993884  0.61257426
   0.83333333  0.08333333  0.38179910
   0.33333333  0.58333333  0.38179910
   0.09659932  0.58186067  0.61399771
   0.83913745  0.59488317  0.61063268
   0.85262084  0.33468033  0.61468239
   0.07382676  0.84786583  0.61855399
   0.36957589  0.24855129  0.66245003
   0.58227021  0.35500453  0.63284707
   0.31658058  0.86790817  0.61612459
   0.59660347  0.86662362  0.61222616
   0.25167715  0.75269388  0.57854553
   0.33333333  0.83333333  0.38179910
   0.16876571  0.66784517  0.47711845
   0.24740974  0.01356232  0.56271331
   0.50249249  0.24256557  0.61564251
   0.33333333  0.08333333  0.38179910
   0.00031584  0.75536959  0.57208996
   0.01774620  0.49008432  0.57091561
   0.91881852  0.66958768  0.47665112
   0.08333333  0.58333333  0.38179910
   0.01202771  0.25173982  0.56725174
   0.91668909  0.16769109  0.47618653
   0.41998038  0.41857000  0.47544891
   0.08333333  0.08333333  0.38179910
   0.74180235  0.00787300  0.56551353
   0.66542871  0.16988783  0.47755311
   0.41614237  0.66895464  0.48323229
   0.66574383  0.92049125  0.47470199
   0.58333333  0.83333333  0.38179910
   0.74518183  0.50847886  0.57318712
   0.83333333  0.58333333  0.38179910
   0.41707772  0.91999681  0.47108747
   0.75911205  0.76069959  0.56419189
   0.58333333  0.33333333  0.38179910
Direct configuration=     6
   0.08333333  0.83333333  0.38179910
   0.17154391  0.91421261  0.47308530
   0.49848963  0.51065238  0.57330999
   0.99455998  0.01505091  0.56586218
   0.83333333  0.83333333  0.38179910
   0.08333333  0.33333333  0.38179910
   0.91531039  0.42255894  0.47823276
   0.48389021  0.03850194  0.56221026
   0.41617760  0.17322838  0.47469873
   0.66509534  0.67299373  0.47512018
   0.58333333  0.08333333  0.38179910
   0.27557360  0.47765212  0.56300426
   0.50581133  0.75762171  0.57031453
   0.91556509  0.91648580  0.47778035
   0.74233257  0.24882836  0.56805843
   0.66482225  0.41919230  0.47675695
   0.16763033  0.16852323  0.47591134
   0.83333333  0.33333333  0.38179910
   0.58333333  0.58333333  0.38179910
   0.33333333  0.33333333  0.38179910
   0.16532391  0.42291988  0.47592082
   0.23439670  0.23983388  0.61242166
   0.83333333  0.08333333  0.38179910
   0.33333333  0.58333333  0.38179910
   0.09664942  0.58181650  0.61397808
   0.83916989  0.59478709  0.61077089
   0.85293100  0.33440184  0.61461920
   0.07389756  0.84775464  0.61846201
   0.36969414  0.24848742  0.66239146
   0.58216653  0.35493079  0.63279097
   0.31660899  0.86790824  0.61592812
   0.59632257  0.86633933  0.61220034
   0.25163045  0.75269172  0.57835651
   0.33333333  0.83333333  0.38179910
   0.16873261  0.66780997  0.47713932
   0.24737952  0.01373915  0.56265196
   0.50278428  0.24287278  0.61553993
   0.33333333  0.08333333  0.38179910
   0.00028629  0.75530848  0.57213093
   0.01751682  0.49029373  0.57085270
   0.91875098  0.66960571  0.47659379
   0.08333333  0.58333333  0.38179910
   0.01197936  0.25193718  0.56714977
   0.91653422  0.16783094  0.47615915
   0.41999260  0.41845059  0.47554855
   0.08333333  0.08333333  0.38179910
   0.74172567  0.00770011  0.56541969
   0.66518373  0.16988225  0.47755777
   0.41616242  0.66906487  0.48300152
   0.66566314  0.92047695  0.47468849
   0.58333333  0.83333333  0.38179910
   0.74542384  0.50826333  0.57323936
   0.83333333  0.58333333  0.38179910
   0.41713175  0.92004209  0.47093983
   0.75911055  0.76070489  0.56423629
   0.58333333  0.33333333  0.38179910
Direct configuration=     7
   0.08333333  0.83333333  0.38179910
   0.17156892  0.91414610  0.47308494
   0.49836199  0.51069445  0.57339506
   0.99447729  0.01510428  0.56586900
   0.83333333  0.83333333  0.38179910
   0.08333333  0.33333333  0.38179910
   0.91526535  0.42250322  0.47833617
   0.48377679  0.03860756  0.56224371
   0.41625761  0.17319135  0.47465683
   0.66507200  0.67302319  0.47517338
   0.58333333  0.08333333  0.38179910
   0.27560822  0.47782463  0.56304090
   0.50584846  0.75742844  0.57038646
   0.91559246  0.91640393  0.47779243
   0.74221540  0.24892827  0.56807233
   0.66493721  0.41910344  0.47674087
   0.16761604  0.16848899  0.47587532
   0.83333333  0.33333333  0.38179910
   0.58333333  0.58333333  0.38179910
   0.33333333  0.33333333  0.38179910
   0.16531977  0.42288714  0.47596518
   0.23451711  0.23991266  0.61253620
   0.83333333  0.08333333  0.38179910
   0.33333333  0.58333333  0.38179910
   0.09661182  0.58184966  0.61399281
   0.83914554  0.59485921  0.61066715
   0.85269820  0.33461087  0.61466663
   0.07384442  0.84783810  0.61853105
   0.36960538  0.24853536  0.66243543
   0.58224436  0.35498614  0.63283308
   0.31658767  0.86790818  0.61607559
   0.59653341  0.86655271  0.61221972
   0.25166550  0.75269334  0.57849839
   0.33333333  0.83333333  0.38179910
   0.16875746  0.66783639  0.47712366
   0.24740220  0.01360643  0.56269801
   0.50256526  0.24264219  0.61561693
   0.33333333  0.08333333  0.38179910
   0.00030847  0.75535435  0.57210018
   0.01768899  0.49013655  0.57089992
   0.91880168  0.66959218  0.47663682
   0.08333333  0.58333333  0.38179910
   0.01201565  0.25178904  0.56722631
   0.91665046  0.16772597  0.47617970
   0.41998343  0.41854022  0.47547376
   0.08333333  0.08333333  0.38179910
   0.74178322  0.00782988  0.56549013
   0.66536761  0.16988644  0.47755427
   0.41614737  0.66898213  0.48317474
   0.66572371  0.92048768  0.47469863
   0.58333333  0.83333333  0.38179910
   0.74524219  0.50842511  0.57320015
   0.83333333  0.58333333  0.38179910
   0.41709119  0.92000811  0.47105065
   0.75911167  0.76070091  0.56420297
   0.58333333  0.33333333  0.38179910
Direct configuration=     8
   0.08333333  0.83333333  0.38179910
   0.17151548  0.91421777  0.47308301
   0.49836794  0.51070261  0.57332871
   0.99449133  0.01513035  0.56584734
   0.83333333  0.83333333  0.38179910
   0.08333333  0.33333333  0.38179910
   0.91524711  0.42254139  0.47827413
   0.48381947  0.03857295  0.56224285
   0.41620203  0.17321434  0.47466925
   0.66508244  0.67301258  0.47515268
   0.58333333  0.08333333  0.38179910
   0.27561135  0.47773795  0.56303830
   0.50584288  0.75740221  0.57030942
   0.91556491  0.91645999  0.47778197
   0.74227518  0.24887088  0.56806448
   0.66490390  0.41913472  0.47675095
   0.16759735  0.16851627  0.47587915
   0.83333333  0.33333333  0.38179910
   0.58333333  0.58333333  0.38179910
   0.33333333  0.33333333  0.38179910
   0.16528196  0.42293688  0.47593671
   0.23451255  0.23989717  0.61247946
   0.83333333  0.08333333  0.38179910
   0.33333333  0.58333333  0.38179910
   0.09664860  0.58181341  0.61397556
   0.83914504  0.59480702  0.61072869
   0.85280855  0.33449207  0.61464885
   0.07392666  0.84775042  0.61849301
   0.36974869  0.24848707  0.66233975
   0.58226856  0.35506524  0.63281511
   0.31659046  0.86788690  0.61598738
   0.59640855  0.86642902  0.61221276
   0.25167030  0.75267777  0.57839037
   0.33333333  0.83333333  0.38179910
   0.16875080  0.66782765  0.47713668
   0.24738407  0.01366222  0.56266110
   0.50250960  0.24268110  0.61558910
   0.33333333  0.08333333  0.38179910
   0.00029826  0.75531344  0.57211964
   0.01761304  0.49022530  0.57086461
   0.91878780  0.66962168  0.47661074
   0.08333333  0.58333333  0.38179910
   0.01200629  0.25184563  0.56715664
   0.91659496  0.16776720  0.47616815
   0.41997939  0.41853100  0.47550552
   0.08333333  0.08333333  0.38179910
   0.74179732  0.00775998  0.56544896
   0.66530034  0.16988357  0.47755217
   0.41616120  0.66902203  0.48306787
   0.66570944  0.92046312  0.47468758
   0.58333333  0.83333333  0.38179910
   0.74532426  0.50837891  0.57322774
   0.83333333  0.58333333  0.38179910
   0.41711428  0.92002673  0.47098700
   0.75910445  0.76067477  0.56422553
   0.58333333  0.33333333  0.38179910
Direct configuration=     9
   0.08333333  0.83333333  0.38179910
   0.17139687  0.91437683  0.47307873
   0.49838114  0.51072073  0.57318145
   0.99452250  0.01518822  0.56579927
   0.83333333  0.83333333  0.38179910
   0.08333333  0.33333333  0.38179910
   0.91520663  0.42262611  0.47813642
   0.48391421  0.03849611  0.56224095
   0.41607866  0.17326538  0.47469683
   0.66510560  0.67298902  0.47510673
   0.58333333  0.08333333  0.38179910
   0.27561829  0.47754556  0.56303254
   0.50583052  0.75734400  0.57013842
   0.91550375  0.91658443  0.47775877
   0.74240787  0.24874350  0.56804708
   0.66482997  0.41920417  0.47677333
   0.16755586  0.16857684  0.47588767
   0.83333333  0.33333333  0.38179910
   0.58333333  0.58333333  0.38179910
   0.33333333  0.33333333  0.38179910
   0.16519804  0.42304728  0.47587352
   0.23450242  0.23986279  0.61235351
   0.83333333  0.08333333  0.38179910
   0.33333333  0.58333333  0.38179910
   0.09673025  0.58173295  0.61393726
   0.83914392  0.59469119  0.61086528
   0.85305350  0.33422836  0.61460939
   0.07410921  0.84755580  0.61840857
   0.37006680  0.24837987  0.66212736
   0.58232227  0.35524082  0.63277523
   0.31659667  0.86783966  0.61579159
   0.59613139  0.86615446  0.61219730
   0.25168096  0.75264319  0.57815061
   0.33333333  0.83333333  0.38179910
   0.16873601  0.66780824  0.47716560
   0.24734381  0.01378606  0.56257918
   0.50238604  0.24276749  0.61552732
   0.33333333  0.08333333  0.38179910
   0.00027558  0.75522262  0.57216285
   0.01744444  0.49042232  0.57078621
   0.91875701  0.66968716  0.47655284
   0.08333333  0.58333333  0.38179910
   0.01198551  0.25197124  0.56700201
   0.91647177  0.16785871  0.47614252
   0.41997041  0.41851056  0.47557600
   0.08333333  0.08333333  0.38179910
   0.74182861  0.00760481  0.56535757
   0.66515102  0.16987721  0.47754751
   0.41619188  0.66911059  0.48283066
   0.66567777  0.92040861  0.47466307
   0.58333333  0.83333333  0.38179910
   0.74550643  0.50827636  0.57328898
   0.83333333  0.58333333  0.38179910
   0.41716553  0.92006806  0.47084572
   0.75908843  0.76061676  0.56427561
   0.58333333  0.33333333  0.38179910
Direct configuration=    10
   0.08333333  0.83333333  0.38179910
   0.17115965  0.91469496  0.47307017
   0.49840755  0.51075698  0.57288692
   0.99458485  0.01530394  0.56570313
   0.83333333  0.83333333  0.38179910
   0.08333333  0.33333333  0.38179910
   0.91512567  0.42279555  0.47786099
   0.48410369  0.03834243  0.56223714
   0.41583192  0.17336744  0.47475198
   0.66515192  0.67294192  0.47501483
   0.58333333  0.08333333  0.38179910
   0.27563217  0.47716078  0.56302102
   0.50580579  0.75722757  0.56979641
   0.91538143  0.91683331  0.47771236
   0.74267326  0.24848874  0.56801227
   0.66468210  0.41934305  0.47681807
   0.16747288  0.16869798  0.47590471
   0.83333333  0.33333333  0.38179910
   0.58333333  0.58333333  0.38179910
   0.33333333  0.33333333  0.38179910
   0.16503021  0.42326807  0.47574713
   0.23448216  0.23979403  0.61210160
   0.83333333  0.08333333  0.38179910
   0.33333333  0.58333333  0.38179910
   0.09689355  0.58157204  0.61386067
   0.83914169  0.59445952  0.61113846
   0.85354340  0.33370094  0.61453046
   0.07447431  0.84716656  0.61823969
   0.37070301  0.24816549  0.66170260
   0.58242970  0.35559197  0.63269548
   0.31660908  0.86774519  0.61540001
   0.59557706  0.86560533  0.61216638
   0.25170227  0.75257405  0.57767109
   0.33333333  0.83333333  0.38179910
   0.16870644  0.66776942  0.47722342
   0.24726329  0.01403375  0.56241533
   0.50213892  0.24294025  0.61540377
   0.33333333  0.08333333  0.38179910
   0.00023023  0.75504099  0.57224926
   0.01710725  0.49081636  0.57062943
   0.91869541  0.66981812  0.47643706
   0.08333333  0.58333333  0.38179910
   0.01194395  0.25222245  0.56669274
   0.91622539  0.16804175  0.47609125
   0.41995246  0.41846967  0.47571698
   0.08333333  0.08333333  0.38179910
   0.74189120  0.00729448  0.56517479
   0.66485238  0.16986450  0.47753819
   0.41625326  0.66928772  0.48235624
   0.66561443  0.92029958  0.47461403
   0.58333333  0.83333333  0.38179910
   0.74587077  0.50807127  0.57341147
   0.83333333  0.58333333  0.38179910
   0.41726803  0.92015074  0.47056317
   0.75905637  0.76050073  0.56437578
   0.58333333  0.33333333  0.38179910
Direct configuration=    11
   0.08333333  0.83333333  0.38179910
   0.17132798  0.91446922  0.47307624
   0.49838881  0.51073126  0.57309592
   0.99454061  0.01522182  0.56577135
   0.83333333  0.83333333  0.38179910
   0.08333333  0.33333333  0.38179910
   0.91518312  0.42267531  0.47805644
   0.48396924  0.03845148  0.56223985
   0.41600700  0.17329502  0.47471284
   0.66511905  0.67297535  0.47508004
   0.58333333  0.08333333  0.38179910
   0.27562232  0.47743382  0.56302919
   0.50582334  0.75731019  0.57003910
   0.91546823  0.91665671  0.47774529
   0.74248494  0.24866952  0.56803697
   0.66478703  0.41924450  0.47678632
   0.16753177  0.16861202  0.47589262
   0.83333333  0.33333333  0.38179910
   0.58333333  0.58333333  0.38179910
   0.33333333  0.33333333  0.38179910
   0.16514930  0.42311139  0.47583681
   0.23449654  0.23984283  0.61228035
   0.83333333  0.08333333  0.38179910
   0.33333333  0.58333333  0.38179910
   0.09677767  0.58168622  0.61391502
   0.83914327  0.59462391  0.61094461
   0.85319577  0.33407520  0.61458647
   0.07421523  0.84744277  0.61835952
   0.37025155  0.24831762  0.66200401
   0.58235347  0.35534279  0.63275207
   0.31660027  0.86781223  0.61567788
   0.59597041  0.86599499  0.61218832
   0.25168715  0.75262311  0.57801136
   0.33333333  0.83333333  0.38179910
   0.16872742  0.66779696  0.47718239
   0.24732043  0.01385799  0.56253159
   0.50231427  0.24281766  0.61549145
   0.33333333  0.08333333  0.38179910
   0.00026241  0.75516988  0.57218794
   0.01734652  0.49053675  0.57074068
   0.91873912  0.66972519  0.47651922
   0.08333333  0.58333333  0.38179910
   0.01197344  0.25204419  0.56691220
   0.91640022  0.16791187  0.47612763
   0.41996520  0.41849868  0.47561694
   0.08333333  0.08333333  0.38179910
   0.74184679  0.00751469  0.56530449
   0.66506430  0.16987352  0.47754480
   0.41620971  0.66916203  0.48269289
   0.66565938  0.92037695  0.47464883
   0.58333333  0.83333333  0.38179910
   0.74561223  0.50821680  0.57332455
   0.83333333  0.58333333  0.38179910
   0.41719530  0.92009207  0.47076367
   0.75907912  0.76058307  0.56430470
   0.58333333  0.33333333  0.38179910
Direct configuration=    12
   0.08333333  0.83333333  0.38179910
   0.17125658  0.91454826  0.47306091
   0.49834378  0.51073096  0.57299122
   0.99455851  0.01524026  0.56573962
   0.83333333  0.83333333  0.38179910
   0.08333333  0.33333333  0.38179910
   0.91509511  0.42271718  0.47798422
   0.48398778  0.03840829  0.56226053
   0.41594765  0.17332740  0.47471417
   0.66514664  0.67297687  0.47507433
   0.58333333  0.08333333  0.38179910
   0.27566684  0.47735280  0.56305015
   0.50586142  0.75708948  0.56987840
   0.91543036  0.91669335  0.47772783
   0.74247861  0.24862800  0.56803704
   0.66481787  0.41921783  0.47679781
   0.16747380  0.16868096  0.47585181
   0.83333333  0.33333333  0.38179910
   0.58333333  0.58333333  0.38179910
   0.33333333  0.33333333  0.38179910
   0.16506284  0.42320098  0.47580032
   0.23454356  0.23989129  0.61220655
   0.83333333  0.08333333  0.38179910
   0.33333333  0.58333333  0.38179910
   0.09685754  0.58157058  0.61389948
   0.83916212  0.59457724  0.61099739
   0.85332859  0.33391576  0.61457865
   0.07442198  0.84731462  0.61830010
   0.37026153  0.24823442  0.66191219
   0.58237450  0.35548145  0.63269368
   0.31659946  0.86772015  0.61556569
   0.59580714  0.86583190  0.61217243
   0.25167927  0.75262213  0.57782240
   0.33333333  0.83333333  0.38179910
   0.16871778  0.66785135  0.47720538
   0.24731802  0.01387555  0.56246262
   0.50246559  0.24285216  0.61537998
   0.33333333  0.08333333  0.38179910
   0.00019378  0.75516221  0.57219419
   0.01723629  0.49066623  0.57069220
   0.91872678  0.66981722  0.47649716
   0.08333333  0.58333333  0.38179910
   0.01194019  0.25210577  0.56679867
   0.91632027  0.16796775  0.47610387
   0.41994822  0.41853865  0.47562106
   0.08333333  0.08333333  0.38179910
   0.74195333  0.00744179  0.56525855
   0.66504072  0.16988974  0.47753459
   0.41617685  0.66922454  0.48254450
   0.66567109  0.92034367  0.47463299
   0.58333333  0.83333333  0.38179910
   0.74562192  0.50821122  0.57335681
   0.83333333  0.58333333  0.38179910
   0.41717844  0.92011796  0.47070141
   0.75906653  0.76044401  0.56435573
   0.58333333  0.33333333  0.38179910
Direct configuration=    13
   0.08333333  0.83333333  0.38179910
   0.17112522  0.91469367  0.47303270
   0.49826092  0.51073041  0.57279859
   0.99459145  0.01527419  0.56568123
   0.83333333  0.83333333  0.38179910
   0.08333333  0.33333333  0.38179910
   0.91493318  0.42279420  0.47785135
   0.48402188  0.03832884  0.56229858
   0.41583845  0.17338698  0.47471660
   0.66519741  0.67297968  0.47506381
   0.58333333  0.08333333  0.38179910
   0.27574875  0.47720374  0.56308871
   0.50593149  0.75668344  0.56958276
   0.91536070  0.91676077  0.47769571
   0.74246697  0.24855161  0.56803717
   0.66487463  0.41916875  0.47681895
   0.16736716  0.16880779  0.47577673
   0.83333333  0.33333333  0.38179910
   0.58333333  0.58333333  0.38179910
   0.33333333  0.33333333  0.38179910
   0.16490378  0.42336580  0.47573319
   0.23463008  0.23998044  0.61207076
   0.83333333  0.08333333  0.38179910
   0.33333333  0.58333333  0.38179910
   0.09700447  0.58135782  0.61387087
   0.83919679  0.59449136  0.61109448
   0.85357296  0.33362245  0.61456427
   0.07480234  0.84707887  0.61819076
   0.37027987  0.24808137  0.66174326
   0.58241319  0.35573656  0.63258625
   0.31659798  0.86755074  0.61535930
   0.59550677  0.86553187  0.61214319
   0.25166478  0.75262031  0.57747475
   0.33333333  0.83333333  0.38179910
   0.16870004  0.66795139  0.47724767
   0.24731358  0.01390785  0.56233572
   0.50274398  0.24291564  0.61517491
   0.33333333  0.08333333  0.38179910
   0.00006750  0.75514811  0.57220569
   0.01703349  0.49090444  0.57060301
   0.91870407  0.66998652  0.47645656
   0.08333333  0.58333333  0.38179910
   0.01187903  0.25221908  0.56658979
   0.91617317  0.16807056  0.47606016
   0.41991700  0.41861218  0.47562864
   0.08333333  0.08333333  0.38179910
   0.74214933  0.00730767  0.56517402
   0.66499736  0.16991957  0.47751581
   0.41611640  0.66933954  0.48227151
   0.66569264  0.92028246  0.47460385
   0.58333333  0.83333333  0.38179910
   0.74563975  0.50820096  0.57341616
   0.83333333  0.58333333  0.38179910
   0.41714744  0.92016559  0.47058687
   0.75904336  0.76018818  0.56444960
   0.58333333  0.33333333  0.38179910
Direct configuration=    14
   0.08333333  0.83333333  0.38179910
   0.17086250  0.91498450  0.47297629
   0.49809522  0.51072931  0.57241335
   0.99465732  0.01534204  0.56556446
   0.83333333  0.83333333  0.38179910
   0.08333333  0.33333333  0.38179910
   0.91460933  0.42294825  0.47758561
   0.48409009  0.03816994  0.56237469
   0.41562005  0.17350614  0.47472148
   0.66529895  0.67298529  0.47504278
   0.58333333  0.08333333  0.38179910
   0.27591258  0.47690563  0.56316583
   0.50607162  0.75587135  0.56899148
   0.91522137  0.91689560  0.47763148
   0.74244368  0.24839884  0.56803742
   0.66498813  0.41907061  0.47686122
   0.16715387  0.16906144  0.47562657
   0.83333333  0.33333333  0.38179910
   0.58333333  0.58333333  0.38179910
   0.33333333  0.33333333  0.38179910
   0.16458564  0.42369544  0.47559893
   0.23480312  0.24015874  0.61179919
   0.83333333  0.08333333  0.38179910
   0.33333333  0.58333333  0.38179910
   0.09729834  0.58093230  0.61381367
   0.83926612  0.59431961  0.61128868
   0.85406170  0.33303581  0.61453552
   0.07556307  0.84660736  0.61797209
   0.37031656  0.24777525  0.66140539
   0.58249058  0.35624676  0.63237138
   0.31659501  0.86721193  0.61494653
   0.59490601  0.86493179  0.61208472
   0.25163580  0.75261668  0.57677946
   0.33333333  0.83333333  0.38179910
   0.16866456  0.66815149  0.47733226
   0.24730471  0.01397246  0.56208193
   0.50330076  0.24304259  0.61476478
   0.33333333  0.08333333  0.38179910
  -0.00018505  0.75511990  0.57222870
   0.01662790  0.49138087  0.57042462
   0.91865866  0.67032513  0.47637538
   0.08333333  0.58333333  0.38179910
   0.01175670  0.25244568  0.56617205
   0.91587898  0.16827618  0.47597274
   0.41985454  0.41875924  0.47564381