unknown system                          
           1
    11.002582    0.000000    0.000000
     5.501291    9.528515    0.000000
     0.000000    0.000000   24.491785
   Au   Pd
  24  24
Direct configuration=     1
   0.08333333  0.08333333  0.40830017
   0.00000000  0.75000000  0.59169983
   0.91666667  0.91666667  0.50000000
   0.08333333  0.83333333  0.40830017
   0.33333333  0.33333333  0.40830017
   0.91666667  0.41666667  0.50000000
   0.08333333  0.33333333  0.40830017
   0.25000000  0.00000000  0.59169983
   0.25000000  0.75000000  0.59169983
   0.16666667  0.41666667  0.50000000
   0.16666667  0.66666667  0.50000000
   0.41666667  0.16666667  0.50000000
   0.00000000  0.50000000  0.59169983
   0.50000000  0.25000000  0.59169983
   0.58333333  0.58333333  0.40830017
   0.41666667  0.66666667  0.50000000
   0.50000000  0.50000000  0.59169983
   0.41666667  0.91666667  0.50000000
   0.83333333  0.08333333  0.40830017
   0.66666667  0.16666667  0.50000000
   0.75000000  0.00000000  0.59169983
   0.83333333  0.33333333  0.40830017
   0.83333333  0.58333333  0.40830017
   0.50000000  0.00000000  0.59169983
   0.58333333  0.83333333  0.40830017
   0.91666667  0.66666667  0.50000000
   0.16666667  0.16666667  0.50000000
   0.25000000  0.50000000  0.59169983
   0.33333333  0.08333333  0.40830017
   0.41666667  0.41666667  0.50000000
   0.58333333  0.33333333  0.40830017
   0.16666667  0.91666667  0.50000000
   0.08333333  0.58333333  0.40830017
   0.33333333  0.83333333  0.40830017
   0.50000000  0.75000000  0.59169983
   0.66666667  0.41666667  0.50000000
   0.33333333  0.58333333  0.40830017
   0.25000000  0.25000000  0.59169983
   0.00000000  0.00000000  0.59169983
   0.75000000  0.25000000  0.59169983
   0.91666667  0.16666667  0.50000000
   0.66666667  0.66666667  0.50000000
   0.75000000  0.50000000  0.59169983
   0.83333333  0.83333333  0.40830017
   0.58333333  0.08333333  0.40830017
   0.66666667  0.91666667  0.50000000
   0.00000000  0.25000000  0.59169983
   0.75000000  0.75000000  0.59169983
Direct configuration=     2
   0.08333333  0.08333333  0.40830017
  -0.00031471  0.74976710  0.59392071
   0.91644373  0.91672555  0.50002119
   0.08333333  0.83333333  0.40830017
   0.33333333  0.33333333  0.40830017
   0.91540782  0.41632725  0.50086337
   0.08333333  0.33333333  0.40830017
   0.24852718  0.00113418  0.59358189
   0.24974589  0.75050544  0.59396499
   0.16710635  0.41698785  0.50038114
   0.16736656  0.66529494  0.49956090
   0.41631322  0.16629859  0.49954842
  -0.00027784  0.49980669  0.59375770
   0.49902111  0.25135987  0.59390180
   0.58333333  0.58333333  0.40830017
   0.41744288  0.66636221  0.49958594
   0.50103016  0.49947200  0.59355989
   0.41716061  0.91603677  0.49927641
   0.83333333  0.08333333  0.40830017
   0.66646024  0.16821077  0.49958610
   0.75049361 -0.00031237  0.59390648
   0.83333333  0.33333333  0.40830017
   0.83333333  0.58333333  0.40830017
   0.50048813 -0.00101802  0.59390455
   0.58333333  0.83333333  0.40830017
   0.91503072  0.66777525  0.49978446
   0.16626216  0.16621136  0.50027040
   0.25024659  0.49946265  0.59302239
   0.33333333  0.08333333  0.40830017
   0.41711641  0.41697689  0.49975680
   0.58333333  0.33333333  0.40830017
   0.16605309  0.91806304  0.49995605
   0.08333333  0.58333333  0.40830017
   0.33333333  0.83333333  0.40830017
   0.50133218  0.74924005  0.59288580
   0.66698064  0.41619837  0.50032944
   0.33333333  0.58333333  0.40830017
   0.24940684  0.25034129  0.59295990
  -0.00008723  0.00097327  0.59272277
   0.75099928  0.25017350  0.59265596
   0.91714890  0.16681662  0.50075530
   0.66708359  0.66717320  0.50046789
   0.74950368  0.50036283  0.59245916
   0.83333333  0.83333333  0.40830017
   0.58333333  0.08333333  0.40830017
   0.66747243  0.91485405  0.49946175
  -0.00022922  0.24944393  0.59252626
   0.74953349  0.74954201  0.59248315
Direct configuration=     3
   0.08333333  0.08333333  0.40830017
  -0.00114418  0.74915328  0.59977406
   0.91585616  0.91688074  0.50007702
   0.08333333  0.83333333  0.40830017
   0.33333333  0.33333333  0.40830017
   0.91209000  0.41543267  0.50313886
   0.08333333  0.33333333  0.40830017
   0.24464542  0.00412342  0.59854226
   0.24907614  0.75183758  0.59993506
   0.16826517  0.41783437  0.50138568
   0.16921119  0.66167962  0.49840361
   0.41538166  0.16532848  0.49835824
  -0.00101012  0.49929721  0.59918144
   0.49644116  0.25494393  0.59970531
   0.58333333  0.58333333  0.40830017
   0.41948867  0.66555978  0.49849466
   0.50374525  0.49808041  0.59846226
   0.41846247  0.91437663  0.49736933
   0.83333333  0.08333333  0.40830017
   0.66591617  0.17228040  0.49849521
   0.75179458 -0.00113565  0.59972234
   0.83333333  0.33333333  0.40830017
   0.83333333  0.58333333  0.40830017
   0.50177464 -0.00370110  0.59971533
   0.58333333  0.83333333  0.40830017
   0.91071903  0.67069704  0.49921639
   0.16519605  0.16501134  0.50098305
   0.25089651  0.49804639  0.59650812
   0.33333333  0.08333333  0.40830017
   0.41830175  0.41779450  0.49911581
   0.58333333  0.33333333  0.40830017
   0.16443594  0.92174331  0.49984022
   0.08333333  0.58333333  0.40830017
   0.33333333  0.83333333  0.40830017
   0.50484329  0.74723714  0.59601154
   0.66780816  0.41496412  0.50119771
   0.33333333  0.58333333  0.40830017
   0.24784350  0.25124079  0.59628094
  -0.00031712  0.00353843  0.59541884
   0.75363299  0.25063076  0.59517593
   0.91841987  0.16721185  0.50274599
   0.66818244  0.66850823  0.50170105
   0.74819558  0.50131911  0.59446043
   0.83333333  0.83333333  0.40830017
   0.58333333  0.08333333  0.40830017
   0.66959611  0.91007673  0.49804313
  -0.00083336  0.24797835  0.59470438
   0.74830394  0.74833494  0.59454765
Direct configuration=     4
   0.08333333  0.08333333  0.40830017
  -0.00079190  0.74876869  0.60226440
   0.91557787  0.91666437  0.50204810
   0.08333333  0.83333333  0.40830017
   0.33333333  0.33333333  0.40830017
   0.91290267  0.41614254  0.50456066
   0.08333333  0.33333333  0.40830017
   0.24556381  0.00385919  0.60084666
   0.24936931  0.75165821  0.60231052
   0.16653486  0.41785241  0.50312474
   0.16882031  0.66299107  0.50020960
   0.41677815  0.16392496  0.50027031
  -0.00123006  0.49911009  0.60176364
   0.49681145  0.25403955  0.60208366
   0.58333333  0.58333333  0.40830017
   0.41902749  0.66576531  0.50029854
   0.50347647  0.49881428  0.60075271
   0.41824115  0.91467819  0.49895145
   0.83333333  0.08333333  0.40830017
   0.66519787  0.17167126  0.50030816
   0.75117039 -0.00023344  0.60209435
   0.83333333  0.33333333  0.40830017
   0.83333333  0.58333333  0.40830017
   0.50134020 -0.00339389  0.60203664
   0.58333333  0.83333333  0.40830017
   0.91176475  0.66971416  0.50050770
   0.16555070  0.16518419  0.50218452
   0.25052731  0.49897085  0.59816537
   0.33333333  0.08333333  0.40830017
   0.41948629  0.41735437  0.50045385
   0.58333333  0.33333333  0.40830017
   0.16499315  0.92083887  0.50126076
   0.08333333  0.58333333  0.40830017
   0.33333333  0.83333333  0.40830017
   0.50413036  0.74735593  0.59737632
   0.66699432  0.41568742  0.50233601
   0.33333333  0.58333333  0.40830017
   0.24796685  0.25094030  0.59778222
  -0.00075667  0.00306656  0.59690837
   0.75382979  0.25021811  0.59666855
   0.91842579  0.16654205  0.50372938
   0.66809719  0.66809922  0.50262760
   0.74794864  0.50149191  0.59610754
   0.83333333  0.83333333  0.40830017
   0.58333333  0.08333333  0.40830017
   0.66892152  0.91166520  0.49907249
  -0.00114511  0.24862149  0.59650448
   0.74864979  0.74811634  0.59582372
Direct configuration=     5
   0.08333333  0.08333333  0.40830017
   0.00016916  0.74771946  0.60905846
   0.91481866  0.91607406  0.50742551
   0.08333333  0.83333333  0.40830017
   0.33333333  0.33333333  0.40830017
   0.91511977  0.41807918  0.50843957
   0.08333333  0.33333333  0.40830017
   0.24806931  0.00313834  0.60713341
   0.25016911  0.75116887  0.60879112
   0.16181431  0.41790161  0.50786917
   0.16775394  0.66656892  0.50513664
   0.42058800  0.16009594  0.50548670
  -0.00183008  0.49859961  0.60880827
   0.49782165  0.25157225  0.60857214
   0.58333333  0.58333333  0.40830017
   0.41776930  0.66632603  0.50521982
   0.50274319  0.50081638  0.60700140
   0.41763735  0.91550091  0.50326771
   0.83333333  0.08333333  0.40830017
   0.66323824  0.17000944  0.50525417
   0.74946752  0.00222794  0.60856558
   0.83333333  0.33333333  0.40830017
   0.83333333  0.58333333  0.40830017
   0.50015498 -0.00255576  0.60836953
   0.58333333  0.83333333  0.40830017
   0.91461762  0.66703272  0.50403059
   0.16651822  0.16565576  0.50546229
   0.24952009  0.50149289  0.60268662
   0.33333333  0.08333333  0.40830017
   0.42271789  0.41615363  0.50410425
   0.58333333  0.33333333  0.40830017
   0.16651331  0.91837143  0.50513618
   0.08333333  0.58333333  0.40830017
   0.33333333  0.83333333  0.40830017
   0.50218536  0.74768003  0.60109964
   0.66477406  0.41766068  0.50544146
   0.33333333  0.58333333  0.40830017
   0.24830336  0.25012049  0.60187795
  -0.00195584  0.00177924  0.60097204
   0.75436671  0.24909232  0.60074065
   0.91844193  0.16471474  0.50641222
   0.66786463  0.66698338  0.50515538
   0.74727494  0.50196332  0.60060111
   0.83333333  0.83333333  0.40830017
   0.58333333  0.08333333  0.40830017
   0.66708114  0.91599879  0.50188072
  -0.00199562  0.25037605  0.60141542
   0.74959331  0.74751997  0.59930502
Direct configuration=     6
   0.08333333  0.08333333  0.40830017
   0.00040394  0.74746314  0.61071818
   0.91463319  0.91592986  0.50873916
   0.08333333  0.83333333  0.40830017
   0.33333333  0.33333333  0.40830017
   0.91566139  0.41855228  0.50938715
   0.08333333  0.33333333  0.40830017
   0.24868138  0.00296224  0.60866920
   0.25036449  0.75104932  0.61037427
   0.16066113  0.41791363  0.50902819
   0.16749344  0.66744295  0.50634027
   0.42151870  0.15916055  0.50676102
  -0.00197666  0.49847490  0.61052921
   0.49806844  0.25096951  0.61015722
   0.58333333  0.58333333  0.40830017
   0.41746194  0.66646300  0.50642205
   0.50256406  0.50130548  0.60852790
   0.41748985  0.91570189  0.50432214
   0.83333333  0.08333333  0.40830017
   0.66275952  0.16960348  0.50646244
   0.74905152  0.00282923  0.61014643
   0.83333333  0.33333333  0.40830017
   0.83333333  0.58333333  0.40830017
   0.49986545 -0.00235102  0.60991659
   0.58333333  0.83333333  0.40830017
   0.91531455  0.66637767  0.50489120
   0.16675458  0.16577096  0.50626302
   0.24927404  0.50210900  0.60379112
   0.33333333  0.08333333  0.40830017
   0.42350733  0.41586031  0.50499600
   0.58333333  0.33333333  0.40830017
   0.16688467  0.91776866  0.50608291
   0.08333333  0.58333333  0.40830017
   0.33333333  0.83333333  0.40830017
   0.50171021  0.74775921  0.60200921
   0.66423167  0.41814273  0.50620009
   0.33333333  0.58333333  0.40830017
   0.24838557  0.24992022  0.60287849
  -0.00224879  0.00146475  0.60196475
   0.75449788  0.24881730  0.60173543
   0.91844587  0.16426835  0.50706761
   0.66780782  0.66671079  0.50577289
   0.74711037  0.50207849  0.60169885
   0.83333333  0.83333333  0.40830017
   0.58333333  0.08333333  0.40830017
   0.66663155  0.91705745  0.50256674
  -0.00220339  0.25080468  0.60261512
   0.74982380  0.74737428  0.60015546
Direct configuration=     7
   0.08333333  0.08333333  0.40830017
  -0.00090418  0.74862634  0.61227179
   0.91425105  0.91554086  0.50975724
   0.08333333  0.83333333  0.40830017
   0.33333333  0.33333333  0.40830017
   0.91355165  0.41687112  0.51000200
   0.08333333  0.33333333  0.40830017
   0.24764386  0.00232997  0.60981238
   0.24941275  0.75211172  0.61186813
   0.16661666  0.41728509  0.50975801
   0.16768011  0.66556325  0.50762679
   0.41727910  0.16448619  0.50802104
  -0.00155150  0.49885439  0.61247741
   0.49721138  0.25287539  0.61154012
   0.58333333  0.58333333  0.40830017
   0.41691163  0.66671385  0.50743280
   0.50212962  0.49906591  0.60994059
   0.41721357  0.91510403  0.50564764
   0.83333333  0.08333333  0.40830017
   0.66592130  0.16828111  0.50767855
   0.74915573  0.00088050  0.61165862
   0.83333333  0.33333333  0.40830017
   0.83333333  0.58333333  0.40830017
   0.50110102 -0.00314826  0.61131328
   0.58333333  0.83333333  0.40830017
   0.91493856  0.66839800  0.50623522
   0.16676361  0.16468335  0.50734460
   0.25048607  0.50064638  0.60482356
   0.33333333  0.08333333  0.40830017
   0.41843068  0.41635838  0.50659905
   0.58333333  0.33333333  0.40830017
   0.16683330  0.91812942  0.50755635
   0.08333333  0.58333333  0.40830017
   0.33333333  0.83333333  0.40830017
   0.50111043  0.74958962  0.60319916
   0.66684271  0.41697100  0.50728398
   0.33333333  0.58333333  0.40830017
   0.24882378  0.25052278  0.60422409
  -0.00025696  0.00034329  0.60350230
   0.75256878  0.25016270  0.60293452
   0.91768868  0.16576143  0.50746884
   0.66745906  0.66760274  0.50628924
   0.74760752  0.50146828  0.60320485
   0.83333333  0.83333333  0.40830017
   0.58333333  0.08333333  0.40830017
   0.66869557  0.91429866  0.50421772
  -0.00171247  0.24976168  0.60394484
   0.74952118  0.74932495  0.60100542
Direct configuration=     8
   0.08333333  0.08333333  0.40830017
  -0.00088223  0.74860682  0.61224572
   0.91425746  0.91554739  0.50974015
   0.08333333  0.83333333  0.40830017
   0.33333333  0.33333333  0.40830017
   0.91358705  0.41689932  0.50999169
   0.08333333  0.33333333  0.40830017
   0.24766127  0.00234058  0.60979320
   0.24942872  0.75209390  0.61184307
   0.16651674  0.41729563  0.50974577
   0.16767698  0.66559479  0.50760521
   0.41735023  0.16439684  0.50799990
  -0.00155864  0.49884802  0.61244472
   0.49722576  0.25284342  0.61151692
   0.58333333  0.58333333  0.40830017
   0.41692086  0.66670964  0.50741584
   0.50213691  0.49910348  0.60991689
   0.41721821  0.91511406  0.50562541
   0.83333333  0.08333333  0.40830017
   0.66586825  0.16830330  0.50765814
   0.74915398  0.00091320  0.61163325
   0.83333333  0.33333333  0.40830017
   0.83333333  0.58333333  0.40830017
   0.50108029 -0.00313489  0.61128985
   0.58333333  0.83333333  0.40830017
   0.91494487  0.66836410  0.50621267
   0.16676345  0.16470160  0.50732646
   0.25046574  0.50067092  0.60480624
   0.33333333  0.08333333  0.40830017
   0.41851585  0.41635002  0.50657216
   0.58333333  0.33333333  0.40830017
   0.16683417  0.91812337  0.50753163
   0.08333333  0.58333333  0.40830017
   0.33333333  0.83333333  0.40830017
   0.50112049  0.74955891  0.60317920
   0.66679891  0.41699066  0.50726580
   0.33333333  0.58333333  0.40830017
   0.24881643  0.25051267  0.60420151
  -0.00029038  0.00036210  0.60347650
   0.75260114  0.25014013  0.60291441
   0.91770139  0.16573638  0.50746211
   0.66746491  0.66758777  0.50628058
   0.74759918  0.50147851  0.60317958
   0.83333333  0.83333333  0.40830017
   0.58333333  0.08333333  0.40830017
   0.66866094  0.91434494  0.50419002
  -0.00172070  0.24977917  0.60392253
   0.74952625  0.74929223  0.60099116
Direct configuration=     9
   0.08333333  0.08333333  0.40830017
  -0.00106777  0.74892653  0.61267811
   0.91547671  0.91555386  0.50973993
   0.08333333  0.83333333  0.40830017
   0.33333333  0.33333333  0.40830017
   0.91491493  0.41650110  0.51006933
   0.08333333  0.33333333  0.40830017
   0.24711200  0.00275584  0.60995149
   0.24929130  0.75158789  0.61222586
   0.16651901  0.41749657  0.50952754
   0.16719623  0.66577356  0.50772663
   0.41710916  0.16513514  0.50804511
  -0.00130913  0.49891372  0.61276672
   0.49750251  0.25279216  0.61182346
   0.58333333  0.58333333  0.40830017
   0.41736071  0.66535963  0.50747640
   0.50182795  0.49908831  0.61006606
   0.41751459  0.91601525  0.50583356
   0.83333333  0.08333333  0.40830017
   0.66607547  0.16854316  0.50771235
   0.74936821  0.00047811  0.61208553
   0.83333333  0.33333333  0.40830017
   0.83333333  0.58333333  0.40830017
   0.50100034 -0.00268533  0.61148742
   0.58333333  0.83333333  0.40830017
   0.91544377  0.66740437  0.50677587
   0.16610592  0.16483883  0.50772421
   0.25033844  0.50052192  0.60550201
   0.33333333  0.08333333  0.40830017
   0.41800157  0.41624437  0.50714294
   0.58333333  0.33333333  0.40830017
   0.16583282  0.91843642  0.50800241
   0.08333333  0.58333333  0.40830017
   0.33333333  0.83333333  0.40830017
   0.50140107  0.74949947  0.60375928
   0.66618225  0.41670217  0.50760822
   0.33333333  0.58333333  0.40830017
   0.24877637  0.25050775  0.60499228
  -0.00023586  0.00071637  0.60412241
   0.75199145  0.25011033  0.60348355
   0.91793676  0.16571957  0.50763236
   0.66748401  0.66783380  0.50645821
   0.74762869  0.50167696  0.60388359
   0.83333333  0.83333333  0.40830017
   0.58333333  0.08333333  0.40830017
   0.66769358  0.91417231  0.50492953
  -0.00132793  0.24906373  0.60436503
   0.74936661  0.74960871  0.60139687
Direct configuration=    10
   0.08333333  0.08333333  0.40830017
  -0.00113918  0.74904959  0.61284455
   0.91594605  0.91555635  0.50973985
   0.08333333  0.83333333  0.40830017
   0.33333333  0.33333333  0.40830017
   0.91542608  0.41634781  0.51009921
   0.08333333  0.33333333  0.40830017
   0.24690057  0.00291569  0.61001242
   0.24923840  0.75139311  0.61237320
   0.16651988  0.41757392  0.50944354
   0.16701117  0.66584238  0.50777337
   0.41701636  0.16541934  0.50806251
  -0.00121309  0.49893901  0.61289066
   0.49760904  0.25277243  0.61194146
   0.58333333  0.58333333  0.40830017
   0.41753003  0.66483996  0.50749971
   0.50170902  0.49908247  0.61012348
   0.41762867  0.91636215  0.50591368
   0.83333333  0.08333333  0.40830017
   0.66615523  0.16863549  0.50773321
   0.74945067  0.00031062  0.61225963
   0.83333333  0.33333333  0.40830017
   0.83333333  0.58333333  0.40830017
   0.50096957 -0.00251228  0.61156347
   0.58333333  0.83333333  0.40830017
   0.91563582  0.66703494  0.50699266
   0.16585281  0.16489165  0.50787731
   0.25028943  0.50046456  0.60576984
   0.33333333  0.08333333  0.40830017
   0.41780360  0.41620370  0.50736266
   0.58333333  0.33333333  0.40830017
   0.16544736  0.91855693  0.50818364
   0.08333333  0.58333333  0.40830017
   0.33333333  0.83333333  0.40830017
   0.50150908  0.74947658  0.60398257
   0.66594488  0.41659112  0.50774003
   0.33333333  0.58333333  0.40830017
   0.24876095  0.25050586  0.60529667
  -0.00021488  0.00085274  0.60437104
   0.75175675  0.25009885  0.60370263
   0.91802736  0.16571310  0.50769790
   0.66749136  0.66792851  0.50652659
   0.74764005  0.50175335  0.60415458
   0.83333333  0.83333333  0.40830017
   0.58333333  0.08333333  0.40830017
   0.66732120  0.91410586  0.50521420
  -0.00117674  0.24878833  0.60453537
   0.74930515  0.74973054  0.60155304
Direct configuration=    11
   0.08333333  0.08333333  0.40830017
  -0.00101681  0.74912800  0.61312696
   0.91561778  0.91569858  0.50965618
   0.08333333  0.83333333  0.40830017
   0.33333333  0.33333333  0.40830017
   0.91563379  0.41650081  0.51036054
   0.08333333  0.33333333  0.40830017
   0.24734648  0.00264281  0.61004580
   0.24940863  0.75099724  0.61257055
   0.16591593  0.41740266  0.50938831
   0.16693608  0.66603376  0.50777730
   0.41731446  0.16532335  0.50798244
  -0.00114107  0.49877786  0.61298524
   0.49794462  0.25217242  0.61214560
   0.58333333  0.58333333  0.40830017
   0.41751288  0.66515170  0.50746791
   0.50161333  0.49972196  0.61012741
   0.41697446  0.91646665  0.50597563
   0.83333333  0.08333333  0.40830017
   0.66606868  0.16830397  0.50764483
   0.74976258  0.00043837  0.61248909
   0.83333333  0.33333333  0.40830017
   0.83333333  0.58333333  0.40830017
   0.50035551 -0.00189832  0.61160058
   0.58333333  0.83333333  0.40830017
   0.91559096  0.66674811  0.50737094
   0.16587350  0.16499471  0.50817729
   0.24967582  0.50051455  0.60638806
   0.33333333  0.08333333  0.40830017
   0.41806463  0.41600599  0.50772508
   0.58333333  0.33333333  0.40830017
   0.16602371  0.91815975  0.50845497
   0.08333333  0.58333333  0.40830017
   0.33333333  0.83333333  0.40830017
   0.50139173  0.74932899  0.60433087
   0.66599218  0.41653115  0.50804155
   0.33333333  0.58333333  0.40830017
   0.24862565  0.25066200  0.60584251
  -0.00090484  0.00135349  0.60500490
   0.75181425  0.24973837  0.60416445
   0.91783504  0.16602727  0.50798445
   0.66769284  0.66726684  0.50676361
   0.74797396  0.50163013  0.60451898
   0.83333333  0.83333333  0.40830017
   0.58333333  0.08333333  0.40830017
   0.66743820  0.91458720  0.50567504
  -0.00165582  0.24912069  0.60486194
   0.74927778  0.74942535  0.60201120
Direct configuration=    12
   0.08333333  0.08333333  0.40830017
  -0.00096961  0.74915824  0.61323589
   0.91549117  0.91575343  0.50962391
   0.08333333  0.83333333  0.40830017
   0.33333333  0.33333333  0.40830017
   0.91571391  0.41655981  0.51046134
   0.08333333  0.33333333  0.40830017
   0.24751846  0.00253756  0.61005868
   0.24947429  0.75084456  0.61264666
   0.16568299  0.41733660  0.50936701
   0.16690712  0.66610757  0.50777882
   0.41742943  0.16528633  0.50795156
  -0.00111328  0.49871571  0.61302172
   0.49807405  0.25194099  0.61222433
   0.58333333  0.58333333  0.40830017
   0.41750627  0.66527193  0.50745565
   0.50157642  0.49996861  0.61012893
   0.41672213  0.91650696  0.50599952
   0.83333333  0.08333333  0.40830017
   0.66603529  0.16817610  0.50761074
   0.74988289  0.00048764  0.61257759
   0.83333333  0.33333333  0.40830017
   0.83333333  0.58333333  0.40830017
   0.50011868 -0.00166151  0.61161489
   0.58333333  0.83333333  0.40830017
   0.91557366  0.66663748  0.50751683
   0.16588148  0.16503446  0.50829299
   0.24943915  0.50053383  0.60662651
   0.33333333  0.08333333  0.40830017
   0.41816530  0.41592973  0.50786487
   0.58333333  0.33333333  0.40830017
   0.16624600  0.91800656  0.50855962
   0.08333333  0.58333333  0.40830017
   0.33333333  0.83333333  0.40830017
   0.50134647  0.74927206  0.60446521
   0.66601043  0.41650802  0.50815784
   0.33333333  0.58333333  0.40830017
   0.24857346  0.25072223  0.60605304
  -0.00117096  0.00154662  0.60524937
   0.75183643  0.24959933  0.60434258
   0.91776087  0.16614845  0.50809498
   0.66777054  0.66701163  0.50685503
   0.74810275  0.50158260  0.60465953
   0.83333333  0.83333333  0.40830017
   0.58333333  0.08333333  0.40830017
   0.66748333  0.91477285  0.50585279
  -0.00184061  0.24924888  0.60498790
   0.74926722  0.74930764  0.60218791
Direct configuration=    13
   0.08333333  0.08333333  0.40830017
  -0.00093723  0.74918150  0.61336872
   0.91528896  0.91578963  0.50969687
   0.08333333  0.83333333  0.40830017
   0.33333333  0.33333333  0.40830017
   0.91492113  0.41659140  0.51069953
   0.08333333  0.33333333  0.40830017
   0.24750097  0.00225684  0.61007135
   0.24925677  0.75112599  0.61273598
   0.16611650  0.41712544  0.50958377
   0.16717747  0.66563976  0.50783836
   0.41717372  0.16508810  0.50791698
  -0.00117961  0.49872498  0.61310757
   0.49794328  0.25218276  0.61232704
   0.58333333  0.58333333  0.40830017
   0.41748275  0.66567419  0.50739750
   0.50168390  0.49978136  0.61009470
   0.41689509  0.91605441  0.50596622
   0.83333333  0.08333333  0.40830017
   0.66606257  0.16824230  0.50756134
   0.74991346  0.00035770  0.61270112
   0.83333333  0.33333333  0.40830017
   0.83333333  0.58333333  0.40830017
   0.50013724 -0.00182342  0.61156623
   0.58333333  0.83333333  0.40830017
   0.91504613  0.66734271  0.50769098
   0.16607518  0.16500423  0.50849240
   0.24933856  0.50026384  0.60690023
   0.33333333  0.08333333  0.40830017
   0.41810539  0.41612355  0.50808946
   0.58333333  0.33333333  0.40830017
   0.16626337  0.91796595  0.50874479
   0.08333333  0.58333333  0.40830017
   0.33333333  0.83333333  0.40830017
   0.50129312  0.74939120  0.60456753
   0.66645407  0.41633205  0.50836819
   0.33333333  0.58333333  0.40830017
   0.24835903  0.25103198  0.60624749
  -0.00120850  0.00148055  0.60562490
   0.75175743  0.24978046  0.60458082
   0.91767586  0.16617277  0.50840584
   0.66762663  0.66698425  0.50709172
   0.74824762  0.50133426  0.60482719
   0.83333333  0.83333333  0.40830017
   0.58333333  0.08333333  0.40830017
   0.66776574  0.91450801  0.50606337
  -0.00217785  0.24951179  0.60524296
   0.74906784  0.74923473  0.60258586
Direct configuration=    14
   0.08333333  0.08333333  0.40830017
  -0.00093202  0.74918524  0.61339008
   0.91525644  0.91579545  0.50970860
   0.08333333  0.83333333  0.40830017
   0.33333333  0.33333333  0.40830017
   0.91479366  0.41659647  0.51073783
   0.08333333  0.33333333  0.40830017
   0.24749816  0.00221170  0.61007339
   0.24922180  0.75117124  0.61275035
   0.16618620  0.41709149  0.50961862
   0.16722094  0.66556454  0.50784794
   0.41713261  0.16505623  0.50791141
  -0.00119028  0.49872647  0.61312137
   0.49792225  0.25222163  0.61234355
   0.58333333  0.58333333  0.40830017
   0.41747897  0.66573888  0.50738815
   0.50170119  0.49975125  0.61008919
   0.41692290  0.91598165  0.50596086
   0.83333333  0.08333333  0.40830017
   0.66606696  0.16825294  0.50755340
   0.74991837  0.00033680  0.61272098
   0.83333333  0.33333333  0.40830017
   0.83333333  0.58333333  0.40830017
   0.50014022 -0.00184945  0.61155840
   0.58333333  0.83333333  0.40830017
   0.91496130  0.66745610  0.50771898
   0.16610633  0.16499937  0.50852447
   0.24932238  0.50022043  0.60694424
   0.33333333  0.08333333  0.40830017
   0.41809576  0.41615471  0.50812557
   0.58333333  0.33333333  0.40830017
   0.16626616  0.91795942  0.50877457
   0.08333333  0.58333333  0.40830017
   0.33333333  0.83333333  0.40830017
   0.50128454  0.74941036  0.60458398
   0.66652541  0.41630375  0.50840201
   0.33333333  0.58333333  0.40830017
   0.24832455  0.25108179  0.60627875
  -0.00121454  0.00146992  0.60568528
   0.75174473  0.24980959  0.60461913
   0.91766219  0.16617669  0.50845583
   0.66760349  0.66697985  0.50712978
   0.74827092  0.50129433  0.60485414
   0.83333333  0.83333333  0.40830017
   0.58333333  0.08333333  0.40830017
   0.66781115  0.91446543  0.50609723
  -0.00223208  0.24955406  0.60528398
   0.74903578  0.74922301  0.60264985
Direct configuration=    15
   0.08333333  0.08333333  0.40830017
  -0.00099181  0.74909748  0.61344428
   0.91556628  0.91578103  0.50986390
   0.08333333  0.83333333  0.40830017
   0.33333333  0.33333333  0.40830017
   0.91476145  0.41664545  0.51082764
   0.08333333  0.33333333  0.40830017
   0.24717434  0.00243727  0.61009367
   0.24912792  0.75115999  0.61277706
   0.16606025  0.41720188  0.50985034
   0.16727684  0.66534943  0.50794744
   0.41717017  0.16475550  0.50793479
  -0.00138298  0.49894219  0.61319792
   0.49778668  0.25235429  0.61236724
   0.58333333  0.58333333  0.40830017
   0.41751291  0.66556175  0.50737267
   0.50155481  0.49971069  0.61005918
   0.41734949  0.91578629  0.50588261
   0.83333333  0.08333333  0.40830017
   0.66585940  0.16851734  0.50759243
   0.74967757  0.00032976  0.61278752
   0.83333333  0.33333333  0.40830017
   0.83333333  0.58333333  0.40830017
   0.50021263 -0.00194414  0.61147876
   0.58333333  0.83333333  0.40830017
   0.91479831  0.66758837  0.50777701
   0.16598329  0.16506530  0.50864787
   0.24942469  0.50021971  0.60706276
   0.33333333  0.08333333  0.40830017
   0.41828214  0.41619259  0.50821265
   0.58333333  0.33333333  0.40830017
   0.16573860  0.91814936  0.50886672
   0.08333333  0.58333333  0.40830017
   0.33333333  0.83333333  0.40830017
   0.50127503  0.74937214  0.60460365
   0.66639049  0.41631126  0.50848287
   0.33333333  0.58333333  0.40830017
   0.24831775  0.25094385  0.60632588
  -0.00109985  0.00131665  0.60585325
   0.75163191  0.24989148  0.60475342
   0.91792287  0.16572557  0.50871546
   0.66749754  0.66725518  0.50725956
   0.74805486  0.50129729  0.60503104
   0.83333333  0.83333333  0.40830017
   0.58333333  0.08333333  0.40830017
   0.66767309  0.91425663  0.50616206
  -0.00214465  0.24944744  0.60551943
   0.74898046  0.74920265  0.60297378
Direct configuration=    16
   0.08333333  0.08333333  0.40830017
  -0.00099526  0.74909243  0.61344741
   0.91558413  0.91578020  0.50987285
   0.08333333  0.83333333  0.40830017
   0.33333333  0.33333333  0.40830017
   0.91475959  0.41664828  0.51083281
   0.08333333  0.33333333  0.40830017
   0.24715568  0.00245027  0.61009484
   0.24912251  0.75115934  0.61277860
   0.16605299  0.41720824  0.50986370
   0.16728006  0.66533703  0.50795317
   0.41717234  0.16473817  0.50793614
  -0.00139408  0.49895462  0.61320233
   0.49777886  0.25236194  0.61236860
   0.58333333  0.58333333  0.40830017
   0.41751486  0.66555154  0.50737177
   0.50154638  0.49970835  0.61005745
   0.41737407  0.91577504  0.50587810
   0.83333333  0.08333333  0.40830017
   0.66584744  0.16853257  0.50759468
   0.74966370  0.00032935  0.61279136
   0.83333333  0.33333333  0.40830017
   0.83333333  0.58333333  0.40830017
   0.50021680 -0.00194959  0.61147417
   0.58333333  0.83333333  0.40830017
   0.91478892  0.66759599  0.50778035
   0.16597620  0.16506910  0.50865498
   0.24943059  0.50021967  0.60706959
   0.33333333  0.08333333  0.40830017
   0.41829287  0.41619477  0.50821767
   0.58333333  0.33333333  0.40830017
   0.16570820  0.91816030  0.50887203
   0.08333333  0.58333333  0.40830017
   0.33333333  0.83333333  0.40830017
   0.50127449  0.74936994  0.60460479
   0.66638272  0.41631170  0.50848753
   0.33333333  0.58333333  0.40830017
   0.24831736  0.25093590  0.60632859
  -0.00109324  0.00130781  0.60586293
   0.75162541  0.24989620  0.60476115
   0.91793789  0.16569958  0.50873042
   0.66749144  0.66727104  0.50726704
   0.74804241  0.50129746  0.60504123
   0.83333333  0.83333333  0.40830017
   0.58333333  0.08333333  0.40830017
   0.66766514  0.91424460  0.50616579
  -0.00213961  0.24944130  0.60553300
   0.74897727  0.74920148  0.60299245
Direct configuration=    17
   0.08333333  0.08333333  0.40830017
  -0.00111354  0.74904944  0.61348261
   0.91550594  0.91575904  0.50999457
   0.08333333  0.83333333  0.40830017