  56  56   0   0
  0.4903395E+02  0.1100258E-08  0.1100258E-08  0.2619179E-08  0.3500000E-15
  1.000000000000000E-004
  CAR 
 unknown system                          
      6.37715422    -21.68975480  301     -1.28040414      1.00000000
    -21.690  0.0000E+00  0.0000E+00
    -21.596  0.0000E+00  0.0000E+00
    -21.503  0.0000E+00  0.0000E+00
    -21.409  0.0000E+00  0.0000E+00
    -21.316  0.0000E+00  0.0000E+00
    -21.222  0.0000E+00  0.0000E+00
    -21.128  0.0000E+00  0.0000E+00
    -21.035  0.0000E+00  0.0000E+00
    -20.941  0.1094E-14  0.1023E-15
    -20.848  0.1161E-10  0.1086E-11
    -20.754  0.2260E-07  0.2116E-08
    -20.661  0.8316E-05  0.7801E-06
    -20.567  0.6088E-03  0.5774E-04
    -20.474  0.9608E-02  0.9566E-03
    -20.380  0.3689E-01  0.4408E-02
    -20.286  0.4723E-01  0.8827E-02
    -20.193  0.4665E-01  0.1319E-01
    -20.099  0.5658E-01  0.1848E-01
    -20.006  0.7940E-01  0.2591E-01
    -19.912  0.5395E-01  0.3096E-01
    -19.819  0.1060E-01  0.3195E-01
    -19.725  0.5050E-03  0.3200E-01
    -19.632  0.5225E-05  0.3200E-01
    -19.538  0.1088E-07  0.3200E-01
    -19.444  0.4332E-11  0.3200E-01
    -19.351  0.3196E-15  0.3200E-01
    -19.257  0.0000E+00  0.3200E-01
    -19.164  0.0000E+00  0.3200E-01
    -19.070  0.0000E+00  0.3200E-01
    -18.977  0.0000E+00  0.3200E-01
    -18.883  0.0000E+00  0.3200E-01
    -18.790  0.0000E+00  0.3200E-01
    -18.696  0.0000E+00  0.3200E-01
    -18.602  0.0000E+00  0.3200E-01
    -18.509  0.0000E+00  0.3200E-01
    -18.415  0.0000E+00  0.3200E-01
    -18.322  0.0000E+00  0.3200E-01
    -18.228  0.0000E+00  0.3200E-01
    -18.135  0.0000E+00  0.3200E-01
    -18.041  0.0000E+00  0.3200E-01
    -17.948  0.0000E+00  0.3200E-01
    -17.854  0.0000E+00  0.3200E-01
    -17.760  0.0000E+00  0.3200E-01
    -17.667  0.0000E+00  0.3200E-01
    -17.573  0.0000E+00  0.3200E-01
    -17.480  0.0000E+00  0.3200E-01
    -17.386  0.0000E+00  0.3200E-01
    -17.293  0.0000E+00  0.3200E-01
    -17.199  0.0000E+00  0.3200E-01
    -17.105  0.0000E+00  0.3200E-01
    -17.012  0.0000E+00  0.3200E-01
    -16.918  0.0000E+00  0.3200E-01
    -16.825  0.0000E+00  0.3200E-01
    -16.731  0.0000E+00  0.3200E-01
    -16.638  0.0000E+00  0.3200E-01
    -16.544  0.0000E+00  0.3200E-01
    -16.451  0.0000E+00  0.3200E-01
    -16.357  0.0000E+00  0.3200E-01
    -16.263  0.0000E+00  0.3200E-01
    -16.170  0.0000E+00  0.3200E-01
    -16.076  0.0000E+00  0.3200E-01
    -15.983  0.0000E+00  0.3200E-01
    -15.889  0.0000E+00  0.3200E-01
    -15.796  0.0000E+00  0.3200E-01
    -15.702  0.0000E+00  0.3200E-01
    -15.609  0.0000E+00  0.3200E-01
    -15.515  0.0000E+00  0.3200E-01
    -15.421  0.0000E+00  0.3200E-01
    -15.328  0.0000E+00  0.3200E-01
    -15.234  0.0000E+00  0.3200E-01
    -15.141  0.0000E+00  0.3200E-01
    -15.047  0.0000E+00  0.3200E-01
    -14.954  0.0000E+00  0.3200E-01
    -14.860  0.0000E+00  0.3200E-01
    -14.767  0.0000E+00  0.3200E-01
    -14.673  0.0000E+00  0.3200E-01
    -14.579  0.0000E+00  0.3200E-01
    -14.486  0.0000E+00  0.3200E-01
    -14.392  0.0000E+00  0.3200E-01
    -14.299  0.0000E+00  0.3200E-01
    -14.205  0.0000E+00  0.3200E-01
    -14.112  0.0000E+00  0.3200E-01
    -14.018  0.0000E+00  0.3200E-01
    -13.925  0.0000E+00  0.3200E-01
    -13.831  0.0000E+00  0.3200E-01
    -13.737  0.0000E+00  0.3200E-01
    -13.644  0.0000E+00  0.3200E-01
    -13.550  0.0000E+00  0.3200E-01
    -13.457  0.0000E+00  0.3200E-01
    -13.363  0.0000E+00  0.3200E-01
    -13.270  0.0000E+00  0.3200E-01
    -13.176  0.0000E+00  0.3200E-01
    -13.083  0.0000E+00  0.3200E-01
    -12.989  0.0000E+00  0.3200E-01
    -12.895  0.0000E+00  0.3200E-01
    -12.802  0.0000E+00  0.3200E-01
    -12.708  0.0000E+00  0.3200E-01
    -12.615  0.0000E+00  0.3200E-01
    -12.521  0.0000E+00  0.3200E-01
    -12.428  0.0000E+00  0.3200E-01
    -12.334  0.0000E+00  0.3200E-01
    -12.241  0.0000E+00  0.3200E-01
    -12.147  0.0000E+00  0.3200E-01
    -12.053  0.0000E+00  0.3200E-01
    -11.960  0.0000E+00  0.3200E-01
    -11.866  0.0000E+00  0.3200E-01
    -11.773  0.0000E+00  0.3200E-01
    -11.679  0.0000E+00  0.3200E-01
    -11.586  0.0000E+00  0.3200E-01
    -11.492  0.0000E+00  0.3200E-01
    -11.399  0.0000E+00  0.3200E-01
    -11.305  0.0000E+00  0.3200E-01
    -11.211  0.0000E+00  0.3200E-01
    -11.118  0.0000E+00  0.3200E-01
    -11.024  0.0000E+00  0.3200E-01
    -10.931  0.0000E+00  0.3200E-01
    -10.837  0.0000E+00  0.3200E-01
    -10.744  0.0000E+00  0.3200E-01
    -10.650  0.0000E+00  0.3200E-01
    -10.557  0.0000E+00  0.3200E-01
    -10.463  0.0000E+00  0.3200E-01
    -10.369  0.0000E+00  0.3200E-01
    -10.276  0.0000E+00  0.3200E-01
    -10.182  0.1622E-16  0.3200E-01
    -10.089  0.3078E-12  0.3200E-01
     -9.995  0.1051E-08  0.3200E-01
     -9.902  0.6569E-06  0.3200E-01
     -9.808  0.7714E-04  0.3201E-01
     -9.715  0.1777E-02  0.3217E-01
     -9.621  0.8513E-02  0.3297E-01
     -9.527  0.9094E-02  0.3382E-01
     -9.434  0.5133E-02  0.3430E-01
     -9.340  0.1003E-01  0.3524E-01
     -9.247  0.7015E-02  0.3590E-01
     -9.153  0.1100E-02  0.3600E-01
     -9.060  0.8094E-03  0.3607E-01
     -8.966  0.5884E-02  0.3663E-01
     -8.873  0.1157E-01  0.3771E-01
     -8.779  0.1386E-01  0.3900E-01
     -8.685  0.1919E-01  0.4080E-01
     -8.592  0.1303E-01  0.4202E-01
     -8.498  0.1067E-01  0.4302E-01
     -8.405  0.1100E-01  0.4404E-01
     -8.311  0.1429E-01  0.4538E-01
     -8.218  0.2326E-01  0.4756E-01
     -8.124  0.1950E-01  0.4938E-01
     -8.031  0.2662E-01  0.5187E-01
     -7.937  0.6573E-01  0.5802E-01
     -7.843  0.1008E+00  0.6745E-01
     -7.750  0.1166E+00  0.7836E-01
     -7.656  0.1243E+00  0.8999E-01
     -7.563  0.1166E+00  0.1009E+00
     -7.469  0.1144E+00  0.1116E+00
     -7.376  0.1128E+00  0.1221E+00
     -7.282  0.1036E+00  0.1318E+00
     -7.189  0.1113E+00  0.1423E+00
     -7.095  0.1282E+00  0.1542E+00
     -7.001  0.1406E+00  0.1674E+00
     -6.908  0.1566E+00  0.1821E+00
     -6.814  0.1686E+00  0.1978E+00
     -6.721  0.1678E+00  0.2135E+00
     -6.627  0.1747E+00  0.2299E+00
     -6.534  0.1812E+00  0.2468E+00
     -6.440  0.1694E+00  0.2627E+00
     -6.347  0.1420E+00  0.2759E+00
     -6.253  0.1263E+00  0.2878E+00
     -6.159  0.1308E+00  0.3000E+00
     -6.066  0.1531E+00  0.3143E+00
     -5.972  0.1727E+00  0.3305E+00
     -5.879  0.1727E+00  0.3466E+00
     -5.785  0.1671E+00  0.3623E+00
     -5.692  0.1631E+00  0.3775E+00
     -5.598  0.1672E+00  0.3932E+00
     -5.505  0.1734E+00  0.4094E+00
     -5.411  0.1777E+00  0.4260E+00
     -5.317  0.1823E+00  0.4431E+00
     -5.224  0.1739E+00  0.4593E+00
     -5.130  0.1668E+00  0.4749E+00
     -5.037  0.1693E+00  0.4908E+00
     -4.943  0.1827E+00  0.5079E+00
     -4.850  0.1905E+00  0.5257E+00
     -4.756  0.1863E+00  0.5431E+00
     -4.662  0.1844E+00  0.5604E+00
     -4.569  0.1886E+00  0.5780E+00
     -4.475  0.2025E+00  0.5970E+00
     -4.382  0.2186E+00  0.6174E+00
     -4.288  0.2235E+00  0.6383E+00
     -4.195  0.2148E+00  0.6584E+00
     -4.101  0.2161E+00  0.6786E+00
     -4.008  0.1988E+00  0.6972E+00
     -3.914  0.1807E+00  0.7141E+00
     -3.820  0.1828E+00  0.7312E+00
     -3.727  0.1909E+00  0.7491E+00
     -3.633  0.2101E+00  0.7688E+00
     -3.540  0.2199E+00  0.7893E+00
     -3.446  0.2069E+00  0.8087E+00
     -3.353  0.1856E+00  0.8261E+00
     -3.259  0.1636E+00  0.8414E+00
     -3.166  0.1518E+00  0.8556E+00
     -3.072  0.1492E+00  0.8695E+00
     -2.978  0.1536E+00  0.8839E+00
     -2.885  0.1587E+00  0.8988E+00
     -2.791  0.1565E+00  0.9134E+00
     -2.698  0.1506E+00  0.9275E+00
     -2.604  0.1539E+00  0.9419E+00
     -2.511  0.1660E+00  0.9574E+00
     -2.417  0.1683E+00  0.9732E+00
     -2.324  0.1661E+00  0.9887E+00
     -2.230  0.1638E+00  0.1004E+01
     -2.136  0.1532E+00  0.1018E+01
     -2.043  0.1391E+00  0.1031E+01
     -1.949  0.1321E+00  0.1044E+01
     -1.856  0.1149E+00  0.1054E+01
     -1.762  0.9856E-01  0.1064E+01
     -1.669  0.9931E-01  0.1073E+01
     -1.575  0.9841E-01  0.1082E+01
     -1.482  0.8388E-01  0.1090E+01
     -1.388  0.6763E-01  0.1096E+01
     -1.294  0.7012E-01  0.1103E+01
     -1.201  0.8017E-01  0.1110E+01
     -1.107  0.9182E-01  0.1119E+01
     -1.014  0.8611E-01  0.1127E+01
     -0.920  0.6585E-01  0.1133E+01
     -0.827  0.5336E-01  0.1138E+01
     -0.733  0.4617E-01  0.1143E+01
     -0.640  0.4292E-01  0.1147E+01
     -0.546  0.5646E-01  0.1152E+01
     -0.452  0.6424E-01  0.1158E+01
     -0.359  0.4260E-01  0.1162E+01
     -0.265  0.2141E-01  0.1164E+01
     -0.172  0.1602E-01  0.1165E+01
     -0.078  0.2330E-01  0.1168E+01
      0.015  0.4176E-01  0.1171E+01
      0.109  0.4620E-01  0.1176E+01
      0.202  0.3666E-01  0.1179E+01
      0.296  0.3258E-01  0.1182E+01
      0.390  0.3226E-01  0.1185E+01
      0.483  0.3683E-01  0.1189E+01
      0.577  0.3597E-01  0.1192E+01
      0.670  0.2924E-01  0.1195E+01
      0.764  0.1839E-01  0.1197E+01
      0.857  0.1190E-01  0.1198E+01
      0.951  0.6589E-02  0.1198E+01
      1.044  0.1175E-01  0.1199E+01
      1.138  0.2263E-01  0.1201E+01
      1.232  0.3200E-01  0.1204E+01
      1.325  0.3388E-01  0.1208E+01
      1.419  0.3722E-01  0.1211E+01
      1.512  0.4607E-01  0.1215E+01
      1.606  0.4921E-01  0.1220E+01
      1.699  0.3797E-01  0.1224E+01
      1.793  0.2622E-01  0.1226E+01
      1.886  0.2372E-01  0.1228E+01
      1.980  0.2634E-01  0.1231E+01
      2.074  0.2515E-01  0.1233E+01
      2.167  0.2350E-01  0.1235E+01
      2.261  0.1463E-01  0.1237E+01
      2.354  0.1133E-01  0.1238E+01
      2.448  0.1014E-01  0.1239E+01
      2.541  0.1910E-01  0.1240E+01
      2.635  0.2186E-01  0.1242E+01
      2.728  0.2309E-01  0.1245E+01
      2.822  0.3244E-01  0.1248E+01
      2.916  0.3583E-01  0.1251E+01
      3.009  0.2736E-01  0.1254E+01
      3.103  0.2499E-01  0.1256E+01
      3.196  0.2571E-01  0.1258E+01
      3.290  0.2308E-01  0.1261E+01
      3.383  0.2289E-01  0.1263E+01
      3.477  0.2557E-01  0.1265E+01
      3.570  0.3311E-01  0.1268E+01
      3.664  0.4132E-01  0.1272E+01
      3.758  0.5404E-01  0.1277E+01
      3.851  0.5447E-01  0.1282E+01
      3.945  0.3791E-01  0.1286E+01
      4.038  0.3378E-01  0.1289E+01
      4.132  0.3801E-01  0.1292E+01
      4.225  0.4586E-01  0.1297E+01
      4.319  0.4199E-01  0.1301E+01
      4.412  0.3890E-01  0.1304E+01
      4.506  0.4942E-01  0.1309E+01
      4.600  0.4530E-01  0.1313E+01
      4.693  0.4819E-01  0.1318E+01
      4.787  0.6024E-01  0.1323E+01
      4.880  0.6073E-01  0.1329E+01
      4.974  0.6173E-01  0.1335E+01
      5.067  0.5850E-01  0.1340E+01
      5.161  0.3342E-01  0.1343E+01
      5.254  0.6729E-02  0.1344E+01
      5.348  0.3594E-03  0.1344E+01
      5.442  0.4377E-05  0.1344E+01
      5.535  0.1101E-07  0.1344E+01
      5.629  0.5383E-11  0.1344E+01
      5.722  0.4929E-15  0.1344E+01
      5.816  0.0000E+00  0.1344E+01
      5.909  0.0000E+00  0.1344E+01
      6.003  0.0000E+00  0.1344E+01
      6.096  0.0000E+00  0.1344E+01
      6.190  0.0000E+00  0.1344E+01
      6.284  0.0000E+00  0.1344E+01
      6.377  0.0000E+00  0.1344E+01
