unknown system                          
           1
    11.002582    0.000000    0.000000
     5.501291    9.528515    0.000000
     0.000000    0.000000   26.191785
   Au   O    Pd
  24   8  24
Direct configuration=     1
   0.08333333  0.08333333  0.38179910
   0.08333333  0.83333333  0.38179910
   0.66666667  0.91666667  0.46754708
   0.83333333  0.83333333  0.38179910
   0.83333333  0.58333333  0.38179910
   0.08333333  0.33333333  0.38179910
   0.91666667  0.41666667  0.46754708
   0.66666667  0.41666667  0.46754708
   0.83333333  0.33333333  0.38179910
   0.08333333  0.58333333  0.38179910
   0.66666667  0.16666667  0.46754708
   0.33333333  0.83333333  0.38179910
   0.83333333  0.08333333  0.38179910
   0.41666667  0.91666667  0.46754708
   0.58333333  0.83333333  0.38179910
   0.33333333  0.08333333  0.38179910
   0.41666667  0.66666667  0.46754708
   0.58333333  0.58333333  0.38179910
   0.33333333  0.33333333  0.38179910
   0.16666667  0.41666667  0.46754708
   0.58333333  0.33333333  0.38179910
   0.41666667  0.16666667  0.46754708
   0.33333333  0.58333333  0.38179910
   0.58333333  0.08333333  0.38179910
   0.08333333  0.58333333  0.61820090
   0.33333333  0.58333333  0.61820090
   0.33333333  0.08333333  0.61820090
   0.08333333  0.08333333  0.61820090
   0.83333333  0.83333333  0.61820090
   0.58333333  0.83333333  0.61820090
   0.58333333  0.58333333  0.61820090
   0.83333333  0.08333333  0.61820090
   0.25000000  0.00000000  0.55329505
   0.50000000  0.25000000  0.55329505
   0.50000000  0.00000000  0.55329505
   0.25000000  0.25000000  0.55329505
   0.16666667  0.66666667  0.46754708
   0.75000000  0.75000000  0.55329505
   0.25000000  0.75000000  0.55329505
   0.16666667  0.91666667  0.46754708
   0.16666667  0.16666667  0.46754708
   0.00000000  0.75000000  0.55329505
   0.50000000  0.75000000  0.55329505
   0.91666667  0.91666667  0.46754708
   0.00000000  0.50000000  0.55329505
   0.75000000  0.00000000  0.55329505
   0.91666667  0.66666667  0.46754708
   0.00000000  0.25000000  0.55329505
   0.75000000  0.25000000  0.55329505
   0.66666667  0.66666667  0.46754708
   0.75000000  0.50000000  0.55329505
   0.00000000  0.00000000  0.55329505
   0.91666667  0.16666667  0.46754708
   0.25000000  0.50000000  0.55329505
   0.50000000  0.50000000  0.55329505
   0.41666667  0.41666667  0.46754708
Direct configuration=     2
   0.08333333  0.08333333  0.38179910
   0.08333333  0.83333333  0.38179910
   0.66838370  0.91520908  0.46896736
   0.83333333  0.83333333  0.38179910
   0.83333333  0.58333333  0.38179910
   0.08333333  0.33333333  0.38179910
   0.91665368  0.41678718  0.46957606
   0.66664581  0.41632690  0.46906098
   0.83333333  0.33333333  0.38179910
   0.08333333  0.58333333  0.38179910
   0.66767066  0.16640867  0.46893665
   0.33333333  0.83333333  0.38179910
   0.83333333  0.08333333  0.38179910
   0.41547660  0.91653577  0.46898052
   0.58333333  0.83333333  0.38179910
   0.33333333  0.08333333  0.38179910
   0.41574697  0.66694235  0.46875248
   0.58333333  0.58333333  0.38179910
   0.33333333  0.33333333  0.38179910
   0.16695372  0.41737275  0.46905299
   0.58333333  0.33333333  0.38179910
   0.41590547  0.16738472  0.46893210
   0.33333333  0.58333333  0.38179910
   0.58333333  0.08333333  0.38179910
   0.08313762  0.58258504  0.61385229
   0.33302466  0.58380650  0.61387687
   0.33326369  0.08420020  0.61387533
   0.08290430  0.08408677  0.61387387
   0.83314556  0.83307165  0.61410200
   0.58389254  0.83320262  0.61413405
   0.58445777  0.58239021  0.61383374
   0.83258380  0.08430670  0.61390455
   0.24870032  0.00136900  0.55662880
   0.49992635  0.25022597  0.55418472
   0.49901924  0.00043342  0.55709417
   0.25065241  0.24862418  0.55566361
   0.16554797  0.66760514  0.46837664
   0.74981917  0.75044970  0.55670412
   0.25002057  0.74905897  0.55535280
   0.16535768  0.91718102  0.46916304
   0.16607737  0.16618670  0.46804387
  -0.00007133  0.74924164  0.55643081
   0.50124229  0.74900822  0.55696836
   0.91835852  0.91581662  0.46865813
   0.00020563  0.50074069  0.55558772
   0.75114864  0.00007135  0.55688952
   0.91641703  0.66739980  0.46834567
   0.00091979  0.24809271  0.55564326
   0.75080913  0.24844433  0.55564957
   0.66736986  0.66688525  0.46835527
   0.74918083  0.50062258  0.55566294
  -0.00024727  0.00109452  0.55636303
   0.91776642  0.16550872  0.46800723
   0.24985215  0.50088624  0.55666905
   0.49945334  0.50043093  0.55683926
   0.41588660  0.41751072  0.46873761
Direct configuration=     3
   0.08333333  0.08333333  0.38179910
   0.08333333  0.83333333  0.38179910
   0.67161245  0.91246818  0.47163810
   0.83333333  0.83333333  0.38179910
   0.83333333  0.58333333  0.38179910
   0.08333333  0.33333333  0.38179910
   0.91662927  0.41701381  0.47339142
   0.66660658  0.41568798  0.47190776
   0.83333333  0.33333333  0.38179910
   0.08333333  0.58333333  0.38179910
   0.66955861  0.16592352  0.47154963
   0.33333333  0.83333333  0.38179910
   0.83333333  0.08333333  0.38179910
   0.41323875  0.91628963  0.47167600
   0.58333333  0.83333333  0.38179910
   0.33333333  0.08333333  0.38179910
   0.41401755  0.66746075  0.47101915
   0.58333333  0.58333333  0.38179910
   0.33333333  0.33333333  0.38179910
   0.16749349  0.41870050  0.47188475
   0.58333333  0.33333333  0.38179910
   0.41447408  0.16873497  0.47153654
   0.33333333  0.58333333  0.38179910
   0.58333333  0.08333333  0.38179910
   0.08276959  0.58117794  0.60567504
   0.33244423  0.58469625  0.60574584
   0.33313274  0.08583027  0.60574141
   0.08209752  0.08550356  0.60573720
   0.83279247  0.83257957  0.60639429
   0.58494408  0.83295682  0.60648661
   0.58657220  0.58061674  0.60562160
   0.83117435  0.08613704  0.60582556
   0.24625637  0.00394332  0.56289768
   0.49978784  0.25065088  0.55585769
   0.49717500  0.00124843  0.56423814
   0.25187922  0.24603706  0.56011752
   0.16344435  0.66936987  0.46993658
   0.74947913  0.75129532  0.56311464
   0.25005924  0.74728943  0.55922225
   0.16289623  0.91814824  0.47220174
   0.16496924  0.16528416  0.46897804
  -0.00020547  0.74781559  0.56232740
   0.50357832  0.74714326  0.56387577
   0.92153993  0.91421816  0.47074739
   0.00059229  0.50213351  0.55989893
   0.75330856  0.00020553  0.56364867
   0.91594761  0.66877842  0.46984736
   0.00264940  0.24450619  0.56005891
   0.75233064  0.24551901  0.56007709
   0.66869216  0.66729627  0.46987503
   0.74764044  0.50179329  0.56011560
  -0.00071224  0.00315270  0.56213215
   0.91983442  0.16333129  0.46887253
   0.24957413  0.50255275  0.56301361
   0.49842539  0.50124127  0.56350390
   0.41441973  0.41909791  0.47097631
Direct configuration=     4
   0.08333333  0.08333333  0.38179910
   0.08333333  0.83333333  0.38179910
   0.67083317  0.91312971  0.47099350
   0.83333333  0.83333333  0.38179910
   0.83333333  0.58333333  0.38179910
   0.08333333  0.33333333  0.38179910
   0.91663517  0.41695911  0.47247056
   0.66661605  0.41584219  0.47122068
   0.83333333  0.33333333  0.38179910
   0.08333333  0.58333333  0.38179910
   0.66910294  0.16604061  0.47091898
   0.33333333  0.83333333  0.38179910
   0.83333333  0.08333333  0.38179910
   0.41377887  0.91634904  0.47102543
   0.58333333  0.83333333  0.38179910
   0.33333333  0.08333333  0.38179910
   0.41443495  0.66733563  0.47047208
   0.58333333  0.58333333  0.38179910
   0.33333333  0.33333333  0.38179910
   0.16736321  0.41838004  0.47120129
   0.58333333  0.33333333  0.38179910
   0.41481955  0.16840908  0.47090794
   0.33333333  0.58333333  0.38179910
   0.58333333  0.08333333  0.38179910
   0.08285842  0.58151755  0.60764866
   0.33258432  0.58448151  0.60770830
   0.33316435  0.08543684  0.60770457
   0.08229224  0.08516161  0.60770103
   0.83287769  0.83269834  0.60825458
   0.58469029  0.83301615  0.60833236
   0.58606187  0.58104478  0.60760365
   0.83151453  0.08569528  0.60777546
   0.24684623  0.00332199  0.56138465
   0.49982127  0.25054833  0.55545391
   0.49762011  0.00105172  0.56251390
   0.25158312  0.24666148  0.55904254
   0.16395207  0.66894394  0.46956008
   0.74956120  0.75109122  0.56156743
   0.25004990  0.74771652  0.55828834
   0.16349031  0.91791479  0.47146833
   0.16523670  0.16550199  0.46875258
  -0.00017310  0.74815977  0.56090423
   0.50301451  0.74759338  0.56220863
   0.92077208  0.91460396  0.47024313
   0.00049897  0.50179735  0.55885840
   0.75278725  0.00017315  0.56201731
   0.91606091  0.66844568  0.46948492
   0.00223195  0.24537182  0.55899317
   0.75196342  0.24622505  0.55900849
   0.66837302  0.66719707  0.46950822
   0.74801222  0.50151073  0.55904093
  -0.00060001  0.00265595  0.56073974
   0.91933530  0.16385683  0.46866368
   0.24964123  0.50215053  0.56148232
   0.49867349  0.50104569  0.56189536
   0.41477377  0.41871483  0.47043599
Direct configuration=     5
   0.08333333  0.08333333  0.38179910
   0.08333333  0.83333333  0.38179910
   0.67107568  0.91292385  0.47119410
   0.83333333  0.83333333  0.38179910
   0.83333333  0.58333333  0.38179910
   0.08333333  0.33333333  0.38179910
   0.91663333  0.41697613  0.47275713
   0.66661310  0.41579420  0.47143449
   0.83333333  0.33333333  0.38179910
   0.08333333  0.58333333  0.38179910
   0.66924474  0.16600418  0.47111523
   0.33333333  0.83333333  0.38179910
   0.83333333  0.08333333  0.38179910
   0.41361079  0.91633055  0.47122788
   0.58333333  0.83333333  0.38179910
   0.33333333  0.08333333  0.38179910
   0.41430506  0.66737456  0.47064232
   0.58333333  0.58333333  0.38179910
   0.33333333  0.33333333  0.38179910
   0.16740376  0.41847977  0.47141398
   0.58333333  0.33333333  0.38179910
   0.41471204  0.16851050  0.47110356
   0.33333333  0.58333333  0.38179910
   0.58333333  0.08333333  0.38179910
   0.08283078  0.58141186  0.60703448
   0.33254073  0.58454833  0.60709759
   0.33315451  0.08555928  0.60709364
   0.08223164  0.08526803  0.60708989
   0.83285117  0.83266138  0.60767567
   0.58476927  0.83299768  0.60775797
   0.58622068  0.58091158  0.60698684
   0.83140866  0.08583275  0.60716866
   0.24666267  0.00351535  0.56185550
   0.49981087  0.25058024  0.55557957
   0.49748160  0.00111293  0.56305048
   0.25167526  0.24646716  0.55937707
   0.16379407  0.66907649  0.46967725
   0.74953566  0.75115473  0.56204891
   0.25005281  0.74758361  0.55857897
   0.16330544  0.91798744  0.47169657
   0.16515347  0.16543421  0.46882274
  -0.00018317  0.74805266  0.56134711
   0.50318996  0.74745330  0.56272744
   0.92101103  0.91448390  0.47040005
   0.00052801  0.50190196  0.55918220
   0.75294948  0.00018323  0.56252498
   0.91602565  0.66854923  0.46959771
   0.00236186  0.24510244  0.55932482
   0.75207770  0.24600533  0.55934103
   0.66847233  0.66722794  0.46962237
   0.74789652  0.50159866  0.55937536
  -0.00063494  0.00281054  0.56117305
   0.91949062  0.16369328  0.46872867
   0.24962035  0.50227569  0.56195885
   0.49859629  0.50110655  0.56239593
   0.41466360  0.41883404  0.47060413
Direct configuration=     6
   0.08333333  0.08333333  0.38179910
   0.08333333  0.83333333  0.38179910
   0.67050522  0.91393185  0.47341785
   0.83333333  0.83333333  0.38179910
   0.83333333  0.58333333  0.38179910
   0.08333333  0.33333333  0.38179910
   0.91693140  0.41685574  0.47505394
   0.66631035  0.41595241  0.47337691
   0.83333333  0.33333333  0.38179910
   0.08333333  0.58333333  0.38179910
   0.67011901  0.16469341  0.47246727
   0.33333333  0.83333333  0.38179910
   0.83333333  0.08333333  0.38179910
   0.41353525  0.91624575  0.47348633
   0.58333333  0.83333333  0.38179910
   0.33333333  0.08333333  0.38179910
   0.41432724  0.66738167  0.47237715
   0.58333333  0.58333333  0.38179910
   0.33333333  0.33333333  0.38179910
   0.16702807  0.41895722  0.47331481
   0.58333333  0.33333333  0.38179910
   0.41533674  0.16703588  0.47246067
   0.33333333  0.58333333  0.38179910
   0.58333333  0.08333333  0.38179910
   0.08199441  0.57911988  0.60598022
   0.33194123  0.58552280  0.60617899
   0.33172014  0.08861832  0.60681351
   0.08126932  0.08645273  0.60637682
   0.83350671  0.83213747  0.60646264
   0.58521619  0.83252556  0.60690242
   0.58977520  0.57796526  0.60633413
   0.83000996  0.08853712  0.60665399
   0.24931706 -0.00325924  0.56230416
   0.49991927  0.25066404  0.55699438
   0.50065996  0.00344982  0.56358335
   0.24940305  0.25181213  0.56013470
   0.16342126  0.66923507  0.47103052
   0.75198980  0.74686760  0.56308019
   0.24710647  0.75355787  0.55924060
   0.16308376  0.91777311  0.47353373
   0.16487523  0.16566193  0.47003417
   0.00156516  0.75112559  0.56222183
   0.49716096  0.75116141  0.56354392
   0.92144838  0.91435824  0.47217491
  -0.00164093  0.49841086  0.56022848
   0.74766779  0.00247834  0.56320826
   0.91660035  0.66832899  0.47098298
  -0.00106619  0.25167785  0.56009340
   0.74904509  0.25120790  0.56011596
   0.66795698  0.66737778  0.47111923
   0.75398545  0.49773798  0.56030453
   0.00337327 -0.00338974  0.56181598
   0.91961104  0.16364706  0.46988111
   0.25218055  0.49685324  0.56272637
   0.50142459  0.49562637  0.56316628
   0.41439299  0.41981368  0.47216518
Direct configuration=     7
   0.08333333  0.08333333  0.38179910
   0.08333333  0.83333333  0.38179910
   0.67008662  0.91467152  0.47504963
   0.83333333  0.83333333  0.38179910
   0.83333333  0.58333333  0.38179910
   0.08333333  0.33333333  0.38179910
   0.91715012  0.41676739  0.47673934
   0.66608819  0.41606850  0.47480226
   0.83333333  0.33333333  0.38179910
   0.08333333  0.58333333  0.38179910
   0.67076054  0.16373157  0.47345939
   0.33333333  0.83333333  0.38179910
   0.83333333  0.08333333  0.38179910
   0.41347983  0.91618353  0.47514358
   0.58333333  0.83333333  0.38179910
   0.33333333  0.08333333  0.38179910
   0.41434352  0.66738688  0.47365017
   0.58333333  0.58333333  0.38179910
   0.33333333  0.33333333  0.38179910
   0.16675240  0.41930758  0.47470963
   0.58333333  0.33333333  0.38179910
   0.41579514  0.16595381  0.47345651
   0.33333333  0.58333333  0.38179910
   0.58333333  0.08333333  0.38179910
   0.08138069  0.57743803  0.60520661
   0.33150132  0.58623785  0.60550492
   0.33066759  0.09086304  0.60660796
   0.08056317  0.08732206  0.60585356
   0.83398774  0.83175302  0.60557252
   0.58554414  0.83217912  0.60627462
   0.59238350  0.57580326  0.60585517
   0.82898359  0.09052158  0.60627632
   0.25126485 -0.00823042  0.56263339
   0.49999881  0.25072553  0.55803257
   0.50299223  0.00516462  0.56397437
   0.24773569  0.25573425  0.56069065
   0.16314769  0.66935144  0.47202356
   0.75379064  0.74372171  0.56383694
   0.24494445  0.75794177  0.55972611
   0.16292110  0.91761584  0.47488185
   0.16467106  0.16582903  0.47092312
   0.00284809  0.75338051  0.56286370
   0.49273688  0.75388242  0.56414305
   0.92176931  0.91426602  0.47347729
  -0.00323250  0.49584909  0.56099624
   0.74379209  0.00416249  0.56370964
   0.91702206  0.66816738  0.47199948
  -0.00358168  0.25650287  0.56065739
   0.74681976  0.25502553  0.56068460
   0.66757882  0.66748773  0.47221763
   0.75845350  0.49490501  0.56098635
   0.00631448 -0.00793950  0.56228776
   0.91969941  0.16361314  0.47072676
   0.25405921  0.49287425  0.56328957
   0.50350000  0.49160501  0.56373157
   0.41419443  0.42053253  0.47331067
Direct configuration=     8
   0.08333333  0.08333333  0.38179910
   0.08333333  0.83333333  0.38179910
   0.67015248  0.91408726  0.47638266
   0.83333333  0.83333333  0.38179910
   0.83333333  0.58333333  0.38179910
   0.08333333  0.33333333  0.38179910
   0.91698020  0.41692325  0.47641892
   0.66593761  0.41640799  0.47554741
   0.83333333  0.33333333  0.38179910
   0.08333333  0.58333333  0.38179910
   0.67091334  0.16372575  0.47424864
   0.33333333  0.83333333  0.38179910
   0.83333333  0.08333333  0.38179910
   0.41367935  0.91616713  0.47640110
   0.58333333  0.83333333  0.38179910
   0.33333333  0.08333333  0.38179910
   0.41440269  0.66724091  0.47489290
   0.58333333  0.58333333  0.38179910
   0.33333333  0.33333333  0.38179910
   0.16685684  0.41934564  0.47542538
   0.58333333  0.33333333  0.38179910
   0.41570605  0.16590084  0.47420773
   0.33333333  0.58333333  0.38179910
   0.58333333  0.08333333  0.38179910
   0.08019942  0.57516764  0.60539040
   0.33009247  0.58909433  0.60545940
   0.32911231  0.09318210  0.60639850
   0.07956060  0.08963231  0.60554056
   0.83464889  0.83251438  0.60633114
   0.58451800  0.83282804  0.60686661
   0.59606488  0.57347838  0.60589214
   0.82869602  0.09261906  0.60617203
   0.25285721 -0.00687877  0.56376435
   0.50035354  0.25012891  0.55983566
   0.50324268  0.00829284  0.56465080
   0.24618195  0.25681082  0.56176447
   0.16365011  0.66897668  0.47318391
   0.75664919  0.73691120  0.56353014
   0.24613319  0.75556900  0.56094941
   0.16305421  0.91781136  0.47513035
   0.16482084  0.16589967  0.47207103
   0.00638522  0.75271375  0.56296596
   0.49030716  0.75270639  0.56490830
   0.92135852  0.91453916  0.47470572
  -0.00445625  0.49579716  0.56244959
   0.73998937  0.00763203  0.56417325
   0.91707742  0.66830921  0.47321488
  -0.00257623  0.25447102  0.56228671
   0.74712970  0.25636700  0.56175677
   0.66717978  0.66755507  0.47349880
   0.75892881  0.49557050  0.56258018
   0.00292984 -0.00676634  0.56326770
   0.91947342  0.16384107  0.47189686
   0.25569711  0.49054031  0.56366474
   0.50447477  0.48950257  0.56430487
   0.41436011  0.42013768  0.47424535
Direct configuration=     9
   0.08333333  0.08333333  0.38179910
   0.08333333  0.83333333  0.38179910
   0.67016113  0.91401055  0.47655769
   0.83333333  0.83333333  0.38179910
   0.83333333  0.58333333  0.38179910
   0.08333333  0.33333333  0.38179910
   0.91695789  0.41694372  0.47637684
   0.66591784  0.41645256  0.47564525
   0.83333333  0.33333333  0.38179910
   0.08333333  0.58333333  0.38179910
   0.67093340  0.16372499  0.47435227
   0.33333333  0.83333333  0.38179910
   0.83333333  0.08333333  0.38179910
   0.41370554  0.91616498  0.47656621
   0.58333333  0.83333333  0.38179910
   0.33333333  0.08333333  0.38179910
   0.41441046  0.66722174  0.47505608
   0.58333333  0.58333333  0.38179910
   0.33333333  0.33333333  0.38179910
   0.16687055  0.41935064  0.47551936
   0.58333333  0.33333333  0.38179910
   0.41569436  0.16589389  0.47430637
   0.33333333  0.58333333  0.38179910
   0.58333333  0.08333333  0.38179910
   0.08004432  0.57486953  0.60541453
   0.32990748  0.58946940  0.60545342
   0.32890809  0.09348661  0.60637099
   0.07942896  0.08993566  0.60549947
   0.83473570  0.83261436  0.60643075
   0.58438326  0.83291324  0.60694435
   0.59654826  0.57317312  0.60589700
   0.82865826  0.09289447  0.60615834
   0.25306629 -0.00670130  0.56391285
   0.50040011  0.25005057  0.56007241
   0.50327556  0.00870359  0.56473962
   0.24597794  0.25695218  0.56190546
   0.16371608  0.66892747  0.47333627
   0.75702453  0.73601694  0.56348986
   0.24628928  0.75525744  0.56111003
   0.16307169  0.91783703  0.47516298
   0.16484051  0.16590894  0.47222175
   0.00684966  0.75262620  0.56297939
   0.48998812  0.75255197  0.56500878
   0.92130458  0.91457503  0.47486702
  -0.00461694  0.49579034  0.56264043
   0.73949006  0.00808759  0.56423412
   0.91708468  0.66832784  0.47337447
  -0.00244421  0.25420423  0.56250065
   0.74717040  0.25654314  0.56189755
   0.66712739  0.66756391  0.47366702
   0.75899122  0.49565788  0.56278946
   0.00248542 -0.00661230  0.56339637
   0.91944375  0.16387099  0.47205049
   0.25591218  0.49023385  0.56371400
   0.50460276  0.48922651  0.56438015
   0.41438187  0.42008583  0.47436808
Direct configuration=    10
   0.08333333  0.08333333  0.38179910
   0.08333333  0.83333333  0.38179910
   0.67045757  0.91300421  0.47707150
   0.83333333  0.83333333  0.38179910
   0.83333333  0.58333333  0.38179910
   0.08333333  0.33333333  0.38179910
   0.91675312  0.41696095  0.47576639
   0.66616580  0.41670926  0.47570724
   0.83333333  0.33333333  0.38179910
   0.08333333  0.58333333  0.38179910
   0.67030308  0.16459672  0.47466890
   0.33333333  0.83333333  0.38179910
   0.83333333  0.08333333  0.38179910
   0.41395589  0.91612854  0.47699077
   0.58333333  0.83333333  0.38179910
   0.33333333  0.08333333  0.38179910
   0.41433942  0.66709877  0.47551065
   0.58333333  0.58333333  0.38179910
   0.33333333  0.33333333  0.38179910
   0.16669764  0.41923244  0.47557827
   0.58333333  0.33333333  0.38179910
   0.41546808  0.16669438  0.47463040
   0.33333333  0.58333333  0.38179910
   0.58333333  0.08333333  0.38179910
   0.08069047  0.57411502  0.60629923
   0.32940837  0.59044109  0.60636774
   0.32882307  0.09441518  0.60719039
   0.07958694  0.08969979  0.60643037
   0.83482623  0.83270370  0.60624622
   0.58430257  0.83304477  0.60683979
   0.59667017  0.57247775  0.60695209
   0.82788036  0.09378831  0.60704562
   0.25259181 -0.00491162  0.56465277
   0.50034820  0.25011906  0.56154554
   0.50334811  0.00831008  0.56577767
   0.24440844  0.25763985  0.56253750
   0.16433874  0.66862747  0.47389013
   0.75705387  0.73610646  0.56442212
   0.24651246  0.75475698  0.56174928
   0.16324062  0.91804809  0.47519079
   0.16492927  0.16589555  0.47295411
   0.00708649  0.75125838  0.56359008
   0.49074460  0.75113390  0.56614903
   0.92095802  0.91470859  0.47537563
  -0.00492708  0.49472365  0.56331288
   0.73968080  0.00774043  0.56518415
   0.91722971  0.66832119  0.47401922
  -0.00236662  0.25409974  0.56306940
   0.74810562  0.25729456  0.56259575
   0.66686769  0.66735937  0.47439379
   0.76050921  0.49471801  0.56341396
   0.00113355 -0.00500969  0.56391738
   0.91926220  0.16420198  0.47280069
   0.25577351  0.49042854  0.56432419
   0.50447757  0.48952003  0.56507331
   0.41493701  0.41894395  0.47474335
Direct configuration=    11
   0.08333333  0.08333333  0.38179910
   0.08333333  0.83333333  0.38179910
   0.67085939  0.91164012  0.47776796
   0.83333333  0.83333333  0.38179910
   0.83333333  0.58333333  0.38179910
   0.08333333  0.33333333  0.38179910
   0.91647554  0.41698431  0.47493893
   0.66650191  0.41705721  0.47579127
   0.83333333  0.33333333  0.38179910
   0.08333333  0.58333333  0.38179910
   0.66944868  0.16577835  0.47509809
   0.33333333  0.83333333  0.38179910
   0.83333333  0.08333333  0.38179910
   0.41429523  0.91607915  0.47756625
   0.58333333  0.83333333  0.38179910
   0.33333333  0.08333333  0.38179910
   0.41424312  0.66693209  0.47612681
   0.58333333  0.58333333  0.38179910
   0.33333333  0.33333333  0.38179910
   0.16646327  0.41907221  0.47565812
   0.58333333  0.33333333  0.38179910
   0.41516136  0.16777943  0.47506963
   0.33333333  0.58333333  0.38179910
   0.58333333  0.08333333  0.38179910
   0.08156632  0.57309229  0.60749844
   0.32873184  0.59175822  0.60760708
   0.32870783  0.09567385  0.60830108
   0.07980108  0.08938006  0.60769219
   0.83494894  0.83282480  0.60599609
   0.58419319  0.83322306  0.60669807
   0.59683541  0.57153519  0.60838225
   0.82682592  0.09499990  0.60824832
   0.25194865 -0.00248574  0.56565574
   0.50027783  0.25021191  0.56354236
   0.50344646  0.00777669  0.56718474
   0.24228100  0.25857199  0.56339423
   0.16518276  0.66822081  0.47464089
   0.75709363  0.73622781  0.56568579
   0.24681497  0.75407861  0.56261578
   0.16346960  0.91833418  0.47522848
   0.16504958  0.16587741  0.47394681
   0.00740750  0.74940432  0.56441786
   0.49177000  0.74921171  0.56769462
   0.92048826  0.91488963  0.47606505
  -0.00534748  0.49327777  0.56422437
   0.73993935  0.00726986  0.56647191
   0.91742628  0.66831218  0.47489318
  -0.00226146  0.25395811  0.56384034
   0.74937331  0.25831309  0.56354216
   0.66651566  0.66708211  0.47537891
   0.76256684  0.49344402  0.56426048
  -0.00069890 -0.00283736  0.56462359
   0.91901612  0.16465063  0.47381757
   0.25558554  0.49069243  0.56515130
   0.50430788  0.48991789  0.56601288
   0.41568949  0.41739614  0.47525201
Direct configuration=    12
   0.08333333  0.08333333  0.38179910
   0.08333333  0.83333333  0.38179910
   0.67062111  0.91194591  0.47824345
   0.83333333  0.83333333  0.38179910
   0.83333333  0.58333333  0.38179910
   0.08333333  0.33333333  0.38179910
   0.91657101  0.41709665  0.47490045
   0.66635649  0.41736301  0.47604508
   0.83333333  0.33333333  0.38179910
   0.08333333  0.58333333  0.38179910
   0.66893674  0.16587845  0.47576736
   0.33333333  0.83333333  0.38179910
   0.83333333  0.08333333  0.38179910
   0.41441876  0.91611922  0.47812207
   0.58333333  0.83333333  0.38179910
   0.33333333  0.08333333  0.38179910
   0.41422986  0.66668659  0.47643399
   0.58333333  0.58333333  0.38179910
   0.33333333  0.33333333  0.38179910
   0.16603109  0.41934484  0.47586684
   0.58333333  0.33333333  0.38179910
   0.41559213  0.16764711  0.47576500
   0.33333333  0.58333333  0.38179910
   0.58333333  0.08333333  0.38179910
   0.08210980  0.57181460  0.60849406
   0.32879427  0.59137294  0.60890258
   0.32876761  0.09692299  0.60983795
   0.07980582  0.08872934  0.60902687
   0.83563384  0.83221727  0.60676805
   0.58438306  0.83258769  0.60773835
   0.59805364  0.56980126  0.60962425
   0.82549477  0.09610762  0.60965244
   0.25155901 -0.00303528  0.56618243
   0.50035936  0.25003340  0.56482124
   0.50245028  0.00892686  0.56770320
   0.24228709  0.25908198  0.56398505
   0.16557968  0.66798274  0.47498129
   0.75730880  0.73611933  0.56632036
   0.24555505  0.75647391  0.56298642
   0.16346538  0.91840487  0.47564524
   0.16527204  0.16579443  0.47443156
   0.00785569  0.74822663  0.56497588
   0.49162286  0.74852389  0.56860408
   0.92036592  0.91497758  0.47652971
  -0.00451318  0.49321378  0.56488066
   0.73971791  0.00850569  0.56702095
   0.91779313  0.66789311  0.47536163
  -0.00222430  0.25384786  0.56432886
   0.74897966  0.25882532  0.56424490
   0.66642088  0.66670313  0.47597528
   0.76172591  0.49349157  0.56500233
   0.00042833 -0.00314748  0.56506661
   0.91893397  0.16463023  0.47424240
   0.25527332  0.49138132  0.56599225
   0.50405127  0.49058384  0.56687281
   0.41618103  0.41686819  0.47580009
Direct configuration=    13
   0.08333333  0.08333333  0.38179910
   0.08333333  0.83333333  0.38179910
   0.67036022  0.91228071  0.47876404
   0.83333333  0.83333333  0.38179910
   0.83333333  0.58333333  0.38179910
   0.08333333  0.33333333  0.38179910
   0.91667553  0.41721965  0.47485832
   0.66619727  0.41769782  0.47632297
   0.83333333  0.33333333  0.38179910
   0.08333333  0.58333333  0.38179910
   0.66837624  0.16598806  0.47650010
   0.33333333  0.83333333  0.38179910
   0.83333333  0.08333333  0.38179910
   0.41455402  0.91616309  0.47873061
   0.58333333  0.83333333  0.38179910
   0.33333333  0.08333333  0.38179910
   0.41421535  0.66641780  0.47677030
   0.58333333  0.58333333  0.38179910
   0.33333333  0.33333333  0.38179910
   0.16555792  0.41964333  0.47609536
   0.58333333  0.33333333  0.38179910
   0.41606377  0.16750223  0.47652631
   0.33333333  0.58333333  0.38179910
   0.58333333  0.08333333  0.38179910
   0.08270483  0.57041571  0.60958412
   0.32886262  0.59095112  0.61032096
   0.32883306  0.09829061  0.61152059
   0.07981101  0.08801690  0.61048814
   0.83638369  0.83155211  0.60761324
   0.58459095  0.83189204  0.60887731
   0.59938742  0.56790287  0.61098405
   0.82403737  0.09732041  0.61118975
   0.25113240 -0.00363695  0.56675908
   0.50044862  0.24983795  0.56622142
   0.50135961  0.01018611  0.56827084
   0.24229377  0.25964035  0.56463191
   0.16601425  0.66772209  0.47535399
   0.75754438  0.73600055  0.56701513
   0.24417561  0.75909640  0.56339223
   0.16346075  0.91848227  0.47610153
   0.16551559  0.16570359  0.47496229
   0.00834638  0.74693724  0.56558682
   0.49146176  0.74777083  0.56959980
   0.92023198  0.91507387  0.47703845
  -0.00359974  0.49314371  0.56559920
   0.73947546  0.00985873  0.56762207
   0.91819478  0.66743430  0.47587450
  -0.00218363  0.25372716  0.56486371
   0.74854868  0.25938614  0.56501430
   0.66631711  0.66628821  0.47662822
   0.76080522  0.49354363  0.56581454
   0.00166248 -0.00348701  0.56555164
   0.91884402  0.16460790  0.47470752
   0.25493150  0.49213555  0.56691296
   0.50377034  0.49131296  0.56781431
   0.41671919  0.41629016  0.47640016
Direct configuration=    14
   0.08333333  0.08333333  0.38179910
   0.08333333  0.83333333  0.38179910
   0.67022164  0.91279351  0.47931368
   0.83333333  0.83333333  0.38179910
   0.83333333  0.58333333  0.38179910
   0.08333333  0.33333333  0.38179910
   0.91674664  0.41726888  0.47566260
   0.66602062  0.41749463  0.47683488
   0.83333333  0.33333333  0.38179910
   0.08333333  0.58333333  0.38179910
   0.66844671  0.16570903  0.47730809
   0.33333333  0.83333333  0.38179910
   0.83333333  0.08333333  0.38179910
   0.41457654  0.91595637  0.47942075
   0.58333333  0.83333333  0.38179910
   0.33333333  0.08333333  0.38179910
   0.41411125  0.66637482  0.47710170
   0.58333333  0.58333333  0.38179910
   0.33333333  0.33333333  0.38179910
   0.16587013  0.41965014  0.47654012
   0.58333333  0.33333333  0.38179910
   0.41630111  0.16718072  0.47734661
   0.33333333  0.58333333  0.38179910
   0.58333333  0.08333333  0.38179910
   0.08306711  0.56932814  0.61080048
   0.32843513  0.59163740  0.61103437
   0.32854238  0.09944025  0.61257884
   0.07985354  0.08755718  0.61135859
   0.83686269  0.83156673  0.60853477
   0.58446591  0.83175134  0.60993614
   0.60048385  0.56636472  0.61232754
   0.82327572  0.09824268  0.61213786
   0.25146232 -0.00337548  0.56793545
   0.50013715  0.25054283  0.56737123
   0.50004458  0.01028900  0.56919343
   0.24389069  0.25865431  0.56548785
   0.16609350  0.66759099  0.47557307
   0.75696608  0.73669112  0.56774234
   0.24410989  0.75903719  0.56429358
   0.16338094  0.91850375  0.47655508
   0.16578586  0.16570703  0.47525596
   0.00840278  0.74675399  0.56628556
   0.49147035  0.74780370  0.57075157
   0.92040538  0.91494520  0.47756936
  -0.00348982  0.49327497  0.56601310