  56  56   0   0
  0.4903395E+02  0.1100258E-08  0.1100258E-08  0.2619179E-08  0.3500000E-15
  1.000000000000000E-004
  CAR 
 unknown system                          
      6.44894744    -21.42462337  301     -1.36104349      1.00000000
    -21.425  0.0000E+00  0.0000E+00
    -21.332  0.0000E+00  0.0000E+00
    -21.239  0.0000E+00  0.0000E+00
    -21.146  0.0000E+00  0.0000E+00
    -21.053  0.0000E+00  0.0000E+00
    -20.960  0.0000E+00  0.0000E+00
    -20.867  0.0000E+00  0.0000E+00
    -20.774  0.0000E+00  0.0000E+00
    -20.681  0.2663E-14  0.2475E-15
    -20.588  0.2301E-10  0.2138E-11
    -20.496  0.3682E-07  0.3423E-08
    -20.403  0.1113E-04  0.1038E-05
    -20.310  0.6576E-03  0.6214E-04
    -20.217  0.8065E-02  0.8115E-03
    -20.124  0.2402E-01  0.3043E-02
    -20.031  0.2861E-01  0.5702E-02
    -19.938  0.1991E-01  0.7551E-02
    -19.845  0.4886E-02  0.8005E-02
    -19.752  0.5378E-02  0.8505E-02
    -19.659  0.1905E-01  0.1028E-01
    -19.566  0.1765E-01  0.1192E-01
    -19.473  0.1853E-01  0.1364E-01
    -19.381  0.3946E-01  0.1730E-01
    -19.288  0.5497E-01  0.2241E-01
    -19.195  0.5111E-01  0.2716E-01
    -19.102  0.3421E-01  0.3034E-01
    -19.009  0.1553E-01  0.3178E-01
    -18.916  0.2283E-02  0.3199E-01
    -18.823  0.7505E-04  0.3200E-01
    -18.730  0.4945E-06  0.3200E-01
    -18.637  0.6234E-09  0.3200E-01
    -18.544  0.1466E-12  0.3200E-01
    -18.451  0.8763E-17  0.3200E-01
    -18.359  0.0000E+00  0.3200E-01
    -18.266  0.0000E+00  0.3200E-01
    -18.173  0.0000E+00  0.3200E-01
    -18.080  0.0000E+00  0.3200E-01
    -17.987  0.0000E+00  0.3200E-01
    -17.894  0.0000E+00  0.3200E-01
    -17.801  0.0000E+00  0.3200E-01
    -17.708  0.0000E+00  0.3200E-01
    -17.615  0.0000E+00  0.3200E-01
    -17.522  0.0000E+00  0.3200E-01
    -17.429  0.0000E+00  0.3200E-01
    -17.336  0.0000E+00  0.3200E-01
    -17.244  0.0000E+00  0.3200E-01
    -17.151  0.0000E+00  0.3200E-01
    -17.058  0.0000E+00  0.3200E-01
    -16.965  0.0000E+00  0.3200E-01
    -16.872  0.0000E+00  0.3200E-01
    -16.779  0.0000E+00  0.3200E-01
    -16.686  0.0000E+00  0.3200E-01
    -16.593  0.0000E+00  0.3200E-01
    -16.500  0.0000E+00  0.3200E-01
    -16.407  0.0000E+00  0.3200E-01
    -16.314  0.0000E+00  0.3200E-01
    -16.222  0.0000E+00  0.3200E-01
    -16.129  0.0000E+00  0.3200E-01
    -16.036  0.0000E+00  0.3200E-01
    -15.943  0.0000E+00  0.3200E-01
    -15.850  0.0000E+00  0.3200E-01
    -15.757  0.0000E+00  0.3200E-01
    -15.664  0.0000E+00  0.3200E-01
    -15.571  0.0000E+00  0.3200E-01
    -15.478  0.0000E+00  0.3200E-01
    -15.385  0.0000E+00  0.3200E-01
    -15.292  0.0000E+00  0.3200E-01
    -15.200  0.0000E+00  0.3200E-01
    -15.107  0.0000E+00  0.3200E-01
    -15.014  0.0000E+00  0.3200E-01
    -14.921  0.0000E+00  0.3200E-01
    -14.828  0.0000E+00  0.3200E-01
    -14.735  0.0000E+00  0.3200E-01
    -14.642  0.0000E+00  0.3200E-01
    -14.549  0.0000E+00  0.3200E-01
    -14.456  0.0000E+00  0.3200E-01
    -14.363  0.0000E+00  0.3200E-01
    -14.270  0.0000E+00  0.3200E-01
    -14.177  0.0000E+00  0.3200E-01
    -14.085  0.0000E+00  0.3200E-01
    -13.992  0.0000E+00  0.3200E-01
    -13.899  0.0000E+00  0.3200E-01
    -13.806  0.0000E+00  0.3200E-01
    -13.713  0.0000E+00  0.3200E-01
    -13.620  0.0000E+00  0.3200E-01
    -13.527  0.0000E+00  0.3200E-01
    -13.434  0.0000E+00  0.3200E-01
    -13.341  0.0000E+00  0.3200E-01
    -13.248  0.0000E+00  0.3200E-01
    -13.155  0.0000E+00  0.3200E-01
    -13.063  0.0000E+00  0.3200E-01
    -12.970  0.0000E+00  0.3200E-01
    -12.877  0.0000E+00  0.3200E-01
    -12.784  0.0000E+00  0.3200E-01
    -12.691  0.0000E+00  0.3200E-01
    -12.598  0.0000E+00  0.3200E-01
    -12.505  0.0000E+00  0.3200E-01
    -12.412  0.0000E+00  0.3200E-01
    -12.319  0.0000E+00  0.3200E-01
    -12.226  0.0000E+00  0.3200E-01
    -12.133  0.0000E+00  0.3200E-01
    -12.041  0.0000E+00  0.3200E-01
    -11.948  0.0000E+00  0.3200E-01
    -11.855  0.0000E+00  0.3200E-01
    -11.762  0.0000E+00  0.3200E-01
    -11.669  0.0000E+00  0.3200E-01
    -11.576  0.0000E+00  0.3200E-01
    -11.483  0.0000E+00  0.3200E-01
    -11.390  0.0000E+00  0.3200E-01
    -11.297  0.0000E+00  0.3200E-01
    -11.204  0.0000E+00  0.3200E-01
    -11.111  0.0000E+00  0.3200E-01
    -11.018  0.0000E+00  0.3200E-01
    -10.926  0.0000E+00  0.3200E-01
    -10.833  0.0000E+00  0.3200E-01
    -10.740  0.0000E+00  0.3200E-01
    -10.647  0.0000E+00  0.3200E-01
    -10.554  0.0000E+00  0.3200E-01
    -10.461  0.0000E+00  0.3200E-01
    -10.368  0.0000E+00  0.3200E-01
    -10.275  0.0000E+00  0.3200E-01
    -10.182  0.0000E+00  0.3200E-01
    -10.089  0.0000E+00  0.3200E-01
     -9.996  0.0000E+00  0.3200E-01
     -9.904  0.0000E+00  0.3200E-01
     -9.811  0.0000E+00  0.3200E-01
     -9.718  0.0000E+00  0.3200E-01
     -9.625  0.0000E+00  0.3200E-01
     -9.532  0.4381E-17  0.3200E-01
     -9.439  0.9750E-13  0.3200E-01
     -9.346  0.3873E-09  0.3200E-01
     -9.253  0.2892E-06  0.3200E-01
     -9.160  0.4160E-04  0.3200E-01
     -9.067  0.1200E-02  0.3212E-01
     -8.974  0.7461E-02  0.3281E-01
     -8.882  0.1256E-01  0.3398E-01
     -8.789  0.1237E-01  0.3512E-01
     -8.696  0.8146E-02  0.3588E-01
     -8.603  0.5186E-02  0.3636E-01
     -8.510  0.1499E-01  0.3776E-01
     -8.417  0.2266E-01  0.3986E-01
     -8.324  0.2398E-01  0.4209E-01
     -8.231  0.2496E-01  0.4441E-01
     -8.138  0.3119E-01  0.4731E-01
     -8.045  0.3925E-01  0.5095E-01
     -7.952  0.4368E-01  0.5501E-01
     -7.859  0.4218E-01  0.5893E-01
     -7.767  0.4095E-01  0.6274E-01
     -7.674  0.4576E-01  0.6699E-01
     -7.581  0.5379E-01  0.7199E-01
     -7.488  0.5869E-01  0.7744E-01
     -7.395  0.6470E-01  0.8345E-01
     -7.302  0.7359E-01  0.9029E-01
     -7.209  0.8209E-01  0.9792E-01
     -7.116  0.9173E-01  0.1064E+00
     -7.023  0.9896E-01  0.1156E+00
     -6.930  0.1115E+00  0.1260E+00
     -6.837  0.1223E+00  0.1374E+00
     -6.745  0.1283E+00  0.1493E+00
     -6.652  0.1364E+00  0.1620E+00
     -6.559  0.1449E+00  0.1754E+00
     -6.466  0.1553E+00  0.1899E+00
     -6.373  0.1614E+00  0.2048E+00
     -6.280  0.1609E+00  0.2198E+00
     -6.187  0.1628E+00  0.2349E+00
     -6.094  0.1747E+00  0.2512E+00
     -6.001  0.1751E+00  0.2674E+00
     -5.908  0.1664E+00  0.2829E+00
     -5.815  0.1659E+00  0.2983E+00
     -5.723  0.1736E+00  0.3144E+00
     -5.630  0.1807E+00  0.3312E+00
     -5.537  0.1805E+00  0.3480E+00
     -5.444  0.1788E+00  0.3646E+00
     -5.351  0.1803E+00  0.3814E+00
     -5.258  0.1839E+00  0.3984E+00
     -5.165  0.1865E+00  0.4158E+00
     -5.072  0.1792E+00  0.4324E+00
     -4.979  0.1756E+00  0.4487E+00
     -4.886  0.1829E+00  0.4657E+00
     -4.793  0.1801E+00  0.4824E+00
     -4.700  0.1740E+00  0.4986E+00
     -4.608  0.1784E+00  0.5152E+00
     -4.515  0.1808E+00  0.5320E+00
     -4.422  0.1808E+00  0.5488E+00
     -4.329  0.1789E+00  0.5654E+00
     -4.236  0.1835E+00  0.5825E+00
     -4.143  0.1900E+00  0.6001E+00
     -4.050  0.1868E+00  0.6175E+00
     -3.957  0.1882E+00  0.6350E+00
     -3.864  0.1986E+00  0.6534E+00
     -3.771  0.1968E+00  0.6717E+00
     -3.678  0.1923E+00  0.6896E+00
     -3.586  0.1947E+00  0.7077E+00
     -3.493  0.1921E+00  0.7255E+00
     -3.400  0.1857E+00  0.7428E+00
     -3.307  0.1817E+00  0.7596E+00
     -3.214  0.1810E+00  0.7765E+00
     -3.121  0.1834E+00  0.7935E+00
     -3.028  0.1823E+00  0.8104E+00
     -2.935  0.1831E+00  0.8274E+00
     -2.842  0.1844E+00  0.8446E+00
     -2.749  0.1847E+00  0.8617E+00
     -2.656  0.1859E+00  0.8790E+00
     -2.564  0.1892E+00  0.8966E+00
     -2.471  0.1889E+00  0.9141E+00
     -2.378  0.1926E+00  0.9320E+00
     -2.285  0.1978E+00  0.9504E+00
     -2.192  0.2073E+00  0.9697E+00
     -2.099  0.2058E+00  0.9888E+00
     -2.006  0.1942E+00  0.1007E+01
     -1.913  0.1902E+00  0.1025E+01
     -1.820  0.1871E+00  0.1042E+01
     -1.727  0.1732E+00  0.1058E+01
     -1.634  0.1540E+00  0.1072E+01
     -1.541  0.1318E+00  0.1085E+01
     -1.449  0.1146E+00  0.1095E+01
     -1.356  0.1003E+00  0.1105E+01
     -1.263  0.8450E-01  0.1112E+01
     -1.170  0.6235E-01  0.1118E+01
     -1.077  0.4708E-01  0.1123E+01
     -0.984  0.4127E-01  0.1126E+01
     -0.891  0.4136E-01  0.1130E+01
     -0.798  0.4340E-01  0.1134E+01
     -0.705  0.4672E-01  0.1139E+01
     -0.612  0.4936E-01  0.1143E+01
     -0.519  0.5304E-01  0.1148E+01
     -0.427  0.5959E-01  0.1154E+01
     -0.334  0.5421E-01  0.1159E+01
     -0.241  0.3590E-01  0.1162E+01
     -0.148  0.2407E-01  0.1164E+01
     -0.055  0.2462E-01  0.1167E+01
      0.038  0.2714E-01  0.1169E+01
      0.131  0.1903E-01  0.1171E+01
      0.224  0.2008E-01  0.1173E+01
      0.317  0.2361E-01  0.1175E+01
      0.410  0.2709E-01  0.1177E+01
      0.503  0.3517E-01  0.1181E+01
      0.595  0.3726E-01  0.1184E+01
      0.688  0.3739E-01  0.1188E+01
      0.781  0.3290E-01  0.1191E+01
      0.874  0.2992E-01  0.1193E+01
      0.967  0.3101E-01  0.1196E+01
      1.060  0.2387E-01  0.1199E+01
      1.153  0.2338E-01  0.1201E+01
      1.246  0.2759E-01  0.1203E+01
      1.339  0.2539E-01  0.1206E+01
      1.432  0.2182E-01  0.1208E+01
      1.525  0.2526E-01  0.1210E+01
      1.618  0.2847E-01  0.1213E+01
      1.710  0.2818E-01  0.1215E+01
      1.803  0.3293E-01  0.1218E+01
      1.896  0.3477E-01  0.1222E+01
      1.989  0.3131E-01  0.1224E+01
      2.082  0.3037E-01  0.1227E+01
      2.175  0.2750E-01  0.1230E+01
      2.268  0.3256E-01  0.1233E+01
      2.361  0.3884E-01  0.1236E+01
      2.454  0.4060E-01  0.1240E+01
      2.547  0.3505E-01  0.1244E+01
      2.640  0.2672E-01  0.1246E+01
      2.732  0.2411E-01  0.1248E+01
      2.825  0.2321E-01  0.1250E+01
      2.918  0.2601E-01  0.1253E+01
      3.011  0.2692E-01  0.1255E+01
      3.104  0.2587E-01  0.1258E+01
      3.197  0.3203E-01  0.1261E+01
      3.290  0.3236E-01  0.1264E+01
      3.383  0.2782E-01  0.1266E+01
      3.476  0.2966E-01  0.1269E+01
      3.569  0.3338E-01  0.1272E+01
      3.662  0.3270E-01  0.1275E+01
      3.755  0.3409E-01  0.1278E+01
      3.847  0.3703E-01  0.1282E+01
      3.940  0.3782E-01  0.1285E+01
      4.033  0.4031E-01  0.1289E+01
      4.126  0.4218E-01  0.1293E+01
      4.219  0.3599E-01  0.1296E+01
      4.312  0.3557E-01  0.1300E+01
      4.405  0.4887E-01  0.1304E+01
      4.498  0.4045E-01  0.1308E+01
      4.591  0.3953E-01  0.1312E+01
      4.684  0.5563E-01  0.1317E+01
      4.777  0.5623E-01  0.1322E+01
      4.869  0.5246E-01  0.1327E+01
      4.962  0.5013E-01  0.1331E+01
      5.055  0.5360E-01  0.1336E+01
      5.148  0.5149E-01  0.1341E+01
      5.241  0.2487E-01  0.1344E+01
      5.334  0.4379E-02  0.1344E+01
      5.427  0.2257E-03  0.1344E+01
      5.520  0.2883E-05  0.1344E+01
      5.613  0.8102E-08  0.1344E+01
      5.706  0.4621E-11  0.1344E+01
      5.799  0.5082E-15  0.1344E+01
      5.891  0.0000E+00  0.1344E+01
      5.984  0.0000E+00  0.1344E+01
      6.077  0.0000E+00  0.1344E+01
      6.170  0.0000E+00  0.1344E+01
      6.263  0.0000E+00  0.1344E+01
      6.356  0.0000E+00  0.1344E+01
      6.449  0.0000E+00  0.1344E+01
