unknown system                          
           1
    11.002582    0.000000    0.000000
     5.501291    9.528515    0.000000
     0.000000    0.000000   26.191785
   Au   O    Pd
  24   8  24
Direct configuration=     1
   0.08333333  0.08333333  0.38179910
   0.83333333  0.08333333  0.38179910
   0.83333333  0.83333333  0.38179910
   0.00000000  0.00000000  0.55329505
   0.75000000  0.50000000  0.55329505
   0.66666667  0.66666667  0.46754708
   0.66666667  0.41666667  0.46754708
   0.00000000  0.25000000  0.55329505
   0.83333333  0.33333333  0.38179910
   0.08333333  0.58333333  0.38179910
   0.75000000  0.00000000  0.55329505
   0.50000000  0.75000000  0.55329505
   0.00000000  0.50000000  0.55329505
   0.16666667  0.66666667  0.46754708
   0.41666667  0.91666667  0.46754708
   0.58333333  0.83333333  0.38179910
   0.25000000  0.00000000  0.55329505
   0.75000000  0.75000000  0.55329505
   0.33333333  0.33333333  0.38179910
   0.16666667  0.41666667  0.46754708
   0.25000000  0.25000000  0.55329505
   0.25000000  0.75000000  0.55329505
   0.33333333  0.83333333  0.38179910
   0.08333333  0.83333333  0.38179910
   0.08333333  0.33333333  0.61820090
   0.08333333  0.83333333  0.61820090
   0.08333333  0.58333333  0.61820090
   0.33333333  0.08333333  0.61820090
   0.33333333  0.83333333  0.61820090
   0.33333333  0.58333333  0.61820090
   0.58333333  0.08333333  0.61820090
   0.58333333  0.58333333  0.61820090
   0.50000000  0.25000000  0.55329505
   0.41666667  0.41666667  0.46754708
   0.16666667  0.16666667  0.46754708
   0.58333333  0.33333333  0.38179910
   0.33333333  0.08333333  0.38179910
   0.50000000  0.00000000  0.55329505
   0.41666667  0.16666667  0.46754708
   0.58333333  0.08333333  0.38179910
   0.16666667  0.91666667  0.46754708
   0.50000000  0.50000000  0.55329505
   0.00000000  0.75000000  0.55329505
   0.25000000  0.50000000  0.55329505
   0.91666667  0.91666667  0.46754708
   0.66666667  0.16666667  0.46754708
   0.91666667  0.66666667  0.46754708
   0.91666667  0.41666667  0.46754708
   0.75000000  0.25000000  0.55329505
   0.83333333  0.58333333  0.38179910
   0.08333333  0.33333333  0.38179910
   0.91666667  0.16666667  0.46754708
   0.66666667  0.91666667  0.46754708
   0.33333333  0.58333333  0.38179910
   0.58333333  0.58333333  0.38179910
   0.41666667  0.66666667  0.46754708
Direct configuration=     2
   0.08333333  0.08333333  0.38179910
   0.83333333  0.08333333  0.38179910
   0.83333333  0.83333333  0.38179910
  -0.00167249  0.00125763  0.55534449
   0.75045991  0.49859138  0.55594301
   0.66744108  0.66630009  0.46703142
   0.66517861  0.41578283  0.46765577
  -0.00163045  0.24966728  0.55535556
   0.83333333  0.33333333  0.38179910
   0.08333333  0.58333333  0.38179910
   0.74931581  0.00095817  0.55526197
   0.50099935  0.75019642  0.55635984
  -0.00142907  0.50191319  0.55602304
   0.16752262  0.66697977  0.46783856
   0.41622413  0.91844360  0.46774331
   0.58333333  0.83333333  0.38179910
   0.24879629  0.00074494  0.55588269
   0.75026117  0.75103427  0.55475844
   0.33333333  0.33333333  0.38179910
   0.16719979  0.41532261  0.46779673
   0.25249714  0.24997076  0.55596047
   0.24999999  0.74872321  0.55599951
   0.33333333  0.83333333  0.38179910
   0.08333333  0.83333333  0.38179910
   0.08252329  0.33318186  0.61594185
   0.08060353  0.83448247  0.61539976
   0.08341458  0.58411364  0.61484208
   0.33474208  0.08213002  0.61543897
   0.33346524  0.83472060  0.61637007
   0.33501682  0.58016836  0.61475663
   0.58294824  0.08436408  0.61447839
   0.58458218  0.58123297  0.61521811
   0.50116902  0.24883881  0.55511379
   0.41785754  0.41633081  0.46856028
   0.16650968  0.16664267  0.46715180
   0.58333333  0.33333333  0.38179910
   0.33333333  0.08333333  0.38179910
   0.50038325  0.00165464  0.55663056
   0.41747808  0.16656570  0.46764367
   0.58333333  0.08333333  0.38179910
   0.16669364  0.91678134  0.46791279
   0.49965269  0.49901263  0.55674252
  -0.00002156  0.74984086  0.55655903
   0.25116933  0.49989045  0.55671095
   0.91575931  0.91684001  0.46830163
   0.66586191  0.16696318  0.46745247
   0.91669232  0.66674031  0.46803504
   0.91707142  0.41677103  0.46754138
   0.74911185  0.25016274  0.55394856
   0.83333333  0.58333333  0.38179910
   0.08333333  0.33333333  0.38179910
   0.91728401  0.16618362  0.46855844
   0.66617004  0.91812574  0.46774052
   0.33333333  0.58333333  0.38179910
   0.58333333  0.58333333  0.38179910
   0.41608073  0.66569349  0.46731929
Direct configuration=     3
   0.08333333  0.08333333  0.38179910
   0.83333333  0.08333333  0.38179910
   0.83333333  0.83333333  0.38179910
  -0.00446623  0.00335840  0.55876792
   0.75122815  0.49623839  0.56036621
   0.66873467  0.66568775  0.46617007
   0.66269295  0.41430646  0.46783732
  -0.00435399  0.24911150  0.55879747
   0.83333333  0.33333333  0.38179910
   0.08333333  0.58333333  0.38179910
   0.74817293  0.00255871  0.55854753
   0.50266867  0.75052453  0.56147932
  -0.00381620  0.50510902  0.56057992
   0.16895242  0.66750277  0.46832547
   0.41548492  0.92141183  0.46807109
   0.58333333  0.83333333  0.38179910
   0.24678558  0.00198929  0.56020512
   0.75069744  0.75276193  0.55720291
   0.33333333  0.33333333  0.38179910
   0.16809034  0.41307747  0.46821377
   0.25666840  0.24992192  0.56041283
   0.24999997  0.74659045  0.56051707
   0.33333333  0.83333333  0.38179910
   0.08333333  0.83333333  0.38179910
   0.08117018  0.33292883  0.61216829
   0.07604362  0.83640200  0.61072070
   0.08355030  0.58541707  0.60923145
   0.33709528  0.08011998  0.61082541
   0.33368559  0.83703790  0.61331182
   0.33782895  0.57488154  0.60900327
   0.58230498  0.08608587  0.60826024
   0.58666829  0.57772448  0.61023562
   0.50312177  0.24689914  0.55815185
   0.41984678  0.41576979  0.47025275
   0.16624744  0.16660257  0.46649151
   0.58333333  0.33333333  0.38179910
   0.33333333  0.08333333  0.38179910
   0.50102343  0.00441859  0.56220225
   0.41883346  0.16639706  0.46780503
   0.58333333  0.08333333  0.38179910
   0.16673870  0.91697289  0.46852368
   0.49907254  0.49736331  0.56250121
  -0.00005757  0.74957502  0.56201122
   0.25312260  0.49970745  0.56241691
   0.91424366  0.91712956  0.46956204
   0.66451763  0.16745848  0.46729443
   0.91673518  0.66686334  0.46885014
   0.91774753  0.41694535  0.46753187
   0.74762828  0.25043459  0.55504018
   0.83333333  0.58333333  0.38179910
   0.08333333  0.33333333  0.38179910
   0.91831524  0.16537674  0.47024783
   0.66534046  0.92056300  0.46806366
   0.33333333  0.58333333  0.38179910
   0.58333333  0.58333333  0.38179910
   0.41510198  0.66406789  0.46693878
Direct configuration=     4
   0.08333333  0.08333333  0.38179910
   0.83333333  0.08333333  0.38179910
   0.83333333  0.83333333  0.38179910
  -0.00411383  0.00309341  0.55833608
   0.75113124  0.49653520  0.55980826
   0.66857150  0.66576499  0.46627872
   0.66300649  0.41449269  0.46781442
  -0.00401044  0.24918161  0.55836331
   0.83333333  0.33333333  0.38179910
   0.08333333  0.58333333  0.38179910
   0.74831709  0.00235682  0.55813309
   0.50245810  0.75048314  0.56083354
  -0.00351509  0.50470589  0.56000511
   0.16877207  0.66743680  0.46826405
   0.41557816  0.92103741  0.46802974
   0.58333333  0.83333333  0.38179910
   0.24703921  0.00183232  0.55965988
   0.75064241  0.75254401  0.55689456
   0.33333333  0.33333333  0.38179910
   0.16797800  0.41336067  0.46816116
   0.25614224  0.24992809  0.55985121
   0.24999997  0.74685948  0.55994722
   0.33333333  0.83333333  0.38179910
   0.08333333  0.83333333  0.38179910
   0.08134086  0.33296075  0.61264429
   0.07661882  0.83615987  0.61131092
   0.08353318  0.58525265  0.60993918
   0.33679845  0.08037352  0.61140737
   0.33365780  0.83674559  0.61369759
   0.33747422  0.57554843  0.60972900
   0.58238612  0.08586868  0.60904461
   0.58640514  0.57816705  0.61086412
   0.50287545  0.24714381  0.55776862
   0.41959586  0.41584056  0.47003926
   0.16628052  0.16660763  0.46657480
   0.58333333  0.33333333  0.38179910
   0.33333333  0.08333333  0.38179910
   0.50094267  0.00406994  0.56149943
   0.41866249  0.16641833  0.46778468
   0.58333333  0.08333333  0.38179910
   0.16673302  0.91694873  0.46844662
   0.49914572  0.49757135  0.56177481
  -0.00005303  0.74960855  0.56132348
   0.25287622  0.49973053  0.56169715
   0.91443484  0.91709303  0.46940305
   0.66468719  0.16739600  0.46731436
   0.91672978  0.66684782  0.46874733
   0.91766224  0.41692336  0.46753307
   0.74781542  0.25040030  0.55490248
   0.83333333  0.58333333  0.38179910
   0.08333333  0.33333333  0.38179910
   0.91818516  0.16547852  0.47003473
   0.66544511  0.92025556  0.46802290
   0.33333333  0.58333333  0.38179910
   0.58333333  0.58333333  0.38179910
   0.41522544  0.66427295  0.46698678
Direct configuration=     5
   0.08333333  0.08333333  0.38179910
   0.83333333  0.08333333  0.38179910
   0.83333333  0.83333333  0.38179910
  -0.00692608  0.00704697  0.55942842
   0.75615947  0.49381033  0.56051229
   0.66799669  0.66540829  0.46790564
   0.66303018  0.41495523  0.46908273
  -0.00587572  0.24850457  0.55947884
   0.83333333  0.33333333  0.38179910
   0.08333333  0.58333333  0.38179910
   0.75409249 -0.00025247  0.55836782
   0.50518985  0.75470308  0.56146048
  -0.00825198  0.50554463  0.56069028
   0.16867375  0.66682448  0.47005890
   0.41571032  0.92099562  0.47018362
   0.58333333  0.83333333  0.38179910
   0.24217819  0.00327484  0.56001682
   0.74937152  0.75365234  0.55776349
   0.33333333  0.33333333  0.38179910
   0.16885700  0.41294010  0.47021169
   0.25688457  0.25482185  0.56080995
   0.24998736  0.74973455  0.55884989
   0.33333333  0.83333333  0.38179910
   0.08333333  0.83333333  0.38179910
   0.07973052  0.33201331  0.61151361
   0.07048329  0.83925214  0.61052117
   0.08399060  0.58672290  0.60833464
   0.33955093  0.07882844  0.61053541
   0.33459336  0.83823915  0.61379307
   0.34193185  0.56816596  0.60857735
   0.58067377  0.08894159  0.60783098
   0.58777306  0.57453362  0.61040851
   0.50227917  0.25095239  0.55847550
   0.41874412  0.41550728  0.47180012
   0.16617998  0.16680332  0.46790687
   0.58333333  0.33333333  0.38179910
   0.33333333  0.08333333  0.38179910
   0.50281087 -0.00063118  0.56321986
   0.41888878  0.16698347  0.46884678
   0.58333333  0.08333333  0.38179910
   0.16709339  0.91690410  0.47023449
   0.50141435  0.49227436  0.56384698
  -0.00429419  0.75252599  0.56334617
   0.25561072  0.49400790  0.56340380
   0.91383833  0.91717181  0.47119162
   0.66441810  0.16685711  0.46785313
   0.91756950  0.66669784  0.47012172
   0.91726897  0.41702983  0.46910545
   0.74597471  0.25099972  0.55550616
   0.83333333  0.58333333  0.38179910
   0.08333333  0.33333333  0.38179910
   0.91868413  0.16504085  0.47149279
   0.66530198  0.92098572  0.46918338
   0.33333333  0.58333333  0.38179910
   0.58333333  0.58333333  0.38179910
   0.41566541  0.66458942  0.46842180
Direct configuration=     6
   0.08333333  0.08333333  0.38179910
   0.83333333  0.08333333  0.38179910
   0.83333333  0.83333333  0.38179910
  -0.00857788  0.00936913  0.56007001
   0.75911284  0.49220985  0.56092581
   0.66765907  0.66519878  0.46886123
   0.66304410  0.41522690  0.46982768
  -0.00697131  0.24810691  0.56013405
   0.83333333  0.33333333  0.38179910
   0.08333333  0.58333333  0.38179910
   0.75748472 -0.00178505  0.55850569
   0.50679436  0.75718170  0.56182872
  -0.01103424  0.50603726  0.56109271
   0.16861601  0.66646483  0.47111313
   0.41578794  0.92097108  0.47144872
   0.58333333  0.83333333  0.38179910
   0.23932303  0.00412212  0.56022647
   0.74862505  0.75430332  0.55827386
   0.33333333  0.33333333  0.38179910
   0.16937329  0.41269307  0.47141608
   0.25732059  0.25769624  0.56137308
   0.24997996  0.75142325  0.55820537
   0.33333333  0.83333333  0.38179910
   0.08333333  0.83333333  0.38179910
   0.07878468  0.33145682  0.61084949
   0.06687954  0.84106842  0.61005730
   0.08425927  0.58758647  0.60739220
   0.34116762  0.07792093  0.61002325
   0.33514287  0.83911640  0.61384915
   0.34455007  0.56382980  0.60790092
   0.57966800  0.09074649  0.60711814
   0.58857652  0.57239950  0.61014091
   0.50192893  0.25318940  0.55889068
   0.41824385  0.41531152  0.47283437
   0.16612093  0.16691826  0.46868927
   0.58333333  0.33333333  0.38179910
   0.33333333  0.08333333  0.38179910
   0.50390818 -0.00339242  0.56423037
   0.41902170  0.16731540  0.46947061
   0.58333333  0.08333333  0.38179910
   0.16730506  0.91687788  0.47128460
   0.50274684  0.48916313  0.56506409
  -0.00678528  0.75423956  0.56453422
   0.25721685  0.49064666  0.56440622
   0.91348796  0.91721809  0.47224216
   0.66426005  0.16654059  0.46816958
   0.91806272  0.66660975  0.47092897
   0.91703797  0.41709236  0.47002900
   0.74489356  0.25135179  0.55586073
   0.83333333  0.58333333  0.38179910
   0.08333333  0.33333333  0.38179910
   0.91897721  0.16478379  0.47234919
   0.66521791  0.92141458  0.46986500
   0.33333333  0.58333333  0.38179910
   0.58333333  0.58333333  0.38179910
   0.41592384  0.66477531  0.46926467
Direct configuration=     7
   0.08333333  0.08333333  0.38179910
   0.83333333  0.08333333  0.38179910
   0.83333333  0.83333333  0.38179910
  -0.00936011  0.01151505  0.56094655
   0.75728445  0.49279683  0.56147868
   0.66718064  0.66558906  0.46995895
   0.66312829  0.41556632  0.47058970
  -0.00701480  0.24650361  0.56057261
   0.83333333  0.33333333  0.38179910
   0.08333333  0.58333333  0.38179910
   0.75584355 -0.00078756  0.55885503
   0.50768110  0.75607044  0.56270116
  -0.01265353  0.50839120  0.56105235
   0.16801944  0.66603816  0.47241451
   0.41606539  0.92097547  0.47261432
   0.58333333  0.83333333  0.38179910
   0.23673239  0.00757083  0.56051698
   0.74888744  0.75468179  0.55887636
   0.33333333  0.33333333  0.38179910
   0.16908938  0.41338265  0.47251940
   0.25916624  0.25585059  0.56207680
   0.25168074  0.74981821  0.55696350
   0.33333333  0.83333333  0.38179910
   0.08333333  0.83333333  0.38179910
   0.07793800  0.33008202  0.61127850
   0.06343653  0.84476527  0.61130844
   0.08462072  0.58666189  0.60807995
   0.34085240  0.07833806  0.61023968
   0.33658343  0.83940143  0.61428220
   0.34450557  0.56242179  0.60985293
   0.57980083  0.09351007  0.60737706
   0.59013783  0.57078821  0.61050721
   0.50311378  0.25202928  0.55873970
   0.41771426  0.41554558  0.47361308
   0.16607862  0.16723776  0.46996489
   0.58333333  0.33333333  0.38179910
   0.33333333  0.08333333  0.38179910
   0.50654270 -0.00513269  0.56423169
   0.41908481  0.16732747  0.47043572
   0.58333333  0.08333333  0.38179910
   0.16696837  0.91716114  0.47185824
   0.50871855  0.48536179  0.56470775
  -0.01006911  0.75526976  0.56435483
   0.25716767  0.48963014  0.56407179
   0.91445360  0.91667162  0.47286774
   0.66422511  0.16654104  0.46859341
   0.91828002  0.66650659  0.47183769
   0.91705084  0.41682706  0.47086050
   0.74331127  0.25180785  0.55653448
   0.83333333  0.58333333  0.38179910
   0.08333333  0.33333333  0.38179910
   0.91867207  0.16493591  0.47286364
   0.66508895  0.92106753  0.47070804
   0.33333333  0.58333333  0.38179910
   0.58333333  0.58333333  0.38179910
   0.41661296  0.66488959  0.47054109
Direct configuration=     8
   0.08333333  0.08333333  0.38179910
   0.83333333  0.08333333  0.38179910
   0.83333333  0.83333333  0.38179910
  -0.00943776  0.01172808  0.56103357
   0.75710294  0.49285511  0.56153357
   0.66713314  0.66562780  0.47006792
   0.66313664  0.41560002  0.47066534
  -0.00701912  0.24634444  0.56061615
   0.83333333  0.33333333  0.38179910
   0.08333333  0.58333333  0.38179910
   0.75568062 -0.00068854  0.55888971
   0.50776913  0.75596012  0.56278777
  -0.01281428  0.50862489  0.56104834
   0.16796021  0.66599580  0.47254370
   0.41609293  0.92097591  0.47273004
   0.58333333  0.83333333  0.38179910
   0.23647521  0.00791320  0.56054582
   0.74891349  0.75471936  0.55893617
   0.33333333  0.33333333  0.38179910
   0.16906119  0.41345111  0.47262893
   0.25934947  0.25566736  0.56214666
   0.25184959  0.74965887  0.55684021
   0.33333333  0.83333333  0.38179910
   0.08333333  0.83333333  0.38179910
   0.07785394  0.32994554  0.61132109
   0.06309473  0.84513227  0.61143265
   0.08465661  0.58657011  0.60814823
   0.34082111  0.07837947  0.61026117
   0.33672644  0.83942973  0.61432519
   0.34450115  0.56228201  0.61004671
   0.57981402  0.09378442  0.60740276
   0.59029283  0.57062825  0.61054357
   0.50323141  0.25191411  0.55872471
   0.41766168  0.41556882  0.47369039
   0.16607442  0.16726948  0.47009153
   0.58333333  0.33333333  0.38179910
   0.33333333  0.08333333  0.38179910
   0.50680424 -0.00530546  0.56423182
   0.41909107  0.16732867  0.47053153
   0.58333333  0.08333333  0.38179910
   0.16693494  0.91718926  0.47191519
   0.50931139  0.48498441  0.56467237
  -0.01039511  0.75537203  0.56433703
   0.25716279  0.48952923  0.56403860
   0.91454947  0.91661737  0.47292984
   0.66422164  0.16654108  0.46863548
   0.91830159  0.66649635  0.47192790
   0.91705212  0.41680072  0.47094305
   0.74315418  0.25185312  0.55660136
   0.83333333  0.58333333  0.38179910
   0.08333333  0.33333333  0.38179910
   0.91864178  0.16495101  0.47291471
   0.66507615  0.92103308  0.47079173
   0.33333333  0.58333333  0.38179910
   0.58333333  0.58333333  0.38179910
   0.41668137  0.66490093  0.47066781
Direct configuration=     9
   0.08333333  0.08333333  0.38179910
   0.83333333  0.08333333  0.38179910
   0.83333333  0.83333333  0.38179910
  -0.00971827  0.01076839  0.56226900
   0.75713065  0.49281973  0.56183960
   0.66702339  0.66614516  0.47073723
   0.66328867  0.41566250  0.47095016
  -0.00841519  0.24812395  0.56116555
   0.83333333  0.33333333  0.38179910
   0.08333333  0.58333333  0.38179910
   0.75389225  0.00086108  0.55925152
   0.50704153  0.75476704  0.56412898
  -0.01237018  0.50832078  0.56144646
   0.16734742  0.66566827  0.47326549
   0.41611157  0.92105731  0.47351594
   0.58333333  0.83333333  0.38179910
   0.23665628  0.00835717  0.56136811
   0.74875057  0.75482504  0.55978988
   0.33333333  0.33333333  0.38179910
   0.16860771  0.41382841  0.47332944
   0.26038985  0.25349524  0.56316491
   0.25322033  0.74722698  0.55689684
   0.33333333  0.83333333  0.38179910
   0.08333333  0.83333333  0.38179910
   0.07680085  0.32907490  0.61166388
   0.05955131  0.84828944  0.61210814
   0.08483729  0.58602260  0.60879048
   0.34114670  0.07845890  0.61057207
   0.33790343  0.83972726  0.61421825
   0.34660634  0.55963652  0.61065233
   0.57999703  0.09596547  0.60830307
   0.59106942  0.56954186  0.61165828
   0.50351710  0.25099840  0.55826523
   0.41748683  0.41599494  0.47406991
   0.16614580  0.16770968  0.47103724
   0.58333333  0.33333333  0.38179910
   0.33333333  0.08333333  0.38179910
   0.50784233 -0.00517521  0.56449494
   0.41893859  0.16721953  0.47119983
   0.58333333  0.08333333  0.38179910
   0.16643360  0.91776155  0.47206983
   0.50825986  0.48554078  0.56541689
  -0.00985683  0.75610051  0.56491029
   0.25723854  0.49164441  0.56430393
   0.91553535  0.91628710  0.47329654
   0.66439656  0.16657858  0.46884723
   0.91793598  0.66663017  0.47236890
   0.91699317  0.41661985  0.47158342
   0.74352383  0.25082120  0.55739963
   0.83333333  0.58333333  0.38179910
   0.08333333  0.33333333  0.38179910
   0.91798235  0.16525218  0.47314058
   0.66515566  0.92048861  0.47131709
   0.33333333  0.58333333  0.38179910
   0.58333333  0.58333333  0.38179910
   0.41742700  0.66476752  0.47146788
Direct configuration=    10
   0.08333333  0.08333333  0.38179910
   0.83333333  0.08333333  0.38179910
   0.83333333  0.83333333  0.38179910
  -0.00992751  0.01005250  0.56319058
   0.75715133  0.49279334  0.56206789
   0.66694153  0.66653109  0.47123650
   0.66340208  0.41570911  0.47116261
  -0.00945660  0.24945138  0.56157538
   0.83333333  0.33333333  0.38179910
   0.08333333  0.58333333  0.38179910
   0.75255821  0.00201701  0.55952141
   0.50649878  0.75387706  0.56512946
  -0.01203890  0.50809393  0.56174343
   0.16689031  0.66542394  0.47380391
   0.41612547  0.92111803  0.47410218
   0.58333333  0.83333333  0.38179910
   0.23679135  0.00868834  0.56198149
   0.74862904  0.75490388  0.56042670
   0.33333333  0.33333333  0.38179910
   0.16826944  0.41410986  0.47385198
   0.26116592  0.25187495  0.56392448
   0.25424284  0.74541291  0.55693909
   0.33333333  0.83333333  0.38179910
   0.08333333  0.83333333  0.38179910
   0.07601529  0.32842545  0.61191959
   0.05690809  0.85064453  0.61261203
   0.08497208  0.58561418  0.60926956
   0.34138958  0.07851816  0.61080400
   0.33878140  0.83994921  0.61413847
   0.34817670  0.55766312  0.61110409
   0.58013355  0.09759243  0.60897466
   0.59164872  0.56873146  0.61248979
   0.50373021  0.25031533  0.55792248
   0.41735640  0.41631281  0.47435302
   0.16619905  0.16803805  0.47174270
   0.58333333  0.33333333  0.38179910
   0.33333333  0.08333333  0.38179910
   0.50861669 -0.00507806  0.56469122
   0.41882484  0.16713811  0.47169834
   0.58333333  0.08333333  0.38179910
   0.16605962  0.91818845  0.47218518
   0.50747547  0.48595580  0.56597226
  -0.00945530  0.75664392  0.56533792
   0.25729505  0.49322224  0.56450186
   0.91627077  0.91604073  0.47357007
   0.66452704  0.16660656  0.46900519
   0.91766325  0.66672999  0.47269787
   0.91694920  0.41648493  0.47206110
   0.74379957  0.25005144  0.55799511
   0.83333333  0.58333333  0.38179910
   0.08333333  0.33333333  0.38179910
   0.91749044  0.16547684  0.47330907
   0.66521497  0.92008246  0.47170898
   0.33333333  0.58333333  0.38179910
   0.58333333  0.58333333  0.38179910
   0.41798320  0.66466800  0.47206469
Direct configuration=    11
   0.08333333  0.08333333  0.38179910
   0.83333333  0.08333333  0.38179910
   0.83333333  0.83333333  0.38179910
  -0.01001219  0.01094365  0.56391280
   0.75633206  0.49342564  0.56246142
   0.66697210  0.66691663  0.47166116
   0.66349337  0.41555033  0.47139623
  -0.01074939  0.24919944  0.56194406
   0.83333333  0.33333333  0.38179910
   0.08333333  0.58333333  0.38179910
   0.75249698  0.00208197  0.55979172
   0.50769142  0.75275227  0.56638501
  -0.01059510  0.50750987  0.56238136
   0.16637514  0.66540151  0.47394235
   0.41591896  0.92106749  0.47472497
   0.58333333  0.83333333  0.38179910
   0.23591180  0.00757503  0.56274068
   0.74856178  0.75468894  0.56150269
   0.33333333  0.33333333  0.38179910
   0.16834553  0.41378212  0.47446784
   0.26089926  0.25361181  0.56487674
   0.25403172  0.74526203  0.55743047
   0.33333333  0.83333333  0.38179910
   0.08333333  0.83333333  0.38179910
   0.07529057  0.32798159  0.61263719
   0.05395736  0.85232757  0.61392205
   0.08484488  0.58572291  0.60983299
   0.34324309  0.07762032  0.61168445
   0.33883768  0.84055461  0.61442235
   0.35054645  0.55459446  0.61224725
   0.57975596  0.09964322  0.61008980
   0.59267995  0.56727573  0.61397448
   0.50286734  0.25058521  0.55751236
   0.41735973  0.41668777  0.47449024
   0.16609053  0.16838786  0.47240070
   0.58333333  0.33333333  0.38179910
   0.33333333  0.08333333  0.38179910
   0.50872534 -0.00469970  0.56544609
   0.41849539  0.16708545  0.47195127
   0.58333333  0.08333333  0.38179910
   0.16579448  0.91873326  0.47243923
   0.50663401  0.48617718  0.56682084
  -0.00816363  0.75652275  0.56634379
   0.25685338  0.49371985  0.56487527
   0.91654153  0.91612294  0.47392860
   0.66483380  0.16649022  0.46901182
   0.91700324  0.66706835  0.47300475
   0.91671131  0.41655372  0.47245606
   0.74434554  0.24965302  0.55881047
   0.83333333  0.58333333  0.38179910
   0.08333333  0.33333333  0.38179910
   0.91717879  0.16546429  0.47375748
   0.66556705  0.91968936  0.47203162
   0.33333333  0.58333333  0.38179910
   0.58333333  0.58333333  0.38179910
   0.41855670  0.66460533  0.47233808
Direct configuration=    12
   0.08333333  0.08333333  0.38179910
   0.83333333  0.08333333  0.38179910
   0.83333333  0.83333333  0.38179910
  -0.01016824  0.01258588  0.56524372
   0.75482229  0.49459086  0.56318663
   0.66702843  0.66762712  0.47244374
   0.66366161  0.41525773  0.47182676
  -0.01313178  0.24873514  0.56262348
   0.83333333  0.33333333  0.38179910
   0.08333333  0.58333333  0.38179910
   0.75238414  0.00220168  0.56028985
   0.50988925  0.75067949  0.56869879
  -0.00793442  0.50643356  0.56355695
   0.16542575  0.66536016  0.47419747
   0.41553840  0.92097436  0.47587266
   0.58333333  0.83333333  0.38179910
   0.23429093  0.00552339  0.56413973
   0.74843782  0.75429284  0.56348557
   0.33333333  0.33333333  0.38179910
   0.16848573  0.41317814  0.47560275
   0.26040785  0.25681256  0.56663159
   0.25364267  0.74498398  0.55833600
   0.33333333  0.83333333  0.38179910
   0.08333333  0.83333333  0.38179910
   0.07395502  0.32716364  0.61395961
   0.04851968  0.85542912  0.61633619
   0.08461047  0.58592329  0.61087128
   0.34665880  0.07596575  0.61330698
   0.33894139  0.84167024  0.61494548
   0.35491350  0.54893944  0.61435390
   0.57906012  0.10342249  0.61214482
   0.59458034  0.56459307  0.61671051
   0.50127723  0.25108256  0.55675657
   0.41736587  0.41737875  0.47474312
   0.16589054  0.16903249  0.47361330
   0.58333333  0.33333333  0.38179910
   0.33333333  0.08333333  0.38179910
   0.50892556 -0.00400246  0.56683720
   0.41788827  0.16698839  0.47241736
   0.58333333  0.08333333  0.38179910
   0.16530587  0.91973725  0.47290741
   0.50508335  0.48658514  0.56838464
  -0.00578330  0.75629945  0.56819744
   0.25603947  0.49463688  0.56556340
   0.91704048  0.91627444  0.47458929
   0.66539911  0.16627581  0.46902405
   0.91578696  0.66769191  0.47357028
   0.91627291  0.41668048  0.47318390
   0.74535169  0.24891879  0.56031306
   0.83333333  0.58333333  0.38179910
   0.08333333  0.33333333  0.38179910
   0.91660447  0.16544117  0.47458383
   0.66621589  0.91896493  0.47262620
   0.33333333  0.58333333  0.38179910
   0.58333333  0.58333333  0.38179910
   0.41961357  0.66448985  0.47284190
Direct configuration=    13
   0.08333333  0.08333333  0.38179910
   0.83333333  0.08333333  0.38179910
   0.83333333  0.83333333  0.38179910
  -0.01026793  0.01230899  0.56580669
   0.75428130  0.49506657  0.56352527
   0.66704753  0.66780102  0.47266696
   0.66373197  0.41510228  0.47205754
  -0.01320594  0.24881979  0.56300355
   0.83333333  0.33333333  0.38179910
   0.08333333  0.58333333  0.38179910
   0.75254343  0.00193958  0.56058422
   0.51102513  0.75023895  0.56966037
  -0.00789311  0.50617109  0.56395252
   0.16527350  0.66557205  0.47417249
   0.41540603  0.92089903  0.47634353
   0.58333333  0.83333333  0.38179910
   0.23396695  0.00562579  0.56474999
   0.74912404  0.75397550  0.56430000
   0.33333333  0.33333333  0.38179910
   0.16855636  0.41302195  0.47587807
   0.26018489  0.25724066  0.56771764
   0.25315176  0.74525404  0.55872129
   0.33333333  0.83333333  0.38179910
   0.08333333  0.83333333  0.38179910
   0.07337886  0.32674213  0.61448703
   0.04634841  0.85684120  0.61755334
   0.08477663  0.58608216  0.61153435
   0.34769976  0.07558934  0.61383369
   0.33859687  0.84187899  0.61550737
   0.35557536  0.54650762  0.61552410
   0.57857390  0.10498685  0.61256320
   0.59547837  0.56313414  0.61781560
   0.50118668  0.25095790  0.55672583
   0.41726951  0.41767372  0.47474053
   0.16572365  0.16904231  0.47406013
   0.58333333  0.33333333  0.38179910
   0.33333333  0.08333333  0.38179910
   0.50887901 -0.00356944  0.56762818
   0.41773744  0.16680368  0.47240635
   0.58333333  0.08333333  0.38179910
   0.16529413  0.91985730  0.47307384
   0.50595906  0.48617904  0.56890937
  -0.00550716  0.75642028  0.56892969
   0.25620154  0.49516216  0.56606999
   0.91698855  0.91639577  0.47489805
   0.66556201  0.16612589  0.46901487
   0.91544597  0.66786306  0.47386470
   0.91608166  0.41688582  0.47344184
   0.74464605  0.24946148  0.56087525
   0.83333333  0.58333333  0.38179910
   0.08333333  0.33333333  0.38179910
   0.91650945  0.16537074  0.47489680
   0.66636489  0.91889736  0.47285134
   0.33333333  0.58333333  0.38179910
   0.58333333  0.58333333  0.38179910
   0.41966531  0.66466524  0.47293084
Direct configuration=    14
   0.08333333  0.08333333  0.38179910
   0.83333333  0.08333333  0.38179910
   0.83333333  0.83333333  0.38179910
  -0.01055738  0.01150502  0.56744132
   0.75271048  0.49644783  0.56450854
   0.66710298  0.66830594  0.47331508
   0.66393627  0.41465091  0.47272764
  -0.01342125  0.24906557  0.56410708
   0.83333333  0.33333333  0.38179910
   0.08333333  0.58333333  0.38179910
   0.75300594  0.00117855  0.56143894
   0.51432324  0.74895979  0.57245239
  -0.00777315  0.50540900  0.56510108
   0.16483142  0.66618728  0.47409998
   0.41502169  0.92068031  0.47771073
   0.58333333  0.83333333  0.38179910
   0.23302626  0.00592311  0.56652192
   0.75111653  0.75305407  0.56666477
   0.33333333  0.33333333  0.38179910
   0.16876143  0.41256845  0.47667746
   0.25953751  0.25848368  0.57087108
   0.25172636  0.74603817  0.55984003
   0.33333333  0.83333333  0.38179910
   0.08333333  0.83333333  0.38179910
   0.07170592  0.32551824  0.61601842
   0.04004397  0.86094130  0.62108744
   0.08525911  0.58654345  0.61345962
   0.35072226  0.07449640  0.61536302
   0.33759654  0.84248511  0.61713886
   0.35749711  0.53944667  0.61892188
   0.57716212  0.10952911  0.61377802
   0.59808588  0.55889805  0.62102430
   0.50092375  0.25059596  0.55663657
   0.41698972  0.41853017  0.47473298
   0.16523909  0.16907081  0.47535754
   0.58333333  0.33333333  0.38179910
   0.33333333  0.08333333  0.38179910
   0.50874384 -0.00231215  0.56992485
   0.41729951  0.16626737  0.47237440
   0.58333333  0.08333333  0.38179910
   0.16526005  0.92020585  0.47355709
   0.50850174  0.48499989  0.57043298
  -0.00470539  0.75677110  0.57105585
   0.25667212  0.49668736  0.56754090
   0.91683776  0.91674807  0.47579455