       N       E                     dE             d eps       ncg     rms          rms(c)
DAV:   1     0.320110666930E+04    0.32011E+04   -0.18979E+05  3672   0.112E+03
DAV:   2     0.167490024182E+02   -0.31844E+04   -0.29263E+04  4356   0.263E+02
DAV:   3    -0.199562270903E+03   -0.21631E+03   -0.20110E+03  4152   0.652E+01
DAV:   4    -0.205433559459E+03   -0.58713E+01   -0.58021E+01  4212   0.108E+01
DAV:   5    -0.205618988970E+03   -0.18543E+00   -0.18485E+00  4416   0.197E+00    0.627E+01
RMM:   6    -0.200199712837E+03    0.54193E+01   -0.93079E+01  3678   0.152E+01    0.559E+01
RMM:   7    -0.210146821497E+03   -0.99471E+01   -0.53839E+01  3683   0.120E+01    0.461E+01
RMM:   8    -0.227333988668E+03   -0.17187E+02   -0.98400E+01  3678   0.148E+01    0.479E+01
RMM:   9    -0.215727964738E+03    0.11606E+02   -0.61984E+01  3679   0.116E+01    0.403E+01
RMM:  10    -0.199977301759E+03    0.15751E+02   -0.20072E+01  3680   0.754E+00    0.246E+01
RMM:  11    -0.192793170922E+03    0.71841E+01   -0.14322E+01  3681   0.603E+00    0.154E+01
RMM:  12    -0.189175727231E+03    0.36174E+01   -0.74153E+00  3680   0.420E+00    0.108E+01
RMM:  13    -0.188459289640E+03    0.71644E+00   -0.22331E+00  3680   0.232E+00    0.769E+00
RMM:  14    -0.188440634000E+03    0.18656E-01   -0.10948E+00  3680   0.165E+00    0.644E+00
RMM:  15    -0.188362668427E+03    0.77966E-01   -0.39090E-01  3679   0.955E-01    0.603E+00
RMM:  16    -0.188295337120E+03    0.67331E-01   -0.28827E-01  3680   0.830E-01    0.569E+00
RMM:  17    -0.188113735523E+03    0.18160E+00   -0.20283E-01  3680   0.695E-01    0.414E+00
RMM:  18    -0.187986701197E+03    0.12703E+00   -0.15423E-01  3679   0.599E-01    0.249E+00
RMM:  19    -0.187907859625E+03    0.78842E-01   -0.83504E-02  3680   0.425E-01    0.120E+00
RMM:  20    -0.187893069132E+03    0.14790E-01   -0.17697E-02  3682   0.192E-01    0.772E-01
RMM:  21    -0.187889870292E+03    0.31988E-02   -0.49056E-03  3684   0.103E-01    0.604E-01
RMM:  22    -0.187887426207E+03    0.24441E-02   -0.25930E-03  3681   0.753E-02    0.469E-01
RMM:  23    -0.187884784260E+03    0.26419E-02   -0.26812E-03  3679   0.737E-02    0.260E-01
RMM:  24    -0.187884305144E+03    0.47912E-03   -0.16146E-03  3680   0.569E-02    0.196E-01
RMM:  25    -0.187883995551E+03    0.30959E-03   -0.62060E-04  3682   0.360E-02    0.662E-02
RMM:  26    -0.187884296958E+03   -0.30141E-03   -0.22872E-04  3679   0.204E-02    0.651E-02
RMM:  27    -0.187884704561E+03   -0.40760E-03   -0.11294E-04  3683   0.160E-02    0.584E-02
RMM:  28    -0.187885186948E+03   -0.48239E-03   -0.56968E-05  3672   0.102E-02    0.390E-02
RMM:  29    -0.187885579246E+03   -0.39230E-03   -0.30805E-05  3665   0.802E-03    0.240E-02
RMM:  30    -0.187886299295E+03   -0.72005E-03   -0.39600E-05  3671   0.863E-03    0.189E-02
RMM:  31    -0.187886876778E+03   -0.57748E-03   -0.33280E-05  3640   0.783E-03    0.169E-02
RMM:  32    -0.187887350835E+03   -0.47406E-03   -0.34789E-05  3490   0.754E-03    0.114E-02
RMM:  33    -0.187887516503E+03   -0.16567E-03   -0.10031E-05  2833   0.374E-03    0.564E-03
RMM:  34    -0.187887587453E+03   -0.70949E-04   -0.26276E-06  2425   0.208E-03    0.315E-03
RMM:  35    -0.187887664022E+03   -0.76570E-04   -0.14637E-06  2231   0.166E-03    0.244E-03
RMM:  36    -0.187887699308E+03   -0.35286E-04   -0.64999E-07  2140   0.111E-03    0.203E-03
RMM:  37    -0.187887739035E+03   -0.39727E-04   -0.69568E-07  2159   0.120E-03    0.127E-03
RMM:  38    -0.187887753587E+03   -0.14552E-04   -0.35800E-07  2069   0.837E-04    0.124E-03
RMM:  39    -0.187887760912E+03   -0.73244E-05   -0.22614E-07  1600   0.644E-04    0.604E-04
RMM:  40    -0.187887763182E+03   -0.22703E-05   -0.86723E-08  1239   0.457E-04    0.505E-04
RMM:  41    -0.187887764055E+03   -0.87346E-06   -0.29310E-08   839   0.387E-04
   1 F= -.18788776E+03 E0= -.18776394E+03  d E =-.187888E+03
       N       E                     dE             d eps       ncg     rms          rms(c)
DAV:   1    -0.189050595492E+03   -0.11628E+01   -0.40157E+02  3672   0.308E+01    0.404E+00
RMM:   2    -0.189457999628E+03   -0.40740E+00   -0.42252E+00  3679   0.444E+00    0.234E+00
RMM:   3    -0.189515895488E+03   -0.57896E-01   -0.32750E-01  3700   0.101E+00    0.309E+00
RMM:   4    -0.189453153340E+03    0.62742E-01   -0.15188E-01  3687   0.650E-01    0.170E+00
RMM:   5    -0.189513257276E+03   -0.60104E-01   -0.86364E-02  3686   0.459E-01    0.270E+00
RMM:   6    -0.189444582388E+03    0.68675E-01   -0.52127E-02  3682   0.350E-01    0.114E+00
RMM:   7    -0.189432748263E+03    0.11834E-01   -0.16270E-02  3681   0.198E-01    0.566E-01
RMM:   8    -0.189430029388E+03    0.27189E-02   -0.54775E-03  3685   0.116E-01    0.351E-01
RMM:   9    -0.189428876499E+03    0.11529E-02   -0.20650E-03  3684   0.717E-02    0.162E-01
RMM:  10    -0.189428764167E+03    0.11233E-03   -0.73620E-04  3687   0.424E-02    0.117E-01
RMM:  11    -0.189428632733E+03    0.13143E-03   -0.24113E-04  3686   0.245E-02    0.551E-02
RMM:  12    -0.189428627260E+03    0.54727E-05   -0.50611E-05  3684   0.115E-02    0.387E-02
RMM:  13    -0.189428617330E+03    0.99305E-05   -0.27058E-05  3675   0.859E-03    0.192E-02
RMM:  14    -0.189428616456E+03    0.87416E-06   -0.90697E-06  3374   0.481E-03
   2 F= -.18942862E+03 E0= -.18930718E+03  d E =-.154085E+01
       N       E                     dE             d eps       ncg     rms          rms(c)
DAV:   1    -0.187846597467E+03    0.15820E+01   -0.37806E+03  3672   0.970E+01    0.952E+00
RMM:   2    -0.191447831946E+03   -0.36012E+01   -0.37406E+01  3680   0.133E+01    0.544E+00
RMM:   3    -0.191727914092E+03   -0.28008E+00   -0.20910E+00  3703   0.254E+00    0.750E+00
RMM:   4    -0.191500869956E+03    0.22704E+00   -0.67538E-01  3685   0.134E+00    0.552E+00
RMM:   5    -0.191644277771E+03   -0.14341E+00   -0.59141E-01  3686   0.116E+00    0.679E+00
RMM:   6    -0.191321403035E+03    0.32287E+00   -0.53643E-01  3681   0.116E+00    0.323E+00
RMM:   7    -0.191213560426E+03    0.10784E+00   -0.18814E-01  3681   0.689E-01    0.151E+00
RMM:   8    -0.191189941118E+03    0.23619E-01   -0.53128E-02  3684   0.365E-01    0.940E-01
RMM:   9    -0.191180591914E+03    0.93492E-02   -0.17735E-02  3686   0.210E-01    0.437E-01
RMM:  10    -0.191179583958E+03    0.10080E-02   -0.55126E-03  3685   0.115E-01    0.336E-01
RMM:  11    -0.191178983053E+03    0.60091E-03   -0.24876E-03  3683   0.782E-02    0.230E-01
RMM:  12    -0.191178750259E+03    0.23279E-03   -0.98664E-04  3681   0.502E-02    0.160E-01
RMM:  13    -0.191178545771E+03    0.20449E-03   -0.45107E-04  3681   0.344E-02    0.675E-02
RMM:  14    -0.191178529421E+03    0.16351E-04   -0.10812E-04  3681   0.168E-02    0.403E-02
RMM:  15    -0.191178523138E+03    0.62828E-05   -0.35325E-05  3674   0.955E-03    0.211E-02
RMM:  16    -0.191178528349E+03   -0.52115E-05   -0.90984E-06  3466   0.486E-03    0.128E-02
RMM:  17    -0.191178532038E+03   -0.36892E-05   -0.34195E-06  2675   0.303E-03    0.735E-03
RMM:  18    -0.191178539106E+03   -0.70679E-05   -0.90290E-07  2095   0.171E-03    0.370E-03
RMM:  19    -0.191178543117E+03   -0.40104E-05   -0.40485E-07  2038   0.110E-03    0.202E-03
RMM:  20    -0.191178548047E+03   -0.49300E-05   -0.15591E-07  1561   0.648E-04    0.980E-04
RMM:  21    -0.191178553325E+03   -0.52781E-05   -0.14653E-07  1628   0.555E-04    0.118E-03
RMM:  22    -0.191178559515E+03   -0.61897E-05   -0.21591E-07  1654   0.563E-04    0.796E-04
RMM:  23    -0.191178565102E+03   -0.55872E-05   -0.24874E-07  1523   0.581E-04    0.735E-04
RMM:  24    -0.191178567165E+03   -0.20627E-05   -0.14218E-07  1425   0.478E-04    0.648E-04
RMM:  25    -0.191178568943E+03   -0.17787E-05   -0.13232E-07  1249   0.434E-04    0.322E-04
RMM:  26    -0.191178569509E+03   -0.56589E-06   -0.32803E-08   649   0.352E-04
   3 F= -.19117857E+03 E0= -.19106730E+03  d E =-.329081E+01
       N       E                     dE             d eps       ncg     rms          rms(c)
DAV:   1    -0.191341029774E+03   -0.16246E+00   -0.30423E+02  3684   0.270E+01    0.245E+00
RMM:   2    -0.191663871238E+03   -0.32284E+00   -0.34155E+00  3686   0.394E+00    0.146E+00
RMM:   3    -0.191705692438E+03   -0.41821E-01   -0.22009E-01  3703   0.819E-01    0.261E+00
RMM:   4    -0.191651113864E+03    0.54579E-01   -0.56737E-02  3687   0.412E-01    0.888E-01
RMM:   5    -0.191664107841E+03   -0.12994E-01   -0.46506E-02  3684   0.342E-01    0.133E+00
RMM:   6    -0.191660518652E+03    0.35892E-02   -0.28327E-02  3685   0.263E-01    0.118E+00
RMM:   7    -0.191647417016E+03    0.13102E-01   -0.10544E-02  3686   0.154E-01    0.495E-01
RMM:   8    -0.191645104658E+03    0.23124E-02   -0.42745E-03  3681   0.102E-01    0.289E-01
RMM:   9    -0.191644111457E+03    0.99320E-03   -0.16513E-03  3682   0.643E-02    0.122E-01
RMM:  10    -0.191643994576E+03    0.11688E-03   -0.43670E-04  3686   0.326E-02    0.694E-02
RMM:  11    -0.191643944862E+03    0.49714E-04   -0.11873E-04  3687   0.169E-02    0.284E-02
RMM:  12    -0.191643950516E+03   -0.56539E-05   -0.37440E-05  3681   0.972E-03    0.295E-02
RMM:  13    -0.191643945088E+03    0.54286E-05   -0.13910E-05  3675   0.614E-03    0.130E-02
RMM:  14    -0.191643945074E+03    0.13490E-07   -0.28518E-06  2457   0.291E-03
   4 F= -.19164395E+03 E0= -.19153471E+03  d E =-.465376E+00
       N       E                     dE             d eps       ncg     rms          rms(c)
DAV:   1    -0.191626563278E+03    0.17382E-01   -0.64481E+01  3732   0.124E+01    0.103E+00
RMM:   2    -0.191696144491E+03   -0.69581E-01   -0.73457E-01  3686   0.182E+00    0.670E-01
RMM:   3    -0.191705922773E+03   -0.97783E-02   -0.49726E-02  3703   0.389E-01    0.122E+00
RMM:   4    -0.191693696177E+03    0.12227E-01   -0.11518E-02  3686   0.186E-01    0.473E-01
RMM:   5    -0.191700331451E+03   -0.66353E-02   -0.66658E-03  3686   0.123E-01    0.912E-01
RMM:   6    -0.191694092557E+03    0.62389E-02   -0.88670E-03  3684   0.144E-01    0.465E-01
RMM:   7    -0.191692000238E+03    0.20923E-02   -0.37105E-03  3681   0.970E-02    0.170E-01
RMM:   8    -0.191691781498E+03    0.21874E-03   -0.85528E-04  3683   0.463E-02    0.137E-01
RMM:   9    -0.191691549134E+03    0.23236E-03   -0.34685E-04  3683   0.297E-02    0.566E-02
RMM:  10    -0.191691520398E+03    0.28736E-04   -0.10174E-04  3681   0.157E-02    0.312E-02
RMM:  11    -0.191691508871E+03    0.11527E-04   -0.32488E-05  3681   0.864E-03    0.114E-02
RMM:  12    -0.191691511232E+03   -0.23613E-05   -0.10051E-05  3672   0.498E-03    0.118E-02
RMM:  13    -0.191691511284E+03   -0.51434E-07   -0.30147E-06  2475   0.295E-03
   5 F= -.19169151E+03 E0= -.19158299E+03  d E =-.512942E+00
       N       E                     dE             d eps       ncg     rms          rms(c)
DAV:   1    -0.191698502812E+03   -0.69916E-02   -0.46712E+01  3672   0.105E+01    0.841E-01
RMM:   2    -0.191746578915E+03   -0.48076E-01   -0.51092E-01  3686   0.153E+00    0.511E-01
RMM:   3    -0.191747919944E+03   -0.13410E-02   -0.27055E-02  3701   0.295E-01    0.589E-01
RMM:   4    -0.191745576759E+03    0.23432E-02   -0.68733E-03  3684   0.143E-01    0.390E-01
RMM:   5    -0.191746318062E+03   -0.74130E-03   -0.62732E-03  3683   0.126E-01    0.442E-01
RMM:   6    -0.191746034979E+03    0.28308E-03   -0.34056E-03  3683   0.905E-02    0.409E-01
RMM:   7    -0.191744478519E+03    0.15565E-02   -0.12855E-03  3687   0.539E-02    0.183E-01
RMM:   8    -0.191744152236E+03    0.32628E-03   -0.45627E-04  3683   0.350E-02    0.734E-02
RMM:   9    -0.191744097693E+03    0.54542E-04   -0.17857E-04  3681   0.208E-02    0.508E-02
RMM:  10    -0.191744071480E+03    0.26214E-04   -0.67443E-05  3683   0.128E-02    0.301E-02
RMM:  11    -0.191744064007E+03    0.74724E-05   -0.15915E-05  3675   0.626E-03    0.114E-02
RMM:  12    -0.191744064268E+03   -0.26034E-06   -0.62485E-06  3594   0.395E-03
   6 F= -.19174406E+03 E0= -.19163606E+03  d E =-.525530E-01
       N       E                     dE             d eps       ncg     rms          rms(c)
DAV:   1    -0.191744050833E+03    0.13174E-04   -0.51826E-01  3744   0.111E+00    0.858E-02
RMM:   2    -0.191744583027E+03   -0.53219E-03   -0.56846E-03  3685   0.161E-01    0.559E-02
RMM:   3    -0.191744613663E+03   -0.30637E-04   -0.33649E-04  3702   0.326E-02    0.765E-02
RMM:   4    -0.191744560407E+03    0.53256E-04   -0.76342E-05  3685   0.152E-02    0.360E-02
RMM:   5    -0.191744578236E+03   -0.17829E-04   -0.70949E-05  3684   0.134E-02    0.500E-02
RMM:   6    -0.191744572889E+03    0.53462E-05   -0.46842E-05  3682   0.107E-02    0.462E-02
RMM:   7    -0.191744554450E+03    0.18439E-04   -0.16329E-05  3655   0.614E-03    0.215E-02
RMM:   8    -0.191744550847E+03    0.36035E-05   -0.55080E-06  3014   0.387E-03    0.957E-03
RMM:   9    -0.191744550086E+03    0.76101E-06   -0.22940E-06  2203   0.253E-03
   7 F= -.19174455E+03 E0= -.19163663E+03  d E =-.530388E-01
       N       E                     dE             d eps       ncg     rms          rms(c)
DAV:   1    -0.191749485587E+03   -0.49347E-02   -0.96691E+00  3672   0.476E+00    0.308E-01
RMM:   2    -0.191759490740E+03   -0.10005E-01   -0.10536E-01  3684   0.697E-01    0.250E-01
RMM:   3    -0.191759853137E+03   -0.36240E-03   -0.61414E-03  3725   0.141E-01    0.275E-01
RMM:   4    -0.191759534343E+03    0.31879E-03   -0.12348E-03  3683   0.590E-02    0.238E-01
RMM:   5    -0.191759886198E+03   -0.35185E-03   -0.96154E-04  3686   0.464E-02    0.311E-01
RMM:   6    -0.191759096083E+03    0.79011E-03   -0.11711E-03  3681   0.532E-02    0.166E-01
RMM:   7    -0.191758943967E+03    0.15212E-03   -0.75873E-04  3686   0.438E-02    0.746E-02
RMM:   8    -0.191758895560E+03    0.48407E-04   -0.12883E-04  3682   0.184E-02    0.390E-02
RMM:   9    -0.191758871828E+03    0.23731E-04   -0.49029E-05  3682   0.110E-02    0.296E-02
RMM:  10    -0.191758858111E+03    0.13718E-04   -0.29256E-05  3676   0.826E-03    0.157E-02
RMM:  11    -0.191758855561E+03    0.25496E-05   -0.94293E-06  3670   0.467E-03    0.859E-03
RMM:  12    -0.191758854926E+03    0.63543E-06   -0.46716E-06  3004   0.331E-03
   8 F= -.19175885E+03 E0= -.19165099E+03  d E =-.143048E-01
       N       E                     dE             d eps       ncg     rms          rms(c)
DAV:   1    -0.191757365114E+03    0.14904E-02   -0.47393E+00  3672   0.333E+00    0.212E-01
RMM:   2    -0.191762259276E+03   -0.48942E-02   -0.51617E-02  3684   0.488E-01    0.173E-01
RMM:   3    -0.191762422715E+03   -0.16344E-03   -0.29831E-03  3729   0.986E-02    0.189E-01
RMM:   4    -0.191762297106E+03    0.12561E-03   -0.58097E-04  3683   0.404E-02    0.171E-01
RMM:   5    -0.191762385551E+03   -0.88445E-04   -0.44567E-04  3686   0.317E-02    0.204E-01
RMM:   6    -0.191762063111E+03    0.32244E-03   -0.57926E-04  3681   0.375E-02    0.116E-01
RMM:   7    -0.191761992077E+03    0.71034E-04   -0.37451E-04  3686   0.308E-02    0.536E-02
RMM:   8    -0.191761968003E+03    0.24074E-04   -0.64258E-05  3682   0.130E-02    0.279E-02
RMM:   9    -0.191761956730E+03    0.11274E-04   -0.23919E-05  3679   0.767E-03    0.229E-02
RMM:  10    -0.191761949191E+03    0.75391E-05   -0.14532E-05  3672   0.585E-03    0.114E-02
RMM:  11    -0.191761947733E+03    0.14578E-05   -0.50747E-06  3163   0.347E-03    0.588E-03
RMM:  12    -0.191761947424E+03    0.30870E-06   -0.26520E-06  2028   0.268E-03
   9 F= -.19176195E+03 E0= -.19165413E+03  d E =-.173973E-01
       N       E                     dE             d eps       ncg     rms          rms(c)
DAV:   1    -0.191763042062E+03   -0.10943E-02   -0.10457E+01  3672   0.494E+00    0.279E-01
RMM:   2    -0.191774026495E+03   -0.10984E-01   -0.11263E-01  3683   0.726E-01    0.288E-01
RMM:   3    -0.191773990076E+03    0.36419E-04   -0.68143E-03  3810   0.149E-01    0.236E-01
RMM:   4    -0.191773807589E+03    0.18249E-03   -0.94187E-04  3678   0.519E-02    0.237E-01
RMM:   5    -0.191774083628E+03   -0.27604E-03   -0.78307E-04  3687   0.420E-02    0.302E-01
RMM:   6    -0.191773395421E+03    0.68821E-03   -0.14430E-03  3682   0.585E-02    0.197E-01
RMM:   7    -0.191773231913E+03    0.16351E-03   -0.10854E-03  3684   0.517E-02    0.111E-01
RMM:   8    -0.191773154444E+03    0.77469E-04   -0.22050E-04  3683   0.240E-02    0.524E-02
RMM:   9    -0.191773121355E+03    0.33089E-04   -0.43696E-05  3683   0.106E-02    0.403E-02
RMM:  10    -0.191773091358E+03    0.29998E-04   -0.55888E-05  3682   0.113E-02    0.206E-02
RMM:  11    -0.191773086184E+03    0.51733E-05   -0.24765E-05  3674   0.742E-03    0.121E-02
RMM:  12    -0.191773084965E+03    0.12194E-05   -0.11726E-05  3672   0.509E-03    0.540E-03
RMM:  13    -0.191773085039E+03   -0.73560E-07   -0.14452E-06  2023   0.208E-03
  10 F= -.19177309E+03 E0= -.19166484E+03  d E =-.111376E-01
       N       E                     dE             d eps       ncg     rms          rms(c)
DAV:   1    -0.191756028981E+03    0.17056E-01   -0.24329E+01  3672   0.753E+00    0.419E-01
RMM:   2    -0.191781624829E+03   -0.25596E-01   -0.26149E-01  3683   0.111E+00    0.435E-01
RMM:   3    -0.191781516581E+03    0.10825E-03   -0.15736E-02  3801   0.227E-01    0.353E-01
RMM:   4    -0.191781060046E+03    0.45654E-03   -0.21188E-03  3678   0.781E-02    0.353E-01
RMM:   5    -0.191781700522E+03   -0.64048E-03   -0.17358E-03  3687   0.626E-02    0.456E-01
RMM:   6    -0.191780068846E+03    0.16317E-02   -0.33782E-03  3682   0.895E-02    0.293E-01
RMM:   7    -0.191779717882E+03    0.35096E-03   -0.24779E-03  3684   0.781E-02    0.171E-01
RMM:   8    -0.191779531458E+03    0.18642E-03   -0.50624E-04  3683   0.363E-02    0.812E-02
RMM:   9    -0.191779453536E+03    0.77922E-04   -0.10178E-04  3686   0.161E-02    0.620E-02
RMM:  10    -0.191779381956E+03    0.71580E-04   -0.13414E-04  3681   0.175E-02    0.311E-02
RMM:  11    -0.191779369355E+03    0.12601E-04   -0.60528E-05  3680   0.116E-02    0.169E-02
RMM:  12    -0.191779366716E+03    0.26388E-05   -0.28103E-05  3683   0.784E-03    0.559E-03
RMM:  13    -0.191779367189E+03   -0.47244E-06   -0.25095E-06  2173   0.278E-03
  11 F= -.19177937E+03 E0= -.19167041E+03  d E =-.174198E-01
       N       E                     dE             d eps       ncg     rms          rms(c)
DAV:   1    -0.191771768211E+03    0.75985E-02   -0.15268E+01  3672   0.601E+00    0.306E-01
RMM:   2    -0.191788292959E+03   -0.16525E-01   -0.16767E-01  3682   0.885E-01    0.356E-01
RMM:   3    -0.191788673628E+03   -0.38067E-03   -0.10607E-02  3751   0.183E-01    0.371E-01
RMM:   4    -0.191787837744E+03    0.83588E-03   -0.13532E-03  3679   0.613E-02    0.282E-01
RMM:   5    -0.191787216954E+03    0.62079E-03   -0.50182E-04  3686   0.364E-02    0.199E-01
RMM:   6    -0.191787021131E+03    0.19582E-03   -0.16297E-03  3681   0.623E-02    0.211E-01
RMM:   7    -0.191786809627E+03    0.21150E-03   -0.17590E-03  3685   0.649E-02    0.129E-01
RMM:   8    -0.191786741832E+03    0.67795E-04   -0.40814E-04  3685   0.321E-02    0.621E-02
RMM:   9    -0.191786707697E+03    0.34134E-04   -0.50607E-05  3687   0.116E-02    0.509E-02
RMM:  10    -0.191786666172E+03    0.41526E-04   -0.60260E-05  3678   0.119E-02    0.280E-02
RMM:  11    -0.191786655437E+03    0.10735E-04   -0.43015E-05  3683   0.979E-03    0.159E-02
RMM:  12    -0.191786653170E+03    0.22673E-05   -0.26327E-05  3679   0.759E-03    0.590E-03
RMM:  13    -0.191786653586E+03   -0.41592E-06   -0.21291E-06  2126   0.254E-03
  12 F= -.19178665E+03 E0= -.19167715E+03  d E =-.728640E-02
       N       E                     dE             d eps       ncg     rms          rms(c)
DAV:   1    -0.191785448386E+03    0.12048E-02   -0.18120E+00  3708   0.207E+00    0.105E-01
RMM:   2    -0.191787389327E+03   -0.19409E-02   -0.19883E-02  3682   0.305E-01    0.123E-01
RMM:   3    -0.191787415862E+03   -0.26535E-04   -0.12539E-03  3755   0.631E-02    0.124E-01
RMM:   4    -0.191787325442E+03    0.90420E-04   -0.15513E-04  3679   0.208E-02    0.969E-02
RMM:   5    -0.191787258112E+03    0.67330E-04   -0.56753E-05  3683   0.122E-02    0.690E-02
RMM:   6    -0.191787242042E+03    0.16070E-04   -0.19838E-04  3681   0.217E-02    0.719E-02
RMM:   7    -0.191787225412E+03    0.16630E-04   -0.21047E-04  3685   0.224E-02    0.465E-02
RMM:   8    -0.191787217355E+03    0.80570E-05   -0.50158E-05  3683   0.113E-02    0.218E-02
RMM:   9    -0.191787213458E+03    0.38966E-05   -0.58822E-06  2952   0.400E-03    0.180E-02
RMM:  10    -0.191787208330E+03    0.51281E-05   -0.74411E-06  3668   0.426E-03    0.100E-02
RMM:  11    -0.191787207014E+03    0.13156E-05   -0.49962E-06  3154   0.341E-03    0.594E-03
RMM:  12    -0.191787206739E+03    0.27585E-06   -0.31936E-06  2066   0.295E-03
  13 F= -.19178721E+03 E0= -.19167751E+03  d E =-.783955E-02
       N       E                     dE             d eps       ncg     rms          rms(c)
DAV:   1    -0.191780630402E+03    0.65766E-02   -0.10216E+01  3672   0.495E+00    0.264E-01
RMM:   2    -0.191792170815E+03   -0.11540E-01   -0.11457E-01  3682   0.726E-01    0.338E-01
RMM:   3    -0.191792568399E+03   -0.39758E-03   -0.76376E-03  3719   0.151E-01    0.365E-01
RMM:   4    -0.191791598118E+03    0.97028E-03   -0.11795E-03  3683   0.561E-02    0.247E-01
RMM:   5    -0.191791056807E+03    0.54131E-03   -0.32678E-04  3686   0.301E-02    0.144E-01
RMM:   6    -0.191791079554E+03   -0.22746E-04   -0.77950E-04  3679   0.434E-02    0.182E-01
RMM:   7    -0.191790823813E+03    0.25574E-03   -0.13836E-03  3683   0.574E-02    0.710E-02
RMM:   8    -0.191790826197E+03   -0.23847E-05   -0.20229E-04  3680   0.226E-02    0.476E-02
RMM:   9    -0.191790802709E+03    0.23489E-04   -0.31889E-05  3683   0.928E-03    0.349E-02
RMM:  10    -0.191790785000E+03    0.17708E-04   -0.27302E-05  3681   0.804E-03    0.217E-02
RMM:  11    -0.191790779384E+03    0.56165E-05   -0.15342E-05  3672   0.591E-03    0.131E-02
RMM:  12    -0.191790778058E+03    0.13259E-05   -0.14961E-05  3679   0.574E-03    0.749E-03
RMM:  13    -0.191790777906E+03    0.15192E-06   -0.26335E-06  2204   0.268E-03
  14 F= -.19179078E+03 E0= -.19168073E+03  d E =-.357117E-02
       N       E                     dE             d eps       ncg     rms          rms(c)
DAV:   1    -0.191790756212E+03    0.21846E-04   -0.29427E-02  3768   0.266E-01    0.149E-02
RMM:   2    -0.191790789415E+03   -0.33203E-04   -0.33643E-04  3684   0.391E-02    0.173E-02
RMM:   3    -0.191790791727E+03   -0.23124E-05   -0.23209E-05  3713   0.830E-03    0.221E-02
RMM:   4    -0.191790787879E+03    0.38482E-05   -0.37881E-06  2630   0.329E-03    0.134E-02
RMM:   5    -0.191790786570E+03    0.13086E-05   -0.11643E-06  1991   0.203E-03    0.718E-03
RMM:   6    -0.191790787210E+03   -0.64031E-06   -0.20661E-06  2078   0.244E-03
  15 F= -.19179079E+03 E0= -.19168072E+03  d E =-.358047E-02
       N       E                     dE             d eps       ncg     rms          rms(c)
DAV:   1    -0.191788772464E+03    0.20141E-02   -0.50759E+00  3672   0.348E+00    0.176E-01
RMM:   2    -0.191794744890E+03   -0.59724E-02   -0.57960E-02  3680   0.513E-01    0.262E-01
RMM:   3    -0.191794582071E+03    0.16282E-03   -0.39693E-03  3717   0.108E-01    0.217E-01
RMM:   4    -0.191794309046E+03    0.27303E-03   -0.49160E-04  3679   0.367E-02    0.168E-01
RMM:   5    -0.191794071692E+03    0.23735E-03   -0.12690E-04  3687   0.188E-02    0.106E-01
RMM:   6    -0.191794070886E+03    0.80605E-06   -0.27942E-04  3679   0.260E-02    0.128E-01
RMM:   7    -0.191793934748E+03    0.13614E-03   -0.94948E-04  3680   0.470E-02    0.418E-02
RMM:   8    -0.191793951211E+03   -0.16462E-04   -0.10260E-04  3674   0.159E-02    0.382E-02
RMM:   9    -0.191793937834E+03    0.13377E-04   -0.13662E-05  3664   0.616E-03    0.272E-02
RMM:  10    -0.191793929451E+03    0.83828E-05   -0.11368E-05  3668   0.526E-03    0.193E-02
RMM:  11    -0.191793924761E+03    0.46904E-05   -0.12145E-05  3674   0.521E-03    0.989E-03
RMM:  12    -0.191793924270E+03    0.49031E-06   -0.89241E-06  3650   0.444E-03
  16 F= -.19179392E+03 E0= -.19168362E+03  d E =-.313706E-02
       N       E                     dE             d eps       ncg     rms          rms(c)
DAV:   1    -0.191791401244E+03    0.25235E-02   -0.37946E+00  3672   0.301E+00    0.152E-01
RMM:   2    -0.191795843106E+03   -0.44419E-02   -0.43254E-02  3681   0.443E-01    0.224E-01
RMM:   3    -0.191795714777E+03    0.12833E-03   -0.29492E-03  3719   0.935E-02    0.185E-01
RMM:   4    -0.191795522129E+03    0.19265E-03   -0.36118E-04  3679   0.315E-02    0.145E-01
RMM:   5    -0.191795346631E+03    0.17550E-03   -0.93018E-05  3685   0.161E-02    0.919E-02
RMM:   6    -0.191795354326E+03   -0.76946E-05   -0.22502E-04  3679   0.233E-02    0.114E-01
RMM:   7    -0.191795252440E+03    0.10189E-03   -0.70976E-04  3680   0.406E-02    0.362E-02
RMM:   8    -0.191795265194E+03   -0.12754E-04   -0.73722E-05  3674   0.135E-02    0.334E-02
RMM:   9    -0.191795254941E+03    0.10252E-04   -0.10263E-05  3592   0.534E-03    0.236E-02
RMM:  10    -0.191795248619E+03    0.63226E-05   -0.86253E-06  3615   0.458E-03    0.168E-02
RMM:  11    -0.191795245097E+03    0.35221E-05   -0.92401E-06  3667   0.455E-03    0.853E-03
RMM:  12    -0.191795244772E+03    0.32446E-06   -0.67635E-06  3416   0.389E-03
  17 F= -.19179524E+03 E0= -.19168468E+03  d E =-.445756E-02
       N       E                     dE             d eps       ncg     rms          rms(c)
DAV:   1    -0.191793466998E+03    0.17781E-02   -0.46350E+00  3672   0.332E+00    0.165E-01
RMM:   2    -0.191798854181E+03   -0.53872E-02   -0.52763E-02  3680   0.490E-01    0.238E-01
RMM:   3    -0.191798594247E+03    0.25993E-03   -0.35140E-03  3724   0.103E-01    0.161E-01
RMM:   4    -0.191798500302E+03    0.93945E-04   -0.35683E-04  3679   0.323E-02    0.152E-01
RMM:   5    -0.191798355377E+03    0.14492E-03   -0.12387E-04  3685   0.179E-02    0.119E-01
RMM:   6    -0.191798350231E+03    0.51461E-05   -0.33958E-04  3678   0.284E-02    0.138E-01
RMM:   7    -0.191798199310E+03    0.15092E-03   -0.89081E-04  3680   0.456E-02    0.420E-02
RMM:   8    -0.191798215294E+03   -0.15985E-04   -0.84766E-05  3674   0.146E-02    0.413E-02
RMM:   9    -0.191798201080E+03    0.14214E-04   -0.12203E-05  3646   0.581E-03    0.289E-02
RMM:  10    -0.191798191743E+03    0.93367E-05   -0.10731E-05  3668   0.509E-03    0.217E-02
RMM:  11    -0.191798183580E+03    0.81636E-05   -0.25328E-05  3676   0.745E-03    0.810E-03
RMM:  12    -0.191798183417E+03    0.16315E-06   -0.78008E-06  3570   0.415E-03
  18 F= -.19179818E+03 E0= -.19168740E+03  d E =-.293864E-02
       N       E                     dE             d eps       ncg     rms          rms(c)
DAV:   1    -0.191796991297E+03    0.11923E-02   -0.19934E+00  3672   0.218E+00    0.108E-01
RMM:   2    -0.191799295351E+03   -0.23041E-02   -0.22636E-02  3680   0.322E-01    0.156E-01
RMM:   3    -0.191799176794E+03    0.11856E-03   -0.15031E-03  3725   0.675E-02    0.105E-01
RMM:   4    -0.191799137950E+03    0.38844E-04   -0.15062E-04  3679   0.210E-02    0.994E-02
RMM:   5    -0.191799078875E+03    0.59075E-04   -0.52006E-05  3682   0.116E-02    0.783E-02
RMM:   6    -0.191799081009E+03   -0.21339E-05   -0.15158E-04  3677   0.190E-02    0.914E-02
RMM:   7    -0.191799020449E+03    0.60559E-04   -0.39001E-04  3681   0.302E-02    0.280E-02
RMM:   8    -0.191799027734E+03   -0.72848E-05   -0.37174E-05  3673   0.966E-03    0.273E-02
RMM:   9    -0.191799021635E+03    0.60988E-05   -0.51673E-06  2929   0.383E-03    0.193E-02
RMM:  10    -0.191799017497E+03    0.41386E-05   -0.45328E-06  2864   0.344E-03    0.146E-02
RMM:  11    -0.191799013774E+03    0.37229E-05   -0.11830E-05  3672   0.523E-03    0.555E-03
RMM:  12    -0.191799013635E+03    0.13837E-06   -0.32390E-06  2330   0.284E-03
  19 F= -.19179901E+03 E0= -.19168808E+03  d E =-.376886E-02
       N       E                     dE             d eps       ncg     rms          rms(c)
DAV:   1    -0.191798781704E+03    0.23207E-03   -0.30227E-01  3708   0.849E-01    0.417E-02
RMM:   2    -0.191799128470E+03   -0.34677E-03   -0.34276E-03  3681   0.125E-01    0.612E-02
RMM:   3    -0.191799107712E+03    0.20758E-04   -0.22634E-04  3725   0.262E-02    0.410E-02
RMM:   4    -0.191799102145E+03    0.55671E-05   -0.22163E-05  3677   0.806E-03    0.384E-02
RMM:   5    -0.191799094190E+03    0.79542E-05   -0.75524E-06  3314   0.446E-03    0.308E-02
RMM:   6    -0.191799096449E+03   -0.22585E-05   -0.23908E-05  3673   0.759E-03    0.362E-02
RMM:   7    -0.191799089165E+03    0.72842E-05   -0.60685E-05  3677   0.119E-02    0.110E-02
RMM:   8    -0.191799090395E+03   -0.12297E-05   -0.54903E-06  2934   0.379E-03    0.107E-02
RMM:   9    -0.191799089505E+03    0.88930E-06   -0.96378E-07  1957   0.184E-03
  20 F= -.19179909E+03 E0= -.19168809E+03  d E =-.384473E-02
       N       E                     dE             d eps       ncg     rms          rms(c)
DAV:   1    -0.191795619785E+03    0.34706E-02   -0.51120E+00  3672   0.349E+00    0.164E-01
RMM:   2    -0.191801587577E+03   -0.59678E-02   -0.58598E-02  3679   0.515E-01    0.244E-01
RMM:   3    -0.191801333092E+03    0.25449E-03   -0.39236E-03  3736   0.109E-01    0.166E-01
RMM:   4    -0.191801227638E+03    0.10545E-03   -0.39233E-04  3678   0.336E-02    0.155E-01
RMM:   5    -0.191801068250E+03    0.15939E-03   -0.11819E-04  3685   0.176E-02    0.119E-01
RMM:   6    -0.191801034840E+03    0.33411E-04   -0.27637E-04  3679   0.257E-02    0.131E-01
RMM:   7    -0.191800887450E+03    0.14739E-03   -0.10005E-03  3680   0.481E-02    0.427E-02
RMM:   8    -0.191800911768E+03   -0.24318E-04   -0.10978E-04  3674   0.164E-02    0.440E-02
RMM:   9    -0.191800898858E+03    0.12910E-04   -0.13378E-05  3662   0.611E-03    0.318E-02
RMM:  10    -0.191800888420E+03    0.10437E-04   -0.11124E-05  3657   0.518E-03    0.242E-02
RMM:  11    -0.191800878566E+03    0.98544E-05   -0.32823E-05  3675   0.848E-03    0.890E-03
RMM:  12    -0.191800878343E+03    0.22343E-06   -0.81674E-06  3535   0.425E-03
  21 F= -.19180088E+03 E0= -.19168967E+03  d E =-.178884E-02
       N       E                     dE             d eps       ncg     rms          rms(c)
DAV:   1    -0.191800188802E+03    0.68976E-03   -0.10155E+00  3672   0.155E+00    0.714E-02
RMM:   2    -0.191801364165E+03   -0.11754E-02   -0.11550E-02  3679   0.230E-01    0.112E-01
RMM:   3    -0.191801297697E+03    0.66468E-04   -0.76792E-04  3742   0.482E-02    0.736E-02
RMM:   4    -0.191801276155E+03    0.21542E-04   -0.72331E-05  3677   0.145E-02    0.677E-02
RMM:   5    -0.191801249680E+03    0.26475E-04   -0.20583E-05  3679   0.744E-03    0.547E-02
RMM:   6    -0.191801245811E+03    0.38692E-05   -0.58809E-05  3682   0.118E-02    0.604E-02
RMM:   7    -0.191801220579E+03    0.25231E-04   -0.22242E-04  3678   0.227E-02    0.202E-02
