unknown system                          
           1
    11.002582    0.000000    0.000000
     5.501291    9.528515    0.000000
     0.000000    0.000000   24.491785
   Au   Pd
  24  24
Direct configuration=     1
   0.25000000  0.75000000  0.59169983
   0.50000000  0.00000000  0.59169983
   0.41666667  0.16666667  0.50000000
   0.41666667  0.91666667  0.50000000
   0.66666667  0.91666667  0.50000000
   0.16666667  0.91666667  0.50000000
   0.25000000  0.50000000  0.59169983
   0.75000000  0.00000000  0.59169983
   0.16666667  0.41666667  0.50000000
   0.33333333  0.33333333  0.40830017
   0.50000000  0.50000000  0.59169983
   0.16666667  0.16666667  0.50000000
   0.25000000  0.00000000  0.59169983
   0.83333333  0.33333333  0.40830017
   0.91666667  0.16666667  0.50000000
   0.83333333  0.83333333  0.40830017
   0.08333333  0.33333333  0.40830017
   0.00000000  0.25000000  0.59169983
   0.33333333  0.08333333  0.40830017
   0.66666667  0.66666667  0.50000000
   0.41666667  0.66666667  0.50000000
   0.75000000  0.25000000  0.59169983
   0.08333333  0.83333333  0.40830017
   0.66666667  0.41666667  0.50000000
   0.66666667  0.16666667  0.50000000
   0.83333333  0.58333333  0.40830017
   0.75000000  0.50000000  0.59169983
   0.58333333  0.83333333  0.40830017
   0.83333333  0.08333333  0.40830017
   0.50000000  0.75000000  0.59169983
   0.08333333  0.08333333  0.40830017
   0.50000000  0.25000000  0.59169983
   0.00000000  0.00000000  0.59169983
   0.91666667  0.41666667  0.50000000
   0.08333333  0.58333333  0.40830017
   0.91666667  0.66666667  0.50000000
   0.00000000  0.50000000  0.59169983
   0.91666667  0.91666667  0.50000000
   0.58333333  0.58333333  0.40830017
   0.00000000  0.75000000  0.59169983
   0.33333333  0.58333333  0.40830017
   0.16666667  0.66666667  0.50000000
   0.33333333  0.83333333  0.40830017
   0.58333333  0.08333333  0.40830017
   0.58333333  0.33333333  0.40830017
   0.41666667  0.41666667  0.50000000
   0.25000000  0.25000000  0.59169983
   0.75000000  0.75000000  0.59169983
Direct configuration=     2
   0.24891274  0.75040760  0.59389915
   0.50003629  0.00001593  0.59424446
   0.41817155  0.16800837  0.50033821
   0.41765199  0.91494567  0.49956117
   0.66828145  0.91612073  0.49962049
   0.16536416  0.91631817  0.49956362
   0.24950413  0.49956713  0.59353317
   0.75104041 -0.00057930  0.59351828
   0.16491166  0.41911744  0.50041951
   0.33443150  0.33433426  0.40613949
   0.50043728  0.49964378  0.59391707
   0.16558297  0.16767994  0.50004929
   0.25002843 -0.00001801  0.59434141
   0.83282840  0.33357392  0.40616083
   0.91632640  0.16519221  0.49958969
   0.83316143  0.83321055  0.40651801
   0.08199220  0.33442083  0.40604733
  -0.00031699  0.25145886  0.59394314
   0.33415863  0.08172882  0.40569823
   0.66850319  0.66572224  0.50000809
   0.41631531  0.66598173  0.49917417
   0.74966997  0.24973220  0.59388095
   0.08377657  0.83305117  0.40647126
   0.66618331  0.41668370  0.49955939
   0.66632136  0.16685343  0.49948926
   0.83316434  0.58368583  0.40735132
   0.75036810  0.50076628  0.59289082
   0.58334231  0.83280256  0.40689406
   0.83262006  0.08368538  0.40736643
   0.50090696  0.74965638  0.59319055
   0.08338033  0.08286466  0.40683344
   0.49967927  0.25019399  0.59274559
  -0.00015712 -0.00062021  0.59292672
   0.91612936  0.41850879  0.50020799
   0.08305813  0.58367982  0.40737469
   0.91743557  0.66627468  0.50032093
  -0.00079999  0.50067922  0.59261314
   0.91693373  0.91605845  0.50022992
   0.58281575  0.58392497  0.40690751
  -0.00056465  0.74996221  0.59234537
   0.33365510  0.58322025  0.40740092
   0.16574518  0.66646987  0.49977626
   0.33369617  0.83290481  0.40691466
   0.58396306  0.08357717  0.40708733
   0.58325516  0.33309738  0.40733854
   0.41713321  0.41635770  0.49964602
   0.24989468  0.25043637  0.59314161
   0.75107094  0.74864207  0.59281049
Direct configuration=     3
   0.24565098  0.75163042  0.60049712
   0.50014514  0.00006373  0.60187835
   0.42268620  0.17203347  0.50135285
   0.42060795  0.90978267  0.49824469
   0.67312581  0.91448291  0.49848197
   0.16145666  0.91527268  0.49825448
   0.24801651  0.49826853  0.59903319
   0.75416163 -0.00231720  0.59897363
   0.15964666  0.42646975  0.50167806
   0.33772601  0.33733704  0.39965745
   0.50174911  0.49857512  0.60056879
   0.16233186  0.17071975  0.50019717
   0.25011372 -0.00007204  0.60226616
   0.83131359  0.33429567  0.39974282
   0.91530561  0.16076882  0.49835875
   0.83264573  0.83284221  0.40117153
   0.07796879  0.33768334  0.39928881
  -0.00126798  0.25583543  0.60067306
   0.33663452  0.07691528  0.39789243
   0.67401276  0.66288898  0.50003234
   0.41526124  0.66392692  0.49669667
   0.74867989  0.24892881  0.60042430
   0.08510626  0.83220466  0.40098454
   0.66473324  0.41673481  0.49823756
   0.66528543  0.16741372  0.49795705
   0.83265737  0.58474332  0.40450476
   0.75147240  0.50306513  0.59646380
   0.58336924  0.83121024  0.40267574
   0.83048024  0.08474153  0.40456521
   0.50362783  0.74862551  0.59766269
   0.08352131  0.08145865  0.40243325
   0.49871709  0.25077595  0.59588287
  -0.00062847 -0.00248086  0.59660737
   0.91451744  0.42403516  0.50083197
   0.08223252  0.58471928  0.40459826
   0.91974230  0.66509872  0.50128372
  -0.00319997  0.50271688  0.59535305
   0.91773494  0.91423380  0.50091967
   0.58126298  0.58569989  0.40272954
  -0.00225859  0.74984885  0.59428200
   0.33462039  0.58288101  0.40470319
   0.16298074  0.66587948  0.49910502
   0.33478469  0.83161926  0.40275813
   0.58585223  0.08430868  0.40344883
   0.58302063  0.33238953  0.40445367
   0.41853284  0.41543081  0.49858408
   0.24957873  0.25174547  0.59746696
   0.75428378  0.74456826  0.59614246
Direct configuration=     4
   0.24705873  0.75066605  0.60157868
   0.50106448 -0.00064462  0.60309498
   0.41930226  0.16986132  0.50096015
   0.41922122  0.91292266  0.49880028
   0.67164271  0.91509484  0.49887297
   0.16435416  0.91443908  0.49875322
   0.24849664  0.49906670  0.60044004
   0.75238169 -0.00230324  0.60014580
   0.16354176  0.42177670  0.50108810
   0.33566154  0.33595456  0.39829861
   0.50097093  0.49996167  0.60173361
   0.16429765  0.17010295  0.50009632
   0.24982211  0.00001198  0.60347899
   0.83099741  0.33445369  0.39836990
   0.91391658  0.16435432  0.49888749
   0.83314747  0.83280127  0.39970047
   0.08038034  0.33632425  0.39804494
  -0.00157214  0.25471390  0.60192494
   0.33591798  0.07939179  0.39667248
   0.67145009  0.66441981  0.50004604
   0.41456108  0.66428738  0.49786664
   0.74960470  0.24933349  0.60152225
   0.08449449  0.83225071  0.39931514
   0.66678992  0.41553830  0.49872978
   0.66763938  0.16661701  0.49871667
   0.83205184  0.58508986  0.40360887
   0.75038225  0.50220095  0.59732442
   0.58409235  0.83081510  0.40166345
   0.83127425  0.08384621  0.40345356
   0.50289250  0.74871953  0.59811116
   0.08359579  0.08218538  0.40142917
   0.49937202  0.25047916  0.59689384
  -0.00002991 -0.00106127  0.59739671
   0.91553641  0.41983219  0.50042479
   0.08250202  0.58424759  0.40364909
   0.91784013  0.66820617  0.50082059
  -0.00274469  0.50268990  0.59678157
   0.91695856  0.91339184  0.50059311
   0.58193205  0.58544864  0.40146500
  -0.00165218  0.74917459  0.59513458
   0.33423830  0.58338485  0.40345245
   0.16432895  0.66673898  0.49942856
   0.33432609  0.83157729  0.40142878
   0.58470603  0.08397911  0.40239475
   0.58399896  0.33294406  0.40315956
   0.41663506  0.41739828  0.49912094
   0.24956216  0.25095922  0.59805316
   0.75305786  0.74635582  0.59707344
Direct configuration=     5
   0.24770768  0.75022150  0.60207726
   0.50148828 -0.00097116  0.60365582
   0.41774231  0.16886000  0.50077913
   0.41858195  0.91437014  0.49905639
   0.67095903  0.91537694  0.49905322
   0.16568987  0.91405481  0.49898313
   0.24871798  0.49943464  0.60108857
   0.75156117 -0.00229681  0.60068615
   0.16533735  0.41961328  0.50081614
   0.33470985  0.33531725  0.39767221
   0.50061220  0.50060085  0.60227057
   0.16520385  0.16981861  0.50004984
   0.24968768  0.00005070  0.60403809
   0.83085165  0.33452653  0.39773700
   0.91327626  0.16600718  0.49913123
   0.83337876  0.83278240  0.39902233
   0.08149203  0.33569774  0.39747153
  -0.00171236  0.25419689  0.60250204
   0.33558767  0.08053341  0.39611011
   0.67026874  0.66512549  0.50005235
   0.41423831  0.66445355  0.49840597
   0.75003102  0.24952003  0.60202839
   0.08421247  0.83227193  0.39854558
   0.66773802  0.41498672  0.49895669
   0.66872451  0.16624975  0.49906684
   0.83177271  0.58524961  0.40319588
   0.74987971  0.50180257  0.59772115
   0.58442569  0.83063295  0.40119679
   0.83164028  0.08343348  0.40294111
   0.50255353  0.74876287  0.59831789
   0.08363012  0.08252039  0.40096631
   0.49967393  0.25034235  0.59735988
   0.00024601 -0.00040687  0.59776058
   0.91600614  0.41789469  0.50023708
   0.08262625  0.58403016  0.40321153
   0.91696326  0.66963866  0.50060709
  -0.00253481  0.50267746  0.59744010
   0.91660066  0.91300371  0.50044257
   0.58224048  0.58533282  0.40088206
  -0.00137264  0.74886377  0.59552761
   0.33406216  0.58361711  0.40287588
   0.16495046  0.66713519  0.49957770
   0.33411469  0.83155794  0.40081597
   0.58417765  0.08382719  0.40190883
   0.58444996  0.33319969  0.40256299
   0.41576022  0.41830524  0.49936842
   0.24955452  0.25059677  0.59832339
   0.75249274  0.74717985  0.59750261
Direct configuration=     6
   0.24801101  0.75050746  0.60256865
   0.50122587 -0.00110705  0.60415844
   0.41868017  0.16784337  0.50050636
   0.41766980  0.91568750  0.49923164
   0.66883010  0.91695955  0.49914543
   0.16516673  0.91574610  0.49915148
   0.24890160  0.49919964  0.60161427
   0.75146805 -0.00190559  0.60114051
   0.16488300  0.42020584  0.50058144
   0.33471062  0.33495760  0.39721672
   0.50060721  0.50054777  0.60270352
   0.16526580  0.16819858  0.49995392
   0.24986425 -0.00001940  0.60450527
   0.83154985  0.33439374  0.39712681
   0.91566867  0.16509893  0.49932937
   0.83313184  0.83300363  0.39830744
   0.08174301  0.33533107  0.39695701
  -0.00136980  0.25364144  0.60296442
   0.33539651  0.08082960  0.39556566
   0.66936335  0.66497904  0.50003398
   0.41555239  0.66444168  0.49890150
   0.74987840  0.24959238  0.60254919
   0.08409868  0.83270740  0.39790163
   0.66661208  0.41600753  0.49918419
   0.66751029  0.16614174  0.49951469
   0.83214013  0.58467715  0.40301732
   0.74957574  0.50167308  0.59785414
   0.58407043  0.83113827  0.40095736
   0.83218422  0.08315172  0.40263661
   0.50187137  0.74925818  0.59830027
   0.08358173  0.08286450  0.40091318
   0.49981076  0.25029392  0.59746092
   0.00029993 -0.00007433  0.59778147
   0.91685523  0.41728846  0.50000087
   0.08288427  0.58358386  0.40298953
   0.91772916  0.66787835  0.50028976
  -0.00221722  0.50226884  0.59763023
   0.91732951  0.91391029  0.50017847
   0.58216662  0.58531160  0.40059715
  -0.00100593  0.74907562  0.59587764
   0.33418857  0.58334664  0.40247664
   0.16490584  0.66696744  0.49975297
   0.33402817  0.83201544  0.40055303
   0.58376729  0.08386740  0.40177918
   0.58395094  0.33343810  0.40230253
   0.41601431  0.41732819  0.49957053
   0.24958329  0.25029979  0.59846822
   0.75186617  0.74744795  0.59779844
Direct configuration=     7
   0.24804297  0.75053759  0.60262043
   0.50119822 -0.00112136  0.60421140
   0.41877898  0.16773626  0.50047762
   0.41757369  0.91582630  0.49925011
   0.66860578  0.91712630  0.49915515
   0.16511162  0.91592430  0.49916921
   0.24892094  0.49917488  0.60166966
   0.75145824 -0.00186437  0.60118839
   0.16483512  0.42026827  0.50055671
   0.33471070  0.33491970  0.39716873
   0.50060668  0.50054218  0.60274914
   0.16527233  0.16802789  0.49994381
   0.24988285 -0.00002678  0.60455450
   0.83162342  0.33437975  0.39706252
   0.91592074  0.16500323  0.49935025
   0.83310582  0.83302694  0.39823211
   0.08176945  0.33529243  0.39690280
  -0.00133371  0.25358291  0.60301314
   0.33537636  0.08086080  0.39550830
   0.66926796  0.66496361  0.50003205
   0.41569084  0.66444043  0.49895371
   0.74986232  0.24960001  0.60260406
   0.08408669  0.83275328  0.39783378
   0.66649345  0.41611508  0.49920816
   0.66738235  0.16613036  0.49956188
   0.83217884  0.58461684  0.40299850
   0.74954372  0.50165944  0.59786815
   0.58403300  0.83119151  0.40093213
   0.83224153  0.08312203  0.40260453
   0.50179949  0.74931037  0.59829841
   0.08357664  0.08290075  0.40090758
   0.49982518  0.25028882  0.59747157
   0.00030561 -0.00003929  0.59778367
   0.91694470  0.41722458  0.49997598
   0.08291145  0.58353684  0.40296614
   0.91780986  0.66769288  0.50025632
  -0.00218375  0.50222579  0.59765026
   0.91740631  0.91400580  0.50015065
   0.58215884  0.58530936  0.40056713
  -0.00096729  0.74909794  0.59591453
   0.33420188  0.58331814  0.40243458
   0.16490114  0.66694976  0.49977144
   0.33401905  0.83206364  0.40052532
   0.58372405  0.08387164  0.40176552
   0.58389836  0.33346322  0.40227509
   0.41604108  0.41722524  0.49959183
   0.24958632  0.25026850  0.59848348
   0.75180015  0.74747620  0.59782961
Direct configuration=     8
   0.24790490  0.75086797  0.60291622
   0.50087416 -0.00096200  0.60461822
   0.41865011  0.16842483  0.50035239
   0.41716649  0.91588916  0.49923591
   0.66902034  0.91668694  0.49918022
   0.16530751  0.91551638  0.49915541
   0.24895718  0.49884517  0.60192063
   0.75187689 -0.00185701  0.60138821
   0.16455538  0.42039306  0.50050851
   0.33508281  0.33497459  0.39694371
   0.50062895  0.50027936  0.60304120
   0.16548815  0.16797570  0.49991912
   0.25000807 -0.00001099  0.60492592
   0.83177920  0.33422239  0.39681178
   0.91568318  0.16512155  0.49936961
   0.83280432  0.83309061  0.39795635
   0.08169727  0.33520876  0.39655333
  -0.00113195  0.25355257  0.60328774
   0.33531558  0.08058731  0.39509686
   0.66965457  0.66498009  0.49997501
   0.41544100  0.66496282  0.49904216
   0.74965849  0.24963480  0.60290545
   0.08436667  0.83279359  0.39755435
   0.66643616  0.41557937  0.49922435
   0.66723815  0.16642782  0.49975279
   0.83239709  0.58432482  0.40299588
   0.74966854  0.50168590  0.59779448
   0.58370590  0.83155977  0.40093647
   0.83219536  0.08344303  0.40264473
   0.50145041  0.74961991  0.59826644
   0.08359534  0.08294425  0.40091180
   0.49963476  0.25025407  0.59743106
   0.00019583 -0.00014863  0.59774313
   0.91714930  0.41739295  0.49983961
   0.08308939  0.58346372  0.40286632
   0.91756811  0.66719691  0.50010406
  -0.00216543  0.50198458  0.59752151
   0.91742770  0.91437395  0.49994137
   0.58196478  0.58534766  0.40052611
  -0.00101336  0.74943897  0.59595364
   0.33433410  0.58322769  0.40248424
   0.16503180  0.66712029  0.49983892
   0.33405456  0.83226221  0.40064187
   0.58382598  0.08396706  0.40176920
   0.58367919  0.33341712  0.40236628
   0.41632464  0.41644365  0.49963408
   0.24968838  0.25017919  0.59835583
   0.75173406  0.74731607  0.59779756
Direct configuration=     9
   0.24780824  0.75109927  0.60312330
   0.50064729 -0.00085044  0.60490303
   0.41855989  0.16890689  0.50026471
   0.41688141  0.91593316  0.49922597
   0.66931056  0.91637935  0.49919778
   0.16544465  0.91523080  0.49914574
   0.24898255  0.49861434  0.60209632
   0.75216998 -0.00185185  0.60152810
   0.16435954  0.42048042  0.50047477
   0.33534331  0.33501302  0.39678617
   0.50064454  0.50009536  0.60324567
   0.16563924  0.16793917  0.49990184
   0.25009573  0.00000006  0.60518595
   0.83188827  0.33411222  0.39663625
   0.91551687  0.16520439  0.49938316
   0.83259324  0.83313519  0.39776329
   0.08164674  0.33515018  0.39630868
  -0.00099071  0.25353133  0.60347998
   0.33527303  0.08039584  0.39480881
   0.66992524  0.66499162  0.49993507
   0.41526609  0.66532854  0.49910408
   0.74951579  0.24965916  0.60311644
   0.08456268  0.83282181  0.39735873
   0.66639605  0.41520433  0.49923569
   0.66713720  0.16663608  0.49988644
   0.83254989  0.58412039  0.40299404
   0.74975593  0.50170443  0.59774290
   0.58347690  0.83181758  0.40093950
   0.83216304  0.08366776  0.40267287
   0.50120602  0.74983662  0.59824406
   0.08360843  0.08297470  0.40091476
   0.49950145  0.25022974  0.59740269
   0.00011898 -0.00022517  0.59771474
   0.91729255  0.41751082  0.49974415
   0.08321396  0.58341253  0.40279644
   0.91739886  0.66684969  0.49999747
  -0.00215260  0.50181571  0.59743137
   0.91744268  0.91463168  0.49979486
   0.58182892  0.58537447  0.40049739
  -0.00104561  0.74967772  0.59598102
   0.33442666  0.58316437  0.40251900
   0.16512327  0.66723968  0.49988617
   0.33407942  0.83240122  0.40072347
   0.58389734  0.08403386  0.40177177
   0.58352575  0.33338485  0.40243012
   0.41652315  0.41589648  0.49966366
   0.24975982  0.25011666  0.59826646
   0.75168779  0.74720397  0.59777512
Direct configuration=    10
   0.24771488  0.75107074  0.60350020
   0.50075396 -0.00070577  0.60539162
   0.41852321  0.16881424  0.50007649
   0.41707518  0.91616240  0.49923517
   0.66978909  0.91618396  0.49927564
   0.16521053  0.91505229  0.49913370
   0.24877165  0.49869323  0.60231367
   0.75224366 -0.00204552  0.60169024
   0.16431422  0.42070127  0.50037339
   0.33545632  0.33500873  0.39647868
   0.50049947  0.50012877  0.60354899
   0.16562940  0.16821435  0.49986321
   0.24987350  0.00022193  0.60565165
   0.83158766  0.33413287  0.39640421
   0.91524361  0.16553561  0.49942991
   0.83258588  0.83313243  0.39753255
   0.08193460  0.33496406  0.39586595
  -0.00094867  0.25342954  0.60376936
   0.33526949  0.08040374  0.39428734
   0.66993592  0.66477933  0.49983713
   0.41543040  0.66484139  0.49919430
   0.74950423  0.24977841  0.60350267
   0.08470796  0.83274008  0.39707318
   0.66638756  0.41517650  0.49922590
   0.66747503  0.16638271  0.50009590
   0.83253651  0.58403101  0.40293017
   0.74979771  0.50165378  0.59755773
   0.58331881  0.83197715  0.40101086
   0.83202891  0.08391678  0.40278280
   0.50109669  0.74985784  0.59818881
   0.08362583  0.08296597  0.40096303
   0.49939780  0.24995083  0.59739834
   0.00012676 -0.00012308  0.59762716
   0.91720581  0.41733604  0.49957790
   0.08337661  0.58352295  0.40272225
   0.91744169  0.66706853  0.49984440
  -0.00216300  0.50179150  0.59720330
   0.91723659  0.91449071  0.49950734
   0.58174644  0.58535237  0.40056795
  -0.00111151  0.74972415  0.59584342
   0.33452563  0.58324977  0.40275354
   0.16517080  0.66711630  0.49997502
   0.33412514  0.83244196  0.40090465
   0.58405645  0.08409141  0.40184709
   0.58360764  0.33332889  0.40259605
   0.41635976  0.41624104  0.49971811
   0.24981879  0.25000262  0.59804569
   0.75170536  0.74721420  0.59768334
Direct configuration=    11
   0.24757251  0.75102723  0.60407498
   0.50091664 -0.00048514  0.60613672
   0.41846727  0.16867295  0.49978943
   0.41737068  0.91651199  0.49924922
   0.67051887  0.91588598  0.49939437
   0.16485349  0.91478005  0.49911534
   0.24845004  0.49881354  0.60264514
   0.75235602 -0.00234088  0.60193751
   0.16424511  0.42103806  0.50021879
   0.33562866  0.33500218  0.39600975
   0.50027824  0.50017973  0.60401156
   0.16561440  0.16863400  0.49980431
   0.24953459  0.00056029  0.60636186
   0.83112924  0.33416437  0.39605035
   0.91482689  0.16604072  0.49950121
   0.83257466  0.83312821  0.39718065
   0.08237360  0.33468022  0.39519078
  -0.00088457  0.25327431  0.60421068
   0.33526410  0.08041578  0.39349207
   0.66995221  0.66445559  0.49968777
   0.41568097  0.66409846  0.49933188
   0.74948661  0.24996028  0.60409167
   0.08492951  0.83261545  0.39663770
   0.66637463  0.41513405  0.49921097
   0.66799022  0.16599632  0.50041534
   0.83251611  0.58389471  0.40283277
   0.74986142  0.50157654  0.59727534
   0.58307770  0.83222049  0.40111968
   0.83182437  0.08429653  0.40295045
   0.50092996  0.74989021  0.59810453
   0.08365237  0.08295267  0.40103664
   0.49923974  0.24952548  0.59739171
   0.00013862  0.00003262  0.59749360
   0.91707355  0.41706951  0.49932437
   0.08362467  0.58369134  0.40260911
   0.91750701  0.66740227  0.49961097
  -0.00217886  0.50175458  0.59685548
   0.91692230  0.91427572  0.49906886
   0.58162067  0.58531866  0.40067554
  -0.00121201  0.74979496  0.59563359
   0.33467657  0.58338001  0.40311122
   0.16524330  0.66692816  0.50011052
   0.33419487  0.83250407  0.40118095
   0.58429909  0.08417918  0.40196196
   0.58373253  0.33324354  0.40284911
   0.41611059  0.41676650  0.49980115
   0.24990872  0.24982870  0.59770901
   0.75173215  0.74722981  0.59754337
Direct configuration=    12
   0.24756400  0.75102188  0.60445456
   0.50095233 -0.00075957  0.60663621
   0.41897297  0.16827172  0.49951689
   0.41745008  0.91648731  0.49944267
   0.66987819  0.91619534  0.49951932
   0.16493829  0.91515780  0.49922467
   0.24827150  0.49893507  0.60280507
   0.75227287 -0.00231783  0.60205893
   0.16445091  0.42097750  0.49993384
   0.33557437  0.33505776  0.39566104
   0.50014067  0.50019024  0.60437920
   0.16536612  0.16838083  0.49967281
   0.24964137  0.00042223  0.60683001
   0.83114454  0.33437263  0.39577054
   0.91545024  0.16575890  0.49964327
   0.83277623  0.83302305  0.39694996
   0.08236758  0.33485649  0.39472008
  -0.00111478  0.25344661  0.60443419
   0.33547891  0.08056946  0.39288997
   0.66958768  0.66466604  0.49957943
   0.41559471  0.66449285  0.49969075
   0.74937834  0.24998283  0.60450005
   0.08472833  0.83274537  0.39635561
   0.66642845  0.41516465  0.49933420
   0.66783048  0.16582034  0.50077565
   0.83255386  0.58390023  0.40266088
   0.74972360  0.50142516  0.59703322
   0.58337034  0.83209941  0.40125373
   0.83201820  0.08397508  0.40305791
   0.50088336  0.75000367  0.59799806
   0.08360072  0.08309131  0.40117607
   0.49937351  0.24955493  0.59735877
   0.00011848  0.00009890  0.59733510
   0.91711747  0.41685334  0.49904112
   0.08373159  0.58364062  0.40249673
   0.91772855  0.66747997  0.49936760
  -0.00234645  0.50189007  0.59649900
   0.91731684  0.91398739  0.49876933
   0.58170240  0.58538310  0.40077472
  -0.00120420  0.74962174  0.59532373
   0.33458498  0.58346541  0.40338129
   0.16509871  0.66693570  0.50024964
   0.33410669  0.83256969  0.40143236
   0.58426941  0.08413240  0.40212146
   0.58372770  0.33325608  0.40308750
   0.41591485  0.41671179  0.50000550
   0.24983996  0.24973845  0.59740068
   0.75164504  0.74726605  0.59739669
Direct configuration=    13
   0.24756107  0.75102004  0.60458531
   0.50096463 -0.00085411  0.60680828
   0.41914718  0.16813350  0.49942300
   0.41747743  0.91647880  0.49950932
   0.66965749  0.91630190  0.49956236
   0.16496750  0.91528793  0.49926233
   0.24821000  0.49897694  0.60286017
   0.75224423 -0.00230989  0.60210076
   0.16452181  0.42095663  0.49983568
   0.33555567  0.33507691  0.39554091
   0.50009328  0.50019385  0.60450585
   0.16528059  0.16829361  0.49962752
   0.24967815  0.00037467  0.60699128
   0.83114981  0.33444438  0.39567414
   0.91566497  0.16566182  0.49969220
   0.83284566  0.83298682  0.39687049
   0.08236551  0.33491722  0.39455794
  -0.00119408  0.25350596  0.60451118
   0.33555291  0.08062240  0.39268255
   0.66946211  0.66473853  0.49954211
   0.41556499  0.66462871  0.49981437
   0.74934105  0.24999060  0.60464073
   0.08465903  0.83279013  0.39625844
   0.66644699  0.41517519  0.49937665
   0.66777546  0.16575972  0.50089977
   0.83256686  0.58390212  0.40260166
   0.74967612  0.50137301  0.59694982
   0.58347115  0.83205771  0.40129991
   0.83208497  0.08386434  0.40309492
   0.50086730  0.75004276  0.59796138
   0.08358293  0.08313907  0.40122410
   0.49941959  0.24956508  0.59734742
   0.00011154  0.00012173  0.59728050
   0.91713261  0.41677888  0.49894355
   0.08376843  0.58362315  0.40245802
   0.91780487  0.66750674  0.49928377
  -0.00240418  0.50193674  0.59637620
   0.91745275  0.91388806  0.49866614
   0.58173056  0.58540531  0.40080889
  -0.00120151  0.74956207  0.59521699
   0.33455344  0.58349483  0.40347432
   0.16504890  0.66693830  0.50029756
   0.33407631  0.83259229  0.40151896
   0.58425919  0.08411629  0.40217640
   0.58372603  0.33326040  0.40316962
   0.41584742  0.41669294  0.50007590
   0.24981627  0.24970736  0.59729446
   0.75161503  0.74727854  0.59734616
Direct configuration=    14
   0.24748513  0.75112277  0.60478904
   0.50080398 -0.00095966  0.60705757
   0.41871684  0.16826602  0.49929276
   0.41690337  0.91681073  0.49973619
   0.66951293  0.91626325  0.49969430
   0.16558168  0.91510559  0.49944273
   0.24823036  0.49884512  0.60286664
   0.75223179 -0.00228017  0.60210813
   0.16485035  0.42013320  0.49949439
   0.33552505  0.33519842  0.39531668
   0.50003587  0.50021766  0.60484136
   0.16573399  0.16811367  0.49947585
   0.24981666  0.00018966  0.60724812
   0.83135577  0.33445086  0.39551818
   0.91542906  0.16554964  0.49982281
   0.83289488  0.83288773  0.39677595
   0.08216651  0.33516866  0.39427104
  -0.00130978  0.25372477  0.60452760
   0.33570917  0.08055348  0.39235692
   0.66980455  0.66481405  0.49946156
   0.41510977  0.66507688  0.50021693
   0.74926335  0.24991384  0.60484539
   0.08466792  0.83287846  0.39619201
   0.66652467  0.41483598  0.49954177
   0.66800222  0.16593694  0.50118644
   0.83267806  0.58408738  0.40241680
   0.74944629  0.50129493  0.59677390
   0.58369887  0.83200140  0.40137146
   0.83216365  0.08372501  0.40320950
   0.50095078  0.74997258  0.59800559
   0.08363208  0.08336811  0.40127758
   0.49934218  0.24977782  0.59735498
   0.00009150 -0.00001193  0.59719952
   0.91722680  0.41694089  0.49864694
   0.08381822  0.58350079  0.40230000
   0.91745640  0.66747801  0.49900022
  -0.00259531  0.50195094  0.59598299
   0.91764998  0.91391188  0.49855025
   0.58174036  0.58547756  0.40091176
  -0.00129111  0.74957509  0.59494596
   0.33439798  0.58357447  0.40372581
   0.16522706  0.66723684  0.50035892
   0.33395803  0.83278767  0.40169112
   0.58430672  0.08398395  0.40227284
   0.58378739  0.33319712  0.40343122
   0.41595095  0.41650175  0.50034810
   0.24977532  0.24962802  0.59695972
   0.75154168  0.74722220  0.59718445
Direct configuration=    15
   0.24748921  0.75111725  0.60477809
   0.50081262 -0.00095399  0.60704417
   0.41873997  0.16825889  0.49929976
   0.41693423  0.91679289  0.49972400
   0.66952070  0.91626533  0.49968721
   0.16554867  0.91511539  0.49943303
   0.24822927  0.49885221  0.60286629
   0.75223246 -0.00228177  0.60210773
   0.16483269  0.42017746  0.49951273
   0.33552670  0.33519189  0.39532873
   0.50003895  0.50021638  0.60482333
   0.16570962  0.16812334  0.49948401
   0.24980922  0.00019961  0.60723432
   0.83134470  0.33445051  0.39552656
   0.91544174  0.16555567  0.49981579
   0.83289223  0.83289305  0.39678103
   0.08217721  0.33515515  0.39428646
  -0.00130356  0.25371301  0.60452672
   0.33570077  0.08055718  0.39237442
   0.66978614  0.66480999  0.49946589
   0.41513424  0.66505279  0.50019529
   0.74926753  0.24991797  0.60483439
   0.08466745  0.83287371  0.39619558
   0.66652049  0.41485421  0.49953290
   0.66799003  0.16592741  0.50117103
   0.83267209  0.58407742  0.40242673
   0.74945865  0.50129912  0.59678335
   0.58368663  0.83200443  0.40136762
   0.83215943  0.08373250  0.40320334
   0.50094629  0.74997635  0.59800321
   0.08362944  0.08335579  0.40127470
   0.49934634  0.24976639  0.59735457
   0.00009258 -0.00000474  0.59720388
   0.91722174  0.41693218  0.49866288
   0.08381554  0.58350736  0.40230850
   0.91747513  0.66747955  0.49901546
  -0.00258503  0.50195018  0.59600412
   0.91763938  0.91391060  0.49855648
   0.58173983  0.58547367  0.40090623
  -0.00128630  0.74957439  0.59496053
   0.33440634  0.58357019  0.40371230
   0.16521749  0.66722080  0.50035562
   0.33396439  0.83277717  0.40168186
   0.58430417  0.08399107  0.40226766
   0.58378409  0.33320053  0.40341716
   0.41594538  0.41651203  0.50033347
   0.24977752  0.24963228  0.59697771
   0.75154563  0.74722523  0.59719314
Direct configuration=    16
   0.24739047  0.75110286  0.60489942
   0.50074771 -0.00081799  0.60706470
   0.41866947  0.16833643  0.49927353
   0.41690113  0.91689880  0.49988153
   0.66954739  0.91647728  0.49977424
   0.16551748  0.91520059  0.49958539
   0.24815437  0.49873074  0.60274199
   0.75214314 -0.00232446  0.60204834
   0.16479749  0.42015935  0.49919889
   0.33564512  0.33521450  0.39521435
   0.49999863  0.50028372  0.60511186
   0.16567009  0.16815130  0.49932827
   0.24965870  0.00026481  0.60733707
   0.83140089  0.33437409  0.39550389
   0.91540435  0.16556165  0.49989063
   0.83285251  0.83293877  0.39678240
   0.08213990  0.33520262  0.39410865
  -0.00122387  0.25367604  0.60437932
   0.33578131  0.08040449  0.39226785
   0.66981467  0.66469799  0.49939723
   0.41545148  0.66468469  0.50048862
   0.74931502  0.24981827  0.60492130
   0.08479966  0.83293534  0.39629873
   0.66635866  0.41502709  0.49966562
   0.66805189  0.16589802  0.50128681
   0.83269839  0.58424374  0.40221944
   0.74929263  0.50131627  0.59669286
   0.58362052  0.83210794  0.40141402
   0.83209745  0.08386854  0.40329075
   0.50109649  0.74977312  0.59815199
   0.08371299  0.08350577  0.40129564
   0.49913264  0.24979106  0.59741178
   0.00009725 -0.00008897  0.59722405
   0.91732465  0.41685294  0.49839594
   0.08383389  0.58352358  0.40217140
   0.91753234  0.66727843  0.49876241
  -0.00266095  0.50188643  0.59561565
   0.91762697  0.91396862  0.49857148
   0.58164736  0.58550604  0.40107531
  -0.00140374  0.74961858  0.59476709
   0.33436323  0.58362414  0.40395712
   0.16530068  0.66711727  0.50033759
   0.33401671  0.83290255  0.40176971
   0.58440002  0.08393898  0.40233920
   0.58390988  0.33313554  0.40365299
   0.41608196  0.41650837  0.50056523
   0.24978320  0.24955553  0.59676647
   0.75150781  0.74716856  0.59710127
Direct configuration=    17
   0.24730510  0.75109041  0.60500432
   0.50069160 -0.00070040  0.60708244
   0.41860851  0.16840347  0.49925084
   0.41687252  0.91699037  0.50001773