  56  56   0   0
  0.4903395E+02  0.1100258E-08  0.1100258E-08  0.2619179E-08  0.3500000E-15
  1.000000000000000E-004
  CAR 
 unknown system                          
      6.45431509    -21.40464728  301     -1.34146388      1.00000000
    -21.405  0.0000E+00  0.0000E+00
    -21.312  0.0000E+00  0.0000E+00
    -21.219  0.0000E+00  0.0000E+00
    -21.126  0.0000E+00  0.0000E+00
    -21.033  0.0000E+00  0.0000E+00
    -20.940  0.0000E+00  0.0000E+00
    -20.847  0.0000E+00  0.0000E+00
    -20.755  0.0000E+00  0.0000E+00
    -20.662  0.2396E-14  0.2225E-15
    -20.569  0.2096E-10  0.1946E-11
    -20.476  0.3404E-07  0.3163E-08
    -20.383  0.1046E-04  0.9749E-06
    -20.290  0.6293E-03  0.5941E-04
    -20.197  0.7852E-02  0.7885E-03
    -20.105  0.2372E-01  0.2991E-02
    -20.012  0.3192E-01  0.5955E-02
    -19.919  0.4098E-01  0.9761E-02
    -19.826  0.4541E-01  0.1398E-01
    -19.733  0.4675E-01  0.1832E-01
    -19.640  0.3423E-01  0.2150E-01
    -19.547  0.3557E-01  0.2480E-01
    -19.455  0.2674E-01  0.2728E-01
    -19.362  0.7208E-02  0.2795E-01
    -19.269  0.4993E-03  0.2800E-01
    -19.176  0.3881E-03  0.2804E-01
    -19.083  0.5900E-02  0.2858E-01
    -18.990  0.1966E-01  0.3041E-01
    -18.897  0.1464E-01  0.3177E-01
    -18.804  0.2411E-02  0.3199E-01
    -18.712  0.8351E-04  0.3200E-01
    -18.619  0.5764E-06  0.3200E-01
    -18.526  0.7623E-09  0.3200E-01
    -18.433  0.1885E-12  0.3200E-01
    -18.340  0.9564E-17  0.3200E-01
    -18.247  0.0000E+00  0.3200E-01
    -18.154  0.0000E+00  0.3200E-01
    -18.062  0.0000E+00  0.3200E-01
    -17.969  0.0000E+00  0.3200E-01
    -17.876  0.0000E+00  0.3200E-01
    -17.783  0.0000E+00  0.3200E-01
    -17.690  0.0000E+00  0.3200E-01
    -17.597  0.0000E+00  0.3200E-01
    -17.504  0.0000E+00  0.3200E-01
    -17.412  0.0000E+00  0.3200E-01
    -17.319  0.0000E+00  0.3200E-01
    -17.226  0.0000E+00  0.3200E-01
    -17.133  0.0000E+00  0.3200E-01
    -17.040  0.0000E+00  0.3200E-01
    -16.947  0.0000E+00  0.3200E-01
    -16.854  0.0000E+00  0.3200E-01
    -16.761  0.0000E+00  0.3200E-01
    -16.669  0.0000E+00  0.3200E-01
    -16.576  0.0000E+00  0.3200E-01
    -16.483  0.0000E+00  0.3200E-01
    -16.390  0.0000E+00  0.3200E-01
    -16.297  0.0000E+00  0.3200E-01
    -16.204  0.0000E+00  0.3200E-01
    -16.111  0.0000E+00  0.3200E-01
    -16.019  0.0000E+00  0.3200E-01
    -15.926  0.0000E+00  0.3200E-01
    -15.833  0.0000E+00  0.3200E-01
    -15.740  0.0000E+00  0.3200E-01
    -15.647  0.0000E+00  0.3200E-01
    -15.554  0.0000E+00  0.3200E-01
    -15.461  0.0000E+00  0.3200E-01
    -15.369  0.0000E+00  0.3200E-01
    -15.276  0.0000E+00  0.3200E-01
    -15.183  0.0000E+00  0.3200E-01
    -15.090  0.0000E+00  0.3200E-01
    -14.997  0.0000E+00  0.3200E-01
    -14.904  0.0000E+00  0.3200E-01
    -14.811  0.0000E+00  0.3200E-01
    -14.718  0.0000E+00  0.3200E-01
    -14.626  0.0000E+00  0.3200E-01
    -14.533  0.0000E+00  0.3200E-01
    -14.440  0.0000E+00  0.3200E-01
    -14.347  0.0000E+00  0.3200E-01
    -14.254  0.0000E+00  0.3200E-01
    -14.161  0.0000E+00  0.3200E-01
    -14.068  0.0000E+00  0.3200E-01
    -13.976  0.0000E+00  0.3200E-01
    -13.883  0.0000E+00  0.3200E-01
    -13.790  0.0000E+00  0.3200E-01
    -13.697  0.0000E+00  0.3200E-01
    -13.604  0.0000E+00  0.3200E-01
    -13.511  0.0000E+00  0.3200E-01
    -13.418  0.0000E+00  0.3200E-01
    -13.326  0.0000E+00  0.3200E-01
    -13.233  0.0000E+00  0.3200E-01
    -13.140  0.0000E+00  0.3200E-01
    -13.047  0.0000E+00  0.3200E-01
    -12.954  0.0000E+00  0.3200E-01
    -12.861  0.0000E+00  0.3200E-01
    -12.768  0.0000E+00  0.3200E-01
    -12.676  0.0000E+00  0.3200E-01
    -12.583  0.0000E+00  0.3200E-01
    -12.490  0.0000E+00  0.3200E-01
    -12.397  0.0000E+00  0.3200E-01
    -12.304  0.0000E+00  0.3200E-01
    -12.211  0.0000E+00  0.3200E-01
    -12.118  0.0000E+00  0.3200E-01
    -12.025  0.0000E+00  0.3200E-01
    -11.933  0.0000E+00  0.3200E-01
    -11.840  0.0000E+00  0.3200E-01
    -11.747  0.0000E+00  0.3200E-01
    -11.654  0.0000E+00  0.3200E-01
    -11.561  0.0000E+00  0.3200E-01
    -11.468  0.0000E+00  0.3200E-01
    -11.375  0.0000E+00  0.3200E-01
    -11.283  0.0000E+00  0.3200E-01
    -11.190  0.0000E+00  0.3200E-01
    -11.097  0.0000E+00  0.3200E-01
    -11.004  0.0000E+00  0.3200E-01
    -10.911  0.0000E+00  0.3200E-01
    -10.818  0.0000E+00  0.3200E-01
    -10.725  0.0000E+00  0.3200E-01
    -10.633  0.0000E+00  0.3200E-01
    -10.540  0.0000E+00  0.3200E-01
    -10.447  0.0000E+00  0.3200E-01
    -10.354  0.0000E+00  0.3200E-01
    -10.261  0.0000E+00  0.3200E-01
    -10.168  0.0000E+00  0.3200E-01
    -10.075  0.0000E+00  0.3200E-01
     -9.982  0.0000E+00  0.3200E-01
     -9.890  0.0000E+00  0.3200E-01
     -9.797  0.0000E+00  0.3200E-01
     -9.704  0.0000E+00  0.3200E-01
     -9.611  0.0000E+00  0.3200E-01
     -9.518  0.2458E-14  0.3200E-01
     -9.425  0.1892E-10  0.3200E-01
     -9.332  0.2712E-07  0.3200E-01
     -9.240  0.7384E-05  0.3200E-01
     -9.147  0.3948E-03  0.3204E-01
     -9.054  0.4368E-02  0.3244E-01
     -8.961  0.1111E-01  0.3347E-01
     -8.868  0.1117E-01  0.3451E-01
     -8.775  0.1111E-01  0.3554E-01
     -8.682  0.4716E-02  0.3598E-01
     -8.590  0.3705E-02  0.3633E-01
     -8.497  0.1153E-01  0.3740E-01
     -8.404  0.1622E-01  0.3890E-01
     -8.311  0.2031E-01  0.4079E-01
     -8.218  0.3013E-01  0.4359E-01
     -8.125  0.3906E-01  0.4722E-01
     -8.032  0.3905E-01  0.5084E-01
     -7.939  0.4203E-01  0.5474E-01
     -7.847  0.4715E-01  0.5912E-01
     -7.754  0.4911E-01  0.6368E-01
     -7.661  0.4601E-01  0.6796E-01
     -7.568  0.4705E-01  0.7232E-01
     -7.475  0.5112E-01  0.7707E-01
     -7.382  0.5885E-01  0.8254E-01
     -7.289  0.7938E-01  0.8991E-01
     -7.197  0.1053E+00  0.9969E-01
     -7.104  0.1211E+00  0.1109E+00
     -7.011  0.1265E+00  0.1227E+00
     -6.918  0.1280E+00  0.1346E+00
     -6.825  0.1274E+00  0.1464E+00
     -6.732  0.1286E+00  0.1583E+00
     -6.639  0.1397E+00  0.1713E+00
     -6.547  0.1540E+00  0.1856E+00
     -6.454  0.1665E+00  0.2011E+00
     -6.361  0.1713E+00  0.2170E+00
     -6.268  0.1686E+00  0.2326E+00
     -6.175  0.1715E+00  0.2486E+00
     -6.082  0.1743E+00  0.2647E+00
     -5.989  0.1708E+00  0.2806E+00
     -5.896  0.1627E+00  0.2957E+00
     -5.804  0.1613E+00  0.3107E+00
     -5.711  0.1608E+00  0.3256E+00
     -5.618  0.1629E+00  0.3408E+00
     -5.525  0.1561E+00  0.3553E+00
     -5.432  0.1553E+00  0.3697E+00
     -5.339  0.1680E+00  0.3853E+00
     -5.246  0.1741E+00  0.4014E+00
     -5.154  0.1737E+00  0.4176E+00
     -5.061  0.1717E+00  0.4335E+00
     -4.968  0.1727E+00  0.4496E+00
     -4.875  0.1840E+00  0.4666E+00
     -4.782  0.1886E+00  0.4842E+00
     -4.689  0.1811E+00  0.5010E+00
     -4.596  0.1760E+00  0.5173E+00
     -4.504  0.1821E+00  0.5342E+00
     -4.411  0.1852E+00  0.5514E+00
     -4.318  0.1833E+00  0.5684E+00
     -4.225  0.1850E+00  0.5856E+00
     -4.132  0.1864E+00  0.6029E+00
     -4.039  0.1756E+00  0.6192E+00
     -3.946  0.1716E+00  0.6352E+00
     -3.854  0.1796E+00  0.6518E+00
     -3.761  0.1779E+00  0.6684E+00
     -3.668  0.1857E+00  0.6856E+00
     -3.575  0.1945E+00  0.7037E+00
     -3.482  0.1873E+00  0.7211E+00
     -3.389  0.1896E+00  0.7387E+00
     -3.296  0.1994E+00  0.7572E+00
     -3.203  0.1925E+00  0.7751E+00
     -3.111  0.1851E+00  0.7922E+00
     -3.018  0.1842E+00  0.8094E+00
     -2.925  0.1855E+00  0.8266E+00
     -2.832  0.1903E+00  0.8442E+00
     -2.739  0.1955E+00  0.8624E+00
     -2.646  0.1978E+00  0.8808E+00
     -2.553  0.1972E+00  0.8991E+00
     -2.461  0.2024E+00  0.9179E+00
     -2.368  0.2063E+00  0.9370E+00
     -2.275  0.2050E+00  0.9561E+00
     -2.182  0.2069E+00  0.9753E+00
     -2.089  0.2084E+00  0.9946E+00
     -1.996  0.1880E+00  0.1012E+01
     -1.903  0.1692E+00  0.1028E+01
     -1.811  0.1617E+00  0.1043E+01
     -1.718  0.1560E+00  0.1057E+01
     -1.625  0.1433E+00  0.1071E+01
     -1.532  0.1309E+00  0.1083E+01
     -1.439  0.1173E+00  0.1094E+01
     -1.346  0.1064E+00  0.1104E+01
     -1.253  0.8237E-01  0.1111E+01
     -1.160  0.5664E-01  0.1116E+01
     -1.068  0.5386E-01  0.1121E+01
     -0.975  0.5663E-01  0.1127E+01
     -0.882  0.5399E-01  0.1132E+01
     -0.789  0.4519E-01  0.1136E+01
     -0.696  0.4155E-01  0.1140E+01
     -0.603  0.4170E-01  0.1144E+01
     -0.510  0.4660E-01  0.1148E+01
     -0.418  0.4944E-01  0.1153E+01
     -0.325  0.4955E-01  0.1157E+01
     -0.232  0.4159E-01  0.1161E+01
     -0.139  0.2653E-01  0.1163E+01
     -0.046  0.1736E-01  0.1165E+01
      0.047  0.1555E-01  0.1167E+01
      0.140  0.1891E-01  0.1168E+01
      0.232  0.2065E-01  0.1170E+01
      0.325  0.2384E-01  0.1172E+01
      0.418  0.2953E-01  0.1175E+01
      0.511  0.3490E-01  0.1178E+01
      0.604  0.3822E-01  0.1182E+01
      0.697  0.3723E-01  0.1185E+01
      0.790  0.3655E-01  0.1189E+01
      0.883  0.3662E-01  0.1192E+01
      0.975  0.3163E-01  0.1195E+01
      1.068  0.2767E-01  0.1198E+01
      1.161  0.2558E-01  0.1200E+01
      1.254  0.2267E-01  0.1202E+01
      1.347  0.2222E-01  0.1204E+01
      1.440  0.2366E-01  0.1206E+01
      1.533  0.2751E-01  0.1209E+01
      1.625  0.3143E-01  0.1212E+01
      1.718  0.2897E-01  0.1215E+01
      1.811  0.3258E-01  0.1218E+01
      1.904  0.3552E-01  0.1221E+01
      1.997  0.3470E-01  0.1224E+01
      2.090  0.3701E-01  0.1228E+01
      2.183  0.3694E-01  0.1231E+01
      2.275  0.3649E-01  0.1234E+01
      2.368  0.3125E-01  0.1237E+01
      2.461  0.2485E-01  0.1240E+01
      2.554  0.2550E-01  0.1242E+01
      2.647  0.2273E-01  0.1244E+01
      2.740  0.1874E-01  0.1246E+01
      2.833  0.2446E-01  0.1248E+01
      2.926  0.2948E-01  0.1251E+01
      3.018  0.2996E-01  0.1254E+01
      3.111  0.2958E-01  0.1256E+01
      3.204  0.2854E-01  0.1259E+01
      3.297  0.3049E-01  0.1262E+01
      3.390  0.2994E-01  0.1265E+01
      3.483  0.3499E-01  0.1268E+01
      3.576  0.3720E-01  0.1271E+01
      3.668  0.3615E-01  0.1275E+01
      3.761  0.3668E-01  0.1278E+01
      3.854  0.3736E-01  0.1282E+01
      3.947  0.3112E-01  0.1284E+01
      4.040  0.3543E-01  0.1288E+01
      4.133  0.4290E-01  0.1292E+01
      4.226  0.4908E-01  0.1296E+01
      4.318  0.4226E-01  0.1300E+01
      4.411  0.3492E-01  0.1303E+01
      4.504  0.3693E-01  0.1307E+01
      4.597  0.4612E-01  0.1311E+01
      4.690  0.5528E-01  0.1316E+01
      4.783  0.5680E-01  0.1322E+01
      4.876  0.5658E-01  0.1327E+01
      4.969  0.5828E-01  0.1332E+01
      5.061  0.5348E-01  0.1337E+01
      5.154  0.4544E-01  0.1341E+01
      5.247  0.2298E-01  0.1344E+01
      5.340  0.4088E-02  0.1344E+01
      5.433  0.2068E-03  0.1344E+01
      5.526  0.2628E-05  0.1344E+01
      5.619  0.7498E-08  0.1344E+01
      5.711  0.4390E-11  0.1344E+01
      5.804  0.4989E-15  0.1344E+01
      5.897  0.0000E+00  0.1344E+01
      5.990  0.0000E+00  0.1344E+01
      6.083  0.0000E+00  0.1344E+01
      6.176  0.0000E+00  0.1344E+01
      6.269  0.0000E+00  0.1344E+01
      6.361  0.0000E+00  0.1344E+01
      6.454  0.0000E+00  0.1344E+01
