unknown system                          
           1
    11.002582    0.000000    0.000000
     5.501291    9.528515    0.000000
     0.000000    0.000000   26.191785
   Au   O    Pd
  24   8  24
Direct configuration=     1
   0.08333333  0.08333333  0.38179910
   0.00000000  0.50000000  0.55329505
   0.66666667  0.91666667  0.46754708
   0.08333333  0.83333333  0.38179910
   0.91666667  0.91666667  0.46754708
   0.00000000  0.75000000  0.55329505
   0.08333333  0.58333333  0.38179910
   0.00000000  0.00000000  0.55329505
   0.91666667  0.16666667  0.46754708
   0.83333333  0.58333333  0.38179910
   0.33333333  0.33333333  0.38179910
   0.25000000  0.25000000  0.55329505
   0.16666667  0.41666667  0.46754708
   0.33333333  0.83333333  0.38179910
   0.75000000  0.50000000  0.55329505
   0.41666667  0.66666667  0.46754708
   0.50000000  0.50000000  0.55329505
   0.58333333  0.83333333  0.38179910
   0.41666667  0.91666667  0.46754708
   0.50000000  0.75000000  0.55329505
   0.75000000  0.00000000  0.55329505
   0.83333333  0.33333333  0.38179910
   0.66666667  0.41666667  0.46754708
   0.33333333  0.58333333  0.38179910
   0.08333333  0.08333333  0.61820090
   0.83333333  0.58333333  0.61820090
   0.33333333  0.33333333  0.61820090
   0.58333333  0.33333333  0.61820090
   0.58333333  0.83333333  0.61820090
   0.58333333  0.58333333  0.61820090
   0.08333333  0.33333333  0.61820090
   0.33333333  0.58333333  0.61820090
   0.16666667  0.16666667  0.46754708
   0.25000000  0.00000000  0.55329505
   0.16666667  0.66666667  0.46754708
   0.25000000  0.50000000  0.55329505
   0.75000000  0.25000000  0.55329505
   0.16666667  0.91666667  0.46754708
   0.25000000  0.75000000  0.55329505
   0.75000000  0.75000000  0.55329505
   0.58333333  0.08333333  0.38179910
   0.41666667  0.16666667  0.46754708
   0.50000000  0.00000000  0.55329505
   0.83333333  0.83333333  0.38179910
   0.58333333  0.33333333  0.38179910
   0.41666667  0.41666667  0.46754708
   0.33333333  0.08333333  0.38179910
   0.66666667  0.16666667  0.46754708
   0.58333333  0.58333333  0.38179910
   0.66666667  0.66666667  0.46754708
   0.00000000  0.25000000  0.55329505
   0.91666667  0.41666667  0.46754708
   0.08333333  0.33333333  0.38179910
   0.83333333  0.08333333  0.38179910
   0.50000000  0.25000000  0.55329505
   0.91666667  0.66666667  0.46754708
Direct configuration=     2
   0.08333333  0.08333333  0.38179910
  -0.00032334  0.50167650  0.55599390
   0.66672363  0.91661758  0.46753518
   0.08333333  0.83333333  0.38179910
   0.91683677  0.91651392  0.46717559
   0.00094056  0.74938073  0.55481806
   0.08333333  0.58333333  0.38179910
   0.00121426 -0.00027999  0.55598302
   0.91675004  0.16740424  0.46828614
   0.83333333  0.58333333  0.38179910
   0.33333333  0.33333333  0.38179910
   0.25186272  0.24752100  0.55601999
   0.16645419  0.41691760  0.46787619
   0.33333333  0.83333333  0.38179910
   0.75141331  0.49819912  0.55605285
   0.41620968  0.66636762  0.46788404
   0.49916827  0.49904399  0.55634921
   0.58333333  0.83333333  0.38179910
   0.41500876  0.91866657  0.46825820
   0.49813657  0.75238371  0.55638265
   0.74868930  0.00120009  0.55512374
   0.83333333  0.33333333  0.38179910
   0.66613700  0.41659706  0.46751457
   0.33333333  0.58333333  0.38179910
   0.08402971  0.08304675  0.61441278
   0.83379237  0.58398389  0.61546645
   0.33367634  0.33315829  0.61478593
   0.58578881  0.32999285  0.61476984
   0.58355636  0.83578895  0.61450444
   0.58378194  0.58331294  0.61632548
   0.08287837  0.33301812  0.61541392
   0.32999589  0.58608351  0.61472014
   0.16713531  0.16672843  0.46768019
   0.24793626  0.00087248  0.55543682
   0.16732877  0.66580579  0.46814883
   0.25108810  0.50052364  0.55676866
   0.74868330  0.24996729  0.55565269
   0.16738146  0.91607225  0.46824936
   0.24981421  0.74926419  0.55538542
   0.74906287  0.75059851  0.55688084
   0.58333333  0.08333333  0.38179910
   0.41724549  0.16673720  0.46840728
   0.50055581 -0.00079389  0.55554824
   0.83333333  0.83333333  0.38179910
   0.58333333  0.33333333  0.38179910
   0.41721365  0.41575045  0.46770237
   0.33333333  0.08333333  0.38179910
   0.66466608  0.16785347  0.46745753
   0.58333333  0.58333333  0.38179910
   0.66799733  0.66625644  0.46724674
   0.00088881  0.24831701  0.55659403
   0.91698754  0.41641201  0.46796180
   0.08333333  0.33333333  0.38179910
   0.83333333  0.08333333  0.38179910
   0.50056545  0.25005637  0.55630936
   0.91575898  0.66643494  0.46801873
Direct configuration=     3
   0.08333333  0.08333333  0.38179910
  -0.00086494  0.50448468  0.56051455
   0.66681905  0.91653537  0.46751526
   0.08333333  0.83333333  0.38179910
   0.91712169  0.91625807  0.46655335
   0.00251604  0.74834343  0.55736916
   0.08333333  0.58333333  0.38179910
   0.00324819 -0.00074899  0.56048547
   0.91688969  0.16863970  0.46952409
   0.83333333  0.58333333  0.38179910
   0.33333333  0.33333333  0.38179910
   0.25498285  0.24336858  0.56058435
   0.16609828  0.41733791  0.46842748
   0.33333333  0.83333333  0.38179910
   0.75378065  0.49518257  0.56067227
   0.41544422  0.66586671  0.46844847
   0.49777509  0.49744265  0.56146504
   0.58333333  0.83333333  0.38179910
   0.41223172  0.92201648  0.46944937
   0.49501527  0.75637649  0.56155449
   0.74649383  0.00321029  0.55818685
   0.83333333  0.33333333  0.38179910
   0.66524980  0.41648047  0.46746011
   0.33333333  0.58333333  0.38179910
   0.08519618  0.08256670  0.60806755
   0.83456128  0.58507358  0.61088617
   0.33425088  0.33286509  0.60906575
   0.58990182  0.32439742  0.60902269
   0.58392994  0.83990218  0.60831273
   0.58453336  0.58327878  0.61318409
   0.08211628  0.33249011  0.61074564
   0.32440555  0.59069014  0.60888974
   0.16792029  0.16683190  0.46790317
   0.24447944  0.00233391  0.55902436
   0.16843782  0.66436379  0.46915678
   0.25291071  0.50140076  0.56258707
   0.74647778  0.24991249  0.55960182
   0.16857876  0.91507658  0.46942571
   0.24950302  0.74803169  0.55888686
   0.74749314  0.75160105  0.56288715
   0.58333333  0.08333333  0.38179910
   0.41821504  0.16685535  0.46984816
   0.50148682 -0.00212367  0.55932241
   0.83333333  0.83333333  0.38179910
   0.58333333  0.33333333  0.38179910
   0.41812986  0.41421576  0.46796248
   0.33333333  0.08333333  0.38179910
   0.66131503  0.16984139  0.46730755
   0.58333333  0.58333333  0.38179910
   0.67022625  0.66556930  0.46674366
   0.00237760  0.24549795  0.56211992
   0.91752502  0.41598545  0.46865649
   0.08333333  0.33333333  0.38179910
   0.83333333  0.08333333  0.38179910
   0.50151259  0.25015080  0.56135842
   0.91423858  0.66604680  0.46880877
Direct configuration=     4
   0.08333333  0.08333333  0.38179910
  -0.00078906  0.50409123  0.55988117
   0.66680568  0.91654689  0.46751806
   0.08333333  0.83333333  0.38179910
   0.91708177  0.91629391  0.46664053
   0.00229530  0.74848876  0.55701173
   0.08333333  0.58333333  0.38179910
   0.00296322 -0.00068328  0.55985464
   0.91687012  0.16846660  0.46935064
   0.83333333  0.58333333  0.38179910
   0.33333333  0.33333333  0.38179910
   0.25454569  0.24395037  0.55994484
   0.16614815  0.41727902  0.46835024
   0.33333333  0.83333333  0.38179910
   0.75344896  0.49560522  0.56002505
   0.41555147  0.66593689  0.46836939
   0.49797028  0.49766701  0.56074827
   0.58333333  0.83333333  0.38179910
   0.41262081  0.92154713  0.46928248
   0.49545259  0.75581707  0.56082987
   0.74680143  0.00292864  0.55775768
   0.83333333  0.33333333  0.38179910
   0.66537411  0.41649680  0.46746774
   0.33333333  0.58333333  0.38179910
   0.08503275  0.08263396  0.60895657
   0.83445355  0.58492091  0.61152790
   0.33417039  0.33290617  0.60986719
   0.58932555  0.32518138  0.60982792
   0.58387760  0.83932588  0.60918024
   0.58442808  0.58328357  0.61362423
   0.08222306  0.33256409  0.61139971
   0.32518881  0.59004471  0.60970663
   0.16781031  0.16681740  0.46787193
   0.24496377  0.00212915  0.55852172
   0.16828243  0.66456582  0.46901556
   0.25265534  0.50127787  0.56177186
   0.74678679  0.24992017  0.55904851
   0.16841101  0.91521608  0.46926089
   0.24954662  0.74820437  0.55839628
   0.74771307  0.75146058  0.56204561
   0.58333333  0.08333333  0.38179910
   0.41807920  0.16683879  0.46964628
   0.50135638 -0.00193736  0.55879362
   0.83333333  0.83333333  0.38179910
   0.58333333  0.33333333  0.38179910
   0.41800149  0.41443078  0.46792603
   0.33333333  0.08333333  0.38179910
   0.66178454  0.16956287  0.46732856
   0.58333333  0.58333333  0.38179910
   0.66991396  0.66566558  0.46681415
   0.00216901  0.24589292  0.56134570
   0.91744971  0.41604522  0.46855915
   0.08333333  0.33333333  0.38179910
   0.83333333  0.08333333  0.38179910
   0.50137989  0.25013757  0.56065101
   0.91445160  0.66610118  0.46869808
Direct configuration=     5
   0.08333333  0.08333333  0.38179910
   0.00330173  0.50597280  0.56043984
   0.66679826  0.91674773  0.46880444
   0.08333333  0.83333333  0.38179910
   0.91688604  0.91699870  0.46817615
   0.00114375  0.75045940  0.55806016
   0.08333333  0.58333333  0.38179910
  -0.00183516 -0.00510382  0.56050875
   0.91671180  0.16818973  0.47137120
   0.83333333  0.58333333  0.38179910
   0.33333333  0.33333333  0.38179910
   0.25748355  0.23877148  0.56087854
   0.16588686  0.41723243  0.47047349
   0.33333333  0.83333333  0.38179910
   0.75441706  0.48920368  0.56086526
   0.41680566  0.66559998  0.47029022
   0.50018725  0.49967393  0.56029442
   0.58333333  0.83333333  0.38179910
   0.41261145  0.92159802  0.47100272
   0.48815521  0.75663420  0.56209798
   0.74799339  0.00258809  0.55895417
   0.83333333  0.33333333  0.38179910
   0.66486551  0.41717001  0.46914889
   0.33333333  0.58333333  0.38179910
   0.08758982  0.08238314  0.60851972
   0.83377541  0.58809696  0.61070838
   0.33553692  0.33242361  0.60785058
   0.59422007  0.31751335  0.60846498
   0.58430060  0.84477521  0.60777139
   0.58542683  0.58480714  0.61327373
   0.08167985  0.33094134  0.60991246
   0.31804389  0.59579849  0.60865675
   0.16748274  0.16801116  0.46909847
   0.24943314 -0.00071365  0.55945321
   0.16835340  0.66372851  0.47030973
   0.24756140  0.50302847  0.56358741
   0.75057279  0.24794941  0.55990679
   0.16797442  0.91506744  0.47087883
   0.24856551  0.75098809  0.55915068
   0.74984309  0.75330030  0.56436162
   0.58333333  0.08333333  0.38179910
   0.41817675  0.16706170  0.47144024
   0.50044779  0.00112466  0.55984563
   0.83333333  0.83333333  0.38179910
   0.58333333  0.33333333  0.38179910
   0.41771301  0.41412832  0.46927311
   0.33333333  0.08333333  0.38179910
   0.66177601  0.16928790  0.46822533
   0.58333333  0.58333333  0.38179910
   0.66941649  0.66560677  0.46831533
  -0.00228821  0.24939646  0.56275475
   0.91777989  0.41583999  0.47028837
   0.08333333  0.33333333  0.38179910
   0.83333333  0.08333333  0.38179910
   0.50295298  0.24567870  0.56269060
   0.91433446  0.66591019  0.47031190
Direct configuration=     6
   0.08333333  0.08333333  0.38179910
   0.00544077  0.50695665  0.56073196
   0.66679438  0.91685274  0.46947708
   0.08333333  0.83333333  0.38179910
   0.91678369  0.91736722  0.46897912
   0.00054161  0.75148983  0.55860838
   0.08333333  0.58333333  0.38179910
  -0.00434420 -0.00741529  0.56085078
   0.91662901  0.16804496  0.47242774
   0.83333333  0.58333333  0.38179910
   0.33333333  0.33333333  0.38179910
   0.25901973  0.23606348  0.56136676
   0.16575024  0.41720806  0.47158371
   0.33333333  0.83333333  0.38179910
   0.75492328  0.48585637  0.56130461
   0.41746146  0.66542381  0.47129460
   0.50134648  0.50072334  0.56005711
   0.58333333  0.83333333  0.38179910
   0.41260656  0.92162463  0.47190223
   0.48433947  0.75706147  0.56276106
   0.74861666  0.00241002  0.55957981
   0.83333333  0.33333333  0.38179910
   0.66459956  0.41752202  0.47002795
   0.33333333  0.58333333  0.38179910
   0.08892690  0.08225198  0.60829129
   0.83342082  0.58975770  0.61027985
   0.33625147  0.33217129  0.60679612
   0.59677938  0.31350380  0.60775231
   0.58452178  0.84762462  0.60703472
   0.58594906  0.58560380  0.61309046
   0.08139582  0.33009282  0.60913479
   0.31430787  0.59880710  0.60810778
   0.16731146  0.16863537  0.46973982
   0.25177013 -0.00220012  0.55994028
   0.16839051  0.66329068  0.47098645
   0.24489782  0.50394384  0.56453674
   0.75255246  0.24691891  0.56035558
   0.16774613  0.91498971  0.47172484
   0.24805249  0.75244368  0.55954514
   0.75095686  0.75426228  0.56557264
   0.58333333  0.08333333  0.38179910
   0.41822776  0.16717825  0.47237828
   0.49997270  0.00272576  0.56039571
   0.83333333  0.83333333  0.38179910
   0.58333333  0.33333333  0.38179910
   0.41756216  0.41397017  0.46997748
   0.33333333  0.08333333  0.38179910
   0.66177154  0.16914412  0.46869424
   0.58333333  0.58333333  0.38179910
   0.66915636  0.66557601  0.46910029
  -0.00461885  0.25122844  0.56349152
   0.91795254  0.41573268  0.47119256
   0.08333333  0.33333333  0.38179910
   0.83333333  0.08333333  0.38179910
   0.50377554  0.24334719  0.56375709
   0.91427321  0.66581032  0.47115576
Direct configuration=     7
   0.08333333  0.08333333  0.38179910
   0.00521945  0.50819616  0.56103909
   0.66672053  0.91669634  0.47046178
   0.08333333  0.83333333  0.38179910
   0.91631206  0.91741360  0.46955821
  -0.00041545  0.75192633  0.55944458
   0.08333333  0.58333333  0.38179910
  -0.00440343 -0.00682661  0.56202154
   0.91688857  0.16800786  0.47359852
   0.83333333  0.58333333  0.38179910
   0.33333333  0.33333333  0.38179910
   0.25857462  0.23259725  0.56134296
   0.16616656  0.41693369  0.47286749
   0.33333333  0.83333333  0.38179910
   0.75738046  0.48545148  0.56200917
   0.41727067  0.66594264  0.47182951
   0.49976154  0.49880204  0.55900836
   0.58333333  0.83333333  0.38179910
   0.41329475  0.92107140  0.47272966
   0.48346846  0.75840759  0.56400173
   0.74796310  0.00216016  0.56043708
   0.83333333  0.33333333  0.38179910
   0.66533144  0.41682270  0.47060916
   0.33333333  0.58333333  0.38179910
   0.09114641  0.08062409  0.60842097
   0.83367831  0.58990595  0.61059290
   0.33619777  0.33208590  0.60790001
   0.59993560  0.30990844  0.60883400
   0.58362522  0.85046858  0.60831958
   0.58658987  0.58775856  0.61410275
   0.08198222  0.32943565  0.60938438
   0.31100178  0.60228306  0.60935301
   0.16672763  0.16893939  0.47083832
   0.25074586 -0.00200961  0.56055863
   0.16833883  0.66321518  0.47180942
   0.24193284  0.50677855  0.56419370
   0.75710807  0.24253423  0.56013730
   0.16744197  0.91531354  0.47281047
   0.24391013  0.75620852  0.55926209
   0.75243356  0.75605106  0.56558205
   0.58333333  0.08333333  0.38179910
   0.41810884  0.16732467  0.47321327
   0.50031658  0.00448223  0.55999785
   0.83333333  0.83333333  0.38179910
   0.58333333  0.33333333  0.38179910
   0.41712453  0.41392735  0.47135488
   0.33333333  0.08333333  0.38179910
   0.66263803  0.16863803  0.46951816
   0.58333333  0.58333333  0.38179910
   0.66868969  0.66606643  0.47079793
  -0.00690713  0.24930968  0.56313050
   0.91758362  0.41576540  0.47248237
   0.08333333  0.33333333  0.38179910
   0.83333333  0.08333333  0.38179910
   0.50712799  0.23951183  0.56350411
   0.91426572  0.66613334  0.47216095
Direct configuration=     8
   0.08333333  0.08333333  0.38179910
   0.00516575  0.50849688  0.56111361
   0.66670261  0.91665839  0.47070067
   0.08333333  0.83333333  0.38179910
   0.91619764  0.91742485  0.46969870
  -0.00064764  0.75203222  0.55964745
   0.08333333  0.58333333  0.38179910
  -0.00441781 -0.00668379  0.56230557
   0.91695154  0.16799886  0.47388256
   0.83333333  0.58333333  0.38179910
   0.33333333  0.33333333  0.38179910
   0.25846664  0.23175632  0.56133718
   0.16626756  0.41686712  0.47317895
   0.33333333  0.83333333  0.38179910
   0.75797659  0.48535325  0.56218010
   0.41722438  0.66606851  0.47195929
   0.49937702  0.49833592  0.55875392
   0.58333333  0.83333333  0.38179910
   0.41346171  0.92093718  0.47293040
   0.48325715  0.75873417  0.56430272
   0.74780454  0.00209954  0.56064506
   0.83333333  0.33333333  0.38179910
   0.66550900  0.41665304  0.47075017
   0.33333333  0.58333333  0.38179910
   0.09168487  0.08022915  0.60845243
   0.83374078  0.58994192  0.61066884
   0.33618474  0.33206519  0.60816783
   0.60070132  0.30903618  0.60909643
   0.58340771  0.85115855  0.60863129
   0.58674533  0.58828132  0.61434833
   0.08212448  0.32927621  0.60944493
   0.31019970  0.60312635  0.60965511
   0.16658599  0.16901315  0.47110482
   0.25049736 -0.00196339  0.56070864
   0.16832629  0.66319686  0.47200908
   0.24121352  0.50746627  0.56411047
   0.75821329  0.24147048  0.56008434
   0.16736818  0.91539210  0.47307385
   0.24290517  0.75712190  0.55919342
   0.75279181  0.75648503  0.56558434
   0.58333333  0.08333333  0.38179910
   0.41807999  0.16736020  0.47341585
   0.50040000  0.00490837  0.55990132
   0.83333333  0.83333333  0.38179910
   0.58333333  0.33333333  0.38179910
   0.41701835  0.41391696  0.47168905
   0.33333333  0.08333333  0.38179910
   0.66284825  0.16851525  0.46971805
   0.58333333  0.58333333  0.38179910
   0.66857647  0.66618541  0.47120979
  -0.00746229  0.24884418  0.56304292
   0.91749412  0.41577334  0.47279529
   0.08333333  0.33333333  0.38179910
   0.83333333  0.08333333  0.38179910
   0.50794131  0.23858134  0.56344274
   0.91426391  0.66621171  0.47240482
Direct configuration=     9
   0.08333333  0.08333333  0.38179910
   0.00425669  0.50744338  0.56200904
   0.66678280  0.91637910  0.47112792
   0.08333333  0.83333333  0.38179910
   0.91601735  0.91726018  0.46994517
  -0.00180184  0.75352511  0.56064950
   0.08333333  0.58333333  0.38179910
  -0.00412061 -0.00648363  0.56377987
   0.91772364  0.16730556  0.47404152
   0.83333333  0.58333333  0.38179910
   0.33333333  0.33333333  0.38179910
   0.25711573  0.23258962  0.56221686
   0.16659278  0.41659973  0.47388948
   0.33333333  0.83333333  0.38179910
   0.75658043  0.48734100  0.56342735
   0.41676399  0.66667556  0.47205239
   0.49838592  0.49634287  0.55899076
   0.58333333  0.83333333  0.38179910
   0.41371405  0.92056025  0.47336870
   0.48476096  0.75879220  0.56615764
   0.74859596  0.00105909  0.56165865
   0.83333333  0.33333333  0.38179910
   0.66616670  0.41610921  0.47093154
   0.33333333  0.58333333  0.38179910
   0.09319838  0.07901182  0.60934429
   0.83392673  0.59034691  0.61114993
   0.33612113  0.33198940  0.60819269
   0.60430322  0.30566305  0.60958172
   0.58339830  0.85350490  0.60960460
   0.58706949  0.58969110  0.61462450
   0.08227101  0.32834514  0.60930179
   0.30684031  0.60666900  0.61023062
   0.16615042  0.16874318  0.47171420
   0.24969168 -0.00231512  0.56107886
   0.16803877  0.66352136  0.47238211
   0.24337257  0.50751323  0.56462073
   0.75763577  0.24050924  0.56069244
   0.16694766  0.91598937  0.47364789
   0.24163339  0.75733560  0.55953460
   0.75107107  0.75827504  0.56608655
   0.58333333  0.08333333  0.38179910
   0.41793773  0.16742938  0.47370161
   0.50179582  0.00321772  0.55981680
   0.83333333  0.83333333  0.38179910
   0.58333333  0.33333333  0.38179910
   0.41662936  0.41363473  0.47251892
   0.33333333  0.08333333  0.38179910
   0.66365028  0.16805055  0.47024327
   0.58333333  0.58333333  0.38179910
   0.66834807  0.66651456  0.47270719
  -0.00638064  0.24696489  0.56314506
   0.91710321  0.41615350  0.47359936
   0.08333333  0.33333333  0.38179910
   0.83333333  0.08333333  0.38179910
   0.50802845  0.23987117  0.56390691
   0.91423458  0.66649509  0.47287490
Direct configuration=    10
   0.08333333  0.08333333  0.38179910
   0.00359347  0.50667478  0.56266233
   0.66684130  0.91617534  0.47143963
   0.08333333  0.83333333  0.38179910
   0.91588581  0.91714005  0.47012499
  -0.00264390  0.75461428  0.56138056
   0.08333333  0.58333333  0.38179910
  -0.00390379 -0.00633760  0.56485547
   0.91828693  0.16679975  0.47415748
   0.83333333  0.58333333  0.38179910
   0.33333333  0.33333333  0.38179910
   0.25613015  0.23319757  0.56285865
   0.16683005  0.41640465  0.47440786
   0.33333333  0.83333333  0.38179910
   0.75556184  0.48879119  0.56433730
   0.41642809  0.66711845  0.47212032
   0.49766285  0.49488881  0.55916354
   0.58333333  0.83333333  0.38179910
   0.41389815  0.92028524  0.47368847
   0.48585809  0.75883454  0.56751092
   0.74917335  0.00030001  0.56239813
   0.83333333  0.33333333  0.38179910
   0.66664654  0.41571245  0.47106387
   0.33333333  0.58333333  0.38179910
   0.09430259  0.07812370  0.60999495
   0.83406240  0.59064238  0.61150091
   0.33607473  0.33193411  0.60821083
   0.60693106  0.30320212  0.60993578
   0.58339144  0.85521672  0.61031469
   0.58730599  0.59071963  0.61482599
   0.08237792  0.32766586  0.60919735
   0.30438940  0.60925360  0.61065049
   0.16583265  0.16854622  0.47215879
   0.24910388 -0.00257173  0.56134895
   0.16782900  0.66375810  0.47265427
   0.24494775  0.50754749  0.56499299
   0.75721443  0.23980795  0.56113609
   0.16664086  0.91642512  0.47406669
   0.24070554  0.75749151  0.55978352
   0.74981568  0.75958097  0.56645294
   0.58333333  0.08333333  0.38179910
   0.41783395  0.16747986  0.47391009
   0.50281417  0.00198428  0.55975513
   0.83333333  0.83333333  0.38179910
   0.58333333  0.33333333  0.38179910
   0.41634556  0.41342882  0.47312437
   0.33333333  0.08333333  0.38179910
   0.66423541  0.16771152  0.47062645
   0.58333333  0.58333333  0.38179910
   0.66818144  0.66675469  0.47379964
  -0.00559150  0.24559382  0.56321958
   0.91681802  0.41643086  0.47418599
   0.08333333  0.33333333  0.38179910
   0.83333333  0.08333333  0.38179910
   0.50809202  0.24081218  0.56424556
   0.91421318  0.66670184  0.47321785
Direct configuration=    11
   0.08333333  0.08333333  0.38179910
   0.00366696  0.50710902  0.56325058
   0.66705102  0.91609738  0.47146954
   0.08333333  0.83333333  0.38179910
   0.91603101  0.91695744  0.47040704
  -0.00319222  0.75426731  0.56240193
   0.08333333  0.58333333  0.38179910
  -0.00443998 -0.00616987  0.56639112
   0.91871178  0.16598969  0.47415350
   0.83333333  0.58333333  0.38179910
   0.33333333  0.33333333  0.38179910
   0.25784556  0.23280104  0.56351893
   0.16657531  0.41644562  0.47498993
   0.33333333  0.83333333  0.38179910
   0.75395182  0.48844884  0.56533804
   0.41634492  0.66722862  0.47240284
   0.49789426  0.49498982  0.55966614
   0.58333333  0.83333333  0.38179910
   0.41362300  0.92005807  0.47403066
   0.48486220  0.75969357  0.56909963
   0.74986403  0.00014646  0.56346512
   0.83333333  0.33333333  0.38179910
   0.66678504  0.41569358  0.47127372
   0.33333333  0.58333333  0.38179910
   0.09546499  0.07735381  0.61155657
   0.83380373  0.59211859  0.61242838
   0.33615336  0.33191767  0.60828659
   0.60987968  0.30010228  0.61117662
   0.58382466  0.85762545  0.61181044
   0.58747260  0.59082212  0.61563024
   0.08159929  0.32669639  0.60974147
   0.30113000  0.61272744  0.61168055
   0.16580485  0.16832994  0.47246722
   0.25029752 -0.00390812  0.56153003
   0.16736086  0.66411263  0.47288407
   0.24571210  0.50753185  0.56552084
   0.75714643  0.24013778  0.56145282
   0.16619493  0.91677426  0.47440301
   0.24174092  0.75681990  0.56009987
   0.74893281  0.75942244  0.56726666
   0.58333333  0.08333333  0.38179910
   0.41767466  0.16733105  0.47422107
   0.50218094  0.00236667  0.55961594
   0.83333333  0.83333333  0.38179910
   0.58333333  0.33333333  0.38179910
   0.41618832  0.41308330  0.47333688
   0.33333333  0.08333333  0.38179910
   0.66468888  0.16729977  0.47097900
   0.58333333  0.58333333  0.38179910
   0.66803410  0.66683194  0.47506602
  -0.00552085  0.24503676  0.56340467
   0.91636377  0.41687362  0.47482551
   0.08333333  0.33333333  0.38179910
   0.83333333  0.08333333  0.38179910
   0.50728320  0.24159755  0.56474213
   0.91436185  0.66658517  0.47369045
Direct configuration=    12
   0.08333333  0.08333333  0.38179910
   0.00378375  0.50779916  0.56418549
   0.66738434  0.91597348  0.47151707
   0.08333333  0.83333333  0.38179910
   0.91626177  0.91666721  0.47085530
  -0.00406366  0.75371585  0.56402521
   0.08333333  0.58333333  0.38179910
  -0.00529215 -0.00590329  0.56883177
   0.91938700  0.16470224  0.47414717
   0.83333333  0.58333333  0.38179910
   0.33333333  0.33333333  0.38179910
   0.26057190  0.23217081  0.56456832
   0.16617045  0.41651075  0.47591501
   0.33333333  0.83333333  0.38179910
   0.75139300  0.48790473  0.56692854
   0.41621273  0.66740373  0.47285186
   0.49826203  0.49515035  0.56046492
   0.58333333  0.83333333  0.38179910
   0.41318571  0.91969701  0.47457451
   0.48327940  0.76105884  0.57162458
   0.75096175 -0.00009757  0.56516090
   0.83333333  0.33333333  0.38179910
   0.66700515  0.41566358  0.47160724
   0.33333333  0.58333333  0.38179910
   0.09731240  0.07613022  0.61403848
   0.83339262  0.59446476  0.61390241
   0.33627833  0.33189153  0.60840701
   0.61456597  0.29517565  0.61314872
   0.58451320  0.86145367  0.61418766
   0.58773739  0.59098501  0.61690846
   0.08036180  0.32515561  0.61060625
   0.29594977  0.61824846  0.61331763
   0.16576065  0.16798621  0.47295742
   0.25219460 -0.00603205  0.56181782
   0.16661683  0.66467610  0.47324931
   0.24692690  0.50750700  0.56635975
   0.75703837  0.24066197  0.56195620
   0.16548622  0.91732917  0.47493752
   0.24338645  0.75575251  0.56060264
   0.74752965  0.75917048  0.56855991
   0.58333333  0.08333333  0.38179910
   0.41742151  0.16709454  0.47471531
   0.50117454  0.00297440  0.55939472
   0.83333333  0.83333333  0.38179910
   0.58333333  0.33333333  0.38179910
   0.41593841  0.41253415  0.47367464
   0.33333333  0.08333333  0.38179910
   0.66540960  0.16664537  0.47153932
   0.58333333  0.58333333  0.38179910
   0.66779993  0.66695471  0.47707870
  -0.00540856  0.24415141  0.56369884
   0.91564183  0.41757731  0.47584191
   0.08333333  0.33333333  0.38179910
   0.83333333  0.08333333  0.38179910
   0.50599772  0.24284575  0.56553133
   0.91459814  0.66639974  0.47444157
Direct configuration=    13
   0.08333333  0.08333333  0.38179910
   0.00367319  0.50792085  0.56497952
   0.66763850  0.91594360  0.47150616
   0.08333333  0.83333333  0.38179910
   0.91654569  0.91629863  0.47137459
  -0.00364149  0.75293838  0.56488283
   0.08333333  0.58333333  0.38179910
  -0.00477603 -0.00633702  0.57052731
   0.91918663  0.16445419  0.47428241
   0.83333333  0.58333333  0.38179910
   0.33333333  0.33333333  0.38179910
   0.26024741  0.23143683  0.56510987
   0.16564445  0.41664472  0.47634588
   0.33333333  0.83333333  0.38179910
   0.75233663  0.48614252  0.56783952
   0.41640650  0.66700006  0.47318824
   0.49865944  0.49599479  0.56101934
   0.58333333  0.83333333  0.38179910
   0.41294765  0.91934593  0.47470045
   0.48178308  0.76224064  0.57326620
   0.75034464  0.00052346  0.56607413
   0.83333333  0.33333333  0.38179910
   0.66671384  0.41585810  0.47174536
   0.33333333  0.58333333  0.38179910
   0.09895870  0.07537918  0.61494923
   0.83348662  0.59548346  0.61493634
   0.33632725  0.33256323  0.60925217
   0.61640610  0.29192801  0.61450005
   0.58466294  0.86477776  0.61530018
   0.58734090  0.59039138  0.61844698
   0.07974787  0.32434606  0.61110636
   0.29281004  0.62054035  0.61474478
   0.16594712  0.16808545  0.47320561
   0.25137031 -0.00519954  0.56244276
   0.16623296  0.66488715  0.47350944
   0.24657379  0.50886824  0.56694937
   0.75695555  0.24128941  0.56207860
   0.16525950  0.91713226  0.47519844
   0.24402163  0.75582973  0.56065809
   0.74623136  0.75917934  0.56959772
   0.58333333  0.08333333  0.38179910
   0.41739054  0.16693667  0.47482903
   0.50208075  0.00192345  0.55978491
   0.83333333  0.83333333  0.38179910
   0.58333333  0.33333333  0.38179910
   0.41609814  0.41244610  0.47357446
   0.33333333  0.08333333  0.38179910
   0.66535554  0.16642206  0.47182036
   0.58333333  0.58333333  0.38179910
   0.66760214  0.66702905  0.47808046
  -0.00476721  0.24354695  0.56426947
   0.91516574  0.41768470  0.47640269
   0.08333333  0.33333333  0.38179910
   0.83333333  0.08333333  0.38179910
   0.50761560  0.24280082  0.56615694
   0.91459263  0.66626076  0.47487330
Direct configuration=    14
   0.08333333  0.08333333  0.38179910
   0.00350848  0.50810215  0.56616246
   0.66801714  0.91589909  0.47148992
   0.08333333  0.83333333  0.38179910
   0.91696867  0.91574953  0.47214823
  -0.00301254  0.75178010  0.56616053
   0.08333333  0.58333333  0.38179910
  -0.00400710 -0.00698320  0.57305334
   0.91888812  0.16408464  0.47448389
   0.83333333  0.58333333  0.38179910
   0.33333333  0.33333333  0.38179910
   0.25976397  0.23034333  0.56591667
   0.16486080  0.41684431  0.47698780
   0.33333333  0.83333333  0.38179910
   0.75374246  0.48351716  0.56919671
   0.41669519  0.66639867  0.47368939
   0.49925151  0.49725284  0.56184532
   0.58333333  0.83333333  0.38179910
   0.41259297  0.91882289  0.47488808
   0.47955385  0.76400130  0.57571190
   0.74942527  0.00144866  0.56743466
   0.83333333  0.33333333  0.38179910
   0.66627984  0.41614790  0.47195113
   0.33333333  0.58333333  0.38179910
   0.10141138  0.07426027  0.61630608
   0.83362666  0.59700112  0.61647670
   0.33640013  0.33356393  0.61051129
   0.61914753  0.28708964  0.61651327
   0.58488603  0.86973000  0.61695761
   0.58675019  0.58950698  0.62073909
   0.07883322  0.32313997  0.61185143
   0.28813245  0.62395484  0.61687097
   0.16622493  0.16823329  0.47357535
   0.25014227 -0.00395925  0.56337380
   0.16566107  0.66520156  0.47389700
   0.24604771  0.51089624  0.56782780
   0.75683216  0.24222418  0.56226097
   0.16492172  0.91683889  0.47558716
   0.24496792  0.75594478  0.56074069
   0.74429716  0.75919254  0.57114386
   0.58333333  0.08333333  0.38179910
   0.41734440  0.16670147  0.47499844
   0.50343082  0.00035775  0.56036622
   0.83333333  0.83333333  0.38179910
   0.58333333  0.33333333  0.38179910