  48  48   0   0
  0.5349325E+02  0.1100258E-08  0.1100258E-08  0.2449179E-08  0.3500000E-15
  1.000000000000000E-004
  CAR 
 unknown system                          
      6.36075526     -9.78325008  301     -1.08903882      1.00000000
     -9.783  0.0000E+00  0.0000E+00
     -9.729  0.0000E+00  0.0000E+00
     -9.676  0.0000E+00  0.0000E+00
     -9.622  0.0000E+00  0.0000E+00
     -9.568  0.0000E+00  0.0000E+00
     -9.514  0.0000E+00  0.0000E+00
     -9.460  0.0000E+00  0.0000E+00
     -9.407  0.0000E+00  0.0000E+00
     -9.353  0.7565E-17  0.4071E-18
     -9.299  0.3142E-14  0.1695E-15
     -9.245  0.7003E-12  0.3786E-13
     -9.191  0.8866E-10  0.4809E-11
     -9.137  0.6387E-08  0.3485E-09
     -9.084  0.2624E-06  0.1447E-07
     -9.030  0.6159E-05  0.3459E-06
     -8.976  0.8286E-04  0.4805E-05
     -8.922  0.6402E-03  0.3926E-04
     -8.868  0.2849E-02  0.1926E-03
     -8.815  0.7331E-02  0.5871E-03
     -8.761  0.1105E-01  0.1182E-02
     -8.707  0.1053E-01  0.1748E-02
     -8.653  0.8861E-02  0.2225E-02
     -8.599  0.1000E-01  0.2763E-02
     -8.546  0.1079E-01  0.3344E-02
     -8.492  0.7751E-02  0.3761E-02
     -8.438  0.3425E-02  0.3946E-02
     -8.384  0.1133E-02  0.4007E-02
     -8.330  0.1192E-02  0.4071E-02
     -8.276  0.2750E-02  0.4219E-02
     -8.223  0.4678E-02  0.4470E-02
     -8.169  0.6564E-02  0.4824E-02
     -8.115  0.9012E-02  0.5309E-02
     -8.061  0.1120E-01  0.5911E-02
     -8.007  0.1219E-01  0.6567E-02
     -7.954  0.1311E-01  0.7273E-02
     -7.900  0.1474E-01  0.8066E-02
     -7.846  0.1570E-01  0.8912E-02
     -7.792  0.1439E-01  0.9686E-02
     -7.738  0.1175E-01  0.1032E-01
     -7.685  0.9773E-02  0.1084E-01
     -7.631  0.9376E-02  0.1135E-01
     -7.577  0.1103E-01  0.1194E-01
     -7.523  0.1513E-01  0.1276E-01
     -7.469  0.2026E-01  0.1385E-01
     -7.415  0.2353E-01  0.1511E-01
     -7.362  0.2380E-01  0.1639E-01
     -7.308  0.2336E-01  0.1765E-01
     -7.254  0.2598E-01  0.1905E-01
     -7.200  0.3301E-01  0.2083E-01
     -7.146  0.4141E-01  0.2305E-01
     -7.093  0.4552E-01  0.2550E-01
     -7.039  0.4628E-01  0.2799E-01
     -6.985  0.5038E-01  0.3071E-01
     -6.931  0.5730E-01  0.3379E-01
     -6.877  0.6234E-01  0.3714E-01
     -6.824  0.6596E-01  0.4069E-01
     -6.770  0.6991E-01  0.4446E-01
     -6.716  0.7284E-01  0.4838E-01
     -6.662  0.7542E-01  0.5243E-01
     -6.608  0.8138E-01  0.5681E-01
     -6.554  0.9073E-01  0.6170E-01
     -6.501  0.9962E-01  0.6706E-01
     -6.447  0.1067E+00  0.7280E-01
     -6.393  0.1149E+00  0.7898E-01
     -6.339  0.1256E+00  0.8574E-01
     -6.285  0.1362E+00  0.9307E-01
     -6.232  0.1437E+00  0.1008E+00
     -6.178  0.1470E+00  0.1087E+00
     -6.124  0.1495E+00  0.1168E+00
     -6.070  0.1567E+00  0.1252E+00
     -6.016  0.1669E+00  0.1342E+00
     -5.963  0.1725E+00  0.1435E+00
     -5.909  0.1684E+00  0.1525E+00
     -5.855  0.1592E+00  0.1611E+00
     -5.801  0.1547E+00  0.1694E+00
     -5.747  0.1553E+00  0.1778E+00
     -5.693  0.1535E+00  0.1860E+00
     -5.640  0.1473E+00  0.1940E+00
     -5.586  0.1396E+00  0.2015E+00
     -5.532  0.1336E+00  0.2087E+00
     -5.478  0.1302E+00  0.2157E+00
     -5.424  0.1290E+00  0.2226E+00
     -5.371  0.1312E+00  0.2297E+00
     -5.317  0.1377E+00  0.2371E+00
     -5.263  0.1445E+00  0.2449E+00
     -5.209  0.1502E+00  0.2529E+00
     -5.155  0.1564E+00  0.2614E+00
     -5.101  0.1625E+00  0.2701E+00
     -5.048  0.1697E+00  0.2792E+00
     -4.994  0.1782E+00  0.2888E+00
     -4.940  0.1832E+00  0.2987E+00
     -4.886  0.1819E+00  0.3085E+00
     -4.832  0.1776E+00  0.3180E+00
     -4.779  0.1755E+00  0.3275E+00
     -4.725  0.1769E+00  0.3370E+00
     -4.671  0.1773E+00  0.3465E+00
     -4.617  0.1730E+00  0.3558E+00
     -4.563  0.1678E+00  0.3649E+00
     -4.510  0.1654E+00  0.3738E+00
     -4.456  0.1641E+00  0.3826E+00
     -4.402  0.1635E+00  0.3914E+00
     -4.348  0.1656E+00  0.4003E+00
     -4.294  0.1715E+00  0.4095E+00
     -4.240  0.1795E+00  0.4192E+00
     -4.187  0.1856E+00  0.4292E+00
     -4.133  0.1861E+00  0.4392E+00
     -4.079  0.1815E+00  0.4490E+00
     -4.025  0.1763E+00  0.4584E+00
     -3.971  0.1744E+00  0.4678E+00
     -3.918  0.1766E+00  0.4773E+00
     -3.864  0.1810E+00  0.4871E+00
     -3.810  0.1856E+00  0.4971E+00
     -3.756  0.1887E+00  0.5072E+00
     -3.702  0.1910E+00  0.5175E+00
     -3.649  0.1948E+00  0.5280E+00
     -3.595  0.2005E+00  0.5388E+00
     -3.541  0.2063E+00  0.5499E+00
     -3.487  0.2105E+00  0.5612E+00
     -3.433  0.2133E+00  0.5727E+00
     -3.379  0.2152E+00  0.5843E+00
     -3.326  0.2146E+00  0.5958E+00
     -3.272  0.2100E+00  0.6071E+00
     -3.218  0.2026E+00  0.6180E+00
     -3.164  0.1942E+00  0.6285E+00
     -3.110  0.1873E+00  0.6385E+00
     -3.057  0.1839E+00  0.6484E+00
     -3.003  0.1812E+00  0.6582E+00
     -2.949  0.1780E+00  0.6678E+00
     -2.895  0.1771E+00  0.6773E+00
     -2.841  0.1784E+00  0.6869E+00
     -2.788  0.1817E+00  0.6967E+00
     -2.734  0.1872E+00  0.7067E+00
     -2.680  0.1918E+00  0.7171E+00
     -2.626  0.1917E+00  0.7274E+00
     -2.572  0.1862E+00  0.7374E+00
     -2.518  0.1786E+00  0.7470E+00
     -2.465  0.1725E+00  0.7563E+00
     -2.411  0.1694E+00  0.7654E+00
     -2.357  0.1697E+00  0.7746E+00
     -2.303  0.1727E+00  0.7839E+00
     -2.249  0.1783E+00  0.7934E+00
     -2.196  0.1857E+00  0.8034E+00
     -2.142  0.1907E+00  0.8137E+00
     -2.088  0.1939E+00  0.8241E+00
     -2.034  0.1989E+00  0.8348E+00
     -1.980  0.2040E+00  0.8458E+00
     -1.927  0.2070E+00  0.8570E+00
     -1.873  0.2082E+00  0.8682E+00
     -1.819  0.2072E+00  0.8793E+00
     -1.765  0.2045E+00  0.8903E+00
     -1.711  0.2019E+00  0.9012E+00
     -1.657  0.1999E+00  0.9119E+00
     -1.604  0.1975E+00  0.9226E+00
     -1.550  0.1952E+00  0.9331E+00
     -1.496  0.1928E+00  0.9434E+00
     -1.442  0.1892E+00  0.9536E+00
     -1.388  0.1853E+00  0.9636E+00
     -1.335  0.1814E+00  0.9734E+00
     -1.281  0.1735E+00  0.9827E+00
     -1.227  0.1576E+00  0.9912E+00
     -1.173  0.1373E+00  0.9986E+00
     -1.119  0.1178E+00  0.1005E+01
     -1.065  0.9772E-01  0.1010E+01
     -1.012  0.7436E-01  0.1014E+01
     -0.958  0.5038E-01  0.1017E+01
     -0.904  0.3185E-01  0.1019E+01
     -0.850  0.2115E-01  0.1020E+01
     -0.796  0.1681E-01  0.1021E+01
     -0.743  0.1641E-01  0.1022E+01
     -0.689  0.1867E-01  0.1023E+01
     -0.635  0.2423E-01  0.1024E+01
     -0.581  0.3212E-01  0.1026E+01
     -0.527  0.3903E-01  0.1028E+01
     -0.474  0.4268E-01  0.1030E+01
     -0.420  0.4280E-01  0.1032E+01
     -0.366  0.4049E-01  0.1034E+01
     -0.312  0.3947E-01  0.1037E+01
     -0.258  0.4224E-01  0.1039E+01
     -0.204  0.4407E-01  0.1041E+01
     -0.151  0.3926E-01  0.1043E+01
     -0.097  0.3039E-01  0.1045E+01
     -0.043  0.2351E-01  0.1046E+01
      0.011  0.2055E-01  0.1047E+01
      0.065  0.2134E-01  0.1048E+01
      0.118  0.2500E-01  0.1050E+01
      0.172  0.2794E-01  0.1051E+01
      0.226  0.2783E-01  0.1053E+01
      0.280  0.2789E-01  0.1054E+01
      0.334  0.3213E-01  0.1056E+01
      0.387  0.3830E-01  0.1058E+01
      0.441  0.4160E-01  0.1060E+01
      0.495  0.4278E-01  0.1063E+01
      0.549  0.4474E-01  0.1065E+01
      0.603  0.4702E-01  0.1068E+01
      0.657  0.4820E-01  0.1070E+01
      0.710  0.4728E-01  0.1073E+01
      0.764  0.4367E-01  0.1075E+01
      0.818  0.3708E-01  0.1077E+01
      0.872  0.2860E-01  0.1079E+01
      0.926  0.2121E-01  0.1080E+01
      0.979  0.1856E-01  0.1081E+01
      1.033  0.2174E-01  0.1082E+01
      1.087  0.2588E-01  0.1083E+01
      1.141  0.2472E-01  0.1085E+01
      1.195  0.1819E-01  0.1086E+01
      1.248  0.1177E-01  0.1086E+01
      1.302  0.9238E-02  0.1087E+01
      1.356  0.1037E-01  0.1087E+01
      1.410  0.1414E-01  0.1088E+01
      1.464  0.2096E-01  0.1089E+01
      1.518  0.2982E-01  0.1091E+01
      1.571  0.3607E-01  0.1093E+01
      1.625  0.3562E-01  0.1095E+01
      1.679  0.2973E-01  0.1096E+01
      1.733  0.2604E-01  0.1098E+01
      1.787  0.2978E-01  0.1099E+01
      1.840  0.3544E-01  0.1101E+01
      1.894  0.3385E-01  0.1103E+01
      1.948  0.2564E-01  0.1104E+01
      2.002  0.1868E-01  0.1105E+01
      2.056  0.1753E-01  0.1106E+01
      2.110  0.2224E-01  0.1108E+01
      2.163  0.3011E-01  0.1109E+01
      2.217  0.3843E-01  0.1111E+01
      2.271  0.4544E-01  0.1114E+01
      2.325  0.4884E-01  0.1116E+01
      2.379  0.4787E-01  0.1119E+01
      2.432  0.4531E-01  0.1121E+01
      2.486  0.4372E-01  0.1124E+01
      2.540  0.4315E-01  0.1126E+01
      2.594  0.4330E-01  0.1128E+01
      2.648  0.4349E-01  0.1131E+01
      2.701  0.4224E-01  0.1133E+01
      2.755  0.3696E-01  0.1135E+01
      2.809  0.2784E-01  0.1136E+01
      2.863  0.1916E-01  0.1137E+01
      2.917  0.1446E-01  0.1138E+01
      2.971  0.1354E-01  0.1139E+01
      3.024  0.1253E-01  0.1140E+01
      3.078  0.1065E-01  0.1140E+01
      3.132  0.1140E-01  0.1141E+01
      3.186  0.1542E-01  0.1142E+01
      3.240  0.2044E-01  0.1143E+01
      3.293  0.2374E-01  0.1144E+01
      3.347  0.2318E-01  0.1145E+01
      3.401  0.2075E-01  0.1146E+01
      3.455  0.2145E-01  0.1148E+01
      3.509  0.2702E-01  0.1149E+01
      3.562  0.3522E-01  0.1151E+01
      3.616  0.4156E-01  0.1153E+01
      3.670  0.4118E-01  0.1155E+01
      3.724  0.3557E-01  0.1157E+01
      3.778  0.2915E-01  0.1159E+01
      3.832  0.2330E-01  0.1160E+01
      3.885  0.1999E-01  0.1161E+01
      3.939  0.2153E-01  0.1162E+01
      3.993  0.2719E-01  0.1164E+01
      4.047  0.3201E-01  0.1165E+01
      4.101  0.3079E-01  0.1167E+01
      4.154  0.2663E-01  0.1169E+01
      4.208  0.2471E-01  0.1170E+01
      4.262  0.2176E-01  0.1171E+01
      4.316  0.1681E-01  0.1172E+01
      4.370  0.1715E-01  0.1173E+01
      4.423  0.2345E-01  0.1174E+01
      4.477  0.2815E-01  0.1176E+01
      4.531  0.3151E-01  0.1177E+01
      4.585  0.3984E-01  0.1180E+01
      4.639  0.5051E-01  0.1182E+01
      4.693  0.5531E-01  0.1185E+01
      4.746  0.5361E-01  0.1188E+01
      4.800  0.5066E-01  0.1191E+01
      4.854  0.5067E-01  0.1194E+01
      4.908  0.5416E-01  0.1196E+01
      4.962  0.5911E-01  0.1200E+01
      5.015  0.6492E-01  0.1203E+01
      5.069  0.6944E-01  0.1207E+01
      5.123  0.6815E-01  0.1211E+01
      5.177  0.6316E-01  0.1214E+01
      5.231  0.5925E-01  0.1217E+01
      5.284  0.5293E-01  0.1220E+01
      5.338  0.3958E-01  0.1222E+01
      5.392  0.2270E-01  0.1223E+01
      5.446  0.9380E-02  0.1224E+01
      5.500  0.2638E-02  0.1224E+01
      5.554  0.4809E-03  0.1224E+01
      5.607  0.5476E-04  0.1224E+01
      5.661  0.3789E-05  0.1224E+01
      5.715  0.1560E-06  0.1224E+01
      5.769  0.3768E-08  0.1224E+01
      5.823  0.5272E-10  0.1224E+01
      5.876  0.4241E-12  0.1224E+01
      5.930  0.1946E-14  0.1224E+01
      5.984  0.5502E-17  0.1224E+01
      6.038  0.0000E+00  0.1224E+01
      6.092  0.0000E+00  0.1224E+01
      6.146  0.0000E+00  0.1224E+01
      6.199  0.0000E+00  0.1224E+01
      6.253  0.0000E+00  0.1224E+01
      6.307  0.0000E+00  0.1224E+01
      6.361  0.0000E+00  0.1224E+01
