  48  48   0   0
  0.5349325E+02  0.1100258E-08  0.1100258E-08  0.2449179E-08  0.3500000E-15
  1.000000000000000E-004
  CAR 
 unknown system                          
      6.33677060     -9.80643031  301     -1.11820859      1.00000000
     -9.806  0.0000E+00  0.0000E+00
     -9.753  0.0000E+00  0.0000E+00
     -9.699  0.0000E+00  0.0000E+00
     -9.645  0.0000E+00  0.0000E+00
     -9.591  0.0000E+00  0.0000E+00
     -9.537  0.0000E+00  0.0000E+00
     -9.484  0.0000E+00  0.0000E+00
     -9.430  0.0000E+00  0.0000E+00
     -9.376  0.1169E-16  0.6291E-18
     -9.322  0.4379E-14  0.2363E-15
     -9.268  0.9531E-12  0.5152E-13
     -9.215  0.1176E-09  0.6379E-11
     -9.161  0.8239E-08  0.4498E-09
     -9.107  0.3286E-06  0.1813E-07
     -9.053  0.7478E-05  0.4205E-06
     -8.999  0.9731E-04  0.5657E-05
     -8.945  0.7261E-03  0.4473E-04
     -8.892  0.3116E-02  0.2124E-03
     -8.838  0.7737E-02  0.6288E-03
     -8.784  0.1139E-01  0.1241E-02
     -8.730  0.1118E-01  0.1843E-02
     -8.676  0.1050E-01  0.2408E-02
     -8.623  0.1152E-01  0.3028E-02
     -8.569  0.1019E-01  0.3577E-02
     -8.515  0.5643E-02  0.3880E-02
     -8.461  0.1837E-02  0.3979E-02
     -8.407  0.3483E-03  0.3998E-02
     -8.354  0.5462E-04  0.4001E-02
     -8.300  0.1704E-03  0.4010E-02
     -8.246  0.9778E-03  0.4063E-02
     -8.192  0.3318E-02  0.4241E-02
     -8.138  0.6736E-02  0.4604E-02
     -8.084  0.8963E-02  0.5086E-02
     -8.031  0.1013E-01  0.5631E-02
     -7.977  0.1318E-01  0.6340E-02
     -7.923  0.1794E-01  0.7306E-02
     -7.869  0.2025E-01  0.8395E-02
     -7.815  0.1672E-01  0.9295E-02
     -7.762  0.9705E-02  0.9818E-02
     -7.708  0.5651E-02  0.1012E-01
     -7.654  0.7511E-02  0.1053E-01
     -7.600  0.1175E-01  0.1116E-01
     -7.546  0.1398E-01  0.1191E-01
     -7.493  0.1523E-01  0.1273E-01
     -7.439  0.1709E-01  0.1365E-01
     -7.385  0.1908E-01  0.1468E-01
     -7.331  0.2362E-01  0.1595E-01
     -7.277  0.3136E-01  0.1763E-01
     -7.224  0.3815E-01  0.1969E-01
     -7.170  0.4255E-01  0.2198E-01
     -7.116  0.4542E-01  0.2442E-01
     -7.062  0.4682E-01  0.2694E-01
     -7.008  0.4902E-01  0.2958E-01
     -6.954  0.5241E-01  0.3240E-01
     -6.901  0.5478E-01  0.3535E-01
     -6.847  0.5704E-01  0.3842E-01
     -6.793  0.6125E-01  0.4171E-01
     -6.739  0.6765E-01  0.4535E-01
     -6.685  0.7632E-01  0.4946E-01
     -6.632  0.8574E-01  0.5407E-01
     -6.578  0.9330E-01  0.5909E-01
     -6.524  0.9965E-01  0.6446E-01
     -6.470  0.1062E+00  0.7017E-01
     -6.416  0.1151E+00  0.7636E-01
     -6.363  0.1292E+00  0.8331E-01
     -6.309  0.1441E+00  0.9107E-01
     -6.255  0.1516E+00  0.9922E-01
     -6.201  0.1497E+00  0.1073E+00
     -6.147  0.1467E+00  0.1152E+00
     -6.093  0.1521E+00  0.1234E+00
     -6.040  0.1652E+00  0.1323E+00
     -5.986  0.1752E+00  0.1417E+00
     -5.932  0.1758E+00  0.1511E+00
     -5.878  0.1690E+00  0.1602E+00
     -5.824  0.1596E+00  0.1688E+00
     -5.771  0.1525E+00  0.1770E+00
     -5.717  0.1474E+00  0.1850E+00
     -5.663  0.1403E+00  0.1925E+00
     -5.609  0.1333E+00  0.1997E+00
     -5.555  0.1303E+00  0.2067E+00
     -5.502  0.1284E+00  0.2136E+00
     -5.448  0.1257E+00  0.2204E+00
     -5.394  0.1269E+00  0.2272E+00
     -5.340  0.1353E+00  0.2345E+00
     -5.286  0.1471E+00  0.2424E+00
     -5.233  0.1578E+00  0.2509E+00
     -5.179  0.1660E+00  0.2598E+00
     -5.125  0.1736E+00  0.2692E+00
     -5.071  0.1830E+00  0.2790E+00
     -5.017  0.1915E+00  0.2893E+00
     -4.963  0.1938E+00  0.2997E+00
     -4.910  0.1909E+00  0.3100E+00
     -4.856  0.1860E+00  0.3200E+00
     -4.802  0.1771E+00  0.3296E+00
     -4.748  0.1651E+00  0.3384E+00
     -4.694  0.1572E+00  0.3469E+00
     -4.641  0.1581E+00  0.3554E+00
     -4.587  0.1650E+00  0.3643E+00
     -4.533  0.1700E+00  0.3734E+00
     -4.479  0.1713E+00  0.3826E+00
     -4.425  0.1735E+00  0.3920E+00
     -4.372  0.1758E+00  0.4014E+00
     -4.318  0.1746E+00  0.4108E+00
     -4.264  0.1711E+00  0.4200E+00
     -4.210  0.1684E+00  0.4291E+00
     -4.156  0.1668E+00  0.4381E+00
     -4.102  0.1664E+00  0.4470E+00
     -4.049  0.1670E+00  0.4560E+00
     -3.995  0.1665E+00  0.4650E+00
     -3.941  0.1650E+00  0.4739E+00
     -3.887  0.1659E+00  0.4828E+00
     -3.833  0.1714E+00  0.4920E+00
     -3.780  0.1801E+00  0.5017E+00
     -3.726  0.1892E+00  0.5119E+00
     -3.672  0.1964E+00  0.5224E+00
     -3.618  0.2032E+00  0.5334E+00
     -3.564  0.2113E+00  0.5448E+00
     -3.511  0.2178E+00  0.5565E+00
     -3.457  0.2192E+00  0.5683E+00
     -3.403  0.2168E+00  0.5799E+00
     -3.349  0.2109E+00  0.5913E+00
     -3.295  0.1999E+00  0.6020E+00
     -3.242  0.1873E+00  0.6121E+00
     -3.188  0.1787E+00  0.6217E+00
     -3.134  0.1747E+00  0.6311E+00
     -3.080  0.1737E+00  0.6405E+00
     -3.026  0.1757E+00  0.6499E+00
     -2.972  0.1793E+00  0.6596E+00
     -2.919  0.1832E+00  0.6694E+00
     -2.865  0.1888E+00  0.6796E+00
     -2.811  0.1963E+00  0.6902E+00
     -2.757  0.2015E+00  0.7010E+00
     -2.703  0.2000E+00  0.7118E+00
     -2.650  0.1942E+00  0.7222E+00
     -2.596  0.1912E+00  0.7325E+00
     -2.542  0.1929E+00  0.7429E+00
     -2.488  0.1945E+00  0.7534E+00
     -2.434  0.1945E+00  0.7638E+00
     -2.381  0.1945E+00  0.7743E+00
     -2.327  0.1914E+00  0.7846E+00
     -2.273  0.1856E+00  0.7946E+00
     -2.219  0.1825E+00  0.8044E+00
     -2.165  0.1842E+00  0.8143E+00
     -2.112  0.1885E+00  0.8245E+00
     -2.058  0.1917E+00  0.8348E+00
     -2.004  0.1923E+00  0.8451E+00
     -1.950  0.1918E+00  0.8554E+00
     -1.896  0.1932E+00  0.8658E+00
     -1.842  0.1982E+00  0.8765E+00
     -1.789  0.2029E+00  0.8874E+00
     -1.735  0.2033E+00  0.8984E+00
     -1.681  0.2014E+00  0.9092E+00
     -1.627  0.1991E+00  0.9199E+00
     -1.573  0.1976E+00  0.9305E+00
     -1.520  0.1973E+00  0.9412E+00
     -1.466  0.1979E+00  0.9518E+00
     -1.412  0.1973E+00  0.9624E+00
     -1.358  0.1926E+00  0.9728E+00
     -1.304  0.1824E+00  0.9826E+00
     -1.251  0.1667E+00  0.9916E+00
     -1.197  0.1439E+00  0.9993E+00
     -1.143  0.1166E+00  0.1006E+01
     -1.089  0.9143E-01  0.1011E+01
     -1.035  0.6860E-01  0.1014E+01
     -0.981  0.4580E-01  0.1017E+01
     -0.928  0.2934E-01  0.1018E+01
     -0.874  0.2358E-01  0.1020E+01
     -0.820  0.2171E-01  0.1021E+01
     -0.766  0.1784E-01  0.1022E+01
     -0.712  0.1519E-01  0.1022E+01
     -0.659  0.1814E-01  0.1023E+01
     -0.605  0.2593E-01  0.1025E+01
     -0.551  0.3592E-01  0.1027E+01
     -0.497  0.4474E-01  0.1029E+01
     -0.443  0.4764E-01  0.1032E+01
     -0.390  0.4242E-01  0.1034E+01
     -0.336  0.3481E-01  0.1036E+01
     -0.282  0.3508E-01  0.1038E+01
     -0.228  0.4220E-01  0.1040E+01
     -0.174  0.4433E-01  0.1042E+01
     -0.121  0.3722E-01  0.1044E+01
     -0.067  0.2629E-01  0.1046E+01
     -0.013  0.1817E-01  0.1047E+01
      0.041  0.1621E-01  0.1048E+01
      0.095  0.1982E-01  0.1049E+01
      0.149  0.2559E-01  0.1050E+01
      0.202  0.2994E-01  0.1052E+01
      0.256  0.3303E-01  0.1054E+01
      0.310  0.3592E-01  0.1055E+01
      0.364  0.3878E-01  0.1058E+01
      0.418  0.4327E-01  0.1060E+01
      0.471  0.4800E-01  0.1062E+01
      0.525  0.4803E-01  0.1065E+01
      0.579  0.4432E-01  0.1067E+01
      0.633  0.4277E-01  0.1070E+01
      0.687  0.4404E-01  0.1072E+01
      0.740  0.4317E-01  0.1074E+01
      0.794  0.3715E-01  0.1076E+01
      0.848  0.2929E-01  0.1078E+01
      0.902  0.2487E-01  0.1079E+01
      0.956  0.2454E-01  0.1081E+01
      1.010  0.2500E-01  0.1082E+01
      1.063  0.2311E-01  0.1083E+01
      1.117  0.1898E-01  0.1084E+01
      1.171  0.1514E-01  0.1085E+01
      1.225  0.1310E-01  0.1086E+01
      1.279  0.1287E-01  0.1086E+01
      1.332  0.1276E-01  0.1087E+01
      1.386  0.1172E-01  0.1088E+01
      1.440  0.1307E-01  0.1089E+01
      1.494  0.2081E-01  0.1090E+01
      1.548  0.3209E-01  0.1091E+01
      1.601  0.3869E-01  0.1093E+01
      1.655  0.3717E-01  0.1095E+01
      1.709  0.3282E-01  0.1097E+01
      1.763  0.3191E-01  0.1099E+01
      1.817  0.3358E-01  0.1101E+01
      1.870  0.3193E-01  0.1102E+01
      1.924  0.2586E-01  0.1104E+01
      1.978  0.1988E-01  0.1105E+01
      2.032  0.1665E-01  0.1106E+01
      2.086  0.1930E-01  0.1107E+01
      2.140  0.2955E-01  0.1108E+01
      2.193  0.4040E-01  0.1111E+01
      2.247  0.4444E-01  0.1113E+01
      2.301  0.4340E-01  0.1115E+01
      2.355  0.4417E-01  0.1118E+01
      2.409  0.4786E-01  0.1120E+01
      2.462  0.4898E-01  0.1123E+01
      2.516  0.4706E-01  0.1125E+01
      2.570  0.4584E-01  0.1128E+01
      2.624  0.4574E-01  0.1130E+01
      2.678  0.4436E-01  0.1133E+01
      2.731  0.3864E-01  0.1135E+01
      2.785  0.2906E-01  0.1136E+01
      2.839  0.1904E-01  0.1137E+01
      2.893  0.1246E-01  0.1138E+01
      2.947  0.1140E-01  0.1139E+01
      3.001  0.1193E-01  0.1139E+01
      3.054  0.1035E-01  0.1140E+01
      3.108  0.1057E-01  0.1140E+01
      3.162  0.1651E-01  0.1141E+01
      3.216  0.2456E-01  0.1143E+01
      3.270  0.2707E-01  0.1144E+01
      3.323  0.2130E-01  0.1145E+01
      3.377  0.1446E-01  0.1146E+01
      3.431  0.1535E-01  0.1147E+01
      3.485  0.2314E-01  0.1148E+01
      3.539  0.3094E-01  0.1150E+01
      3.592  0.3704E-01  0.1152E+01
      3.646  0.4228E-01  0.1154E+01
      3.700  0.4306E-01  0.1156E+01
      3.754  0.3668E-01  0.1158E+01
      3.808  0.2704E-01  0.1160E+01
      3.861  0.2052E-01  0.1161E+01
      3.915  0.1936E-01  0.1162E+01
      3.969  0.2344E-01  0.1163E+01
      4.023  0.2980E-01  0.1165E+01
      4.077  0.3106E-01  0.1167E+01
      4.131  0.2706E-01  0.1168E+01
      4.184  0.2517E-01  0.1169E+01
      4.238  0.2405E-01  0.1171E+01
      4.292  0.1835E-01  0.1172E+01
      4.346  0.1429E-01  0.1172E+01
      4.400  0.1957E-01  0.1173E+01
      4.453  0.2915E-01  0.1175E+01
      4.507  0.3454E-01  0.1177E+01
      4.561  0.3783E-01  0.1179E+01
      4.615  0.4448E-01  0.1181E+01
      4.669  0.5149E-01  0.1184E+01
      4.722  0.5300E-01  0.1187E+01
      4.776  0.5052E-01  0.1190E+01
      4.830  0.5070E-01  0.1192E+01
      4.884  0.5411E-01  0.1195E+01
      4.938  0.5590E-01  0.1198E+01
      4.992  0.5676E-01  0.1201E+01
      5.045  0.5980E-01  0.1205E+01
      5.099  0.6135E-01  0.1208E+01
      5.153  0.6015E-01  0.1211E+01
      5.207  0.6248E-01  0.1214E+01
      5.261  0.6506E-01  0.1218E+01
      5.314  0.5598E-01  0.1221E+01
      5.368  0.3541E-01  0.1223E+01
      5.422  0.1567E-01  0.1224E+01
      5.476  0.4676E-02  0.1224E+01
      5.530  0.9013E-03  0.1224E+01
      5.583  0.1078E-03  0.1224E+01
      5.637  0.7743E-05  0.1224E+01
      5.691  0.3269E-06  0.1224E+01
      5.745  0.7996E-08  0.1224E+01
      5.799  0.1123E-09  0.1224E+01
      5.852  0.9001E-12  0.1224E+01
      5.906  0.4102E-14  0.1224E+01
      5.960  0.1100E-16  0.1224E+01
      6.014  0.0000E+00  0.1224E+01
      6.068  0.0000E+00  0.1224E+01
      6.122  0.0000E+00  0.1224E+01
      6.175  0.0000E+00  0.1224E+01
      6.229  0.0000E+00  0.1224E+01
      6.283  0.0000E+00  0.1224E+01
      6.337  0.0000E+00  0.1224E+01
