       N       E                     dE             d eps       ncg     rms          rms(c)
DAV:   1     0.320205089394E+04    0.32021E+04   -0.18981E+05  3672   0.112E+03
DAV:   2     0.169605947854E+02   -0.31851E+04   -0.29279E+04  4356   0.263E+02
DAV:   3    -0.199801601911E+03   -0.21676E+03   -0.20114E+03  4140   0.652E+01
DAV:   4    -0.205695070106E+03   -0.58935E+01   -0.58232E+01  4260   0.108E+01
DAV:   5    -0.205878178685E+03   -0.18311E+00   -0.18254E+00  4428   0.196E+00    0.625E+01
RMM:   6    -0.197761149910E+03    0.81170E+01   -0.88868E+01  3679   0.149E+01    0.525E+01
RMM:   7    -0.205229518976E+03   -0.74684E+01   -0.54785E+01  3686   0.125E+01    0.411E+01
RMM:   8    -0.225548030815E+03   -0.20319E+02   -0.88243E+01  3672   0.135E+01    0.447E+01
RMM:   9    -0.208039235217E+03    0.17509E+02   -0.42509E+01  3673   0.996E+00    0.320E+01
RMM:  10    -0.195308243976E+03    0.12731E+02   -0.16714E+01  3682   0.672E+00    0.194E+01
RMM:  11    -0.192341773538E+03    0.29665E+01   -0.12290E+01  3680   0.565E+00    0.129E+01
RMM:  12    -0.189484865704E+03    0.28569E+01   -0.40459E+00  3682   0.314E+00    0.868E+00
RMM:  13    -0.188936919831E+03    0.54795E+00   -0.14327E+00  3681   0.183E+00    0.710E+00
RMM:  14    -0.188822696817E+03    0.11422E+00   -0.82778E-01  3680   0.135E+00    0.623E+00
RMM:  15    -0.188808220539E+03    0.14476E-01   -0.36979E-01  3681   0.951E-01    0.519E+00
RMM:  16    -0.188683933699E+03    0.12429E+00   -0.18980E-01  3680   0.685E-01    0.390E+00
RMM:  17    -0.188592430410E+03    0.91503E-01   -0.20317E-01  3682   0.703E-01    0.277E+00
RMM:  18    -0.188535499033E+03    0.56931E-01   -0.74303E-02  3680   0.418E-01    0.169E+00
RMM:  19    -0.188506075131E+03    0.29424E-01   -0.21606E-02  3682   0.220E-01    0.956E-01
RMM:  20    -0.188501314003E+03    0.47611E-02   -0.43238E-03  3684   0.973E-02    0.714E-01
RMM:  21    -0.188498509469E+03    0.28045E-02   -0.24658E-03  3681   0.740E-02    0.520E-01
RMM:  22    -0.188496897993E+03    0.16115E-02   -0.17183E-03  3681   0.613E-02    0.381E-01
RMM:  23    -0.188495439934E+03    0.14581E-02   -0.27841E-03  3681   0.761E-02    0.195E-01
RMM:  24    -0.188495315502E+03    0.12443E-03   -0.66215E-04  3683   0.378E-02    0.108E-01
RMM:  25    -0.188495498889E+03   -0.18339E-03   -0.23796E-04  3685   0.225E-02    0.787E-02
RMM:  26    -0.188495722537E+03   -0.22365E-03   -0.94692E-05  3681   0.148E-02    0.485E-02
RMM:  27    -0.188496140869E+03   -0.41833E-03   -0.68881E-05  3679   0.121E-02    0.365E-02
RMM:  28    -0.188496653782E+03   -0.51291E-03   -0.49241E-05  3672   0.969E-03    0.341E-02
RMM:  29    -0.188496968668E+03   -0.31489E-03   -0.21411E-05  3650   0.680E-03    0.205E-02
RMM:  30    -0.188497497472E+03   -0.52880E-03   -0.20252E-05  3588   0.616E-03    0.145E-02
RMM:  31    -0.188498030444E+03   -0.53297E-03   -0.25409E-05  3567   0.692E-03    0.147E-02
RMM:  32    -0.188498615658E+03   -0.58521E-03   -0.44150E-05  3631   0.859E-03    0.847E-03
RMM:  33    -0.188498726902E+03   -0.11124E-03   -0.81006E-06  2789   0.338E-03    0.713E-03
RMM:  34    -0.188498830190E+03   -0.10329E-03   -0.38955E-06  2596   0.248E-03    0.434E-03
RMM:  35    -0.188498889824E+03   -0.59634E-04   -0.13223E-06  2216   0.155E-03    0.280E-03
RMM:  36    -0.188498927420E+03   -0.37597E-04   -0.68063E-07  2148   0.115E-03    0.136E-03
RMM:  37    -0.188498964115E+03   -0.36695E-04   -0.66331E-07  2152   0.116E-03    0.187E-03
RMM:  38    -0.188498977693E+03   -0.13578E-04   -0.31576E-07  1873   0.797E-04    0.978E-04
RMM:  39    -0.188498984563E+03   -0.68702E-05   -0.19511E-07  1613   0.623E-04    0.614E-04
RMM:  40    -0.188498985774E+03   -0.12112E-05   -0.60368E-08  1148   0.410E-04    0.442E-04
RMM:  41    -0.188498986663E+03   -0.88906E-06   -0.32846E-08   849   0.365E-04
   1 F= -.18849899E+03 E0= -.18836655E+03  d E =-.188499E+03
       N       E                     dE             d eps       ncg     rms          rms(c)
DAV:   1    -0.189622679443E+03   -0.11237E+01   -0.38859E+02  3684   0.302E+01    0.388E+00
RMM:   2    -0.190018711003E+03   -0.39603E+00   -0.40746E+00  3682   0.436E+00    0.232E+00
RMM:   3    -0.190147120043E+03   -0.12841E+00   -0.36647E-01  3702   0.105E+00    0.391E+00
RMM:   4    -0.190023288988E+03    0.12383E+00   -0.16886E-01  3687   0.669E-01    0.197E+00
RMM:   5    -0.190085646505E+03   -0.62358E-01   -0.98407E-02  3687   0.472E-01    0.302E+00
RMM:   6    -0.190001326702E+03    0.84320E-01   -0.60970E-02  3684   0.388E-01    0.111E+00
RMM:   7    -0.189991280578E+03    0.10046E-01   -0.20070E-02  3680   0.227E-01    0.515E-01
RMM:   8    -0.189989565200E+03    0.17154E-02   -0.57648E-03  3683   0.119E-01    0.404E-01
RMM:   9    -0.189987900060E+03    0.16651E-02   -0.24293E-03  3684   0.782E-02    0.146E-01
RMM:  10    -0.189987867302E+03    0.32758E-04   -0.80413E-04  3687   0.447E-02    0.132E-01
RMM:  11    -0.189987699856E+03    0.16745E-03   -0.23586E-04  3689   0.246E-02    0.539E-02
RMM:  12    -0.189987700843E+03   -0.98697E-06   -0.59401E-05  3682   0.124E-02    0.444E-02
RMM:  13    -0.189987690357E+03    0.10486E-04   -0.27598E-05  3674   0.854E-03    0.289E-02
RMM:  14    -0.189987686189E+03    0.41680E-05   -0.14248E-05  3658   0.611E-03    0.155E-02
RMM:  15    -0.189987684887E+03    0.13024E-05   -0.44433E-06  2851   0.345E-03    0.489E-03
RMM:  16    -0.189987685929E+03   -0.10421E-05   -0.12803E-06  2061   0.197E-03    0.556E-03
RMM:  17    -0.189987686269E+03   -0.33990E-06   -0.50638E-07  1983   0.139E-03
   2 F= -.18998769E+03 E0= -.18985881E+03  d E =-.148870E+01
       N       E                     dE             d eps       ncg     rms          rms(c)
DAV:   1    -0.188755180825E+03    0.12325E+01   -0.32510E+03  3672   0.895E+01    0.875E+00
RMM:   2    -0.191871833222E+03   -0.31167E+01   -0.32143E+01  3684   0.124E+01    0.519E+00
RMM:   3    -0.192411636921E+03   -0.53980E+00   -0.20873E+00  3708   0.251E+00    0.803E+00
RMM:   4    -0.191799074532E+03    0.61256E+00   -0.72352E-01  3686   0.139E+00    0.448E+00
RMM:   5    -0.192129448349E+03   -0.33037E+00   -0.51459E-01  3687   0.109E+00    0.656E+00
RMM:   6    -0.191719520878E+03    0.40993E+00   -0.43352E-01  3686   0.104E+00    0.271E+00
RMM:   7    -0.191650935409E+03    0.68585E-01   -0.17468E-01  3684   0.665E-01    0.125E+00
RMM:   8    -0.191631227185E+03    0.19708E-01   -0.36308E-02  3685   0.299E-01    0.758E-01
RMM:   9    -0.191626594089E+03    0.46331E-02   -0.12319E-02  3686   0.174E-01    0.447E-01
RMM:  10    -0.191624963080E+03    0.16310E-02   -0.42578E-03  3686   0.102E-01    0.212E-01
RMM:  11    -0.191624796395E+03    0.16669E-03   -0.13865E-03  3690   0.590E-02    0.167E-01
RMM:  12    -0.191624693025E+03    0.10337E-03   -0.45611E-04  3686   0.347E-02    0.118E-01
RMM:  13    -0.191624597702E+03    0.95323E-04   -0.22072E-04  3679   0.241E-02    0.620E-02
RMM:  14    -0.191624573015E+03    0.24687E-04   -0.64483E-05  3681   0.131E-02    0.257E-02
RMM:  15    -0.191624576052E+03   -0.30369E-05   -0.19096E-05  3675   0.683E-03    0.190E-02
RMM:  16    -0.191624578961E+03   -0.29093E-05   -0.54641E-06  2964   0.382E-03    0.108E-02
RMM:  17    -0.191624582076E+03   -0.31146E-05   -0.17831E-06  2165   0.231E-03    0.719E-03
RMM:  18    -0.191624589068E+03   -0.69917E-05   -0.83314E-07  2095   0.161E-03    0.284E-03
RMM:  19    -0.191624591649E+03   -0.25817E-05   -0.26597E-07  1987   0.880E-04    0.142E-03
RMM:  20    -0.191624597438E+03   -0.57887E-05   -0.16141E-07  1495   0.584E-04    0.118E-03
RMM:  21    -0.191624600846E+03   -0.34084E-05   -0.10968E-07  1303   0.512E-04    0.107E-03
RMM:  22    -0.191624607419E+03   -0.65724E-05   -0.28906E-07  1875   0.644E-04    0.686E-04
RMM:  23    -0.191624610423E+03   -0.30047E-05   -0.16183E-07  1261   0.470E-04    0.601E-04
RMM:  24    -0.191624611999E+03   -0.15754E-05   -0.10080E-07  1058   0.421E-04    0.365E-04
RMM:  25    -0.191624613192E+03   -0.11935E-05   -0.11796E-07  1158   0.446E-04    0.391E-04
RMM:  26    -0.191624613561E+03   -0.36819E-06   -0.30861E-08   633   0.364E-04
   3 F= -.19162461E+03 E0= -.19150684E+03  d E =-.312563E+01
       N       E                     dE             d eps       ncg     rms          rms(c)
DAV:   1    -0.191794217121E+03   -0.16960E+00   -0.34598E+02  3672   0.288E+01    0.256E+00
RMM:   2    -0.192161153496E+03   -0.36694E+00   -0.38531E+00  3687   0.419E+00    0.160E+00
RMM:   3    -0.192214773940E+03   -0.53620E-01   -0.25695E-01  3704   0.887E-01    0.283E+00
RMM:   4    -0.192161262673E+03    0.53511E-01   -0.68560E-02  3688   0.443E-01    0.153E+00
RMM:   5    -0.192175105402E+03   -0.13843E-01   -0.41611E-02  3688   0.308E-01    0.192E+00
RMM:   6    -0.192153459954E+03    0.21645E-01   -0.50208E-02  3684   0.349E-01    0.118E+00
RMM:   7    -0.192139931377E+03    0.13529E-01   -0.21277E-02  3684   0.233E-01    0.414E-01
RMM:   8    -0.192138657504E+03    0.12739E-02   -0.49902E-03  3685   0.113E-01    0.298E-01
RMM:   9    -0.192137437187E+03    0.12203E-02   -0.20075E-03  3683   0.713E-02    0.121E-01
RMM:  10    -0.192137330247E+03    0.10694E-03   -0.45500E-04  3684   0.332E-02    0.818E-02
RMM:  11    -0.192137266163E+03    0.64084E-04   -0.16182E-04  3687   0.198E-02    0.416E-02
RMM:  12    -0.192137260127E+03    0.60356E-05   -0.59729E-05  3686   0.122E-02    0.299E-02
RMM:  13    -0.192137256504E+03    0.36233E-05   -0.21777E-05  3680   0.759E-03    0.168E-02
RMM:  14    -0.192137256111E+03    0.39319E-06   -0.53145E-06  2901   0.385E-03
   4 F= -.19213726E+03 E0= -.19202246E+03  d E =-.512643E+00
       N       E                     dE             d eps       ncg     rms          rms(c)
DAV:   1    -0.192123059761E+03    0.14197E-01   -0.57286E+01  3732   0.117E+01    0.935E-01
RMM:   2    -0.192184806724E+03   -0.61747E-01   -0.64836E-01  3687   0.172E+00    0.634E-01
RMM:   3    -0.192192824416E+03   -0.80177E-02   -0.43479E-02  3707   0.365E-01    0.110E+00
RMM:   4    -0.192184369777E+03    0.84546E-02   -0.10070E-02  3688   0.171E-01    0.598E-01
RMM:   5    -0.192184892878E+03   -0.52310E-03   -0.49598E-03  3689   0.107E-01    0.645E-01
RMM:   6    -0.192182990343E+03    0.19025E-02   -0.80316E-03  3684   0.139E-01    0.455E-01
RMM:   7    -0.192181095494E+03    0.18948E-02   -0.37855E-03  3684   0.982E-02    0.171E-01
RMM:   8    -0.192180870212E+03    0.22528E-03   -0.79697E-04  3685   0.456E-02    0.119E-01
RMM:   9    -0.192180674234E+03    0.19598E-03   -0.32529E-04  3683   0.288E-02    0.534E-02
RMM:  10    -0.192180649425E+03    0.24809E-04   -0.87740E-05  3683   0.145E-02    0.354E-02
RMM:  11    -0.192180636007E+03    0.13418E-04   -0.32195E-05  3680   0.871E-03    0.157E-02
RMM:  12    -0.192180636190E+03   -0.18333E-06   -0.11993E-05  3672   0.540E-03    0.119E-02
RMM:  13    -0.192180636603E+03   -0.41223E-06   -0.41506E-06  2748   0.337E-03
   5 F= -.19218064E+03 E0= -.19206697E+03  d E =-.556023E+00
       N       E                     dE             d eps       ncg     rms          rms(c)
DAV:   1    -0.192194572602E+03   -0.13936E-01   -0.43126E+01  3720   0.101E+01    0.826E-01
RMM:   2    -0.192239832105E+03   -0.45260E-01   -0.47757E-01  3687   0.148E+00    0.540E-01
RMM:   3    -0.192244235882E+03   -0.44038E-02   -0.30313E-02  3703   0.308E-01    0.864E-01
RMM:   4    -0.192238450830E+03    0.57851E-02   -0.73484E-03  3686   0.148E-01    0.395E-01
RMM:   5    -0.192244166558E+03   -0.57157E-02   -0.56647E-03  3686   0.114E-01    0.829E-01
RMM:   6    -0.192238752177E+03    0.54144E-02   -0.56178E-03  3685   0.114E-01    0.405E-01
RMM:   7    -0.192237251091E+03    0.15011E-02   -0.25572E-03  3683   0.810E-02    0.130E-01
RMM:   8    -0.192237101002E+03    0.15009E-03   -0.47725E-04  3685   0.357E-02    0.924E-02
RMM:   9    -0.192237005506E+03    0.95497E-04   -0.21525E-04  3683   0.232E-02    0.548E-02
RMM:  10    -0.192236969210E+03    0.36296E-04   -0.79775E-05  3682   0.137E-02    0.249E-02
RMM:  11    -0.192236963764E+03    0.54465E-05   -0.20497E-05  3681   0.706E-03    0.140E-02
RMM:  12    -0.192236963316E+03    0.44749E-06   -0.75707E-06  3661   0.429E-03
   6 F= -.19223696E+03 E0= -.19212437E+03  d E =-.563267E-01
       N       E                     dE             d eps       ncg     rms          rms(c)
DAV:   1    -0.192235895936E+03    0.10678E-02   -0.54247E+00  3732   0.358E+00    0.286E-01
RMM:   2    -0.192241608247E+03   -0.57123E-02   -0.60309E-02  3687   0.526E-01    0.198E-01
RMM:   3    -0.192242223345E+03   -0.61510E-03   -0.39806E-03  3704   0.112E-01    0.319E-01
RMM:   4    -0.192241410721E+03    0.81262E-03   -0.93329E-04  3686   0.528E-02    0.146E-01
RMM:   5    -0.192242041355E+03   -0.63063E-03   -0.63183E-04  3685   0.378E-02    0.280E-01
RMM:   6    -0.192241402611E+03    0.63874E-03   -0.73878E-04  3685   0.418E-02    0.131E-01
RMM:   7    -0.192241262649E+03    0.13996E-03   -0.32960E-04  3684   0.291E-02    0.479E-02
RMM:   8    -0.192241242629E+03    0.20021E-04   -0.59408E-05  3686   0.127E-02    0.327E-02
RMM:   9    -0.192241231474E+03    0.11154E-04   -0.26485E-05  3675   0.816E-03    0.206E-02
RMM:  10    -0.192241225855E+03    0.56190E-05   -0.11128E-05  3672   0.510E-03    0.820E-03
RMM:  11    -0.192241225320E+03    0.53543E-06   -0.25436E-06  2202   0.262E-03
   7 F= -.19224123E+03 E0= -.19212900E+03  d E =-.605887E-01
       N       E                     dE             d eps       ncg     rms          rms(c)
DAV:   1    -0.192245818424E+03   -0.45926E-02   -0.95017E+00  3672   0.472E+00    0.318E-01
RMM:   2    -0.192255581794E+03   -0.97634E-02   -0.10271E-01  3686   0.690E-01    0.245E-01
RMM:   3    -0.192256582766E+03   -0.10010E-02   -0.58778E-03  3726   0.138E-01    0.361E-01
RMM:   4    -0.192255797909E+03    0.78486E-03   -0.12867E-03  3679   0.582E-02    0.272E-01
RMM:   5    -0.192255407589E+03    0.39032E-03   -0.11348E-03  3687   0.530E-02    0.205E-01
RMM:   6    -0.192255140698E+03    0.26689E-03   -0.13113E-03  3684   0.574E-02    0.124E-01
RMM:   7    -0.192255096926E+03    0.43771E-04   -0.46822E-04  3684   0.346E-02    0.886E-02
RMM:   8    -0.192255022417E+03    0.74509E-04   -0.10608E-04  3687   0.167E-02    0.410E-02
RMM:   9    -0.192255000445E+03    0.21972E-04   -0.51017E-05  3678   0.113E-02    0.292E-02
RMM:  10    -0.192254987091E+03    0.13354E-04   -0.30589E-05  3684   0.841E-03    0.149E-02
RMM:  11    -0.192254985095E+03    0.19963E-05   -0.78751E-06  3650   0.431E-03    0.775E-03
RMM:  12    -0.192254984796E+03    0.29839E-06   -0.30995E-06  2180   0.282E-03
   8 F= -.19225498E+03 E0= -.19214305E+03  d E =-.137595E-01
       N       E                     dE             d eps       ncg     rms          rms(c)
DAV:   1    -0.192253517634E+03    0.14675E-02   -0.44070E+00  3672   0.321E+00    0.213E-01
RMM:   2    -0.192258041763E+03   -0.45241E-02   -0.47644E-02  3686   0.470E-01    0.167E-01
RMM:   3    -0.192258469526E+03   -0.42776E-03   -0.27234E-03  3727   0.937E-02    0.240E-01
RMM:   4    -0.192258136240E+03    0.33329E-03   -0.58071E-04  3679   0.391E-02    0.186E-01
RMM:   5    -0.192257953767E+03    0.18247E-03   -0.50411E-04  3687   0.354E-02    0.139E-01
RMM:   6    -0.192257837514E+03    0.11625E-03   -0.61815E-04  3684   0.394E-02    0.874E-02
RMM:   7    -0.192257817476E+03    0.20038E-04   -0.22994E-04  3684   0.242E-02    0.631E-02
RMM:   8    -0.192257780695E+03    0.36780E-04   -0.52520E-05  3687   0.118E-02    0.280E-02
RMM:   9    -0.192257770484E+03    0.10211E-04   -0.24089E-05  3673   0.777E-03    0.205E-02
RMM:  10    -0.192257763910E+03    0.65744E-05   -0.14507E-05  3673   0.580E-03    0.103E-02
RMM:  11    -0.192257762919E+03    0.99093E-06   -0.36235E-06  2443   0.306E-03
   9 F= -.19225776E+03 E0= -.19214602E+03  d E =-.165376E-01
       N       E                     dE             d eps       ncg     rms          rms(c)
DAV:   1    -0.192258194781E+03   -0.43087E-03   -0.96438E+00  3672   0.475E+00    0.269E-01
RMM:   2    -0.192268290820E+03   -0.10096E-01   -0.10385E-01  3684   0.698E-01    0.269E-01
RMM:   3    -0.192268357450E+03   -0.66629E-04   -0.62582E-03  3777   0.143E-01    0.235E-01
RMM:   4    -0.192268121141E+03    0.23631E-03   -0.92545E-04  3678   0.517E-02    0.226E-01
RMM:   5    -0.192268417481E+03   -0.29634E-03   -0.71345E-04  3687   0.408E-02    0.296E-01
RMM:   6    -0.192267855219E+03    0.56226E-03   -0.12192E-03  3684   0.531E-02    0.202E-01
RMM:   7    -0.192267625515E+03    0.22970E-03   -0.10582E-03  3686   0.512E-02    0.101E-01
RMM:   8    -0.192267571231E+03    0.54283E-04   -0.21072E-04  3686   0.234E-02    0.526E-02
RMM:   9    -0.192267542460E+03    0.28771E-04   -0.40762E-05  3682   0.103E-02    0.416E-02
RMM:  10    -0.192267513183E+03    0.29277E-04   -0.51184E-05  3686   0.108E-02    0.228E-02
RMM:  11    -0.192267506726E+03    0.64572E-05   -0.20509E-05  3672   0.682E-03    0.127E-02
RMM:  12    -0.192267504916E+03    0.18101E-05   -0.15126E-05  3678   0.572E-03    0.512E-03
RMM:  13    -0.192267504974E+03   -0.58397E-07   -0.18328E-06  2024   0.230E-03
  10 F= -.19226750E+03 E0= -.19215548E+03  d E =-.974206E-02
       N       E                     dE             d eps       ncg     rms          rms(c)
DAV:   1    -0.192258543745E+03    0.89612E-02   -0.13939E+01  3672   0.571E+00    0.319E-01
RMM:   2    -0.192273136300E+03   -0.14593E-01   -0.14984E-01  3684   0.839E-01    0.321E-01
RMM:   3    -0.192273215115E+03   -0.78815E-04   -0.90083E-03  3775   0.171E-01    0.279E-01
RMM:   4    -0.192272861664E+03    0.35345E-03   -0.12913E-03  3679   0.612E-02    0.267E-01
RMM:   5    -0.192273273479E+03   -0.41182E-03   -0.99210E-04  3687   0.482E-02    0.351E-01
RMM:   6    -0.192272482430E+03    0.79105E-03   -0.17476E-03  3684   0.636E-02    0.244E-01
RMM:   7    -0.192272143030E+03    0.33940E-03   -0.15568E-03  3685   0.620E-02    0.121E-01
RMM:   8    -0.192272067633E+03    0.75397E-04   -0.30894E-04  3685   0.284E-02    0.645E-02
RMM:   9    -0.192272025770E+03    0.41863E-04   -0.58671E-05  3685   0.124E-02    0.512E-02
RMM:  10    -0.192271981823E+03    0.43947E-04   -0.75524E-05  3683   0.132E-02    0.283E-02
RMM:  11    -0.192271971667E+03    0.10156E-04   -0.30829E-05  3681   0.835E-03    0.154E-02
RMM:  12    -0.192271968971E+03    0.26959E-05   -0.23588E-05  3683   0.714E-03    0.604E-03
RMM:  13    -0.192271969103E+03   -0.13190E-06   -0.26875E-06  2159   0.278E-03
  11 F= -.19227197E+03 E0= -.19215958E+03  d E =-.142062E-01
       N       E                     dE             d eps       ncg     rms          rms(c)
DAV:   1    -0.192269003605E+03    0.29654E-02   -0.85523E+00  3672   0.451E+00    0.238E-01
RMM:   2    -0.192278075689E+03   -0.90721E-02   -0.94761E-02  3684   0.663E-01    0.229E-01
RMM:   3    -0.192278161058E+03   -0.85369E-04   -0.56493E-03  3742   0.134E-01    0.220E-01
RMM:   4    -0.192277760577E+03    0.40048E-03   -0.72060E-04  3679   0.470E-02    0.154E-01
RMM:   5    -0.192277653880E+03    0.10670E-03   -0.43470E-04  3687   0.337E-02    0.152E-01
RMM:   6    -0.192277953209E+03   -0.29933E-03   -0.10043E-03  3684   0.484E-02    0.233E-01
RMM:   7    -0.192277561124E+03    0.39208E-03   -0.59033E-04  3684   0.365E-02    0.122E-01
RMM:   8    -0.192277467873E+03    0.93251E-04   -0.19159E-04  3688   0.222E-02    0.487E-02
RMM:   9    -0.192277451396E+03    0.16477E-04   -0.32332E-05  3682   0.913E-03    0.379E-02
RMM:  10    -0.192277430053E+03    0.21343E-04   -0.32892E-05  3681   0.875E-03    0.220E-02
RMM:  11    -0.192277424050E+03    0.60036E-05   -0.15612E-05  3676   0.596E-03    0.125E-02
RMM:  12    -0.192277422220E+03    0.18297E-05   -0.18872E-05  3677   0.638E-03    0.503E-03
RMM:  13    -0.192277422370E+03   -0.14943E-06   -0.16140E-06  2010   0.217E-03
  12 F= -.19227742E+03 E0= -.19216448E+03  d E =-.545327E-02
       N       E                     dE             d eps       ncg     rms          rms(c)
DAV:   1    -0.192276817403E+03    0.60482E-03   -0.11046E+00  3732   0.162E+00    0.854E-02
RMM:   2    -0.192277978248E+03   -0.11608E-02   -0.12224E-02  3684   0.238E-01    0.826E-02
RMM:   3    -0.192277983823E+03   -0.55751E-05   -0.72732E-04  3743   0.482E-02    0.786E-02
RMM:   4    -0.192277933253E+03    0.50570E-04   -0.91463E-05  3678   0.167E-02    0.556E-02
RMM:   5    -0.192277921308E+03    0.11945E-04   -0.57008E-05  3687   0.122E-02    0.526E-02
RMM:   6    -0.192277941299E+03   -0.19991E-04   -0.14754E-04  3682   0.187E-02    0.669E-02
RMM:   7    -0.192277929657E+03    0.11642E-04   -0.63553E-05  3681   0.119E-02    0.541E-02
RMM:   8    -0.192277905581E+03    0.24077E-04   -0.24075E-05  3672   0.777E-03    0.179E-02
RMM:   9    -0.192277904069E+03    0.15115E-05   -0.41113E-06  2773   0.331E-03    0.137E-02
RMM:  10    -0.192277901265E+03    0.28042E-05   -0.43585E-06  2937   0.333E-03    0.801E-03
RMM:  11    -0.192277900503E+03    0.76224E-06   -0.20764E-06  1970   0.248E-03
  13 F= -.19227790E+03 E0= -.19216475E+03  d E =-.593140E-02
       N       E                     dE             d eps       ncg     rms          rms(c)
DAV:   1    -0.192274222454E+03    0.36788E-02   -0.65570E+00  3672   0.396E+00    0.202E-01
RMM:   2    -0.192281358663E+03   -0.71362E-02   -0.73269E-02  3683   0.581E-01    0.220E-01
RMM:   3    -0.192281411755E+03   -0.53092E-04   -0.45998E-03  3727   0.119E-01    0.217E-01
RMM:   4    -0.192281106269E+03    0.30549E-03   -0.53099E-04  3679   0.401E-02    0.162E-01
RMM:   5    -0.192280984677E+03    0.12159E-03   -0.16581E-04  3689   0.205E-02    0.136E-01
RMM:   6    -0.192280884150E+03    0.10053E-03   -0.39523E-04  3685   0.307E-02    0.125E-01
RMM:   7    -0.192280785842E+03    0.98308E-04   -0.89113E-04  3684   0.460E-02    0.676E-02
RMM:   8    -0.192280791790E+03   -0.59482E-05   -0.17244E-04  3682   0.207E-02    0.484E-02
RMM:   9    -0.192280773286E+03    0.18504E-04   -0.26382E-05  3678   0.835E-03    0.325E-02
RMM:  10    -0.192280759780E+03    0.13506E-04   -0.19035E-05  3676   0.681E-03    0.219E-02
RMM:  11    -0.192280753517E+03    0.62635E-05   -0.12662E-05  3672   0.538E-03    0.115E-02
RMM:  12    -0.192280752172E+03    0.13452E-05   -0.14651E-05  3677   0.566E-03    0.563E-03
RMM:  13    -0.192280752237E+03   -0.65498E-07   -0.21338E-06  2034   0.242E-03
  14 F= -.19228075E+03 E0= -.19216716E+03  d E =-.285173E-02
       N       E                     dE             d eps       ncg     rms          rms(c)
DAV:   1    -0.192280727237E+03    0.24934E-04   -0.54114E-02  3744   0.360E-01    0.181E-02
RMM:   2    -0.192280785097E+03   -0.57860E-04   -0.59895E-04  3684   0.528E-02    0.213E-02
RMM:   3    -0.192280783696E+03    0.14010E-05   -0.37649E-05  3730   0.108E-02    0.185E-02
RMM:   4    -0.192280781276E+03    0.24204E-05   -0.33363E-06  2402   0.343E-03    0.134E-02
RMM:   5    -0.192280781230E+03    0.45264E-07   -0.13405E-06  2038   0.212E-03
  15 F= -.19228078E+03 E0= -.19216716E+03  d E =-.288073E-02
       N       E                     dE             d eps       ncg     rms          rms(c)
DAV:   1    -0.192279059191E+03    0.17221E-02   -0.39907E+00  3672   0.308E+00    0.162E-01
RMM:   2    -0.192283660753E+03   -0.46016E-02   -0.45696E-02  3682   0.455E-01    0.227E-01
RMM:   3    -0.192283428191E+03    0.23256E-03   -0.31420E-03  3722   0.978E-02    0.158E-01
RMM:   4    -0.192283232081E+03    0.19611E-03   -0.27861E-04  3683   0.299E-02    0.108E-01
RMM:   5    -0.192283284779E+03   -0.52698E-04   -0.13973E-04  3687   0.188E-02    0.140E-01
RMM:   6    -0.192283259399E+03    0.25380E-04   -0.29039E-04  3679   0.256E-02    0.146E-01
RMM:   7    -0.192283097586E+03    0.16181E-03   -0.67623E-04  3683   0.399E-02    0.465E-02
RMM:   8    -0.192283109846E+03   -0.12260E-04   -0.88416E-05  3678   0.148E-02    0.386E-02
RMM:   9    -0.192283096868E+03    0.12977E-04   -0.13629E-05  3667   0.605E-03    0.259E-02
RMM:  10    -0.192283089214E+03    0.76548E-05   -0.98652E-06  3639   0.486E-03    0.187E-02
RMM:  11    -0.192283083634E+03    0.55792E-05   -0.14525E-05  3672   0.568E-03    0.849E-03
RMM:  12    -0.192283083393E+03    0.24146E-06   -0.76759E-06  3551   0.410E-03
  16 F= -.19228308E+03 E0= -.19216906E+03  d E =-.230216E-02
       N       E                     dE             d eps       ncg     rms          rms(c)
DAV:   1    -0.192281552453E+03    0.15312E-02   -0.22076E+00  3672   0.229E+00    0.120E-01
RMM:   2    -0.192284088696E+03   -0.25362E-02   -0.25341E-02  3682   0.339E-01    0.164E-01
RMM:   3    -0.192283974330E+03    0.11437E-03   -0.17273E-03  3726   0.725E-02    0.119E-01
RMM:   4    -0.192283893844E+03    0.80487E-04   -0.16471E-04  3680   0.226E-02    0.954E-02
RMM:   5    -0.192283869380E+03    0.24463E-04   -0.61861E-05  3683   0.125E-02    0.909E-02
RMM:   6    -0.192283852259E+03    0.17122E-04   -0.15363E-04  3677   0.189E-02    0.920E-02
RMM:   7    -0.192283798137E+03    0.54122E-04   -0.39305E-04  3681   0.304E-02    0.354E-02
RMM:   8    -0.192283805777E+03   -0.76397E-05   -0.55769E-05  3676   0.117E-02    0.295E-02
RMM:   9    -0.192283798653E+03    0.71237E-05   -0.79927E-06  3276   0.467E-03    0.201E-02
RMM:  10    -0.192283794295E+03    0.43579E-05   -0.52205E-06  2992   0.364E-03    0.148E-02
RMM:  11    -0.192283790911E+03    0.33845E-05   -0.82196E-06  3634   0.440E-03    0.697E-03
RMM:  12    -0.192283790646E+03    0.26429E-06   -0.47857E-06  2922   0.332E-03
  17 F= -.19228379E+03 E0= -.19216947E+03  d E =-.300942E-02
       N       E                     dE             d eps       ncg     rms          rms(c)
DAV:   1    -0.192280718608E+03    0.30723E-02   -0.51773E+00  3672   0.351E+00    0.179E-01
RMM:   2    -0.192286634358E+03   -0.59157E-02   -0.58904E-02  3683   0.518E-01    0.242E-01
RMM:   3    -0.192286345967E+03    0.28839E-03   -0.39135E-03  3730   0.109E-01    0.155E-01
RMM:   4    -0.192286142115E+03    0.20385E-03   -0.34378E-04  3677   0.333E-02    0.118E-01
RMM:   5    -0.192286115611E+03    0.26504E-04   -0.21743E-04  3687   0.241E-02    0.130E-01
RMM:   6    -0.192286060679E+03    0.54932E-04   -0.10612E-03  3683   0.499E-02    0.106E-01
RMM:   7    -0.192286048595E+03    0.12084E-04   -0.22349E-04  3683   0.224E-02    0.927E-02
RMM:   8    -0.192285990836E+03    0.57759E-04   -0.66778E-05  3683   0.126E-02    0.447E-02
RMM:   9    -0.192285976345E+03    0.14491E-04   -0.16164E-05  3673   0.654E-03    0.292E-02
RMM:  10    -0.192285968204E+03    0.81414E-05   -0.11191E-05  3669   0.517E-03    0.219E-02
RMM:  11    -0.192285960183E+03    0.80210E-05   -0.25730E-05  3682   0.751E-03    0.935E-03
RMM:  12    -0.192285959738E+03    0.44479E-06   -0.71783E-06  3485   0.401E-03
  18 F= -.19228596E+03 E0= -.19217132E+03  d E =-.216909E-02
       N       E                     dE             d eps       ncg     rms          rms(c)
DAV:   1    -0.192285815577E+03    0.14461E-03   -0.27160E-01  3720   0.804E-01    0.407E-02
RMM:   2    -0.192286121891E+03   -0.30631E-03   -0.30762E-03  3683   0.119E-01    0.569E-02
RMM:   3    -0.192286101777E+03    0.20114E-04   -0.20415E-04  3730   0.250E-02    0.357E-02
RMM:   4    -0.192286092734E+03    0.90436E-05   -0.17145E-05  3679   0.747E-03    0.277E-02
RMM:   5    -0.192286093517E+03   -0.78293E-06   -0.11193E-05  3666   0.548E-03    0.314E-02
RMM:   6    -0.192286110589E+03   -0.17072E-04   -0.46540E-05  3681   0.103E-02    0.483E-02
RMM:   7    -0.192286089840E+03    0.20749E-04   -0.22799E-05  3674   0.716E-03    0.148E-02
RMM:   8    -0.192286091107E+03   -0.12670E-05   -0.44098E-06  2765   0.343E-03    0.985E-03
RMM:   9    -0.192286090341E+03    0.76563E-06   -0.92768E-07  1954   0.177E-03
  19 F= -.19228609E+03 E0= -.19217135E+03  d E =-.229969E-02
       N       E                     dE             d eps       ncg     rms          rms(c)
DAV:   1    -0.192282568771E+03    0.35223E-02   -0.51487E+00  3672   0.350E+00    0.167E-01
RMM:   2    -0.192288420372E+03   -0.58516E-02   -0.58631E-02  3682   0.517E-01    0.227E-01
RMM:   3    -0.192288165712E+03    0.25466E-03   -0.38505E-03  3740   0.109E-01    0.143E-01
RMM:   4    -0.192287995814E+03    0.16990E-03   -0.31946E-04  3678   0.320E-02    0.115E-01
RMM:   5    -0.192287973086E+03    0.22729E-04   -0.16011E-04  3687   0.208E-02    0.125E-01
RMM:   6    -0.192288134837E+03   -0.16175E-03   -0.71472E-04  3682   0.405E-02    0.183E-01
RMM:   7    -0.192287845775E+03    0.28906E-03   -0.38569E-04  3682   0.293E-02    0.663E-02
RMM:   8    -0.192287854925E+03   -0.91503E-05   -0.94495E-05  3687   0.153E-02    0.411E-02
RMM:   9    -0.192287845332E+03    0.95925E-05   -0.12150E-05  3671   0.579E-03    0.298E-02
RMM:  10    -0.192287837668E+03    0.76649E-05   -0.93861E-06  3574   0.480E-03    0.232E-02
RMM:  11    -0.192287829254E+03    0.84140E-05   -0.31419E-05  3680   0.833E-03    0.923E-03
RMM:  12    -0.192287828848E+03    0.40578E-06   -0.63774E-06  3244   0.381E-03
  20 F= -.19228783E+03 E0= -.19217291E+03  d E =-.173851E-02
       N       E                     dE             d eps       ncg     rms          rms(c)
DAV:   1    -0.192287076492E+03    0.75276E-03   -0.10127E+00  3672   0.155E+00    0.730E-02
RMM:   2    -0.192288215994E+03   -0.11395E-02   -0.11469E-02  3682   0.229E-01    0.103E-01
RMM:   3    -0.192288150676E+03    0.65318E-04   -0.75004E-04  3740   0.480E-02    0.635E-02
RMM:   4    -0.192288121353E+03    0.29323E-04   -0.59026E-05  3678   0.138E-02    0.525E-02
RMM:   5    -0.192288123527E+03   -0.21740E-05   -0.30824E-05  3684   0.909E-03    0.601E-02
RMM:   6    -0.192288162956E+03   -0.39430E-04   -0.10492E-04  3680   0.154E-02    0.875E-02
RMM:   7    -0.192288098566E+03    0.64390E-04   -0.12476E-04  3683   0.169E-02    0.263E-02
RMM:   8    -0.192288104066E+03   -0.54994E-05   -0.21665E-05  3672   0.732E-03    0.187E-02
RMM:   9    -0.192288102053E+03    0.20125E-05   -0.23094E-06  2262   0.263E-03    0.140E-02
RMM:  10    -0.192288100434E+03    0.16192E-05   -0.17009E-06  1998   0.230E-03    0.111E-02
RMM:  11    -0.192288098555E+03    0.18791E-05   -0.78845E-06  3560   0.431E-03    0.424E-03
RMM:  12    -0.192288098468E+03    0.86504E-07   -0.13832E-06  1949   0.194E-03
  21 F= -.19228810E+03 E0= -.19217309E+03  d E =-.200813E-02
       N       E                     dE             d eps       ncg     rms          rms(c)
DAV:   1    -0.192283349823E+03    0.47487E-02   -0.60015E+00  3672   0.378E+00    0.182E-01
RMM:   2    -0.192290098082E+03   -0.67483E-02   -0.68001E-02  3683   0.557E-01    0.230E-01
RMM:   3    -0.192289884391E+03    0.21369E-03   -0.43956E-03  3737   0.116E-01    0.167E-01
RMM:   4    -0.192289708942E+03    0.17545E-03   -0.41163E-04  3677   0.355E-02    0.147E-01
RMM:   5    -0.192289616271E+03    0.92671E-04   -0.10313E-04  3693   0.164E-02    0.125E-01
RMM:   6    -0.192289580813E+03    0.35458E-04   -0.34171E-04  3684   0.286E-02    0.138E-01
RMM:   7    -0.192289441727E+03    0.13909E-03   -0.95432E-04  3683   0.471E-02    0.554E-02
RMM:   8    -0.192289460288E+03   -0.18561E-04   -0.14946E-04  3683   0.191E-02    0.446E-02
RMM:   9    -0.192289445141E+03    0.15147E-04   -0.17344E-05  3675   0.697E-03    0.303E-02
RMM:  10    -0.192289437527E+03    0.76139E-05   -0.89088E-06  3559   0.472E-03    0.232E-02
RMM:  11    -0.192289429675E+03    0.78526E-05   -0.27309E-05  3675   0.781E-03    0.103E-02
RMM:  12    -0.192289429139E+03    0.53591E-06   -0.83516E-06  3597   0.431E-03
  22 F= -.19228943E+03 E0= -.19217423E+03  d E =-.133067E-02
       N       E                     dE             d eps       ncg     rms          rms(c)
DAV:   1    -0.192289429885E+03   -0.21044E-06   -0.14271E-03  3888   0.581E-02    0.426E-03
RMM:   2    -0.192289432034E+03   -0.21487E-05   -0.16659E-05  3662   0.896E-03    0.910E-03
RMM:   3    -0.192289431046E+03    0.98808E-06   -0.13171E-06  1943   0.222E-03
  23 F= -.19228943E+03 E0= -.19217423E+03  d E =-.133258E-02
       N       E                     dE             d eps       ncg     rms          rms(c)
DAV:   1    -0.192287940169E+03    0.14919E-02   -0.20277E+00  3672   0.220E+00    0.108E-01
RMM:   2    -0.192290205647E+03   -0.22655E-02   -0.22876E-02  3683   0.324E-01    0.137E-01
RMM:   3    -0.192290171669E+03    0.33978E-04   -0.14980E-03  3743   0.677E-02    0.119E-01
RMM:   4    -0.192290112868E+03    0.58801E-04   -0.17027E-04  3677   0.218E-02    0.107E-01
RMM:   5    -0.192290026575E+03    0.86293E-04   -0.48270E-05  3691   0.115E-02    0.679E-02
RMM:   6    -0.192290030015E+03   -0.34397E-05   -0.18619E-04  3684   0.211E-02    0.833E-02
RMM:   7    -0.192289990650E+03    0.39365E-04   -0.28633E-04  3684   0.259E-02    0.362E-02
RMM:   8    -0.192289993691E+03   -0.30415E-05   -0.46717E-05  3683   0.107E-02    0.256E-02
RMM:   9    -0.192289988302E+03    0.53898E-05   -0.52163E-06  2936   0.388E-03    0.173E-02
RMM:  10    -0.192289985447E+03    0.28549E-05   -0.39058E-06  2694   0.322E-03    0.133E-02
RMM:  11    -0.192289982734E+03    0.27129E-05   -0.10948E-05  3672   0.508E-03    0.518E-03
RMM:  12    -0.192289982621E+03    0.11279E-06   -0.17525E-06  1975   0.218E-03
  24 F= -.19228998E+03 E0= -.19217467E+03  d E =-.551575E-03
