 vasp.5.4.1 24Jun15 (build Mar 14 2019 10:18:33) complex                        
  
 executed on INTEL-19.0.2+OPENMPI date 2022.07.11  19:57:16
 running on   36 total cores
 distrk:  each k-point on   36 cores,    1 groups
 distr:  one band on NCORES_PER_BAND=   6 cores,    6 groups


--------------------------------------------------------------------------------------------------------


 INCAR:
 POTCAR:    PAW_PBE Au 04Oct2007                  
 POTCAR:    PAW_PBE Pd 04Jan2005                  
 POTCAR:    PAW_PBE Au 04Oct2007                  
  local pseudopotential read in
  partial core-charges read in
  partial kinetic energy density read in
  atomic valenz-charges read in
  non local Contribution for L=           2  read in
    real space projection operators read in
  non local Contribution for L=           2  read in
    real space projection operators read in
  non local Contribution for L=           0  read in
    real space projection operators read in
  non local Contribution for L=           0  read in
    real space projection operators read in
  non local Contribution for L=           1  read in
    real space projection operators read in
  non local Contribution for L=           1  read in
    real space projection operators read in
    PAW grid and wavefunctions read in
 
   number of l-projection  operators is LMAX  =           6
   number of lm-projection operators is LMMAX =          18
 
 POTCAR:    PAW_PBE Pd 04Jan2005                  
  local pseudopotential read in
  partial core-charges read in
  partial kinetic energy density read in
  atomic valenz-charges read in
  non local Contribution for L=           2  read in
    real space projection operators read in
  non local Contribution for L=           2  read in
    real space projection operators read in
  non local Contribution for L=           0  read in
    real space projection operators read in
  non local Contribution for L=           0  read in
    real space projection operators read in
  non local Contribution for L=           1  read in
    real space projection operators read in
  non local Contribution for L=           1  read in
    real space projection operators read in
    PAW grid and wavefunctions read in
 
   number of l-projection  operators is LMAX  =           6
   number of lm-projection operators is LMMAX =          18
 
 Optimization of the real space projectors (new method)

 maximal supplied QI-value         = 15.12
 optimisation between [QCUT,QGAM] = [ 10.13, 20.41] = [ 28.73,116.64] Ry 
 Optimized for a Real-space Cutoff    1.51 Angstroem

   l    n(q)    QCUT    max X(q) W(low)/X(q) W(high)/X(q)  e(spline) 
   2      8    10.129    60.898    0.46E-03    0.46E-03    0.14E-06
   2      8    10.129    58.894    0.47E-03    0.47E-03    0.14E-06
   0      9    10.129   109.617    0.16E-03    0.11E-03    0.54E-07
   0      9    10.129    75.026    0.15E-03    0.11E-03    0.52E-07
   1      9    10.129    16.344    0.96E-04    0.15E-03    0.14E-06
   1      9    10.129    10.160    0.81E-04    0.12E-03    0.11E-06
 Optimization of the real space projectors (new method)

 maximal supplied QI-value         = 14.36
 optimisation between [QCUT,QGAM] = [ 10.20, 20.39] = [ 29.12,116.47] Ry 
 Optimized for a Real-space Cutoff    1.51 Angstroem

   l    n(q)    QCUT    max X(q) W(low)/X(q) W(high)/X(q)  e(spline) 
   2      8    10.197    59.108    0.26E-03    0.14E-03    0.96E-07
   2      8    10.197    58.101    0.27E-03    0.14E-03    0.98E-07
   0      9    10.197   102.235    0.54E-04    0.60E-05    0.72E-07
   0      9    10.197    58.388    0.52E-04    0.60E-05    0.68E-07
   1      9    10.197    22.191    0.18E-03    0.25E-03    0.79E-07
   1      9    10.197    15.590    0.15E-03    0.21E-03    0.69E-07
  PAW_PBE Au 04Oct2007                  :
 energy of atom  1       EATOM= -926.0867
 kinetic energy error for atom=    0.0062 (will be added to EATOM!!)
  PAW_PBE Pd 04Jan2005                  :
 energy of atom  2       EATOM= -809.7530
 kinetic energy error for atom=    0.0091 (will be added to EATOM!!)
 
 
 POSCAR: Au Pd                                   
  positions in cartesian coordinates
  No initial velocities read in
 exchange correlation table for  LEXCH =        8
   RHO(1)=    0.500       N(1)  =     2000
   RHO(2)=  100.500       N(2)  =     4000

 VTST: version 3.2, (02/03/18)

 CHAIN: initializing optimizer
 
 OPT: Using VASP Conjugate-Gradient optimizer
 CHAIN: Read ICHAIN            0
 
 POSCAR: Au Pd                                   
  positions in cartesian coordinates
  No initial velocities read in
 


--------------------------------------------------------------------------------------------------------


 ion  position               nearest neighbor table
   1  0.750  0.750  0.592-  38 2.75  19 2.75   4 2.75  24 2.75  29 2.75  18 2.75  27 2.75  43 2.75
                            31 2.75
   2  0.500  0.250  0.592-  35 2.75  28 2.75   4 2.75  29 2.75   8 2.75  47 2.75  41 2.75  25 2.75
                             5 2.75
   3  0.417  0.917  0.500-   7 2.75  27 2.75  14 2.75  22 2.75   5 2.75  31 2.75  34 2.75  38 2.75
                            39 2.75  42 2.75   4 2.75  32 2.75
   4  0.500  0.000  0.592-   5 2.75  38 2.75   1 2.75  27 2.75   2 2.75  41 2.75  14 2.75  29 2.75
                             3 2.75
   5  0.417  0.167  0.500-  42 2.75   4 2.75  41 2.75  35 2.75  38 2.75   3 2.75  12 2.75  22 2.75
                            28 2.75  15 2.75  37 2.75   2 2.75
   6  0.833  0.083  0.408-  46 2.75  17 2.75  26 2.75  36 2.75  10 2.75  37 2.75  33 2.75  16 2.75
                            28 2.75
   7  0.333  0.833  0.408-   3 2.75  13 2.75  33 2.75  40 2.75  42 2.75  32 2.75  17 2.75  34 2.75
                            39 2.75
   8  0.250  0.500  0.592-   9 2.75  35 2.75   2 2.75  41 2.75  43 2.75  48 2.75  47 2.75  18 2.75
                            12 2.75
   9  0.167  0.667  0.500-  20 2.75   8 2.75  43 2.75  12 2.75  35 2.75  39 2.75  16 2.75  34 2.75
                            19 2.75  17 2.75  40 2.75  48 2.75
  10  0.833  0.333  0.408-  23 2.75  13 2.75   6 2.75  30 2.75  33 2.75  36 2.75  45 2.75  46 2.75
                            11 2.75
  11  0.667  0.417  0.500-  36 2.75  25 2.75  47 2.75  34 2.75  28 2.75  46 2.75  31 2.75  35 2.75
                            23 2.75  13 2.75  10 2.75  24 2.75
  12  0.167  0.417  0.500-  45 2.75  41 2.75  18 2.75  19 2.75  22 2.75   9 2.75   5 2.75  23 2.75
                            35 2.75  20 2.75   8 2.75  15 2.75
  13  0.583  0.583  0.408-  31 2.75  10 2.75   7 2.75  32 2.75  36 2.75  30 2.75  40 2.75  11 2.75
                            34 2.75
  14  0.250  0.000  0.592-  22 2.75   3 2.75  27 2.75  41 2.75  44 2.75  48 2.75  21 2.75   4 2.75
                            39 2.75
  15  0.333  0.333  0.408-  35 2.75  20 2.75  37 2.75  40 2.75  42 2.75  36 2.75  45 2.75   5 2.75
                            12 2.75
  16  0.917  0.917  0.500-  26 2.75  43 2.75  29 2.75  28 2.75  19 2.75   9 2.75  46 2.75  38 2.75
                            39 2.75   6 2.75  21 2.75  17 2.75
  17  0.083  0.833  0.408-  39 2.75  20 2.75  33 2.75   6 2.75  40 2.75  26 2.75   7 2.75   9 2.75
                            16 2.75
  18  0.000  0.500  0.592-  19 2.75  12 2.75   1 2.75  41 2.75  43 2.75  44 2.75  24 2.75   8 2.75
                            23 2.75
  19  0.917  0.667  0.500-  30 2.75  18 2.75   1 2.75  12 2.75  23 2.75  16 2.75  38 2.75  31 2.75
                             9 2.75  26 2.75  20 2.75  43 2.75
  20  0.083  0.583  0.408-   9 2.75  15 2.75  17 2.75  26 2.75  45 2.75  40 2.75  30 2.75  12 2.75
                            19 2.75
  21  0.000  0.000  0.592-  46 2.75  39 2.75  43 2.75  44 2.75  25 2.75  48 2.75  29 2.75  14 2.75
                            16 2.75
  22  0.167  0.167  0.500-  33 2.75  14 2.75  44 2.75  23 2.75  12 2.75  39 2.75   3 2.75   5 2.75
                            46 2.75  45 2.75  42 2.75  41 2.75
  23  0.917  0.417  0.500-  10 2.75  44 2.75  24 2.75  19 2.75  31 2.75  22 2.75  46 2.75  11 2.75
                            12 2.75  30 2.75  45 2.75  18 2.75
  24  0.750  0.500  0.592-  31 2.75  23 2.75  25 2.75  27 2.75   1 2.75  44 2.75  18 2.75  47 2.75
                            11 2.75
  25  0.750  0.250  0.592-  11 2.75  46 2.75  24 2.75  29 2.75  21 2.75  47 2.75   2 2.75  44 2.75
                            28 2.75
  26  0.833  0.833  0.408-  16 2.75   6 2.75  20 2.75  30 2.75  37 2.75  32 2.75  17 2.75  19 2.75
                            38 2.75
  27  0.500  0.750  0.592-   3 2.75  31 2.75  14 2.75  24 2.75   4 2.75  47 2.75   1 2.75  48 2.75
                            34 2.75
  28  0.667  0.167  0.500-  37 2.75  29 2.75   2 2.75  11 2.75  35 2.75  16 2.75  38 2.75   5 2.75
                            46 2.75  36 2.75   6 2.75  25 2.75
  29  0.750  0.000  0.592-  28 2.75  16 2.75   1 2.75  25 2.75   2 2.75  43 2.75  21 2.75   4 2.75
                            38 2.75
  30  0.833  0.583  0.408-  19 2.75  10 2.75  26 2.75  32 2.75  45 2.75  20 2.75  13 2.75  23 2.75
                            31 2.75
  31  0.667  0.667  0.500-  13 2.75  24 2.75  27 2.75  23 2.75  11 2.75   3 2.75  38 2.75  34 2.75
                            19 2.75  32 2.75  30 2.75   1 2.75
  32  0.583  0.833  0.408-  38 2.75  30 2.75  37 2.75  13 2.75  42 2.75   7 2.75  26 2.75  31 2.75
                             3 2.75
  33  0.083  0.083  0.408-  22 2.75  10 2.75  17 2.75   7 2.75  45 2.75  42 2.75   6 2.75  39 2.75
                            46 2.75
  34  0.417  0.667  0.500-  40 2.75  47 2.75  48 2.75  39 2.75   3 2.75  11 2.75  35 2.75  31 2.75
                             9 2.75   7 2.75  13 2.75  27 2.75
  35  0.417  0.417  0.500-  15 2.75   2 2.75   8 2.75   9 2.75   5 2.75  28 2.75  34 2.75  12 2.75
                            11 2.75  40 2.75  36 2.75  47 2.75
  36  0.583  0.333  0.408-  11 2.75   6 2.75  13 2.75  37 2.75  40 2.75  10 2.75  15 2.75  28 2.75
                            35 2.75
  37  0.583  0.083  0.408-  28 2.75  26 2.75  15 2.75  32 2.75  36 2.75   6 2.75  42 2.75  38 2.75
                             5 2.75
  38  0.667  0.917  0.500-  32 2.75   1 2.75   4 2.75  19 2.75  28 2.75  31 2.75   5 2.75   3 2.75
                            16 2.75  37 2.75  29 2.75  26 2.75
  39  0.167  0.917  0.500-  17 2.75  48 2.75  21 2.75  22 2.75  34 2.75  46 2.75   9 2.75   3 2.75
                            16 2.75  33 2.75   7 2.75  14 2.75
  40  0.333  0.583  0.408-  34 2.75  15 2.75  17 2.75   7 2.75  36 2.75  13 2.75  20 2.75  35 2.75
                             9 2.75
  41  0.250  0.250  0.592-  12 2.75   5 2.75   8 2.75   4 2.75  14 2.75  18 2.75   2 2.75  44 2.75
                            22 2.75
  42  0.333  0.083  0.408-   5 2.75   7 2.75  15 2.75  32 2.75  45 2.75  37 2.75  33 2.75   3 2.75
                            22 2.75
  43  0.000  0.750  0.592-  16 2.75   9 2.75   8 2.75  18 2.75  21 2.75  29 2.75   1 2.75  48 2.75
                            19 2.75
  44  0.000  0.250  0.592-  23 2.75  22 2.75  21 2.75  14 2.75  18 2.75  24 2.75  25 2.75  41 2.75
                            46 2.75
  45  0.083  0.333  0.408-  12 2.75  20 2.75  30 2.75  33 2.75  42 2.75  10 2.75  15 2.75  22 2.75
                            23 2.75
  46  0.917  0.167  0.500-   6 2.75  21 2.75  25 2.75  11 2.75  23 2.75  16 2.75  39 2.75  28 2.75
                            22 2.75  10 2.75  33 2.75  44 2.75
  47  0.500  0.500  0.592-  34 2.75  11 2.75  25 2.75  27 2.75   2 2.75  48 2.75   8 2.75  24 2.75
                            35 2.75
  48  0.250  0.750  0.592-  39 2.75  34 2.75  21 2.75   8 2.75  14 2.75  47 2.75  43 2.75  27 2.75
                             9 2.75
 
  LATTYP: Found a hexagonal cell.
 ALAT       =    11.0025815153
 C/A-ratio  =     2.2260035120
  
  Lattice vectors:
  
 A1 = (   5.5012907576,  -9.5285150994,   0.0000000000)
 A2 = ( -11.0025815153,   0.0000000000,   0.0000000000)
 A3 = (   0.0000000000,   0.0000000000, -24.4917850943)


Analysis of symmetry for initial positions (statically):
=====================================================================
 Subroutine PRICEL returns:
 Original cell was already a primitive cell.
 

 Routine SETGRP: Setting up the symmetry group for a 
 hexagonal supercell.


 Subroutine GETGRP returns: Found  1 space group operations
 (whereof  1 operations were pure point group operations)
 out of a pool of 24 trial point group operations.


The static configuration has the point symmetry C_1 .


Analysis of symmetry for dynamics (positions and initial velocities):
=====================================================================
 Subroutine PRICEL returns:
 Original cell was already a primitive cell.
 

 Routine SETGRP: Setting up the symmetry group for a 
 hexagonal supercell.


 Subroutine GETGRP returns: Found  1 space group operations
 (whereof  1 operations were pure point group operations)
 out of a pool of 24 trial point group operations.


The dynamic configuration has the point symmetry C_1 .
 
 
 KPOINTS: Automatic mesh                          

Automatic generation of k-mesh.
Space group operators:
 irot       det(A)        alpha          n_x          n_y          n_z        tau_x        tau_y        tau_z
    1     1.000000     0.000000     1.000000     0.000000     0.000000     0.000000     0.000000     0.000000
 
 Subroutine IBZKPT returns following result:
 ===========================================
 
 Found      6 irreducible k-points:
 
 Following reciprocal coordinates:
            Coordinates               Weight
  0.250000  0.250000  0.000000     16.000000
  0.000000  0.250000  0.000000     16.000000
 -0.250000  0.000000  0.000000     16.000000
 -0.250000  0.250000  0.000000     16.000000
  0.500000 -0.250000  0.000000     16.000000
 -0.250000  0.500000  0.000000     16.000000
 
 Following cartesian coordinates:
            Coordinates               Weight
  0.022722  0.013119  0.000000     16.000000
  0.000000  0.026237  0.000000     16.000000
 -0.022722  0.013119  0.000000     16.000000
 -0.022722  0.039356  0.000000     16.000000
  0.045444 -0.052474  0.000000     16.000000
 -0.022722  0.065593  0.000000     16.000000
 


--------------------------------------------------------------------------------------------------------




 Dimension of arrays:
   k-points           NKPTS =      6   k-points in BZ     NKDIM =      6   number of bands    NBANDS=    306
   number of dos      NEDOS =    301   number of ions     NIONS =     48
   non local maximal  LDIM  =      6   non local SUM 2l+1 LMDIM =     18
   total plane-waves  NPLWV = 349920
   max r-space proj   IRMAX =   2009   max aug-charges    IRDMAX=   8532
   dimension x,y,z NGX =    54 NGY =   54 NGZ =  120
   dimension x,y,z NGXF=   108 NGYF=  108 NGZF=  240
   support grid    NGXF=   108 NGYF=  108 NGZF=  240
   ions per type =              24  24
 NGX,Y,Z   is equivalent  to a cutoff of   8.16,  8.16,  8.15 a.u.
 NGXF,Y,Z  is equivalent  to a cutoff of  16.32, 16.32, 16.29 a.u.


 I would recommend the setting:
   dimension x,y,z NGX =    54 NGY =   54 NGZ =  120
 SYSTEM =  unknown system                          
 POSCAR =  Au Pd                                   

 Startparameter for this run:
   NWRITE =      1    write-flag & timer
   PREC   = normal    normal or accurate (medium, high low for compatibility)
   ISTART =      0    job   : 0-new  1-cont  2-samecut
   ICHARG =      2    charge: 1-file 2-atom 10-const
   ISPIN  =      1    spin polarized calculation?
   LNONCOLLINEAR =      F non collinear calculations
   LSORBIT =      F    spin-orbit coupling
   INIWAV =      1    electr: 0-lowe 1-rand  2-diag
   LASPH  =      F    aspherical Exc in radial PAW
   METAGGA=      F    non-selfconsistent MetaGGA calc.

 Electronic Relaxation 1
   ENCUT  =  400.0 eV  29.40 Ry    5.42 a.u.  17.94 17.94 39.94*2*pi/ulx,y,z
   ENINI  =  400.0     initial cutoff
   ENAUG  =  416.2 eV  augmentation charge cutoff
   NELM   =    500;   NELMIN=  2; NELMDL= -5     # of ELM steps 
   EDIFF  = 0.1E-05   stopping-criterion for ELM
   LREAL  =      T    real-space projection
   NLSPLINE    = F    spline interpolate recip. space projectors
   LCOMPAT=      F    compatible to vasp.4.4
   GGA_COMPAT  = T    GGA compatible to vasp.4.4-vasp.4.6
   LMAXPAW     = -100 max onsite density
   LMAXMIX     =    2 max onsite mixed and CHGCAR
   VOSKOWN=      1    Vosko Wilk Nusair interpolation
   ROPT   =   -0.00050  -0.00050
 Ionic relaxation
   EDIFFG = -.2E-01   stopping-criterion for IOM
   NSW    =    500    number of steps for IOM
   NBLOCK =      1;   KBLOCK =    500    inner block; outer block 
   IBRION =      2    ionic relax: 0-MD 1-quasi-New 2-CG
   NFREE  =      2    steps in history (QN), initial steepest desc. (CG)
   ISIF   =      0    stress and relaxation
   IWAVPR =     11    prediction:  0-non 1-charg 2-wave 3-comb
   ISYM   =      2    0-nonsym 1-usesym 2-fastsym
   LCORR  =      T    Harris-Foulkes like correction to forces

   POTIM  = 0.3500    time-step for ionic-motion
   TEIN   =    0.0    initial temperature
   TEBEG  =    0.0;   TEEND  =   0.0 temperature during run
   SMASS  =  -3.00    Nose mass-parameter (am)
   estimated Nose-frequenzy (Omega)   =  0.10E-29 period in steps =****** mass=  -0.277E-26a.u.
   SCALEE = 1.0000    scale energy and forces
   NPACO  =    256;   APACO  = 16.0  distance and # of slots for P.C.
   PSTRESS=    0.0 pullay stress

  Mass of Ions in am
   POMASS = 196.97106.42
  Ionic Valenz
   ZVAL   =  11.00 10.00
  Atomic Wigner-Seitz radii
   RWIGS  =  -1.00 -1.00
  virtual crystal weights 
   VCA    =   1.00  1.00
   NELECT =     504.0000    total number of electrons
   NUPDOWN=      -1.0000    fix difference up-down

 DOS related values:
   EMIN   =  10.00;   EMAX   =-10.00  energy-range for DOS
   EFERMI =   0.00
   ISMEAR =     0;   SIGMA  =   0.10  broadening in eV -4-tet -1-fermi 0-gaus

 Electronic relaxation 2 (details)
   IALGO  =     68    algorithm
   LDIAG  =      T    sub-space diagonalisation (order eigenvalues)
   LSUBROT=      F    optimize rotation matrix (better conditioning)
   TURBO    =      0    0=normal 1=particle mesh
   IRESTART =      0    0=no restart 2=restart with 2 vectors
   NREBOOT  =      0    no. of reboots
   NMIN     =      0    reboot dimension
   EREF     =   0.00    reference energy to select bands
   IMIX   =      4    mixing-type and parameters
     AMIX     =   0.40;   BMIX     =  1.00
     AMIX_MAG =   1.60;   BMIX_MAG =  1.00
     AMIN     =   0.10
     WC   =   100.;   INIMIX=   1;  MIXPRE=   1;  MAXMIX= -45

 Intra band minimization:
   WEIMIN = 0.0010     energy-eigenvalue tresh-hold
   EBREAK =  0.82E-09  absolut break condition
   DEPER  =   0.30     relativ break condition  

   TIME   =   0.40     timestep for ELM

  volume/ion in A,a.u.               =      53.49       360.99
  Fermi-wavevector in a.u.,A,eV,Ry     =   0.951418  1.797920 12.315955  0.905197
  Thomas-Fermi vector in A             =   2.079887
 
 Write flags
   LWAVE  =      F    write WAVECAR
   LCHARG =      F    write CHGCAR
   LVTOT  =      F    write LOCPOT, total local potential
   LVHAR  =      F    write LOCPOT, Hartree potential only
   LELF   =      F    write electronic localiz. function (ELF)
   LORBIT =      0    0 simple, 1 ext, 2 COOP (PROOUT)


 Dipole corrections
   LMONO  =      F    monopole corrections only (constant potential shift)
   LDIPOL =      T    correct potential (dipole corrections)
   IDIPOL =      3    1-x, 2-y, 3-z, 4-all directions 
   EPSILON=  1.0000000 bulk dielectric constant

 Exchange correlation treatment:
   GGA     =    PE    GGA type
   LEXCH   =     8    internal setting for exchange type
   VOSKOWN=      1    Vosko Wilk Nusair interpolation
   LHFCALC =     F    Hartree Fock is set to
   LHFONE  =     F    Hartree Fock one center treatment
   AEXX    =    0.0000 exact exchange contribution

 Linear response parameters
   LEPSILON=     F    determine dielectric tensor
   LRPA    =     F    only Hartree local field effects (RPA)
   LNABLA  =     F    use nabla operator in PAW spheres
   LVEL    =     F    velocity operator in full k-point grid
   LINTERFAST=   F  fast interpolation
   KINTER  =     0    interpolate to denser k-point grid
   CSHIFT  =0.1000    complex shift for real part using Kramers Kronig
   OMEGAMAX=  -1.0    maximum frequency
   DEG_THRESHOLD= 0.2000000E-02 threshold for treating states as degnerate
   RTIME   =    0.100 relaxation time in fs

 Orbital magnetization related:
   ORBITALMAG=     F  switch on orbital magnetization
   LCHIMAG   =     F  perturbation theory with respect to B field
   DQ        =  0.001000  dq finite difference perturbation B field



--------------------------------------------------------------------------------------------------------


 conjugate gradient relaxation of ions
 charge density and potential will be updated during run
 non-spin polarized calculation
 RMM-DIIS sequential band-by-band and
  variant of blocked Davidson during initial phase
 perform sub-space diagonalisation
    before iterative eigenvector-optimisation
 modified Broyden-mixing scheme, WC =      100.0
 initial mixing is a Kerker type mixing with AMIX =  0.4000 and BMIX =      1.0000
 Hartree-type preconditioning will be used
 using additional bands           54
 real space projection scheme for non local part
 use partial core corrections
 calculate Harris-corrections to forces 
   (improved forces if not selfconsistent)
 use gradient corrections 
 use of overlap-Matrix (Vanderbilt PP)
 Gauss-broadening in eV      SIGMA  =   0.10


--------------------------------------------------------------------------------------------------------


  energy-cutoff  :      400.00
  volume of cell :     2567.68
      direct lattice vectors                 reciprocal lattice vectors
    11.002581515  0.000000000  0.000000000     0.090887761 -0.052474073  0.000000000
     5.501290758  9.528515099  0.000000000     0.000000000  0.104948147  0.000000000
     0.000000000  0.000000000 24.491785094     0.000000000  0.000000000  0.040830017

  length of vectors
    11.002581515 11.002581515 24.491785094     0.104948147  0.104948147  0.040830017


 
 k-points in units of 2pi/SCALE and weight: Automatic mesh                          
   0.02272194  0.01311852  0.00000000       0.167
   0.00000000  0.02623704  0.00000000       0.167
  -0.02272194  0.01311852  0.00000000       0.167
  -0.02272194  0.03935555  0.00000000       0.167
   0.04544388 -0.05247407  0.00000000       0.167
  -0.02272194  0.06559259  0.00000000       0.167
 
 k-points in reciprocal lattice and weights: Automatic mesh                          
   0.25000000  0.25000000  0.00000000       0.167
   0.00000000  0.25000000  0.00000000       0.167
  -0.25000000  0.00000000  0.00000000       0.167
  -0.25000000  0.25000000  0.00000000       0.167
   0.50000000 -0.25000000  0.00000000       0.167
  -0.25000000  0.50000000  0.00000000       0.167
 
 position of ions in fractional coordinates (direct lattice) 
   0.75000000  0.75000000  0.59169983
   0.50000000  0.25000000  0.59169983
   0.41666667  0.91666667  0.50000000
   0.50000000  0.00000000  0.59169983
   0.41666667  0.16666667  0.50000000
   0.83333333  0.08333333  0.40830017
   0.33333333  0.83333333  0.40830017
   0.25000000  0.50000000  0.59169983
   0.16666667  0.66666667  0.50000000
   0.83333333  0.33333333  0.40830017
   0.66666667  0.41666667  0.50000000
   0.16666667  0.41666667  0.50000000
   0.58333333  0.58333333  0.40830017
   0.25000000  0.00000000  0.59169983
   0.33333333  0.33333333  0.40830017
   0.91666667  0.91666667  0.50000000
   0.08333333  0.83333333  0.40830017
   0.00000000  0.50000000  0.59169983
   0.91666667  0.66666667  0.50000000
   0.08333333  0.58333333  0.40830017
   0.00000000  0.00000000  0.59169983
   0.16666667  0.16666667  0.50000000
   0.91666667  0.41666667  0.50000000
   0.75000000  0.50000000  0.59169983
   0.75000000  0.25000000  0.59169983
   0.83333333  0.83333333  0.40830017
   0.50000000  0.75000000  0.59169983
   0.66666667  0.16666667  0.50000000
   0.75000000  0.00000000  0.59169983
   0.83333333  0.58333333  0.40830017
   0.66666667  0.66666667  0.50000000
   0.58333333  0.83333333  0.40830017
   0.08333333  0.08333333  0.40830017
   0.41666667  0.66666667  0.50000000
   0.41666667  0.41666667  0.50000000
   0.58333333  0.33333333  0.40830017
   0.58333333  0.08333333  0.40830017
   0.66666667  0.91666667  0.50000000
   0.16666667  0.91666667  0.50000000
   0.33333333  0.58333333  0.40830017
   0.25000000  0.25000000  0.59169983
   0.33333333  0.08333333  0.40830017
   0.00000000  0.75000000  0.59169983
   0.00000000  0.25000000  0.59169983
   0.08333333  0.33333333  0.40830017
   0.91666667  0.16666667  0.50000000
   0.50000000  0.50000000  0.59169983
   0.25000000  0.75000000  0.59169983
 
 position of ions in cartesian coordinates  (Angst):
  12.37790420  7.14638632 14.49178509
   6.87661345  2.38212877 14.49178509
   9.62725883  8.73447217 12.24589255
   5.50129076  0.00000000 14.49178509
   5.50129076  1.58808585 12.24589255
   9.62725883  0.79404292 10.00000000
   8.25193614  7.94042925 10.00000000
   5.50129076  4.76425755 14.49178509
   5.50129076  6.35234340 12.24589255
  11.00258152  3.17617170 10.00000000
   9.62725883  3.97021462 12.24589255
   4.12596807  3.97021462 12.24589255
   9.62725883  5.55830047 10.00000000
   2.75064538  0.00000000 14.49178509
   5.50129076  3.17617170 10.00000000
  15.12854958  8.73447217 12.24589255
   5.50129076  7.94042925 10.00000000
   2.75064538  4.76425755 14.49178509
  13.75322689  6.35234340 12.24589255
   4.12596807  5.55830047 10.00000000
   0.00000000  0.00000000 14.49178509
   2.75064538  1.58808585 12.24589255
  12.37790420  3.97021462 12.24589255
  11.00258152  4.76425755 14.49178509
   9.62725883  2.38212877 14.49178509
  13.75322689  7.94042925 10.00000000
   9.62725883  7.14638632 14.49178509
   8.25193614  1.58808585 12.24589255
   8.25193614  0.00000000 14.49178509
  12.37790420  5.55830047 10.00000000
  11.00258152  6.35234340 12.24589255
  11.00258152  7.94042925 10.00000000
   1.37532269  0.79404292 10.00000000
   8.25193614  6.35234340 12.24589255
   6.87661345  3.97021462 12.24589255
   8.25193614  3.17617170 10.00000000
   6.87661345  0.79404292 10.00000000
  12.37790420  8.73447217 12.24589255
   6.87661345  8.73447217 12.24589255
   6.87661345  5.55830047 10.00000000
   4.12596807  2.38212877 14.49178509
   4.12596807  0.79404292 10.00000000
   4.12596807  7.14638632 14.49178509
   1.37532269  2.38212877 14.49178509
   2.75064538  3.17617170 10.00000000
  11.00258152  1.58808585 12.24589255
   8.25193614  4.76425755 14.49178509
   6.87661345  7.14638632 14.49178509
 


--------------------------------------------------------------------------------------------------------


 k-point  1 :   0.2500 0.2500 0.0000  plane waves:   46635
 k-point  2 :   0.0000 0.2500 0.0000  plane waves:   46635
 k-point  3 :  -0.2500 0.0000 0.0000  plane waves:   46635
 k-point  4 :  -0.2500 0.2500 0.0000  plane waves:   46644
 k-point  5 :   0.5000-0.2500 0.0000  plane waves:   46644
 k-point  6 :  -0.2500 0.5000 0.0000  plane waves:   46644

 maximum and minimum number of plane-waves per node :      7818     7732

 maximum number of plane-waves:     46644
 maximum index in each direction: 
   IXMAX=   18   IYMAX=   18   IZMAX=   39
   IXMIN=  -18   IYMIN=  -18   IZMIN=  -39

 WARNING: aliasing errors must be expected set NGX to  74 to avoid them
 WARNING: aliasing errors must be expected set NGY to  74 to avoid them
 WARNING: aliasing errors must be expected set NGZ to 158 to avoid them
 aliasing errors are usually negligible using standard VASP settings
 and one can safely disregard these warnings

 real space projection operators:
  total allocation   :      12803.06 KBytes
  max/ min on nodes  :       2145.66       2127.94


 parallel 3D FFT for wavefunctions:
    minimum data exchange during FFTs selected (reduces bandwidth)
 parallel 3D FFT for charge:
    minimum data exchange during FFTs selected (reduces bandwidth)


 total amount of memory used by VASP on root node    84353. kBytes
========================================================================

   base      :      30000. kBytes
   nonlr-proj:       4285. kBytes
   fftplans  :       4447. kBytes
   grid      :       6721. kBytes
   one-center:        124. kBytes
   wavefun   :      38776. kBytes
 
     INWAV:  cpu time    0.0000: real time    0.0000
 Broyden mixing: mesh for mixing (old mesh)
   NGX = 35   NGY = 35   NGZ = 79
  (NGX  =108   NGY  =108   NGZ  =240)
  gives a total of  96775 points

 initial charge density was supplied:
 charge density of overlapping atoms calculated
 number of electron     504.0000000 magnetization 
 keeping initial charge density in first step


--------------------------------------------------------------------------------------------------------


 Maximum index for non-local projection operator          355
 Maximum index for augmentation-charges          437 (set IRDMAX)


--------------------------------------------------------------------------------------------------------


 First call to EWALD:  gamma=   0.129
 Maximum number of real-space cells 4x 4x 2
 Maximum number of reciprocal cells 2x 2x 5

 FEWALD executed in parallel
    FEWALD:  cpu time    0.0029: real time    0.0029


----------------------------------------- Iteration    1(   1)  ---------------------------------------


    POTLOK:  cpu time    0.0547: real time    0.0549
    SETDIJ:  cpu time    0.0064: real time    0.0064
     EDDAV:  cpu time    9.3883: real time    9.4573
       DOS:  cpu time    0.0015: real time    0.0015
    --------------------------------------------
      LOOP:  cpu time    9.4549: real time    9.5266

 eigenvalue-minimisations  :  3672
 total energy-change (2. order) : 0.3202051E+04  (-0.1898052E+05)
 number of electron     504.0000000 magnetization 
 augmentation part      504.0000000 magnetization 

 DIPCOR: dipole corrections for dipol
 direction  3 min pos     1,
 dipolmoment           0.000000      0.000000     -0.000001 electrons x Angstroem
 Tr[quadrupol]    -10276.481440

 energy correction for charged system         0.000000 eV
 dipol+quadrupol energy correction           -0.000000 eV
 added-field ion interaction          0.000000 eV  (added to PSCEN)


 Free energy of the ion-electron system (eV)
  ---------------------------------------------------
  alpha Z        PSCENC =       805.86936440
  Ewald energy   TEWEN  =    200394.13823251
  -Hartree energ DENC   =   -242809.09429013
  -exchange      EXHF   =         0.00000000
  -V(xc)+E(xc)   XCENC  =      -327.56480357
  PAW double counting   =     40340.05962942   -38292.62782345
  entropy T*S    EENTRO =        -0.13708402
  eigenvalues    EBANDS =      1431.62179646
  atomic energy  EATOM  =     41659.78587232
  Solvation  Ediel_sol  =         0.00000000
  ---------------------------------------------------
  free energy    TOTEN  =      3202.05089394 eV

  energy without entropy =     3202.18797797  energy(sigma->0) =     3202.11943595


--------------------------------------------------------------------------------------------------------




----------------------------------------- Iteration    1(   2)  ---------------------------------------


     EDDAV:  cpu time   11.0777: real time   11.0812
       DOS:  cpu time    0.0016: real time    0.0016
    --------------------------------------------
      LOOP:  cpu time   11.0802: real time   11.0849

 eigenvalue-minimisations  :  4356
 total energy-change (2. order) :-0.3185090E+04  (-0.2927920E+04)
 number of electron     504.0000000 magnetization 
 augmentation part      504.0000000 magnetization 

 DIPCOR: dipole corrections for dipol
 direction  3 min pos     1,
 dipolmoment           0.000000      0.000000     -0.000001 electrons x Angstroem
 Tr[quadrupol]    -10276.481440

 energy correction for charged system         0.000000 eV
 dipol+quadrupol energy correction           -0.000000 eV
 added-field ion interaction          0.000000 eV  (added to PSCEN)


 Free energy of the ion-electron system (eV)
  ---------------------------------------------------
  alpha Z        PSCENC =       805.86936440
  Ewald energy   TEWEN  =    200394.13823251
  -Hartree energ DENC   =   -242809.09429013
  -exchange      EXHF   =         0.00000000
  -V(xc)+E(xc)   XCENC  =      -327.56480357
  PAW double counting   =     40340.05962942   -38292.62782345
  entropy T*S    EENTRO =        -0.12718267
  eigenvalues    EBANDS =     -1753.47840405
  atomic energy  EATOM  =     41659.78587232
  Solvation  Ediel_sol  =         0.00000000
  ---------------------------------------------------
  free energy    TOTEN  =        16.96059479 eV

  energy without entropy =       17.08777746  energy(sigma->0) =       17.02418612


--------------------------------------------------------------------------------------------------------




----------------------------------------- Iteration    1(   3)  ---------------------------------------


     EDDAV:  cpu time   10.9152: real time   10.9197
       DOS:  cpu time    0.0016: real time    0.0016
    --------------------------------------------
      LOOP:  cpu time   10.9176: real time   10.9251

 eigenvalue-minimisations  :  4140
 total energy-change (2. order) :-0.2167622E+03  (-0.2011368E+03)
 number of electron     504.0000000 magnetization 
 augmentation part      504.0000000 magnetization 

 DIPCOR: dipole corrections for dipol
 direction  3 min pos     1,
 dipolmoment           0.000000      0.000000     -0.000001 electrons x Angstroem
 Tr[quadrupol]    -10276.481440

 energy correction for charged system         0.000000 eV
 dipol+quadrupol energy correction           -0.000000 eV
 added-field ion interaction          0.000000 eV  (added to PSCEN)


 Free energy of the ion-electron system (eV)
  ---------------------------------------------------
  alpha Z        PSCENC =       805.86936440
  Ewald energy   TEWEN  =    200394.13823251
  -Hartree energ DENC   =   -242809.09429013
  -exchange      EXHF   =         0.00000000
  -V(xc)+E(xc)   XCENC  =      -327.56480357
  PAW double counting   =     40340.05962942   -38292.62782345
  entropy T*S    EENTRO =        -0.20799756
  eigenvalues    EBANDS =     -1970.15978586
  atomic energy  EATOM  =     41659.78587232
  Solvation  Ediel_sol  =         0.00000000
  ---------------------------------------------------
  free energy    TOTEN  =      -199.80160191 eV

  energy without entropy =     -199.59360435  energy(sigma->0) =     -199.69760313


--------------------------------------------------------------------------------------------------------




----------------------------------------- Iteration    1(   4)  ---------------------------------------


     EDDAV:  cpu time   10.9504: real time   11.6592
       DOS:  cpu time    0.0016: real time    0.0016
    --------------------------------------------
      LOOP:  cpu time   10.9527: real time   11.6652

 eigenvalue-minimisations  :  4260
 total energy-change (2. order) :-0.5893468E+01  (-0.5823216E+01)
 number of electron     504.0000000 magnetization 
 augmentation part      504.0000000 magnetization 

 DIPCOR: dipole corrections for dipol
 direction  3 min pos     1,
 dipolmoment           0.000000      0.000000     -0.000001 electrons x Angstroem
 Tr[quadrupol]    -10276.481440

 energy correction for charged system         0.000000 eV
 dipol+quadrupol energy correction           -0.000000 eV
 added-field ion interaction          0.000000 eV  (added to PSCEN)


 Free energy of the ion-electron system (eV)
  ---------------------------------------------------
  alpha Z        PSCENC =       805.86936440
  Ewald energy   TEWEN  =    200394.13823251
  -Hartree energ DENC   =   -242809.09429013
  -exchange      EXHF   =         0.00000000
  -V(xc)+E(xc)   XCENC  =      -327.56480357
  PAW double counting   =     40340.05962942   -38292.62782345
  entropy T*S    EENTRO =        -0.21977236
  eigenvalues    EBANDS =     -1976.04147925
  atomic energy  EATOM  =     41659.78587232
  Solvation  Ediel_sol  =         0.00000000
  ---------------------------------------------------
  free energy    TOTEN  =      -205.69507011 eV

  energy without entropy =     -205.47529775  energy(sigma->0) =     -205.58518393


--------------------------------------------------------------------------------------------------------




----------------------------------------- Iteration    1(   5)  ---------------------------------------


     EDDAV:  cpu time   11.3902: real time   11.4596
       DOS:  cpu time    0.0017: real time    0.0017
    CHARGE:  cpu time    0.3012: real time    0.3012
    MIXING:  cpu time    0.0022: real time    0.0023
    --------------------------------------------
      LOOP:  cpu time   11.6960: real time   11.7680

 eigenvalue-minimisations  :  4428
 total energy-change (2. order) :-0.1831086E+00  (-0.1825389E+00)
 number of electron     503.9998406 magnetization 
 augmentation part      191.3141932 magnetization 

 DIPCOR: dipole corrections for dipol
 direction  3 min pos     1,
 dipolmoment           0.000000      0.000000     -0.000001 electrons x Angstroem
 Tr[quadrupol]    -10276.481440

 energy correction for charged system         0.000000 eV
 dipol+quadrupol energy correction           -0.000000 eV
 added-field ion interaction          0.000000 eV  (added to PSCEN)


 Broyden mixing:
  rms(total) = 0.62455E+01    rms(broyden)= 0.62454E+01
  rms(prec ) = 0.63559E+01
  weight for this iteration     100.00

 Free energy of the ion-electron system (eV)
  ---------------------------------------------------
  alpha Z        PSCENC =       805.86936440
  Ewald energy   TEWEN  =    200394.13823251
  -Hartree energ DENC   =   -242809.09429013
  -exchange      EXHF   =         0.00000000
  -V(xc)+E(xc)   XCENC  =      -327.56480357
  PAW double counting   =     40340.05962942   -38292.62782345
  entropy T*S    EENTRO =        -0.22033128
  eigenvalues    EBANDS =     -1976.22402891
  atomic energy  EATOM  =     41659.78587232
  Solvation  Ediel_sol  =         0.00000000
  ---------------------------------------------------
  free energy    TOTEN  =      -205.87817869 eV

  energy without entropy =     -205.65784740  energy(sigma->0) =     -205.76801304


--------------------------------------------------------------------------------------------------------




----------------------------------------- Iteration    1(   6)  ---------------------------------------


    POTLOK:  cpu time    0.0509: real time    0.0509
    SETDIJ:  cpu time    0.0059: real time    0.0061
    EDDIAG:  cpu time    1.6738: real time    1.6745
  RMM-DIIS:  cpu time    4.5375: real time    4.5400
    ORTHCH:  cpu time    0.4246: real time    0.4248
       DOS:  cpu time    0.0017: real time    0.0017
    CHARGE:  cpu time    0.3084: real time    0.3084
    MIXING:  cpu time    0.0020: real time    0.0020
    --------------------------------------------
      LOOP:  cpu time    7.0057: real time    7.0159

 eigenvalue-minimisations  :  3679
 total energy-change (2. order) : 0.8117029E+01  (-0.8886773E+01)
 number of electron     503.9998417 magnetization 
 augmentation part      192.3716155 magnetization 

 DIPCOR: dipole corrections for dipol
 direction  3 min pos     1,
 dipolmoment           0.000000      0.000000     -0.339351 electrons x Angstroem
 Tr[quadrupol]    -10277.186811

 energy correction for charged system         0.000000 eV
 dipol+quadrupol energy correction           -0.004058 eV
 added-field ion interaction          0.053712 eV  (added to PSCEN)


 Broyden mixing:
  rms(total) = 0.52453E+01    rms(broyden)= 0.52452E+01
  rms(prec ) = 0.54021E+01
  weight for this iteration     100.00

 eigenvalues of (default mixing * dielectric matrix)
  average eigenvalue GAMMA=   0.8502
  0.8502

 Free energy of the ion-electron system (eV)
  ---------------------------------------------------
  alpha Z        PSCENC =       805.91901830
  Ewald energy   TEWEN  =    200394.13823251
  -Hartree energ DENC   =   -242536.77017550
  -exchange      EXHF   =         0.00000000
  -V(xc)+E(xc)   XCENC  =      -339.97052838
  PAW double counting   =     43930.62118848   -41942.36598529
  entropy T*S    EENTRO =        -0.26131655
  eigenvalues    EBANDS =     -2168.85745580
  atomic energy  EATOM  =     41659.78587232
  Solvation  Ediel_sol  =         0.00000000
  ---------------------------------------------------
  free energy    TOTEN  =      -197.76114991 eV

  energy without entropy =     -197.49983336  energy(sigma->0) =     -197.63049163


--------------------------------------------------------------------------------------------------------




----------------------------------------- Iteration    1(   7)  ---------------------------------------


    POTLOK:  cpu time    0.0501: real time    0.0502
    SETDIJ:  cpu time    0.0060: real time    0.0060
    EDDIAG:  cpu time    1.6676: real time    1.6696
  RMM-DIIS:  cpu time    4.5403: real time    4.5414
    ORTHCH:  cpu time    0.4242: real time    0.4243
       DOS:  cpu time    0.0017: real time    0.0017
    CHARGE:  cpu time    0.3067: real time    0.3067
    MIXING:  cpu time    0.0021: real time    0.0021
    --------------------------------------------
      LOOP:  cpu time    6.9995: real time    7.0050

 eigenvalue-minimisations  :  3686
 total energy-change (2. order) :-0.7468369E+01  (-0.5478476E+01)
 number of electron     503.9998367 magnetization 
 augmentation part      196.4593780 magnetization 

 DIPCOR: dipole corrections for dipol
 direction  3 min pos     1,
 dipolmoment           0.000000      0.000000      0.858118 electrons x Angstroem
 Tr[quadrupol]    -10276.253988

 energy correction for charged system         0.000000 eV
 dipol+quadrupol energy correction           -0.025948 eV
 added-field ion interaction         -0.135822 eV  (added to PSCEN)


 Broyden mixing:
  rms(total) = 0.41142E+01    rms(broyden)= 0.41139E+01
  rms(prec ) = 0.46492E+01
  weight for this iteration     100.00

 eigenvalues of (default mixing * dielectric matrix)
  average eigenvalue GAMMA=   1.0433
  1.6854  0.4013

 Free energy of the ion-electron system (eV)
  ---------------------------------------------------
  alpha Z        PSCENC =       805.70759503
  Ewald energy   TEWEN  =    200394.13823251
  -Hartree energ DENC   =   -242395.70882131
  -exchange      EXHF   =         0.00000000
  -V(xc)+E(xc)   XCENC  =      -342.45640065
  PAW double counting   =     45611.78692512   -43651.82326231
  entropy T*S    EENTRO =        -0.16654565
  eigenvalues    EBANDS =     -2286.49311404
  atomic energy  EATOM  =     41659.78587232
  Solvation  Ediel_sol  =         0.00000000
  ---------------------------------------------------
  free energy    TOTEN  =      -205.22951898 eV

  energy without entropy =     -205.06297333  energy(sigma->0) =     -205.14624615


--------------------------------------------------------------------------------------------------------




----------------------------------------- Iteration    1(   8)  ---------------------------------------


    POTLOK:  cpu time    0.0495: real time    0.0495
    SETDIJ:  cpu time    0.0060: real time    0.0060
    EDDIAG:  cpu time    1.6784: real time    1.6788
  RMM-DIIS:  cpu time    4.5302: real time    4.5317
    ORTHCH:  cpu time    0.4246: real time    0.4245
       DOS:  cpu time    0.0018: real time    0.0018
    CHARGE:  cpu time    0.3071: real time    0.3072
    MIXING:  cpu time    0.0022: real time    0.0022
    --------------------------------------------
      LOOP:  cpu time    7.0005: real time    7.0055

 eigenvalue-minimisations  :  3672
 total energy-change (2. order) :-0.2031851E+02  (-0.8824318E+01)
 number of electron     503.9998364 magnetization 
 augmentation part      195.7283909 magnetization 

 DIPCOR: dipole corrections for dipol
 direction  3 min pos     1,
 dipolmoment           0.000000      0.000000     -1.954175 electrons x Angstroem
 Tr[quadrupol]    -10278.407394

 energy correction for charged system         0.000000 eV
 dipol+quadrupol energy correction           -0.134564 eV
 added-field ion interaction          0.309304 eV  (added to PSCEN)


 Broyden mixing:
  rms(total) = 0.44720E+01    rms(broyden)= 0.44716E+01
  rms(prec ) = 0.54790E+01
  weight for this iteration     100.00

 eigenvalues of (default mixing * dielectric matrix)
  average eigenvalue GAMMA=   0.9524
  2.1372  0.4467  0.2734

 Free energy of the ion-electron system (eV)
  ---------------------------------------------------
  alpha Z        PSCENC =       806.04410386
  Ewald energy   TEWEN  =    200394.13823251
  -Hartree energ DENC   =   -242402.25626458
  -exchange      EXHF   =         0.00000000
  -V(xc)+E(xc)   XCENC  =      -344.62376693
  PAW double counting   =     47606.56693705   -45674.71738698
  entropy T*S    EENTRO =        -0.31865131
  eigenvalues    EBANDS =     -2270.16710676
  atomic energy  EATOM  =     41659.78587232
  Solvation  Ediel_sol  =         0.00000000
  ---------------------------------------------------
  free energy    TOTEN  =      -225.54803082 eV

  energy without entropy =     -225.22937950  energy(sigma->0) =     -225.38870516


--------------------------------------------------------------------------------------------------------




----------------------------------------- Iteration    1(   9)  ---------------------------------------


    POTLOK:  cpu time    0.0493: real time    0.0493
    SETDIJ:  cpu time    0.0060: real time    0.0060
    EDDIAG:  cpu time    1.6865: real time    1.6878
  RMM-DIIS:  cpu time    4.4473: real time    4.4485
    ORTHCH:  cpu time    0.4268: real time    0.4269
       DOS:  cpu time    0.0017: real time    0.0017
    CHARGE:  cpu time    0.3063: real time    0.3064
    MIXING:  cpu time    0.0023: real time    0.0023
    --------------------------------------------
      LOOP:  cpu time    6.9271: real time    6.9310

 eigenvalue-minimisations  :  3673
 total energy-change (2. order) : 0.1750880E+02  (-0.4250914E+01)
 number of electron     503.9998342 magnetization 
 augmentation part      198.3115078 magnetization 

 DIPCOR: dipole corrections for dipol
 direction  3 min pos     1,
 dipolmoment           0.000000      0.000000      0.620823 electrons x Angstroem
 Tr[quadrupol]    -10279.382673

 energy correction for charged system         0.000000 eV
 dipol+quadrupol energy correction           -0.013581 eV
 added-field ion interaction         -0.098263 eV  (added to PSCEN)


 Broyden mixing:
  rms(total) = 0.31997E+01    rms(broyden)= 0.31993E+01
  rms(prec ) = 0.35728E+01
  weight for this iteration     100.00

 eigenvalues of (default mixing * dielectric matrix)
  average eigenvalue GAMMA=   0.8356
  2.2666  0.4670  0.3043  0.3043

 Free energy of the ion-electron system (eV)
  ---------------------------------------------------
  alpha Z        PSCENC =       805.75752006
  Ewald energy   TEWEN  =    200394.13823251
  -Hartree energ DENC   =   -242400.42367100
  -exchange      EXHF   =         0.00000000
  -V(xc)+E(xc)   XCENC  =      -346.07907696
  PAW double counting   =     48749.09329818   -46834.96135045
  entropy T*S    EENTRO =        -0.21530292
  eigenvalues    EBANDS =     -2235.13475697
  atomic energy  EATOM  =     41659.78587232
  Solvation  Ediel_sol  =         0.00000000
  ---------------------------------------------------
  free energy    TOTEN  =      -208.03923522 eV

  energy without entropy =     -207.82393229  energy(sigma->0) =     -207.93158376


--------------------------------------------------------------------------------------------------------




----------------------------------------- Iteration    1(  10)  ---------------------------------------


    POTLOK:  cpu time    0.0498: real time    0.0498
    SETDIJ:  cpu time    0.0061: real time    0.0061
    EDDIAG:  cpu time    1.6786: real time    1.6788
  RMM-DIIS:  cpu time    4.4443: real time    4.5142
    ORTHCH:  cpu time    0.4218: real time    0.4220
       DOS:  cpu time    0.0018: real time    0.0019
    CHARGE:  cpu time    0.3050: real time    0.3050
    MIXING:  cpu time    0.0026: real time    0.0026
    --------------------------------------------
      LOOP:  cpu time    6.9110: real time    6.9839

 eigenvalue-minimisations  :  3682
 total energy-change (2. order) : 0.1273099E+02  (-0.1671394E+01)
 number of electron     503.9998342 magnetization 
 augmentation part      198.9795964 magnetization 

 DIPCOR: dipole corrections for dipol
 direction  3 min pos     1,
 dipolmoment           0.000000      0.000000     -0.426786 electrons x Angstroem
 Tr[quadrupol]    -10278.182217

 energy correction for charged system         0.000000 eV
 dipol+quadrupol energy correction           -0.006418 eV
 added-field ion interaction          0.067551 eV  (added to PSCEN)


 Broyden mixing:
  rms(total) = 0.19376E+01    rms(broyden)= 0.19373E+01
  rms(prec ) = 0.22972E+01
  weight for this iteration     100.00

 eigenvalues of (default mixing * dielectric matrix)
  average eigenvalue GAMMA=   0.7770
  2.3048  0.4567  0.4567  0.4427  0.2239

 Free energy of the ion-electron system (eV)
  ---------------------------------------------------
  alpha Z        PSCENC =       805.93049692
  Ewald energy   TEWEN  =    200394.13823251
  -Hartree energ DENC   =   -242374.82381613
  -exchange      EXHF   =         0.00000000
  -V(xc)+E(xc)   XCENC  =      -345.77792332
  PAW double counting   =     49169.71340316   -47259.48543733
  entropy T*S    EENTRO =        -0.17691739
  eigenvalues    EBANDS =     -2244.61215472
  atomic energy  EATOM  =     41659.78587232
  Solvation  Ediel_sol  =         0.00000000
  ---------------------------------------------------
  free energy    TOTEN  =      -195.30824398 eV

  energy without entropy =     -195.13132659  energy(sigma->0) =     -195.21978528


--------------------------------------------------------------------------------------------------------




----------------------------------------- Iteration    1(  11)  ---------------------------------------


    POTLOK:  cpu time    0.0507: real time    0.0508
    SETDIJ:  cpu time    0.0061: real time    0.0061
    EDDIAG:  cpu time    1.6656: real time    1.6694
  RMM-DIIS:  cpu time    4.5335: real time    4.5347
    ORTHCH:  cpu time    0.4134: real time    0.4134
       DOS:  cpu time    0.0017: real time    0.0017
    CHARGE:  cpu time    0.3056: real time    0.4504
    MIXING:  cpu time    0.0027: real time    0.0027
    --------------------------------------------
      LOOP:  cpu time    6.9801: real time    7.1320

 eigenvalue-minimisations  :  3680
 total energy-change (2. order) : 0.2966470E+01  (-0.1228974E+01)
 number of electron     503.9998348 magnetization 
 augmentation part      198.1575324 magnetization 

 DIPCOR: dipole corrections for dipol
 direction  3 min pos     1,
 dipolmoment           0.000000      0.000000     -0.080024 electrons x Angstroem
 Tr[quadrupol]    -10279.071972

 energy correction for charged system         0.000000 eV
 dipol+quadrupol energy correction           -0.000226 eV
 added-field ion interaction          0.012666 eV  (added to PSCEN)


 Broyden mixing:
  rms(total) = 0.12928E+01    rms(broyden)= 0.12925E+01
  rms(prec ) = 0.14737E+01
  weight for this iteration     100.00

 eigenvalues of (default mixing * dielectric matrix)
  average eigenvalue GAMMA=   0.7238
  2.2439  0.5930  0.5930  0.3695  0.3175  0.2261

 Free energy of the ion-electron system (eV)
  ---------------------------------------------------
  alpha Z        PSCENC =       805.88180472
  Ewald energy   TEWEN  =    200394.13823251
  -Hartree energ DENC   =   -242432.41341491
  -exchange      EXHF   =         0.00000000
  -V(xc)+E(xc)   XCENC  =      -345.17343323
  PAW double counting   =     49308.93492380   -47396.62161713
  entropy T*S    EENTRO =        -0.24125337
  eigenvalues    EBANDS =     -2186.63288826
  atomic energy  EATOM  =     41659.78587232
  Solvation  Ediel_sol  =         0.00000000
  ---------------------------------------------------
  free energy    TOTEN  =      -192.34177354 eV

  energy without entropy =     -192.10052017  energy(sigma->0) =     -192.22114685


--------------------------------------------------------------------------------------------------------




----------------------------------------- Iteration    1(  12)  ---------------------------------------


    POTLOK:  cpu time    0.0465: real time    0.0610
    SETDIJ:  cpu time    0.0048: real time    0.0085
    EDDIAG:  cpu time    1.4475: real time    2.0121
  RMM-DIIS:  cpu time    4.3316: real time    4.4087
    ORTHCH:  cpu time    0.4140: real time    0.4142
       DOS:  cpu time    0.0016: real time    0.0016
    CHARGE:  cpu time    0.3053: real time    0.3053
    MIXING:  cpu time    0.0027: real time    0.0027
    --------------------------------------------
      LOOP:  cpu time    6.5550: real time    7.2196

 eigenvalue-minimisations  :  3682
 total energy-change (2. order) : 0.2856908E+01  (-0.4045939E+00)
 number of electron     503.9998361 magnetization 
 augmentation part      197.4670006 magnetization 

 DIPCOR: dipole corrections for dipol
 direction  3 min pos     1,
 dipolmoment           0.000000      0.000000     -0.036159 electrons x Angstroem
 Tr[quadrupol]    -10279.099306

 energy correction for charged system         0.000000 eV
 dipol+quadrupol energy correction           -0.000046 eV
 added-field ion interaction          0.005723 eV  (added to PSCEN)


 Broyden mixing:
  rms(total) = 0.86755E+00    rms(broyden)= 0.86743E+00
  rms(prec ) = 0.95197E+00
  weight for this iteration     100.00

 eigenvalues of (default mixing * dielectric matrix)
  average eigenvalue GAMMA=   0.6797
  2.2653  0.6163  0.4960  0.4960  0.3305  0.3305  0.2234

 Free energy of the ion-electron system (eV)
  ---------------------------------------------------
  alpha Z        PSCENC =       805.87504137
  Ewald energy   TEWEN  =    200394.13823251
  -Hartree energ DENC   =   -242463.62841028
  -exchange      EXHF   =         0.00000000
  -V(xc)+E(xc)   XCENC  =      -344.29477489
  PAW double counting   =     49314.25103837   -47398.04955393
  entropy T*S    EENTRO =        -0.23279535
  eigenvalues    EBANDS =     -2157.32951582
  atomic energy  EATOM  =     41659.78587232
  Solvation  Ediel_sol  =         0.00000000
  ---------------------------------------------------
  free energy    TOTEN  =      -189.48486570 eV

  energy without entropy =     -189.25207035  energy(sigma->0) =     -189.36846803


--------------------------------------------------------------------------------------------------------




----------------------------------------- Iteration    1(  13)  ---------------------------------------


    POTLOK:  cpu time    0.0499: real time    0.0500
    SETDIJ:  cpu time    0.0057: real time    0.0061
    EDDIAG:  cpu time    1.6639: real time    1.6653
  RMM-DIIS:  cpu time    4.5345: real time    4.5357
    ORTHCH:  cpu time    0.4192: real time    0.4193
       DOS:  cpu time    0.0017: real time    0.0017
    CHARGE:  cpu time    0.3043: real time    0.3045
    MIXING:  cpu time    0.0029: real time    0.0029
    --------------------------------------------
      LOOP:  cpu time    6.9830: real time    6.9892

 eigenvalue-minimisations  :  3681
 total energy-change (2. order) : 0.5479459E+00  (-0.1432685E+00)
 number of electron     503.9998359 magnetization 
 augmentation part      197.4084830 magnetization 

 DIPCOR: dipole corrections for dipol
 direction  3 min pos     1,
 dipolmoment           0.000000      0.000000     -0.032711 electrons x Angstroem
 Tr[quadrupol]    -10279.364314

 energy correction for charged system         0.000000 eV
 dipol+quadrupol energy correction           -0.000038 eV
 added-field ion interaction          0.005177 eV  (added to PSCEN)


 Broyden mixing:
  rms(total) = 0.70968E+00    rms(broyden)= 0.70955E+00
  rms(prec ) = 0.79087E+00
  weight for this iteration     100.00

 eigenvalues of (default mixing * dielectric matrix)
  average eigenvalue GAMMA=   0.6917
  2.2926  0.6989  0.6989  0.7240  0.3336  0.3336  0.2158  0.2357

 Free energy of the ion-electron system (eV)
  ---------------------------------------------------
  alpha Z        PSCENC =       805.87450401
  Ewald energy   TEWEN  =    200394.13823251
  -Hartree energ DENC   =   -242475.26401134
  -exchange      EXHF   =         0.00000000
  -V(xc)+E(xc)   XCENC  =      -344.19499708
  PAW double counting   =     49345.45822864   -47428.80976780
  entropy T*S    EENTRO =        -0.25218360
  eigenvalues    EBANDS =     -2145.67279748
  atomic energy  EATOM  =     41659.78587232
  Solvation  Ediel_sol  =         0.00000000
  ---------------------------------------------------
  free energy    TOTEN  =      -188.93691983 eV

  energy without entropy =     -188.68473623  energy(sigma->0) =     -188.81082803


--------------------------------------------------------------------------------------------------------




----------------------------------------- Iteration    1(  14)  ---------------------------------------


    POTLOK:  cpu time    0.0493: real time    0.0494
    SETDIJ:  cpu time    0.0061: real time    0.0061
    EDDIAG:  cpu time    1.6640: real time    1.6681
  RMM-DIIS:  cpu time    4.5265: real time    4.5291
    ORTHCH:  cpu time    0.4134: real time    0.4134
       DOS:  cpu time    0.0016: real time    0.0016
    CHARGE:  cpu time    0.3050: real time    0.3050
    MIXING:  cpu time    0.0030: real time    0.0030
    --------------------------------------------
      LOOP:  cpu time    6.9698: real time    6.9778

 eigenvalue-minimisations  :  3680
 total energy-change (2. order) : 0.1142230E+00  (-0.8277784E-01)
 number of electron     503.9998358 magnetization 
 augmentation part      197.4401561 magnetization 

 DIPCOR: dipole corrections for dipol
 direction  3 min pos     1,
 dipolmoment           0.000000      0.000000     -0.015621 electrons x Angstroem
 Tr[quadrupol]    -10279.571312

 energy correction for charged system         0.000000 eV
 dipol+quadrupol energy correction           -0.000009 eV
 added-field ion interaction          0.002472 eV  (added to PSCEN)


 Broyden mixing:
  rms(total) = 0.62254E+00    rms(broyden)= 0.62240E+00
  rms(prec ) = 0.67777E+00
  weight for this iteration     100.00

 eigenvalues of (default mixing * dielectric matrix)
  average eigenvalue GAMMA=   0.6844
  2.2915  0.8393  0.8393  0.7341  0.3608  0.3608  0.2899  0.2438  0.2003

 Free energy of the ion-electron system (eV)
  ---------------------------------------------------
  alpha Z        PSCENC =       805.87182812
  Ewald energy   TEWEN  =    200394.13823251
  -Hartree energ DENC   =   -242484.06122105
  -exchange      EXHF   =         0.00000000
  -V(xc)+E(xc)   XCENC  =      -344.09628164
  PAW double counting   =     49378.29217045   -47461.12125804
  entropy T*S    EENTRO =        -0.24462391
  eigenvalues    EBANDS =     -2137.38741557
  atomic energy  EATOM  =     41659.78587232
  Solvation  Ediel_sol  =         0.00000000
  ---------------------------------------------------
  free energy    TOTEN  =      -188.82269682 eV

  energy without entropy =     -188.57807290  energy(sigma->0) =     -188.70038486


--------------------------------------------------------------------------------------------------------




----------------------------------------- Iteration    1(  15)  ---------------------------------------


    POTLOK:  cpu time    0.0495: real time    0.0496
    SETDIJ:  cpu time    0.0060: real time    0.0060
    EDDIAG:  cpu time    1.6590: real time    1.6596
  RMM-DIIS:  cpu time    4.5269: real time    4.5303
    ORTHCH:  cpu time    0.4137: real time    0.4139
       DOS:  cpu time    0.0017: real time    0.0017
    CHARGE:  cpu time    0.3058: real time    0.3058
    MIXING:  cpu time    0.0032: real time    0.0032
    --------------------------------------------
      LOOP:  cpu time    6.9665: real time    6.9750

 eigenvalue-minimisations  :  3681
 total energy-change (2. order) : 0.1447628E-01  (-0.3697934E-01)
 number of electron     503.9998360 magnetization 
 augmentation part      197.4308219 magnetization 

 DIPCOR: dipole corrections for dipol
 direction  3 min pos     1,
 dipolmoment           0.000000      0.000000     -0.015991 electrons x Angstroem
 Tr[quadrupol]    -10279.687061

 energy correction for charged system         0.000000 eV
 dipol+quadrupol energy correction           -0.000009 eV
 added-field ion interaction          0.002531 eV  (added to PSCEN)


 Broyden mixing:
  rms(total) = 0.51899E+00    rms(broyden)= 0.51892E+00
  rms(prec ) = 0.57772E+00
  weight for this iteration     100.00

 eigenvalues of (default mixing * dielectric matrix)
  average eigenvalue GAMMA=   0.6981
  2.2581  1.0688  1.0688  0.7106  0.4401  0.4401  0.2943  0.2852  0.2203  0.1945

 Free energy of the ion-electron system (eV)
  ---------------------------------------------------
  alpha Z        PSCENC =       805.87188630
  Ewald energy   TEWEN  =    200394.13823251
  -Hartree energ DENC   =   -242489.65067438
  -exchange      EXHF   =         0.00000000
  -V(xc)+E(xc)   XCENC  =      -344.00779611
  PAW double counting   =     49383.35321830   -47465.59909138
  entropy T*S    EENTRO =        -0.25830681
  eigenvalues    EBANDS =     -2132.44156127
  atomic energy  EATOM  =     41659.78587232
  Solvation  Ediel_sol  =         0.00000000
  ---------------------------------------------------
  free energy    TOTEN  =      -188.80822054 eV

  energy without entropy =     -188.54991373  energy(sigma->0) =     -188.67906713


--------------------------------------------------------------------------------------------------------




----------------------------------------- Iteration    1(  16)  ---------------------------------------


    POTLOK:  cpu time    0.0494: real time    0.0494
    SETDIJ:  cpu time    0.0060: real time    0.0060
    EDDIAG:  cpu time    1.6634: real time    1.6638
  RMM-DIIS:  cpu time    4.3403: real time    4.4129
    ORTHCH:  cpu time    0.4131: real time    0.4131
       DOS:  cpu time    0.0018: real time    0.0018
    CHARGE:  cpu time    0.3063: real time    0.3071
    MIXING:  cpu time    0.0034: real time    0.0034
    --------------------------------------------
      LOOP:  cpu time    6.7845: real time    6.8610

 eigenvalue-minimisations  :  3680
 total energy-change (2. order) : 0.1242868E+00  (-0.1897950E-01)
 number of electron     503.9998360 magnetization 
 augmentation part      197.3530899 magnetization 

 DIPCOR: dipole corrections for dipol
 direction  3 min pos     1,
 dipolmoment           0.000000      0.000000     -0.014840 electrons x Angstroem
 Tr[quadrupol]    -10279.934920

 energy correction for charged system         0.000000 eV
 dipol+quadrupol energy correction           -0.000008 eV
 added-field ion interaction          0.002349 eV  (added to PSCEN)


 Broyden mixing:
  rms(total) = 0.39026E+00    rms(broyden)= 0.39020E+00
  rms(prec ) = 0.43552E+00
  weight for this iteration     100.00

 eigenvalues of (default mixing * dielectric matrix)
  average eigenvalue GAMMA=   0.7136
  2.1965  1.3713  1.3713  0.5768  0.5179  0.5179  0.3190  0.3190  0.2298  0.2298
  0.2002

 Free energy of the ion-electron system (eV)
  ---------------------------------------------------
  alpha Z        PSCENC =       805.87170533
  Ewald energy   TEWEN  =    200394.13823251
  -Hartree energ DENC   =   -242503.39563323
  -exchange      EXHF   =         0.00000000
  -V(xc)+E(xc)   XCENC  =      -343.81607270
  PAW double counting   =     49378.36942094   -47459.27469855
  entropy T*S    EENTRO =        -0.25722557
  eigenvalues    EBANDS =     -2120.10553474
  atomic energy  EATOM  =     41659.78587232
  Solvation  Ediel_sol  =         0.00000000
  ---------------------------------------------------
  free energy    TOTEN  =      -188.68393370 eV

  energy without entropy =     -188.42670812  energy(sigma->0) =     -188.55532091


--------------------------------------------------------------------------------------------------------




----------------------------------------- Iteration    1(  17)  ---------------------------------------


    POTLOK:  cpu time    0.0498: real time    0.0498
    SETDIJ:  cpu time    0.0061: real time    0.0061
    EDDIAG:  cpu time    1.6693: real time    1.6704
  RMM-DIIS:  cpu time    4.5434: real time    4.5444
    ORTHCH:  cpu time    0.4190: real time    0.4189
       DOS:  cpu time    0.0017: real time    0.0017
    CHARGE:  cpu time    0.3069: real time    0.3069
    MIXING:  cpu time    0.0037: real time    0.0037
    --------------------------------------------
      LOOP:  cpu time    7.0005: real time    7.0051

 eigenvalue-minimisations  :  3682
 total energy-change (2. order) : 0.9150329E-01  (-0.2031748E-01)
 number of electron     503.9998361 magnetization 
 augmentation part      197.2564211 magnetization 

 DIPCOR: dipole corrections for dipol
 direction  3 min pos     1,
 dipolmoment           0.000000      0.000000     -0.024642 electrons x Angstroem
 Tr[quadrupol]    -10280.326312

 energy correction for charged system         0.000000 eV
 dipol+quadrupol energy correction           -0.000021 eV
 added-field ion interaction          0.003900 eV  (added to PSCEN)


 Broyden mixing:
  rms(total) = 0.27690E+00    rms(broyden)= 0.27679E+00
  rms(prec ) = 0.31946E+00
  weight for this iteration     100.00

 eigenvalues of (default mixing * dielectric matrix)
  average eigenvalue GAMMA=   0.7343
  2.0194  1.6942  1.6942  0.6040  0.6040  0.5201  0.3827  0.3827  0.2792  0.2451
  0.2038  0.1817

 Free energy of the ion-electron system (eV)
  ---------------------------------------------------
  alpha Z        PSCENC =       805.87324320
  Ewald energy   TEWEN  =    200394.13823251
  -Hartree energ DENC   =   -242523.18393227
  -exchange      EXHF   =         0.00000000
  -V(xc)+E(xc)   XCENC  =      -343.58746997
  PAW double counting   =     49378.71928724   -47458.00041905
  entropy T*S    EENTRO =        -0.25914220
  eigenvalues    EBANDS =     -2102.07810219
  atomic energy  EATOM  =     41659.78587232
  Solvation  Ediel_sol  =         0.00000000
  ---------------------------------------------------
  free energy    TOTEN  =      -188.59243041 eV

  energy without entropy =     -188.33328821  energy(sigma->0) =     -188.46285931


--------------------------------------------------------------------------------------------------------




----------------------------------------- Iteration    1(  18)  ---------------------------------------


    POTLOK:  cpu time    0.0504: real time    0.0507
    SETDIJ:  cpu time    0.0070: real time    0.0070
    EDDIAG:  cpu time    1.6793: real time    1.6798
  RMM-DIIS:  cpu time    4.5340: real time    4.5384
    ORTHCH:  cpu time    0.4161: real time    0.4163
       DOS:  cpu time    0.0017: real time    0.0017
    CHARGE:  cpu time    0.3057: real time    0.3057
    MIXING:  cpu time    0.0038: real time    0.0038
    --------------------------------------------
      LOOP:  cpu time    6.9988: real time    7.0055

 eigenvalue-minimisations  :  3680
 total energy-change (2. order) : 0.5693138E-01  (-0.7430313E-02)
 number of electron     503.9998363 magnetization 
 augmentation part      197.1853291 magnetization 

 DIPCOR: dipole corrections for dipol
 direction  3 min pos     1,
 dipolmoment           0.000000      0.000000     -0.019652 electrons x Angstroem
 Tr[quadrupol]    -10280.591760

 energy correction for charged system         0.000000 eV
 dipol+quadrupol energy correction           -0.000014 eV
 added-field ion interaction          0.003111 eV  (added to PSCEN)


 Broyden mixing:
  rms(total) = 0.16873E+00    rms(broyden)= 0.16869E+00
  rms(prec ) = 0.19221E+00
  weight for this iteration     100.00

 eigenvalues of (default mixing * dielectric matrix)
  average eigenvalue GAMMA=   0.7248
  2.1269  2.1269  1.3953  0.6451  0.6451  0.5065  0.3965  0.3965  0.3007  0.2611
  0.2248  0.2018  0.1949

 Free energy of the ion-electron system (eV)
  ---------------------------------------------------
  alpha Z        PSCENC =       805.87246119
  Ewald energy   TEWEN  =    200394.13823251
  -Hartree energ DENC   =   -242536.40221925
  -exchange      EXHF   =         0.00000000
  -V(xc)+E(xc)   XCENC  =      -343.43351632
  PAW double counting   =     49387.42218516   -47465.71089726
  entropy T*S    EENTRO =        -0.26053353
  eigenvalues    EBANDS =     -2089.94708386
  atomic energy  EATOM  =     41659.78587232
  Solvation  Ediel_sol  =         0.00000000
  ---------------------------------------------------
  free energy    TOTEN  =      -188.53549903 eV

  energy without entropy =     -188.27496551  energy(sigma->0) =     -188.40523227


--------------------------------------------------------------------------------------------------------




----------------------------------------- Iteration    1(  19)  ---------------------------------------


    POTLOK:  cpu time    0.0498: real time    0.0498
    SETDIJ:  cpu time    0.0060: real time    0.0061
    EDDIAG:  cpu time    1.6533: real time    1.6538
  RMM-DIIS:  cpu time    4.5297: real time    4.5322
    ORTHCH:  cpu time    0.4162: real time    0.4163
       DOS:  cpu time    0.0017: real time    0.0017
    CHARGE:  cpu time    0.3052: real time    0.3052
    MIXING:  cpu time    0.0039: real time    0.0039
    --------------------------------------------
      LOOP:  cpu time    6.9665: real time    6.9714

 eigenvalue-minimisations  :  3682
 total energy-change (2. order) : 0.2942390E-01  (-0.2160580E-02)
 number of electron     503.9998363 magnetization 
 augmentation part      197.1412658 magnetization 

 DIPCOR: dipole corrections for dipol
 direction  3 min pos     1,
 dipolmoment           0.000000      0.000000     -0.016974 electrons x Angstroem
 Tr[quadrupol]    -10280.726530

 energy correction for charged system         0.000000 eV
 dipol+quadrupol energy correction           -0.000010 eV
 added-field ion interaction          0.002687 eV  (added to PSCEN)


 Broyden mixing:
  rms(total) = 0.95627E-01    rms(broyden)= 0.95615E-01
  rms(prec ) = 0.10981E+00
  weight for this iteration     100.00

 eigenvalues of (default mixing * dielectric matrix)
  average eigenvalue GAMMA=   0.7042
  2.0875  2.0875  1.4635  0.6564  0.6564  0.5156  0.4240  0.4240  0.3223  0.3223
  0.2668  0.2460  0.2021  0.1838

 Free energy of the ion-electron system (eV)
  ---------------------------------------------------
  alpha Z        PSCENC =       805.87204074
  Ewald energy   TEWEN  =    200394.13823251
  -Hartree energ DENC   =   -242542.64509885
  -exchange      EXHF   =         0.00000000
  -V(xc)+E(xc)   XCENC  =      -343.37233679
  PAW double counting   =     49393.14364746   -47471.08112684
  entropy T*S    EENTRO =        -0.26326799
  eigenvalues    EBANDS =     -2084.08403768
  atomic energy  EATOM  =     41659.78587232
  Solvation  Ediel_sol  =         0.00000000
  ---------------------------------------------------
  free energy    TOTEN  =      -188.50607513 eV

  energy without entropy =     -188.24280714  energy(sigma->0) =     -188.37444113


--------------------------------------------------------------------------------------------------------




----------------------------------------- Iteration    1(  20)  ---------------------------------------


    POTLOK:  cpu time    0.0499: real time    0.0500
    SETDIJ:  cpu time    0.0061: real time    0.0061
    EDDIAG:  cpu time    1.6626: real time    1.6631
  RMM-DIIS:  cpu time    4.0943: real time    4.8452
    ORTHCH:  cpu time    0.4159: real time    0.4161
       DOS:  cpu time    0.0017: real time    0.0017
    CHARGE:  cpu time    0.3049: real time    0.3049
    MIXING:  cpu time    0.0042: real time    0.0042
    --------------------------------------------
      LOOP:  cpu time    6.5405: real time    7.2934

 eigenvalue-minimisations  :  3684
 total energy-change (2. order) : 0.4761128E-02  (-0.4323763E-03)
 number of electron     503.9998363 magnetization 
 augmentation part      197.1367250 magnetization 

 DIPCOR: dipole corrections for dipol
 direction  3 min pos     1,
 dipolmoment           0.000000      0.000000     -0.013562 electrons x Angstroem
 Tr[quadrupol]    -10280.780685

 energy correction for charged system         0.000000 eV
 dipol+quadrupol energy correction           -0.000006 eV
 added-field ion interaction          0.002147 eV  (added to PSCEN)


 Broyden mixing:
  rms(total) = 0.71354E-01    rms(broyden)= 0.71350E-01
  rms(prec ) = 0.81054E-01
  weight for this iteration     100.00

 eigenvalues of (default mixing * dielectric matrix)
  average eigenvalue GAMMA=   0.7074
  2.1199  1.7137  1.7137  0.7978  0.7978  0.5504  0.5202  0.5202  0.3616  0.3616
  0.2875  0.2391  0.2391  0.2006  0.1871

 Free energy of the ion-electron system (eV)
  ---------------------------------------------------
  alpha Z        PSCENC =       805.87150433
  Ewald energy   TEWEN  =    200394.13823251
  -Hartree energ DENC   =   -242544.65213789
  -exchange      EXHF   =         0.00000000
  -V(xc)+E(xc)   XCENC  =      -343.36393870
  PAW double counting   =     49396.01321861   -47473.93972204
  entropy T*S    EENTRO =        -0.26333317
  eigenvalues    EBANDS =     -2082.09100997
  atomic energy  EATOM  =     41659.78587232
  Solvation  Ediel_sol  =         0.00000000
  ---------------------------------------------------
  free energy    TOTEN  =      -188.50131400 eV

  energy without entropy =     -188.23798084  energy(sigma->0) =     -188.36964742


--------------------------------------------------------------------------------------------------------




----------------------------------------- Iteration    1(  21)  ---------------------------------------


    POTLOK:  cpu time    0.0507: real time    0.0508
    SETDIJ:  cpu time    0.0060: real time    0.0062
    EDDIAG:  cpu time    1.6874: real time    1.7277
  RMM-DIIS:  cpu time    4.4015: real time    4.4455
    ORTHCH:  cpu time    0.4161: real time    0.4162
       DOS:  cpu time    0.0016: real time    0.0016
    CHARGE:  cpu time    0.3035: real time    0.3037
    MIXING:  cpu time    0.0041: real time    0.0041
    --------------------------------------------
      LOOP:  cpu time    6.8717: real time    6.9599

 eigenvalue-minimisations  :  3681
 total energy-change (2. order) : 0.2804534E-02  (-0.2465798E-03)
 number of electron     503.9998363 magnetization 
 augmentation part      197.1314782 magnetization 

 DIPCOR: dipole corrections for dipol
 direction  3 min pos     1,
 dipolmoment           0.000000      0.000000     -0.009792 electrons x Angstroem
 Tr[quadrupol]    -10280.867774

 energy correction for charged system         0.000000 eV
 dipol+quadrupol energy correction           -0.000003 eV
 added-field ion interaction          0.001550 eV  (added to PSCEN)


 Broyden mixing:
  rms(total) = 0.51990E-01    rms(broyden)= 0.51984E-01
  rms(prec ) = 0.58876E-01
  weight for this iteration     100.00

 eigenvalues of (default mixing * dielectric matrix)
  average eigenvalue GAMMA=   0.7172
  2.1894  1.7058  1.7058  0.9676  0.9676  0.5863  0.5863  0.5509  0.3862  0.3862
  0.2921  0.2921  0.2359  0.2359  0.2013  0.1859

 Free energy of the ion-electron system (eV)
  ---------------------------------------------------
  alpha Z        PSCENC =       805.87091081
  Ewald energy   TEWEN  =    200394.13823251
  -Hartree energ DENC   =   -242547.92310971
  -exchange      EXHF   =         0.00000000
  -V(xc)+E(xc)   XCENC  =      -343.35073019
  PAW double counting   =     49399.31347680   -47477.23947088
  entropy T*S    EENTRO =        -0.26565433
  eigenvalues    EBANDS =     -2078.82803681
  atomic energy  EATOM  =     41659.78587232
  Solvation  Ediel_sol  =         0.00000000
  ---------------------------------------------------
  free energy    TOTEN  =      -188.49850947 eV

  energy without entropy =     -188.23285514  energy(sigma->0) =     -188.36568230


--------------------------------------------------------------------------------------------------------




----------------------------------------- Iteration    1(  22)  ---------------------------------------


    POTLOK:  cpu time    0.0497: real time    0.0497
    SETDIJ:  cpu time    0.0060: real time    0.0061
    EDDIAG:  cpu time    1.6269: real time    1.6844
  RMM-DIIS:  cpu time    4.5132: real time    4.5284
    ORTHCH:  cpu time    0.4158: real time    0.4158
       DOS:  cpu time    0.0016: real time    0.0016
    CHARGE:  cpu time    0.3044: real time    0.3044
    MIXING:  cpu time    0.0043: real time    0.0043
    --------------------------------------------
      LOOP:  cpu time    6.9228: real time    6.9970

 eigenvalue-minimisations  :  3681
 total energy-change (2. order) : 0.1611476E-02  (-0.1718318E-03)
 number of electron     503.9998363 magnetization 
 augmentation part      197.1230626 magnetization 

 DIPCOR: dipole corrections for dipol
 direction  3 min pos     1,
 dipolmoment           0.000000      0.000000     -0.009882 electrons x Angstroem
 Tr[quadrupol]    -10280.960709

 energy correction for charged system         0.000000 eV
 dipol+quadrupol energy correction           -0.000003 eV
 added-field ion interaction          0.001564 eV  (added to PSCEN)


 Broyden mixing:
  rms(total) = 0.38133E-01    rms(broyden)= 0.38130E-01
  rms(prec ) = 0.42607E-01
  weight for this iteration     100.00

 eigenvalues of (default mixing * dielectric matrix)
  average eigenvalue GAMMA=   0.7619
  2.2580  1.9122  1.9122  1.2027  1.2027  0.6739  0.6739  0.5468  0.4037  0.4037
  0.3256  0.3256  0.1862  0.2013  0.2477  0.2477  0.2276

 Free energy of the ion-electron system (eV)
  ---------------------------------------------------
  alpha Z        PSCENC =       805.87092488
  Ewald energy   TEWEN  =    200394.13823251
  -Hartree energ DENC   =   -242551.60382769
  -exchange      EXHF   =         0.00000000
  -V(xc)+E(xc)   XCENC  =      -343.33230924
  PAW double counting   =     49401.97229636   -47479.85401983
  entropy T*S    EENTRO =        -0.26441286
  eigenvalues    EBANDS =     -2075.20965443
  atomic energy  EATOM  =     41659.78587232
  Solvation  Ediel_sol  =         0.00000000
  ---------------------------------------------------
  free energy    TOTEN  =      -188.49689799 eV

  energy without entropy =     -188.23248513  energy(sigma->0) =     -188.36469156


--------------------------------------------------------------------------------------------------------




----------------------------------------- Iteration    1(  23)  ---------------------------------------


    POTLOK:  cpu time    0.0498: real time    0.0498
    SETDIJ:  cpu time    0.0060: real time    0.0060
    EDDIAG:  cpu time    1.6478: real time    1.6482
  RMM-DIIS:  cpu time    4.5272: real time    4.5285
    ORTHCH:  cpu time    0.4149: real time    0.4152
       DOS:  cpu time    0.0017: real time    0.0017
    CHARGE:  cpu time    0.3059: real time    0.3059
    MIXING:  cpu time    0.0044: real time    0.0044
    --------------------------------------------
      LOOP:  cpu time    6.9586: real time    6.9619

 eigenvalue-minimisations  :  3681
 total energy-change (2. order) : 0.1458059E-02  (-0.2784064E-03)
 number of electron     503.9998363 magnetization 
 augmentation part      197.0996823 magnetization 

 DIPCOR: dipole corrections for dipol
 direction  3 min pos     1,
 dipolmoment           0.000000      0.000000     -0.011071 electrons x Angstroem
 Tr[quadrupol]    -10281.170746

 energy correction for charged system         0.000000 eV
 dipol+quadrupol energy correction           -0.000004 eV
[...]
    275       1.7209      0.00000
    276       1.8243      0.00000
    277       2.1262      0.00000
    278       2.2034      0.00000
    279       2.2697      0.00000
    280       2.3661      0.00000
    281       2.4196      0.00000
    282       2.5189      0.00000
    283       2.6768      0.00000
    284       2.9811      0.00000
    285       3.1756      0.00000
    286       3.2238      0.00000
    287       3.5265      0.00000
    288       3.5863      0.00000
    289       3.6925      0.00000
    290       3.9586      0.00000
    291       4.0858      0.00000
    292       4.2078      0.00000
    293       4.4413      0.00000
    294       4.5073      0.00000
    295       4.5906      0.00000
    296       4.6275      0.00000
    297       4.7180      0.00000
    298       4.8115      0.00000
    299       4.8570      0.00000
    300       4.9166      0.00000
    301       4.9821      0.00000
    302       5.0393      0.00000
    303       5.0632      0.00000
    304       5.1599      0.00000
    305       5.2121      0.00000
    306       5.2721      0.00000


--------------------------------------------------------------------------------------------------------


 soft charge-density along one line, spin component           1
         0         1         2         3         4         5         6         7         8         9
 total charge-density along one line
 
 pseudopotential strength for first ion, spin component:           1
 -8.010   0.002  -0.004   0.001  -0.000  -8.158   0.002  -0.004
  0.002  -7.935   0.001   0.003  -0.005   0.002  -8.085   0.001
 -0.004   0.001  -7.925   0.000  -0.004  -0.004   0.001  -8.075
  0.001   0.003   0.000  -7.927   0.001   0.000   0.003   0.000
 -0.000  -0.005  -0.004   0.001  -8.011  -0.000  -0.005  -0.004
 -8.158   0.002  -0.004   0.000  -0.000  -8.289   0.002  -0.004
  0.002  -8.085   0.001   0.003  -0.005   0.002  -8.217   0.001
 -0.004   0.001  -8.075   0.000  -0.004  -0.004   0.001  -8.208
  0.000   0.003   0.000  -8.077   0.001   0.000   0.003   0.000
 -0.000  -0.005  -0.004   0.001  -8.158  -0.000  -0.005  -0.004
 -0.002  -0.002  -0.026  -0.001  -0.003  -0.002  -0.002  -0.026
 -0.003  -0.003  -0.037  -0.001  -0.004  -0.003  -0.003  -0.037
 -0.000   0.005   0.002   0.000   0.003  -0.000   0.004   0.002
  0.000  -0.003   0.007   0.000   0.000   0.000  -0.003   0.007
 -0.003   0.000   0.000   0.005   0.000  -0.003   0.000   0.000
 -0.001   0.005   0.002   0.000   0.004  -0.001   0.004   0.002
  0.000  -0.004   0.008   0.000  -0.000   0.000  -0.004   0.007
 -0.004   0.000   0.000   0.005   0.000  -0.004   0.000   0.000
 total augmentation occupancy for first ion, spin component:           1
  4.479   0.007   0.074   0.024   0.096  -2.652   0.010  -0.087  -0.042  -0.100   0.132  -0.060   0.052   0.004   0.038  -0.003
  0.007   3.983   0.028  -0.031   0.011   0.010  -1.742  -0.030   0.037  -0.055   0.053   0.008   0.129   0.003   0.013  -0.002
  0.074   0.028   4.333  -0.083   0.218  -0.087  -0.030  -2.221   0.070  -0.220   1.022  -0.136  -0.016   0.211  -0.021   0.002
  0.024  -0.031  -0.083   4.074  -0.020  -0.041   0.037   0.070  -1.793   0.018   0.057  -0.027   0.017  -0.018   0.170   0.000
  0.096   0.011   0.218  -0.020   4.067  -0.100  -0.056  -0.219   0.018  -2.256   0.197  -0.074   0.010   0.018  -0.017   0.003
 -2.652   0.010  -0.087  -0.041  -0.100   2.710  -0.023   0.096   0.054   0.102  -0.119   0.056  -0.045  -0.007  -0.031   0.002
  0.010  -1.742  -0.030   0.037  -0.056  -0.023   1.471   0.030  -0.042   0.088  -0.046  -0.005  -0.120   0.002  -0.014   0.005
 -0.087  -0.030  -2.221   0.070  -0.219   0.096   0.030   2.055  -0.060   0.220  -0.949   0.152   0.011  -0.217   0.017  -0.001
 -0.042   0.037   0.070  -1.793   0.018   0.054  -0.042  -0.060   1.488  -0.017  -0.050   0.025  -0.017   0.015  -0.159   0.000
 -0.100  -0.055  -0.220   0.018  -2.256   0.102   0.088   0.220  -0.017   2.326  -0.179   0.073  -0.015  -0.018   0.017  -0.000
  0.132   0.053   1.022   0.057   0.197  -0.119  -0.046  -0.949  -0.050  -0.179   2.396  -0.494   0.001  -0.112  -0.005  -0.000
 -0.060   0.008  -0.136  -0.027  -0.074   0.056  -0.005   0.152   0.025   0.073  -0.494   0.145   0.011   0.050   0.005  -0.000
  0.052   0.129  -0.016   0.017   0.010  -0.045  -0.120   0.011  -0.017  -0.015   0.001   0.011   0.191  -0.004  -0.004  -0.006
  0.004   0.003   0.211  -0.018   0.018  -0.007   0.002  -0.217   0.015  -0.018  -0.112   0.050  -0.004   0.087  -0.001   0.000
  0.038   0.013  -0.021   0.170  -0.017  -0.031  -0.014   0.017  -0.159   0.017  -0.005   0.005  -0.004  -0.001   0.176   0.000
 -0.003  -0.002   0.002   0.000   0.003   0.002   0.005  -0.001   0.000  -0.000  -0.000  -0.000  -0.006   0.000   0.000   0.000
  0.000  -0.004   0.001   0.001  -0.000   0.000   0.001   0.005  -0.001   0.000   0.007  -0.002   0.000  -0.003   0.000   0.000
 -0.005   0.000   0.002  -0.003   0.000   0.002   0.000  -0.001   0.006  -0.001   0.000  -0.000   0.000   0.000  -0.005  -0.000


------------------------ aborting loop because EDIFF is reached ----------------------------------------


    CHARGE:  cpu time    0.3074: real time    0.3074
    FORLOC:  cpu time    0.0186: real time    0.0186
    FORNL :  cpu time    1.6331: real time    1.6336
    FORCOR:  cpu time    0.0675: real time    0.0686
    FORHAR:  cpu time    0.0292: real time    0.0292
    MIXING:  cpu time    0.0036: real time    0.0036
    OFIELD:  cpu time    0.0000: real time    0.0000

 VOLUME and BASIS-vectors are now :
 -----------------------------------------------------------------------------
  energy-cutoff  :      400.00
  volume of cell :     2567.68
      direct lattice vectors                 reciprocal lattice vectors
    11.002581515  0.000000000  0.000000000     0.090887761 -0.052474073  0.000000000
     5.501290758  9.528515099  0.000000000     0.000000000  0.104948147  0.000000000
     0.000000000  0.000000000 24.491785094     0.000000000  0.000000000  0.040830017

  length of vectors
    11.002581515 11.002581515 24.491785094     0.104948147  0.104948147  0.040830017


 FORCES acting on ions
    electron-ion (+dipol)            ewald-force                    non-local-force                 convergence-correction
 -----------------------------------------------------------------------------------------------
   -.300E+01 -.162E+01 -.228E+04   0.315E+01 0.234E+01 0.228E+04   -.142E+00 -.727E+00 0.155E+00   -.500E-02 -.255E-02 -.372E-02
   -.159E+02 -.867E+01 -.226E+04   0.164E+02 0.876E+01 0.226E+04   -.546E+00 -.968E-01 0.316E+00   -.181E-02 0.417E-02 0.858E-03
   0.293E+01 -.292E+01 -.150E+02   -.261E+01 0.175E+01 0.145E+02   -.317E+00 0.118E+01 0.487E+00   -.769E-03 -.550E-02 -.147E-02
   0.242E+01 -.204E+01 -.230E+04   -.214E+01 0.186E+01 0.230E+04   -.293E+00 0.180E+00 0.174E-01   -.328E-02 -.378E-02 -.301E-02
   -.231E+01 -.326E+01 -.200E+02   0.326E+01 0.316E+01 0.195E+02   -.937E+00 0.899E-01 0.526E+00   -.322E-02 -.282E-03 -.326E-02
   0.138E+02 -.163E+01 0.227E+04   -.142E+02 0.178E+01 -.227E+04   0.443E+00 -.155E+00 -.356E+00   0.121E-02 -.513E-03 -.210E-02
   -.166E+02 -.101E+02 0.227E+04   0.165E+02 0.104E+02 -.227E+04   0.107E+00 -.277E+00 -.228E+00   -.461E-03 -.292E-02 0.292E-02
   -.139E+02 -.131E+02 -.227E+04   0.144E+02 0.133E+02 0.227E+04   -.425E+00 -.189E+00 0.585E-01   0.353E-02 0.206E-02 -.508E-04
   0.916E+01 0.381E+01 0.409E+02   -.780E+01 -.381E+01 -.404E+02   -.136E+01 -.864E-02 -.574E+00   0.405E-02 -.503E-03 -.990E-03
   -.631E+01 -.454E+01 0.230E+04   0.687E+01 0.420E+01 -.230E+04   -.557E+00 0.342E+00 0.518E-01   0.573E-03 0.281E-02 -.261E-05
   -.109E+02 -.337E+01 0.333E+02   0.100E+02 0.313E+01 -.327E+02   0.939E+00 0.234E+00 -.564E+00   0.213E-03 0.937E-02 0.299E-03
   -.482E+01 -.133E+02 0.784E+01   0.515E+01 0.129E+02 -.777E+01   -.333E+00 0.369E+00 -.613E-01   0.573E-04 0.173E-02 -.371E-02
   -.934E+01 -.617E+01 0.227E+04   0.923E+01 0.636E+01 -.227E+04   0.113E+00 -.191E+00 -.255E+00   -.135E-02 0.128E-02 0.311E-02
   0.146E+02 0.792E+01 -.228E+04   -.146E+02 -.800E+01 0.228E+04   0.387E-02 0.861E-01 -.349E-02   0.139E-02 -.496E-02 -.976E-03
   -.129E+01 0.164E+02 0.228E+04   0.185E+01 -.166E+02 -.228E+04   -.567E+00 0.179E+00 -.342E-01   -.107E-02 0.301E-02 -.193E-02
   -.115E+02 -.205E+01 0.310E+02   0.111E+02 0.270E+01 -.304E+02   0.460E+00 -.632E+00 -.590E+00   0.177E-02 -.446E-02 -.389E-02
   0.220E+01 -.411E+01 0.230E+04   -.210E+01 0.419E+01 -.230E+04   -.101E+00 -.787E-01 0.206E-01   0.162E-02 -.275E-02 0.138E-02
   -.414E+01 0.481E+01 -.231E+04   0.445E+01 -.528E+01 0.231E+04   -.309E+00 0.477E+00 -.324E+00   -.126E-02 0.114E-02 -.786E-03
   -.274E+01 0.113E+02 -.165E+02   0.190E+01 -.107E+02 0.159E+02   0.846E+00 -.612E+00 0.597E+00   -.272E-02 -.710E-03 -.256E-02
   0.135E+02 0.336E+01 0.231E+04   -.139E+02 -.338E+01 -.231E+04   0.470E+00 0.202E-01 0.206E+00   0.370E-03 -.399E-03 -.942E-03
   0.333E+01 0.275E+01 -.223E+04   -.370E+01 -.258E+01 0.223E+04   0.380E+00 -.169E+00 0.262E+00   0.458E-02 -.355E-02 0.617E-03
   0.824E+00 0.542E+01 -.885E+01   -.168E+01 -.562E+01 0.832E+01   0.842E+00 0.188E+00 0.530E+00   0.167E-02 -.111E-02 -.282E-02
   0.270E+01 -.663E+01 -.508E+01   -.292E+01 0.658E+01 0.461E+01   0.222E+00 0.463E-01 0.466E+00   -.112E-02 0.417E-02 -.237E-02
   0.194E+02 0.104E+02 -.227E+04   -.201E+02 -.106E+02 0.227E+04   0.756E+00 0.150E+00 0.200E+00   -.312E-02 0.576E-02 -.350E-02
   -.203E+01 0.213E+01 -.196E+04   0.203E+01 -.241E+01 0.195E+04   -.406E-04 0.290E+00 0.173E+01   0.201E-03 0.521E-02 0.277E-04
   0.230E+02 -.418E+01 0.198E+04   -.238E+02 0.428E+01 -.198E+04   0.762E+00 -.984E-01 -.133E+01   0.532E-03 -.259E-02 0.101E-03
   0.166E+02 0.119E+02 -.197E+04   -.170E+02 -.123E+02 0.197E+04   0.472E+00 0.416E+00 0.184E+01   -.198E-02 -.365E-02 -.337E-02
   -.796E+00 -.390E+00 0.602E+01   0.731E+00 0.359E+00 -.602E+01   0.620E-01 0.224E-01 -.548E-02   -.273E-03 0.169E-02 -.266E-02
   -.170E+02 -.474E+01 -.198E+04   0.170E+02 0.490E+01 0.198E+04   -.939E-04 -.156E+00 0.167E+01   -.267E-02 -.269E-02 0.606E-03
   0.414E+01 -.908E+01 0.197E+04   -.407E+01 0.950E+01 -.197E+04   -.687E-01 -.422E+00 -.167E+01   -.490E-03 -.244E-03 0.132E-02
   -.175E+01 0.351E+01 -.255E+02   0.163E+01 -.293E+01 0.251E+02   0.128E+00 -.580E+00 0.389E+00   -.412E-02 0.326E-04 0.578E-03
   -.926E+01 -.630E+01 0.197E+04   0.100E+02 0.648E+01 -.197E+04   -.777E+00 -.177E+00 -.177E+01   -.196E-02 -.318E-02 0.243E-02
   -.109E+02 -.530E+01 0.199E+04   0.112E+02 0.546E+01 -.198E+04   -.259E+00 -.151E+00 -.181E+01   0.171E-02 -.922E-03 -.100E-02
   -.245E+01 -.293E+01 0.552E+02   0.216E+01 0.280E+01 -.544E+02   0.283E+00 0.130E+00 -.751E+00   0.253E-02 -.871E-04 0.111E-02
   0.971E+01 0.270E+01 -.127E+01   -.903E+01 -.246E+01 0.842E+00   -.677E+00 -.239E+00 0.429E+00   0.108E-02 0.587E-02 -.137E-02
   0.726E+01 0.349E+01 0.198E+04   -.779E+01 -.363E+01 -.198E+04   0.542E+00 0.134E+00 -.163E+01   -.626E-04 0.448E-02 -.181E-02
   0.788E+01 0.120E+02 0.197E+04   -.780E+01 -.122E+02 -.197E+04   -.869E-01 0.207E+00 -.182E+01   -.713E-03 -.618E-03 -.134E-02
   0.465E+01 0.143E+01 -.508E+02   -.452E+01 -.140E+01 0.499E+02   -.128E+00 -.250E-01 0.880E+00   -.323E-02 -.576E-02 -.826E-03
   0.224E+01 -.113E+01 0.263E+02   -.223E+01 0.108E+01 -.264E+02   -.161E-01 0.550E-01 0.756E-02   0.294E-02 -.455E-02 -.115E-02
   -.722E+01 0.107E+02 0.199E+04   0.746E+01 -.110E+02 -.199E+04   -.248E+00 0.255E+00 -.170E+01   0.151E-02 0.152E-02 0.672E-03
   0.433E+01 -.488E+00 -.198E+04   -.469E+01 0.473E+00 0.198E+04   0.357E+00 0.159E-01 0.115E+01   -.125E-03 -.636E-03 0.110E-03
   -.873E+01 0.199E+01 0.200E+04   0.865E+01 -.205E+01 -.200E+04   0.907E-01 0.676E-01 -.139E+01   -.226E-02 -.520E-03 0.792E-03
   -.143E+02 -.109E+02 -.197E+04   0.144E+02 0.109E+02 0.197E+04   -.841E-01 -.647E-01 0.132E+01   0.115E-02 -.267E-02 -.131E-02
   0.118E+02 0.776E+01 -.198E+04   -.118E+02 -.772E+01 0.198E+04   -.594E-02 -.452E-01 0.139E+01   0.139E-02 0.140E-02 -.230E-03
   0.282E+00 0.660E+01 0.200E+04   -.428E+00 -.678E+01 -.200E+04   0.151E+00 0.179E+00 -.106E+01   0.722E-03 0.136E-02 -.578E-03
   0.182E+01 0.283E+01 0.374E+02   -.180E+01 -.304E+01 -.369E+02   -.887E-02 0.218E+00 -.457E+00   0.148E-02 0.669E-03 -.293E-02
   0.631E-01 -.564E+01 -.195E+04   -.640E-01 0.608E+01 0.195E+04   -.304E-02 -.446E+00 0.150E+01   0.100E-02 0.641E-02 -.254E-02
   -.114E+01 0.118E+01 -.195E+04   0.150E+01 -.131E+01 0.195E+04   -.372E+00 0.136E+00 0.165E+01   0.544E-02 -.219E-02 -.248E-02
 -----------------------------------------------------------------------------------------------
   0.208E+00 -.118E+00 0.554E+00   0.353E-12 0.178E-14 0.318E-11   -.190E+00 0.125E+00 -.528E+00   -.358E-03 -.149E-03 -.448E-01
 
 
 POSITION                                       TOTAL-FORCE (eV/Angst)
 -----------------------------------------------------------------------------------
     12.38265      7.16040     14.81569         0.000587     -0.007227      0.002399
      6.91318      2.39116     14.76767         0.003921      0.002711      0.000536
      9.62398      8.69495     12.26000         0.003595     -0.001991     -0.001514
      5.50613      0.00020     14.85191        -0.008878     -0.002149     -0.004934
      5.52570      1.57324     12.26867         0.008658     -0.009774     -0.000485
      9.60595      0.80645      9.70818         0.000224     -0.003467     -0.001740
      8.26422      7.95521      9.72699         0.005518     -0.000185     -0.007457
      5.52219      4.77733     14.77941         0.005618      0.003125     -0.000815
      5.52922      6.35132     12.21139         0.002375     -0.006126     -0.000305
     11.02643      3.17695      9.67426         0.001086      0.003801     -0.004982
      9.59784      3.96194     12.21899        -0.003029      0.001807     -0.003222
      4.13147      3.96299     12.24126         0.000294      0.008220      0.004414
      9.63866      5.56996      9.72733         0.006908     -0.004994     -0.003420
      2.74195      0.00101     14.78979        -0.005270     -0.001084      0.009027
      5.52221      3.16228      9.69945        -0.008958     -0.002143      0.009660
     15.11419      8.75876     12.22391        -0.001275      0.009322      0.004875
      5.50297      7.95033      9.65581        -0.003518     -0.001861     -0.013435
      2.75782      4.75475     14.87590        -0.004309      0.004122      0.004022
     13.72925      6.36187     12.26269        -0.002383     -0.007765     -0.004016
      4.10663      5.55902      9.63807         0.004781      0.001223      0.002201
     -0.00764      0.00924     14.70097         0.005764     -0.003163      0.007150
      2.72552      1.56193     12.25327        -0.011711     -0.005544     -0.003255
     12.35450      3.96033     12.24810        -0.006531      0.002466     -0.005670
     10.97812      4.76210     14.78079         0.000415     -0.000907      0.005910
      9.63483      2.38523     14.58165        -0.004062      0.005853     -0.001532
     13.73266      7.94453      9.86839         0.006112     -0.001498      0.003653
      9.60232      7.14065     14.62549        -0.003365      0.003082      0.000705
      8.24059      1.58042     12.24504        -0.003310     -0.006885     -0.004533
      8.26381      0.00737     14.63837         0.002931      0.004669      0.003504
     12.38341      5.57897      9.87747        -0.004973     -0.002838     -0.006679
     10.98813      6.34487     12.27949         0.003465     -0.001367     -0.005089
     11.03727      7.95558      9.90662        -0.000864      0.002222      0.004463
      1.39093      0.80561      9.84720        -0.001576      0.003393      0.005759
      8.25170      6.34345     12.18343        -0.001157      0.001061      0.002161
      6.87666      3.96321     12.25035         0.002759      0.000406     -0.002763
      8.23954      3.17393      9.86403         0.009890     -0.000282     -0.008123
      6.87537      0.78196      9.89933        -0.008151     -0.000337      0.006686
     12.36608      8.72251     12.30933        -0.006635      0.004740     -0.004125
      6.86876      8.72585     12.21425         0.004209      0.005942      0.005274
      6.87527      5.55009      9.82691        -0.004136      0.005191      0.005517
      4.12658      2.38689     14.66849        -0.000909     -0.000278      0.002296
      4.13362      0.79238      9.86680         0.007406      0.002917      0.008932
      4.14028      7.14846     14.62324         0.000504     -0.001330      0.002623
      1.37148      2.38763     14.64185         0.002734      0.001374     -0.009446
      2.76096      3.17092      9.84032         0.006459     -0.002444      0.003090
     10.98283      1.57757     12.20861         0.008106      0.001968      0.004607
      8.25732      4.78983     14.58078        -0.003305     -0.006926     -0.008197
      6.89165      7.14569     14.57493        -0.006014      0.002947     -0.003724
 -----------------------------------------------------------------------------------
    total drift:                                0.017930      0.007366     -0.018632


--------------------------------------------------------------------------------------------------------



  FREE ENERGIE OF THE ION-ELECTRON SYSTEM (eV)
  ---------------------------------------------------
  free  energy   TOTEN  =      -192.28998262 eV

  energy  without entropy=     -192.05934942  energy(sigma->0) =     -192.17466602
 
 d Force = 0.5148420E-03[ 0.826E-04, 0.947E-03]  d Energy = 0.5515752E-03-0.367E-04
 d Force = 0.1763512E+02[ 0.177E+02, 0.176E+02]  d Ewald  = 0.1763513E+02-0.104E-04


--------------------------------------------------------------------------------------------------------


    POTLOK:  cpu time    0.0578: real time    0.0587


--------------------------------------------------------------------------------------------------------


 stress matrix after NEB project (eV)
      0.00000      0.00000      0.00000
      0.00000      0.00000      0.00000
      0.00000      0.00000      0.00000
  FORCES: max atom, RMS     0.014012    0.008558
  FORCE total and by dimension    0.059289    0.013435
  Stress total and by dimension    0.000000    0.000000
 Conjugate gradient step on ions:
 trial-energy change:   -0.000552  1 .order   -0.000515   -0.000947   -0.000083
  (g-gl).g = 0.344E-03      g.g   = 0.290E-03  gl.gl    = 0.719E-03
 g(Force)  = 0.290E-03   g(Stress)= 0.000E+00 ortho     = 0.957E-05
 gamma     =   0.47849
 trial     =   3.21883
 opt step  =   3.46025  (harmonic =   3.52642) maximal distance =0.00590619
 next E    =  -192.289986   (d E  =  -0.00055)


--------------------------------------------------------------------------------------------------------


  
 reached required accuracy - stopping structural energy minimisation
     LOOP+:  cpu time   83.9833: real time   84.2504
    4ORBIT:  cpu time    0.0000: real time    0.0000

 total amount of memory used by VASP on root node    84353. kBytes
========================================================================

   base      :      30000. kBytes
   nonlr-proj:       4285. kBytes
   fftplans  :       4447. kBytes
   grid      :       6721. kBytes
   one-center:        124. kBytes
   wavefun   :      38776. kBytes
 
  
  
 General timing and accounting informations for this job:
 ========================================================
  
                  Total CPU time used (sec):     2294.919
                            User time (sec):     2206.892
                          System time (sec):       88.027
                         Elapsed time (sec):     2319.664
  
                   Maximum memory used (kb):      920500.
                   Average memory used (kb):           0.
  
                          Minor page faults:       740039
                          Major page faults:            2
                 Voluntary context switches:        10137
