unknown system                          
           1
    11.002582    0.000000    0.000000
     5.501291    9.528515    0.000000
     0.000000    0.000000   24.491785
   Au   Pd
  24  24
Direct configuration=     1
   0.75000000  0.75000000  0.59169983
   0.50000000  0.25000000  0.59169983
   0.41666667  0.91666667  0.50000000
   0.50000000  0.00000000  0.59169983
   0.41666667  0.16666667  0.50000000
   0.83333333  0.08333333  0.40830017
   0.33333333  0.83333333  0.40830017
   0.25000000  0.50000000  0.59169983
   0.16666667  0.66666667  0.50000000
   0.83333333  0.33333333  0.40830017
   0.66666667  0.41666667  0.50000000
   0.16666667  0.41666667  0.50000000
   0.58333333  0.58333333  0.40830017
   0.25000000  0.00000000  0.59169983
   0.33333333  0.33333333  0.40830017
   0.91666667  0.91666667  0.50000000
   0.08333333  0.83333333  0.40830017
   0.00000000  0.50000000  0.59169983
   0.91666667  0.66666667  0.50000000
   0.08333333  0.58333333  0.40830017
   0.00000000  0.00000000  0.59169983
   0.16666667  0.16666667  0.50000000
   0.91666667  0.41666667  0.50000000
   0.75000000  0.50000000  0.59169983
   0.75000000  0.25000000  0.59169983
   0.83333333  0.83333333  0.40830017
   0.50000000  0.75000000  0.59169983
   0.66666667  0.16666667  0.50000000
   0.75000000  0.00000000  0.59169983
   0.83333333  0.58333333  0.40830017
   0.66666667  0.66666667  0.50000000
   0.58333333  0.83333333  0.40830017
   0.08333333  0.08333333  0.40830017
   0.41666667  0.66666667  0.50000000
   0.41666667  0.41666667  0.50000000
   0.58333333  0.33333333  0.40830017
   0.58333333  0.08333333  0.40830017
   0.66666667  0.91666667  0.50000000
   0.16666667  0.91666667  0.50000000
   0.33333333  0.58333333  0.40830017
   0.25000000  0.25000000  0.59169983
   0.33333333  0.08333333  0.40830017
   0.00000000  0.75000000  0.59169983
   0.00000000  0.25000000  0.59169983
   0.08333333  0.33333333  0.40830017
   0.91666667  0.16666667  0.50000000
   0.50000000  0.50000000  0.59169983
   0.25000000  0.75000000  0.59169983
Direct configuration=     2
   0.74944952  0.75101618  0.59363167
   0.50105152  0.25016486  0.59357026
   0.41823906  0.91454960  0.49957292
   0.50070629 -0.00042242  0.59389664
   0.41824005  0.16624098  0.49951616
   0.83232998  0.08377670  0.40644750
   0.33321559  0.83368856  0.40646909
   0.25061578  0.50047914  0.59387968
   0.16903393  0.66707142  0.50042594
   0.83419668  0.33287638  0.40615071
   0.66487600  0.41608951  0.50039999
   0.16759311  0.41541681  0.49995936
   0.58306609  0.58383087  0.40645714
   0.24960662 -0.00030876  0.59385487
   0.33447448  0.33286726  0.40615003
   0.91490068  0.91789767  0.50039996
   0.08366514  0.83363885  0.40608007
   0.00061467  0.49934765  0.59430224
   0.91429686  0.66852115  0.49957219
   0.08263313  0.58326568  0.40575414
  -0.00057290  0.00038976  0.59350308
   0.16540625  0.16642799  0.49959551
   0.91656677  0.41608943  0.49961792
   0.74892712  0.49976503  0.59381760
   0.75001833  0.24966426  0.59257393
   0.83201497  0.83343426  0.40715108
   0.49955748  0.74918513  0.59264428
   0.66660747  0.16660965  0.50001844
   0.75012360  0.00032843  0.59269677
   0.83287174  0.58424988  0.40706801
   0.66571043  0.66784499  0.49975053
   0.58420207  0.83373831  0.40735316
   0.08375173  0.08363914  0.40726517
   0.41641412  0.66642575  0.50044929
   0.41795052  0.41710197  0.49986308
   0.58277332  0.33299616  0.40734977
   0.58362021  0.08293973  0.40737375
   0.66693971  0.91681583  0.49948840
   0.16677064  0.91659924  0.50004849
   0.33399657  0.58286806  0.40720255
   0.24953379  0.25011433  0.59323318
   0.33335915  0.08322127  0.40693009
   0.00007012  0.75045183  0.59312575
  -0.00014972  0.24972287  0.59296156
   0.08334822  0.33285076  0.40688783
   0.91688848  0.16632901  0.50029135
   0.49971318  0.50064353  0.59259168
   0.25078144  0.74954533  0.59265718
Direct configuration=     3
   0.74788688  0.75390078  0.59911553
   0.50403645  0.25063285  0.59887981
   0.42270258  0.90853991  0.49836057
   0.50271122 -0.00162152  0.60013267
   0.42270638  0.16503257  0.49814270
   0.82948179  0.08503527  0.40118836
   0.33288136  0.83469695  0.40127126
   0.25236380  0.50183926  0.60006755
   0.17575382  0.66822040  0.50163506
   0.83664742  0.33157922  0.40004910
   0.65979289  0.41445115  0.50153545
   0.17022297  0.41186887  0.49984400
   0.58230747  0.58524323  0.40122535
   0.24848993 -0.00118525  0.59997233
   0.33771382  0.33154424  0.40004648
   0.90988762  0.92139208  0.50153532
   0.08460703  0.83450611  0.39977792
   0.00235954  0.49749583  0.60168966
   0.90756975  0.67378543  0.49835776
   0.08064549  0.58307363  0.39852677
  -0.00219919  0.00149615  0.59862194
   0.16182832  0.16575044  0.49844728
   0.91628320  0.41445084  0.49853333
   0.74588157  0.49909803  0.59982928
   0.75007036  0.24871119  0.59505520
   0.82827256  0.83372077  0.40388919
   0.49830130  0.74687199  0.59532527
   0.66643942  0.16644778  0.50007077
   0.75047445  0.00126076  0.59552678
   0.83156141  0.58685166  0.40357032
   0.66299598  0.67118986  0.49904238
   0.58666814  0.83488789  0.40466490
   0.08493944  0.08450722  0.40432715
   0.41569722  0.66574188  0.50172469
   0.42159497  0.41833766  0.49947439
   0.58118362  0.33203903  0.40465191
   0.58443458  0.08182242  0.40474393
   0.66771480  0.91723924  0.49803613
   0.16706580  0.91640785  0.50018615
   0.33587928  0.58154731  0.40408677
   0.24821038  0.25043889  0.59758586
   0.33343245  0.08290316  0.40304089
   0.00026916  0.75173441  0.59717349
  -0.00057472  0.24893619  0.59654319
   0.08339047  0.33148088  0.40287864
   0.91751812  0.16537050  0.50111838
   0.49889900  0.50247031  0.59512336
   0.25299971  0.74825467  0.59537478
Direct configuration=     4
   0.74906848  0.75209805  0.60050057
   0.50293011  0.25081386  0.60024294
   0.41991858  0.91186458  0.49878231
   0.50083224 -0.00047247  0.60140135
   0.42128221  0.16482558  0.49873460
   0.83037732  0.08439346  0.39985118
   0.33343275  0.83445441  0.39974822
   0.25209659  0.50104752  0.60159145
   0.17150682  0.66746831  0.50108095
   0.83521383  0.33240256  0.39857235
   0.66390200  0.41517215  0.50094784
   0.16969227  0.41459222  0.49988389
   0.58311955  0.58440027  0.40004643
   0.24939916 -0.00103831  0.60125168
   0.33628901  0.33208108  0.39833423
   0.91296361  0.92026446  0.50105458
   0.08334047  0.83432128  0.39848682
   0.00111350  0.49861714  0.60307972
   0.91219634  0.67012006  0.49892774
   0.08131962  0.58318386  0.39718267
  -0.00156114  0.00079905  0.60021352
   0.16571015  0.16333596  0.49899839
   0.91330462  0.41722214  0.49888897
   0.74711736  0.49921300  0.60107153
   0.75042789  0.24887330  0.59608282
   0.82987099  0.83416976  0.40247316
   0.49826252  0.74795875  0.59628167
   0.66658806  0.16630946  0.50005066
   0.75013790  0.00135027  0.59665940
   0.83151264  0.58594073  0.40246296
   0.66467539  0.66733545  0.49941425
   0.58577700  0.83526536  0.40320562
   0.08442050  0.08404493  0.40324846
   0.41778158  0.66636073  0.50093636
   0.41833238  0.41718561  0.49968009
   0.58234039  0.33229151  0.40364478
   0.58423000  0.08183160  0.40336224
   0.66548806  0.91869351  0.49880401
   0.16657418  0.91703299  0.50019702
   0.33484484  0.58205152  0.40320428
   0.24953419  0.24946243  0.59818151
   0.33376950  0.08301156  0.40214194
   0.00063710  0.75093792  0.59783531
  -0.00087562  0.24965760  0.59742286
   0.08422815  0.33206789  0.40163686
   0.91602002  0.16538127  0.50082162
   0.49875160  0.50212194  0.59650724
   0.25210529  0.74948369  0.59687096
Direct configuration=     5
   0.74955000  0.75136339  0.60106501
   0.50247925  0.25088763  0.60079844
   0.41878404  0.91321946  0.49895418
   0.50006652 -0.00000420  0.60191836
   0.42070184  0.16474123  0.49897581
   0.83074226  0.08413191  0.39930625
   0.33365745  0.83435557  0.39912755
   0.25198769  0.50072486  0.60221247
   0.16977608  0.66716181  0.50085513
   0.83462961  0.33273809  0.39797054
   0.66557655  0.41546597  0.50070837
   0.16947599  0.41570204  0.49990015
   0.58345048  0.58405675  0.39956599
   0.24976969 -0.00097843  0.60177305
   0.33570837  0.33229986  0.39763645
   0.91421714  0.91980492  0.50085867
   0.08282432  0.83424596  0.39796067
   0.00060571  0.49907410  0.60364620
   0.91408177  0.66862634  0.49916001
   0.08159434  0.58322878  0.39663492
  -0.00130112  0.00051497  0.60086212
   0.16729208  0.16235200  0.49922298
   0.91209078  0.41835151  0.49903391
   0.74762097  0.49925985  0.60157777
   0.75057359  0.24893936  0.59650160
   0.83052239  0.83435273  0.40189609
   0.49824672  0.74840163  0.59667142
   0.66664863  0.16625309  0.50004246
   0.75000075  0.00138675  0.59712097
   0.83149277  0.58556951  0.40201169
   0.66535979  0.66576469  0.49956580
   0.58541384  0.83541919  0.40261093
   0.08420902  0.08385653  0.40280887
   0.41863101  0.66661293  0.50061510
   0.41700280  0.41671612  0.49976391
   0.58281179  0.33239440  0.40323436
   0.58414663  0.08183535  0.40279916
   0.66458061  0.91928616  0.49911694
   0.16637384  0.91728775  0.50020145
   0.33442328  0.58225699  0.40284465
   0.25007367  0.24906451  0.59842425
   0.33390686  0.08305574  0.40177560
   0.00078704  0.75061333  0.59810502
  -0.00099824  0.24995159  0.59778134
   0.08456952  0.33230710  0.40113081
   0.91540951  0.16538566  0.50070069
   0.49869154  0.50197997  0.59707121
   0.25174079  0.74998455  0.59748069
Direct configuration=     6
   0.74953457  0.75125696  0.60147308
   0.50213665  0.25082477  0.60129975
   0.41893972  0.91316806  0.49916841
   0.50014984 -0.00019249  0.60243375
   0.41956853  0.16572903  0.49924254
   0.83115867  0.08401571  0.39875337
   0.33369337  0.83412919  0.39856451
   0.25140899  0.50065752  0.60280892
   0.16929627  0.66740509  0.50062183
   0.83478191  0.33270657  0.39738312
   0.66482818  0.41545691  0.50047286
   0.16805491  0.41578075  0.49991134
   0.58332137  0.58396373  0.39903890
   0.24961552 -0.00056276  0.60231946
   0.33543048  0.33234377  0.39700152
   0.91488079  0.91892053  0.50054606
   0.08277489  0.83395717  0.39747596
   0.00077844  0.49890946  0.60413178
   0.91450426  0.66840163  0.49933831
   0.08172082  0.58337446  0.39605341
  -0.00090381  0.00028481  0.60148374
   0.16629932  0.16443673  0.49950372
   0.91460126  0.41697368  0.49919165
   0.74793139  0.49937502  0.60216191
   0.75043686  0.24935597  0.59683760
   0.83128953  0.83400653  0.40168444
   0.49854023  0.74893951  0.59696968
   0.66628866  0.16663475  0.50001182
   0.74992804  0.00097616  0.59741767
   0.83189835  0.58545428  0.40170903
   0.66551369  0.66655640  0.49976192
   0.58523533  0.83529507  0.40225184
   0.08384153  0.08400268  0.40255330
   0.41797678  0.66636951  0.50009147
   0.41726015  0.41651430  0.49996387
   0.58284948  0.33269239  0.40305792
   0.58372727  0.08230506  0.40232399
   0.66577368  0.91745213  0.49961994
   0.16646896  0.91634858  0.50021588
   0.33389735  0.58267125  0.40272762
   0.24994697  0.24943916  0.59840612
   0.33397090  0.08321061  0.40144054
   0.00093099  0.75023535  0.59820348
  -0.00066531  0.25015971  0.59780645
   0.08449531  0.33247588  0.40106195
   0.91570219  0.16577098  0.50044079
   0.49891710  0.50178690  0.59732682
   0.25126960  0.75003057  0.59773596
Direct configuration=     7
   0.74952909  0.75121920  0.60161785
   0.50201510  0.25080247  0.60147760
   0.41899494  0.91314983  0.49924441
   0.50017940 -0.00025928  0.60261659
   0.41916648  0.16607946  0.49933716
   0.83130640  0.08397448  0.39855723
   0.33370612  0.83404888  0.39836476
   0.25120369  0.50063363  0.60302052
   0.16912606  0.66749139  0.50053907
   0.83483594  0.33269539  0.39717472
   0.66456268  0.41545370  0.50038930
   0.16755077  0.41580867  0.49991531
   0.58327557  0.58393072  0.39885191
   0.24956083 -0.00041530  0.60251331
   0.33533189  0.33235934  0.39677627
   0.91511623  0.91860678  0.50043516
   0.08275736  0.83385472  0.39730401
   0.00083971  0.49885106  0.60430405
   0.91465414  0.66832191  0.49940157
   0.08176569  0.58342614  0.39584711
  -0.00076286  0.00020315  0.60170427
   0.16594713  0.16517631  0.49960332
   0.91549189  0.41648489  0.49924762
   0.74804152  0.49941588  0.60236914
   0.75038836  0.24950377  0.59695680
   0.83156168  0.83388371  0.40160935
   0.49864436  0.74913033  0.59707549
   0.66616096  0.16677014  0.50000095
   0.74990224  0.00083049  0.59752292
   0.83204224  0.58541340  0.40160166
   0.66556829  0.66683726  0.49983150
   0.58517200  0.83525104  0.40212445
   0.08371115  0.08405452  0.40246263
   0.41774469  0.66628315  0.49990571
   0.41735144  0.41644270  0.50003481
   0.58286284  0.33279811  0.40299532
   0.58357849  0.08247170  0.40215542
   0.66619694  0.91680148  0.49979838
   0.16650271  0.91601540  0.50022099
   0.33371077  0.58281822  0.40268610
   0.24990202  0.24957208  0.59839969
   0.33399361  0.08326555  0.40132167
   0.00098206  0.75010126  0.59823841
  -0.00054720  0.25023354  0.59781535
   0.08446898  0.33253576  0.40103753
   0.91580602  0.16590768  0.50034858
   0.49899713  0.50171841  0.59741750
   0.25110244  0.75004690  0.59782653
Direct configuration=     8
   0.74951903  0.75131061  0.60189594
   0.50216485  0.25065000  0.60174179
   0.41889042  0.91308482  0.49926229
   0.50042285 -0.00036427  0.60291009
   0.41951645  0.16601033  0.49932295
   0.83113176  0.08408956  0.39826788
   0.33346821  0.83431045  0.39814925
   0.25107535  0.50083665  0.60331329
   0.16996862  0.66688514  0.50050143
   0.83515493  0.33279729  0.39689280
   0.66428628  0.41576044  0.50035463
   0.16752769  0.41624949  0.49984802
   0.58330095  0.58402857  0.39857140
   0.24934748 -0.00023762  0.60279558
   0.33548476  0.33241154  0.39649736
   0.91442453  0.91920109  0.50032603
   0.08305584  0.83389523  0.39693376
   0.00100040  0.49869157  0.60472554
   0.91413222  0.66848555  0.49940358
   0.08180774  0.58326598  0.39544787
  -0.00101021  0.00041718  0.60187466
   0.16567452  0.16479705  0.49961920
   0.91543564  0.41623228  0.49927915
   0.74792631  0.49944954  0.60262027
   0.75038361  0.24959982  0.59697538
   0.83139527  0.83373810  0.40169675
   0.49855857  0.74909153  0.59709346
   0.66616538  0.16623965  0.49997350
   0.75013740  0.00070746  0.59750904
   0.83225719  0.58548471  0.40165277
   0.66586506  0.66688345  0.49989520
   0.58534311  0.83519464  0.40215897
   0.08392571  0.08409026  0.40252225
   0.41713574  0.66609201  0.49966035
   0.41723016  0.41669377  0.50021735
   0.58254446  0.33292045  0.40296864
   0.58350607  0.08256526  0.40219477
   0.66669896  0.91629972  0.49997353
   0.16679590  0.91609717  0.50022472
   0.33359594  0.58275069  0.40269873
   0.24973384  0.24991531  0.59839959
   0.33385763  0.08324144  0.40132175
   0.00092815  0.75007827  0.59821505
  -0.00045645  0.25016009  0.59778347
   0.08427636  0.33253741  0.40103849
   0.91609613  0.16577696  0.50021640
   0.49902576  0.50192712  0.59733728
   0.25129343  0.74965623  0.59771779
Direct configuration=     9
   0.74951218  0.75137287  0.60208533
   0.50226683  0.25054617  0.60192171
   0.41881923  0.91304054  0.49927447
   0.50058863 -0.00043577  0.60310997
   0.41975479  0.16596325  0.49931328
   0.83101283  0.08416793  0.39807083
   0.33330618  0.83448858  0.39800248
   0.25098794  0.50097492  0.60351268
   0.17054242  0.66647227  0.50047579
   0.83537217  0.33286669  0.39670081
   0.66409804  0.41596935  0.50033101
   0.16751197  0.41654970  0.49980219
   0.58331823  0.58409520  0.39838036
   0.24920219 -0.00011661  0.60298781
   0.33558887  0.33244708  0.39630741
   0.91395347  0.91960582  0.50025171
   0.08325911  0.83392282  0.39668161
   0.00110984  0.49858295  0.60501258
   0.91377679  0.66859700  0.49940495
   0.08183637  0.58315691  0.39517598
  -0.00117866  0.00056294  0.60199069
   0.16548887  0.16453876  0.49963002
   0.91539734  0.41606025  0.49930062
   0.74784785  0.49947247  0.60279129
   0.75038037  0.24966523  0.59698804
   0.83128194  0.83363895  0.40175628
   0.49850015  0.74906511  0.59710571
   0.66616839  0.16587837  0.49995481
   0.75029754  0.00062367  0.59749958
   0.83240358  0.58553327  0.40168758
   0.66606716  0.66691491  0.49993858
   0.58545964  0.83515623  0.40218249
   0.08407183  0.08411459  0.40256285
   0.41672104  0.66596183  0.49949325
   0.41714757  0.41686474  0.50034166
   0.58232763  0.33300377  0.40295047
   0.58345676  0.08262898  0.40222158
   0.66704084  0.91595801  0.50009282
   0.16699556  0.91615285  0.50022727
   0.33351773  0.58270470  0.40270734
   0.24961931  0.25014906  0.59839952
   0.33376503  0.08322501  0.40132180
   0.00089143  0.75006261  0.59819914
  -0.00039465  0.25011007  0.59776176
   0.08414519  0.33253854  0.40103915
   0.91629371  0.16568795  0.50012639
   0.49904527  0.50206925  0.59728265
   0.25142349  0.74939019  0.59764373
Direct configuration=    10
   0.74964743  0.75123636  0.60246277
   0.50247515  0.25050373  0.60219041
   0.41899897  0.91282476  0.49929770
   0.50054844 -0.00037063  0.60340425
   0.41993561  0.16569693  0.49928088
   0.83083587  0.08436076  0.39775763
   0.33337125  0.83462554  0.39777464
   0.25109339  0.50101397  0.60385012
   0.17010078  0.66678983  0.50044880
   0.83541844  0.33301780  0.39640653
   0.66413162  0.41606191  0.50026321
   0.16765291  0.41661152  0.49968498
   0.58337908  0.58427365  0.39812293
   0.24917618 -0.00012267  0.60330784
   0.33566033  0.33236344  0.39603527
   0.91422737  0.91966731  0.50011029
   0.08326253  0.83403148  0.39628232
   0.00104280  0.49857422  0.60556482
   0.91401757  0.66844630  0.49945768
   0.08183867  0.58312320  0.39471914
  -0.00136548  0.00063647  0.60205406
   0.16592147  0.16417394  0.49965826
   0.91486879  0.41617285  0.49936054
   0.74779727  0.49952978  0.60302603
   0.75035246  0.24976633  0.59684895
   0.83118202  0.83364887  0.40188870
   0.49822347  0.74908761  0.59699510
   0.66619600  0.16578992  0.49992972
   0.75056097  0.00064236  0.59747937
   0.83250287  0.58554206  0.40180496
   0.66582638  0.66670490  0.50001287
   0.58550959  0.83516947  0.40235205
   0.08417486  0.08414289  0.40262640
   0.41678499  0.66610364  0.49920216
   0.41737823  0.41648805  0.50058785
   0.58217396  0.33313498  0.40300776
   0.58344241  0.08251575  0.40238677
   0.66666427  0.91603608  0.50027623
   0.16694906  0.91604759  0.50026845
   0.33350685  0.58255932  0.40265603
   0.24965371  0.25028270  0.59833224
   0.33369019  0.08329009  0.40144052
   0.00085031  0.75012122  0.59802803
  -0.00049583  0.25012863  0.59772679
   0.08424992  0.33252373  0.40109268
   0.91598418  0.16557629  0.49998567
   0.49907589  0.50214689  0.59712224
   0.25152679  0.74930820  0.59742736
Direct configuration=    11
   0.74981000  0.75107227  0.60291648
   0.50272556  0.25045271  0.60251340
   0.41921502  0.91256539  0.49932562
   0.50050012 -0.00029233  0.60375800
   0.42015297  0.16537680  0.49924194
   0.83062316  0.08459256  0.39738114
   0.33344947  0.83479018  0.39750076
   0.25122015  0.50106092  0.60425574
   0.16956991  0.66717156  0.50041636
   0.83547406  0.33319944  0.39605280
   0.66417198  0.41617318  0.50018170
   0.16782232  0.41668584  0.49954409
   0.58345223  0.58448815  0.39781348
   0.24914491 -0.00012997  0.60369254
   0.33574623  0.33226289  0.39570815
   0.91455662  0.91974123  0.49994029
   0.08326664  0.83416209  0.39580235
   0.00096223  0.49856373  0.60622864
   0.91430701  0.66826514  0.49952106
   0.08184143  0.58308268  0.39416999
  -0.00159006  0.00072486  0.60213024
   0.16644150  0.16373540  0.49969220
   0.91423343  0.41630819  0.49943256
   0.74773646  0.49959867  0.60330819
   0.75031892  0.24988786  0.59668177
   0.83106191  0.83366080  0.40204788
   0.49789088  0.74911465  0.59686214
   0.66622920  0.16568359  0.49989956
   0.75087763  0.00066482  0.59745508
   0.83262222  0.58555262  0.40194607
   0.66553695  0.66645246  0.50010217
   0.58556964  0.83518538  0.40255588
   0.08429870  0.08417691  0.40270281
   0.41686185  0.66627410  0.49885225
   0.41765550  0.41603525  0.50088378
   0.58198925  0.33329270  0.40307663
   0.58342517  0.08237962  0.40258534
   0.66621161  0.91612992  0.50049671
   0.16689316  0.91592106  0.50031795
   0.33349376  0.58238457  0.40259436
   0.24969506  0.25044333  0.59825135
   0.33360023  0.08336832  0.40158323
   0.00080087  0.75019168  0.59782235
  -0.00061745  0.25015094  0.59768475
   0.08437582  0.33250593  0.40115702
   0.91561210  0.16544208  0.49981653
   0.49911270  0.50224021  0.59692941
   0.25165097  0.74920964  0.59716727
Direct configuration=    12
   0.74971241  0.75110858  0.60323078
   0.50281427  0.25046661  0.60270845
   0.41906724  0.91249353  0.49942358
   0.50049639 -0.00029985  0.60401345
   0.41977428  0.16555073  0.49936845
   0.83061524  0.08470968  0.39713706
   0.33359180  0.83467442  0.39733949
   0.25120797  0.50096295  0.60445498
   0.16941534  0.66709553  0.50023413
   0.83529325  0.33322672  0.39581097
   0.66408942  0.41592555  0.50001032
   0.16770155  0.41627218  0.49947317
   0.58349269  0.58449054  0.39762006
   0.24910232 -0.00008868  0.60390494
   0.33573296  0.33213538  0.39550665
   0.91466476  0.91932581  0.49971712
   0.08304407  0.83420018  0.39549943
   0.00095337  0.49867247  0.60666959
   0.91430382  0.66809143  0.49966964
   0.08177334  0.58330150  0.39380566
  -0.00124963  0.00063028  0.60204422
   0.16622610  0.16426839  0.49985291
   0.91484127  0.41604732  0.49954105
   0.74783301  0.49966475  0.60348081
   0.75031743  0.25001783  0.59644511
   0.83129120  0.83385550  0.40220051
   0.49791023  0.74924109  0.59674400
   0.66632778  0.16589303  0.49989316
   0.75071070  0.00061267  0.59740569
   0.83264059  0.58547644  0.40211778
   0.66561412  0.66630005  0.50023306
   0.58551162  0.83521739  0.40276516
   0.08399389  0.08420382  0.40273548
   0.41699912  0.66618483  0.49853613
   0.41748212  0.41597596  0.50103120
   0.58212634  0.33339968  0.40321332
   0.58350900  0.08227423  0.40275830
   0.66641229  0.91591484  0.50078946
   0.16684939  0.91593848  0.50031460
   0.33343700  0.58245355  0.40257863
   0.24982093  0.25040206  0.59812372
   0.33371788  0.08342703  0.40169086
   0.00093028  0.75001563  0.59765039
  -0.00066162  0.25024694  0.59758449
   0.08455408  0.33259901  0.40130647
   0.91548907  0.16563178  0.49967164
   0.49910673  0.50221419  0.59677469
   0.25141258  0.74957796  0.59691926
Direct configuration=    13
   0.74967735  0.75112163  0.60334372
   0.50284614  0.25047160  0.60277854
   0.41901413  0.91246771  0.49945878
   0.50049506 -0.00030256  0.60410525
   0.41963820  0.16561323  0.49941391
   0.83061239  0.08475176  0.39704935
   0.33364294  0.83463283  0.39728154
   0.25120360  0.50092774  0.60452658
   0.16935980  0.66706821  0.50016865
   0.83522828  0.33323652  0.39572407
   0.66405975  0.41583656  0.49994874
   0.16765815  0.41612353  0.49944768
   0.58350723  0.58449140  0.39755056
   0.24908701 -0.00007384  0.60398126
   0.33572819  0.33208956  0.39543424
   0.91470362  0.91917653  0.49963692
   0.08296409  0.83421386  0.39539058
   0.00095019  0.49871155  0.60682804
   0.91430268  0.66802901  0.49972304
   0.08174887  0.58338013  0.39367473
  -0.00112730  0.00059629  0.60201330
   0.16614870  0.16445992  0.49991066
   0.91505970  0.41595358  0.49958003
   0.74786771  0.49968850  0.60354284
   0.75031690  0.25006454  0.59636007
   0.83137359  0.83392547  0.40225535
   0.49791718  0.74928653  0.59670154
   0.66636320  0.16596830  0.49989086
   0.75065071  0.00059393  0.59738794
   0.83264720  0.58544907  0.40217948
   0.66564186  0.66624528  0.50028009
   0.58549077  0.83522889  0.40284037
   0.08388435  0.08421349  0.40274722
   0.41704845  0.66615276  0.49842253
   0.41741982  0.41595465  0.50108418
   0.58217560  0.33343813  0.40326244
   0.58353913  0.08223635  0.40282046
   0.66648440  0.91583756  0.50089466
   0.16683367  0.91594473  0.50031339
   0.33341661  0.58247834  0.40257298
   0.24986615  0.25038723  0.59807785
   0.33376016  0.08344813  0.40172954
   0.00097679  0.74995237  0.59758860
  -0.00067749  0.25028143  0.59754847
   0.08461814  0.33263246  0.40136017
   0.91544486  0.16569995  0.49961957
   0.49910458  0.50220484  0.59671908
   0.25132692  0.74971031  0.59683014
Direct configuration=    14
   0.74957897  0.75119756  0.60362026
   0.50282651  0.25046476  0.60288734
   0.41861244  0.91278800  0.49957497
   0.50043433 -0.00028170  0.60433964
   0.41980970  0.16551315  0.49960924
   0.83062352  0.08480057  0.39686872
   0.33347632  0.83469475  0.39721838
   0.25111989  0.50094509  0.60455471
   0.16970955  0.66642895  0.49989439
   0.83524930  0.33329116  0.39555363
   0.66422502  0.41591751  0.49976831
   0.16754854  0.41638072  0.49944044
   0.58361449  0.58440098  0.39740385
   0.24918076  0.00009306  0.60407114
   0.33580742  0.33214220  0.39532272
   0.91455141  0.91917650  0.49947184
   0.08297621  0.83421051  0.39518553
   0.00105362  0.49877920  0.60714612
   0.91423534  0.66768335  0.49990529
   0.08166657  0.58354477  0.39343471
  -0.00109693  0.00057749  0.60178943
   0.16590336  0.16422401  0.50003887
   0.91512567  0.41599324  0.49970356
   0.74788931  0.49971128  0.60359267
   0.75046558  0.25002952  0.59612861
   0.83150409  0.83400329  0.40238103
   0.49805178  0.74930076  0.59661837
   0.66631652  0.16571349  0.49988795
   0.75059087  0.00059660  0.59731027
   0.83269116  0.58543412  0.40237980
   0.66605506  0.66587158  0.50044226
   0.58555138  0.83520710  0.40308884
   0.08376051  0.08420458  0.40279599
   0.41706629  0.66589324  0.49819658
   0.41679389  0.41622636  0.50112552
   0.58212544  0.33346297  0.40336468
   0.58367087  0.08227400  0.40303972
   0.66654022  0.91581416  0.50119954
   0.16673017  0.91622257  0.50019194
   0.33333369  0.58252222  0.40254249
   0.24994900  0.25033425  0.59805301
   0.33382521  0.08333774  0.40185088
   0.00109740  0.74978673  0.59745413
  -0.00069332  0.25043307  0.59750298
   0.08455735  0.33274502  0.40146342
   0.91563565  0.16568585  0.49947045
   0.49900419  0.50238316  0.59655476
   0.25125569  0.74984051  0.59656107
Direct configuration=    15
   0.74957004  0.75120446  0.60364536
   0.50282473  0.25046414  0.60289721
   0.41857598  0.91281707  0.49958552
   0.50042882 -0.00027980  0.60436091
   0.41982527  0.16550406  0.49962696
   0.83062453  0.08480500  0.39685232
   0.33346120  0.83470037  0.39721265
   0.25111229  0.50094666  0.60455726
   0.16974129  0.66637093  0.49986950
   0.83525121  0.33329612  0.39553816
   0.66424002  0.41592485  0.49975193
   0.16753859  0.41640406  0.49943978
   0.58362422  0.58439277  0.39739053
   0.24918927  0.00010820  0.60407930
   0.33581461  0.33214697  0.39531259
   0.91453760  0.91917649  0.49945686
   0.08297731  0.83421021  0.39516692
   0.00106300  0.49878534  0.60717499
   0.91422923  0.66765198  0.49992183
   0.08165909  0.58355971  0.39341292
  -0.00109417  0.00057578  0.60176911
   0.16588109  0.16420260  0.50005050
   0.91513165  0.41599683  0.49971477
   0.74789127  0.49971334  0.60359719
   0.75047907  0.25002634  0.59610760
   0.83151593  0.83401036  0.40239243
   0.49806400  0.74930205  0.59661082
   0.66631229  0.16569036  0.49988769
   0.75058543  0.00059685  0.59730322
   0.83269515  0.58543277  0.40239798
   0.66609256  0.66583766  0.50045698
   0.58555688  0.83520512  0.40311139
   0.08374927  0.08420377  0.40280042
   0.41706791  0.66586969  0.49817608
   0.41673709  0.41625102  0.50112928
   0.58212088  0.33346523  0.40337396
   0.58368283  0.08227742  0.40305962
   0.66654529  0.91581204  0.50122721
   0.16672078  0.91624779  0.50018092
   0.33332616  0.58252620  0.40253972
   0.24995652  0.25032944  0.59805075
   0.33383112  0.08332772  0.40186190
   0.00110835  0.74977169  0.59744193
  -0.00069476  0.25044683  0.59749885
   0.08455183  0.33275523  0.40147279
   0.91565296  0.16568457  0.49945691
   0.49899508  0.50239935  0.59653984
   0.25124923  0.74985233  0.59653665
Direct configuration=    16
   0.74960857  0.75121303  0.60386862
   0.50281993  0.25054251  0.60293697
   0.41862574  0.91278437  0.49967387
   0.50040593 -0.00025277  0.60461076
   0.41992059  0.16542137  0.49979330
   0.83064961  0.08481505  0.39674297
   0.33333620  0.83480399  0.39723560
   0.25113012  0.50103683  0.60448000
   0.16962868  0.66651828  0.49964135
   0.83537826  0.33334391  0.39542741
   0.66432333  0.41595847  0.49962113
   0.16751395  0.41640613  0.49945600
   0.58361707  0.58445009  0.39731952
   0.24924253  0.00019642  0.60410055
   0.33582883  0.33219781  0.39531139
   0.91466653  0.91912462  0.49936650
   0.08307431  0.83424824  0.39505544
   0.00112925  0.49876351  0.60733473
   0.91422295  0.66765185  0.50008507
   0.08156854  0.58356049  0.39329955
  -0.00123172  0.00061070  0.60146182
   0.16590845  0.16402470  0.50008112
   0.91500614  0.41593416  0.49982816
   0.74786477  0.49967476  0.60357389
   0.75056198  0.24998398  0.59592056
   0.83146548  0.83389823  0.40249388
   0.49810619  0.74925243  0.59655906
   0.66620741  0.16570685  0.49990390
   0.75069439  0.00061131  0.59727150
   0.83273470  0.58552102  0.40256100
   0.66601088  0.66587142  0.50060333
   0.58566730  0.83515305  0.40338507
   0.08382999  0.08426319  0.40279430
   0.41712382  0.66582279  0.49807526
   0.41680431  0.41615731  0.50108767
   0.58199578  0.33342162  0.40342881
   0.58372770  0.08234959  0.40326542
   0.66639624  0.91567519  0.50146180
   0.16659971  0.91601949  0.49999392
   0.33334537  0.58246877  0.40241410
   0.24990129  0.25043638  0.59811655
   0.33381458  0.08325118  0.40200785
   0.00113667  0.74979937  0.59732593
  -0.00067856  0.25056884  0.59754710
   0.08448195  0.33278957  0.40154057
   0.91557816  0.16562297  0.49931708
   0.49892454  0.50256308  0.59635667
   0.25133156  0.74976387  0.59626294
Direct configuration=    17
   0.74963722  0.75121940  0.60403468
   0.50281637  0.25060080  0.60296653
   0.41866276  0.91276005  0.49973959
   0.50038891 -0.00023266  0.60479660