  48  48   0   0
  0.5349325E+02  0.1100258E-08  0.1100258E-08  0.2449179E-08  0.3500000E-15
  1.000000000000000E-004
  CAR 
 unknown system                          
      6.40182246     -9.71277302  301     -1.09180309      1.00000000
     -9.713  0.0000E+00  0.0000E+00
     -9.659  0.0000E+00  0.0000E+00
     -9.605  0.0000E+00  0.0000E+00
     -9.552  0.0000E+00  0.0000E+00
     -9.498  0.0000E+00  0.0000E+00
     -9.444  0.0000E+00  0.0000E+00
     -9.390  0.0000E+00  0.0000E+00
     -9.337  0.0000E+00  0.0000E+00
     -9.283  0.1033E-16  0.5551E-18
     -9.229  0.3713E-14  0.2000E-15
     -9.176  0.8165E-12  0.4406E-13
     -9.122  0.1019E-09  0.5518E-11
     -9.068  0.7236E-08  0.3942E-09
     -9.014  0.2928E-06  0.1612E-07
     -8.961  0.6770E-05  0.3798E-06
     -8.907  0.8962E-04  0.5194E-05
     -8.853  0.6810E-03  0.4177E-04
     -8.800  0.2978E-02  0.2017E-03
     -8.746  0.7516E-02  0.6055E-03
     -8.692  0.1108E-01  0.1201E-02
     -8.638  0.1024E-01  0.1751E-02
     -8.585  0.8437E-02  0.2204E-02
     -8.531  0.9863E-02  0.2734E-02
     -8.477  0.1107E-01  0.3328E-02
     -8.424  0.8037E-02  0.3760E-02
     -8.370  0.3473E-02  0.3947E-02
     -8.316  0.1005E-02  0.4001E-02
     -8.262  0.8348E-03  0.4045E-02
     -8.209  0.2269E-02  0.4167E-02
     -8.155  0.4760E-02  0.4423E-02
     -8.101  0.7723E-02  0.4838E-02
     -8.048  0.1096E-01  0.5427E-02
     -7.994  0.1412E-01  0.6185E-02
     -7.940  0.1739E-01  0.7119E-02
     -7.886  0.2058E-01  0.8224E-02
     -7.833  0.2124E-01  0.9365E-02
     -7.779  0.1835E-01  0.1035E-01
     -7.725  0.1401E-01  0.1110E-01
     -7.672  0.1091E-01  0.1169E-01
     -7.618  0.1146E-01  0.1231E-01
     -7.564  0.1651E-01  0.1319E-01
     -7.510  0.2252E-01  0.1440E-01
     -7.457  0.2467E-01  0.1573E-01
     -7.403  0.2282E-01  0.1695E-01
     -7.349  0.2050E-01  0.1805E-01
     -7.296  0.2043E-01  0.1915E-01
     -7.242  0.2195E-01  0.2033E-01
     -7.188  0.2379E-01  0.2161E-01
     -7.134  0.2751E-01  0.2309E-01
     -7.081  0.3283E-01  0.2485E-01
     -7.027  0.3585E-01  0.2678E-01
     -6.973  0.3941E-01  0.2889E-01
     -6.920  0.5073E-01  0.3162E-01
     -6.866  0.6651E-01  0.3519E-01
     -6.812  0.7849E-01  0.3941E-01
     -6.758  0.8543E-01  0.4399E-01
     -6.705  0.8895E-01  0.4877E-01
     -6.651  0.8980E-01  0.5360E-01
     -6.597  0.9059E-01  0.5846E-01
     -6.544  0.9518E-01  0.6357E-01
     -6.490  0.1037E+00  0.6915E-01
     -6.436  0.1122E+00  0.7517E-01
     -6.382  0.1184E+00  0.8153E-01
     -6.329  0.1257E+00  0.8828E-01
     -6.275  0.1369E+00  0.9564E-01
     -6.221  0.1481E+00  0.1036E+00
     -6.168  0.1537E+00  0.1118E+00
     -6.114  0.1560E+00  0.1202E+00
     -6.060  0.1594E+00  0.1288E+00
     -6.006  0.1632E+00  0.1376E+00
     -5.953  0.1652E+00  0.1464E+00
     -5.899  0.1639E+00  0.1552E+00
     -5.845  0.1587E+00  0.1638E+00
     -5.792  0.1523E+00  0.1719E+00
     -5.738  0.1491E+00  0.1799E+00
     -5.684  0.1494E+00  0.1880E+00
     -5.630  0.1462E+00  0.1958E+00
     -5.577  0.1370E+00  0.2032E+00
     -5.523  0.1287E+00  0.2101E+00
     -5.469  0.1283E+00  0.2170E+00
     -5.416  0.1351E+00  0.2242E+00
     -5.362  0.1444E+00  0.2320E+00
     -5.308  0.1542E+00  0.2403E+00
     -5.254  0.1649E+00  0.2491E+00
     -5.201  0.1724E+00  0.2584E+00
     -5.147  0.1726E+00  0.2677E+00
     -5.093  0.1696E+00  0.2768E+00
     -5.040  0.1688E+00  0.2859E+00
     -4.986  0.1701E+00  0.2950E+00
     -4.932  0.1717E+00  0.3042E+00
     -4.878  0.1737E+00  0.3135E+00
     -4.825  0.1764E+00  0.3230E+00
     -4.771  0.1783E+00  0.3326E+00
     -4.717  0.1772E+00  0.3421E+00
     -4.664  0.1724E+00  0.3514E+00
     -4.610  0.1681E+00  0.3604E+00
     -4.556  0.1696E+00  0.3695E+00
     -4.502  0.1742E+00  0.3789E+00
     -4.449  0.1764E+00  0.3883E+00
     -4.395  0.1757E+00  0.3978E+00
     -4.341  0.1744E+00  0.4071E+00
     -4.288  0.1755E+00  0.4166E+00
     -4.234  0.1790E+00  0.4262E+00
     -4.180  0.1801E+00  0.4359E+00
     -4.126  0.1757E+00  0.4453E+00
     -4.073  0.1684E+00  0.4543E+00
     -4.019  0.1636E+00  0.4631E+00
     -3.965  0.1645E+00  0.4720E+00
     -3.912  0.1698E+00  0.4811E+00
     -3.858  0.1764E+00  0.4906E+00
     -3.804  0.1841E+00  0.5005E+00
     -3.750  0.1930E+00  0.5108E+00
     -3.697  0.1988E+00  0.5215E+00
     -3.643  0.1991E+00  0.5322E+00
     -3.589  0.1982E+00  0.5428E+00
     -3.536  0.1981E+00  0.5535E+00
     -3.482  0.1956E+00  0.5640E+00
     -3.428  0.1911E+00  0.5742E+00
     -3.374  0.1886E+00  0.5844E+00
     -3.321  0.1878E+00  0.5945E+00
     -3.267  0.1851E+00  0.6044E+00
     -3.213  0.1808E+00  0.6141E+00
     -3.160  0.1793E+00  0.6238E+00
     -3.106  0.1811E+00  0.6335E+00
     -3.052  0.1833E+00  0.6433E+00
     -2.998  0.1841E+00  0.6532E+00
     -2.945  0.1829E+00  0.6630E+00
     -2.891  0.1810E+00  0.6728E+00
     -2.837  0.1815E+00  0.6825E+00
     -2.783  0.1841E+00  0.6924E+00
     -2.730  0.1860E+00  0.7024E+00
     -2.676  0.1860E+00  0.7124E+00
     -2.622  0.1838E+00  0.7223E+00
     -2.569  0.1795E+00  0.7319E+00
     -2.515  0.1770E+00  0.7414E+00
     -2.461  0.1771E+00  0.7509E+00
     -2.407  0.1782E+00  0.7605E+00
     -2.354  0.1820E+00  0.7703E+00
     -2.300  0.1895E+00  0.7804E+00
     -2.246  0.1980E+00  0.7911E+00
     -2.193  0.2025E+00  0.8020E+00
     -2.139  0.1996E+00  0.8127E+00
     -2.085  0.1928E+00  0.8230E+00
     -2.031  0.1889E+00  0.8332E+00
     -1.978  0.1917E+00  0.8435E+00
     -1.924  0.2008E+00  0.8543E+00
     -1.870  0.2091E+00  0.8655E+00
     -1.817  0.2095E+00  0.8767E+00
     -1.763  0.2051E+00  0.8878E+00
     -1.709  0.2027E+00  0.8987E+00
     -1.655  0.2018E+00  0.9095E+00
     -1.602  0.1988E+00  0.9202E+00
     -1.548  0.1940E+00  0.9306E+00
     -1.494  0.1906E+00  0.9408E+00
     -1.441  0.1913E+00  0.9511E+00
     -1.387  0.1952E+00  0.9616E+00
     -1.333  0.1954E+00  0.9721E+00
     -1.279  0.1865E+00  0.9821E+00
     -1.226  0.1693E+00  0.9912E+00
     -1.172  0.1455E+00  0.9990E+00
     -1.118  0.1183E+00  0.1005E+01
     -1.065  0.9343E-01  0.1010E+01
     -1.011  0.7055E-01  0.1014E+01
     -0.957  0.4881E-01  0.1017E+01
     -0.903  0.3423E-01  0.1019E+01
     -0.850  0.2794E-01  0.1020E+01
     -0.796  0.2380E-01  0.1021E+01
     -0.742  0.1934E-01  0.1022E+01
     -0.689  0.1525E-01  0.1023E+01
     -0.635  0.1243E-01  0.1024E+01
     -0.581  0.1442E-01  0.1025E+01
     -0.527  0.2313E-01  0.1026E+01
     -0.474  0.3510E-01  0.1028E+01
     -0.420  0.4520E-01  0.1030E+01
     -0.366  0.4842E-01  0.1033E+01
     -0.313  0.4488E-01  0.1035E+01
     -0.259  0.4191E-01  0.1038E+01
     -0.205  0.4253E-01  0.1040E+01
     -0.151  0.4056E-01  0.1042E+01
     -0.098  0.3294E-01  0.1044E+01
     -0.044  0.2585E-01  0.1045E+01
      0.010  0.2359E-01  0.1046E+01
      0.063  0.2460E-01  0.1048E+01
      0.117  0.2756E-01  0.1049E+01
      0.171  0.3246E-01  0.1051E+01
      0.225  0.3831E-01  0.1053E+01
      0.278  0.4266E-01  0.1055E+01
      0.332  0.4336E-01  0.1058E+01
      0.386  0.4056E-01  0.1060E+01
      0.439  0.3646E-01  0.1062E+01
      0.493  0.3380E-01  0.1064E+01
      0.547  0.3374E-01  0.1065E+01
      0.601  0.3516E-01  0.1067E+01
      0.654  0.3775E-01  0.1069E+01
      0.708  0.4150E-01  0.1072E+01
      0.762  0.4429E-01  0.1074E+01
      0.815  0.4260E-01  0.1076E+01
      0.869  0.3507E-01  0.1078E+01
      0.923  0.2537E-01  0.1079E+01
      0.977  0.1901E-01  0.1080E+01
      1.030  0.1705E-01  0.1081E+01
      1.084  0.1672E-01  0.1082E+01
      1.138  0.1625E-01  0.1083E+01
      1.191  0.1579E-01  0.1084E+01
      1.245  0.1554E-01  0.1085E+01
      1.299  0.1528E-01  0.1086E+01
      1.353  0.1575E-01  0.1087E+01
      1.406  0.1803E-01  0.1087E+01
      1.460  0.2216E-01  0.1089E+01
      1.514  0.2752E-01  0.1090E+01
      1.567  0.3113E-01  0.1092E+01
      1.621  0.3118E-01  0.1094E+01
      1.675  0.3182E-01  0.1095E+01
      1.729  0.3553E-01  0.1097E+01
      1.782  0.3838E-01  0.1099E+01
      1.836  0.3675E-01  0.1101E+01
      1.890  0.2908E-01  0.1103E+01
      1.943  0.1797E-01  0.1104E+01
      1.997  0.1162E-01  0.1104E+01
      2.051  0.1363E-01  0.1105E+01
      2.105  0.2009E-01  0.1106E+01
      2.158  0.2725E-01  0.1108E+01
      2.212  0.3192E-01  0.1109E+01
      2.266  0.3392E-01  0.1111E+01
      2.319  0.3908E-01  0.1113E+01
      2.373  0.4756E-01  0.1116E+01
      2.427  0.5266E-01  0.1119E+01
      2.481  0.5237E-01  0.1121E+01
      2.534  0.4947E-01  0.1124E+01
      2.588  0.4616E-01  0.1127E+01
      2.642  0.4520E-01  0.1129E+01
      2.695  0.4769E-01  0.1132E+01
      2.749  0.4746E-01  0.1134E+01
      2.803  0.3810E-01  0.1136E+01
      2.857  0.2389E-01  0.1137E+01
      2.910  0.1457E-01  0.1138E+01
      2.964  0.1257E-01  0.1139E+01
      3.018  0.1207E-01  0.1140E+01
      3.071  0.1114E-01  0.1140E+01
      3.125  0.1479E-01  0.1141E+01
      3.179  0.2267E-01  0.1142E+01
      3.233  0.2689E-01  0.1144E+01
      3.286  0.2370E-01  0.1145E+01
      3.340  0.1753E-01  0.1146E+01
      3.394  0.1410E-01  0.1147E+01
      3.447  0.1513E-01  0.1147E+01
      3.501  0.1815E-01  0.1148E+01
      3.555  0.2061E-01  0.1149E+01
      3.609  0.2450E-01  0.1151E+01
      3.662  0.3184E-01  0.1152E+01
      3.716  0.3824E-01  0.1155E+01
      3.770  0.3936E-01  0.1157E+01
      3.823  0.3689E-01  0.1159E+01
      3.877  0.3190E-01  0.1160E+01
      3.931  0.2582E-01  0.1162E+01
      3.985  0.2456E-01  0.1163E+01
      4.038  0.2833E-01  0.1165E+01
      4.092  0.2927E-01  0.1166E+01
      4.146  0.2612E-01  0.1168E+01
      4.199  0.2450E-01  0.1169E+01
      4.253  0.2431E-01  0.1170E+01
      4.307  0.2160E-01  0.1171E+01
      4.361  0.1826E-01  0.1172E+01
      4.414  0.1890E-01  0.1173E+01
      4.468  0.2388E-01  0.1175E+01
      4.522  0.3297E-01  0.1176E+01
      4.576  0.4516E-01  0.1179E+01
      4.629  0.5426E-01  0.1182E+01
      4.683  0.5398E-01  0.1185E+01
      4.737  0.4677E-01  0.1187E+01
      4.790  0.4136E-01  0.1189E+01
      4.844  0.4402E-01  0.1192E+01
      4.898  0.5275E-01  0.1195E+01
      4.952  0.5947E-01  0.1198E+01
      5.005  0.6376E-01  0.1201E+01
      5.059  0.6958E-01  0.1205E+01
      5.113  0.7224E-01  0.1209E+01
      5.166  0.6834E-01  0.1212E+01
      5.220  0.6307E-01  0.1216E+01
      5.274  0.5605E-01  0.1219E+01
      5.328  0.4288E-01  0.1221E+01
      5.381  0.2756E-01  0.1223E+01
      5.435  0.1544E-01  0.1223E+01
      5.489  0.7055E-02  0.1224E+01
      5.542  0.2269E-02  0.1224E+01
      5.596  0.4620E-03  0.1224E+01
      5.650  0.5659E-04  0.1224E+01
      5.704  0.4076E-05  0.1224E+01
      5.757  0.1707E-06  0.1224E+01
      5.811  0.4128E-08  0.1224E+01
      5.865  0.5733E-10  0.1224E+01
      5.918  0.4556E-12  0.1224E+01
      5.972  0.2067E-14  0.1224E+01
      6.026  0.5512E-17  0.1224E+01
      6.080  0.0000E+00  0.1224E+01
      6.133  0.0000E+00  0.1224E+01
      6.187  0.0000E+00  0.1224E+01
      6.241  0.0000E+00  0.1224E+01
      6.294  0.0000E+00  0.1224E+01
      6.348  0.0000E+00  0.1224E+01
      6.402  0.0000E+00  0.1224E+01
