 vasp.5.4.1 24Jun15 (build Mar 14 2019 10:18:33) complex                        
  
 executed on INTEL-19.0.2+OPENMPI date 2023.01.30  23:56:08
 running on   36 total cores
 distrk:  each k-point on   36 cores,    1 groups
 distr:  one band on NCORES_PER_BAND=   6 cores,    6 groups


--------------------------------------------------------------------------------------------------------


 INCAR:
 POTCAR:    PAW_PBE Au 04Oct2007                  
 POTCAR:    PAW_PBE Pd 04Jan2005                  
 POTCAR:    PAW_PBE Au 04Oct2007                  
  local pseudopotential read in
  partial core-charges read in
  partial kinetic energy density read in
  atomic valenz-charges read in
  non local Contribution for L=           2  read in
    real space projection operators read in
  non local Contribution for L=           2  read in
    real space projection operators read in
  non local Contribution for L=           0  read in
    real space projection operators read in
  non local Contribution for L=           0  read in
    real space projection operators read in
  non local Contribution for L=           1  read in
    real space projection operators read in
  non local Contribution for L=           1  read in
    real space projection operators read in
    PAW grid and wavefunctions read in
 
   number of l-projection  operators is LMAX  =           6
   number of lm-projection operators is LMMAX =          18
 
 POTCAR:    PAW_PBE Pd 04Jan2005                  
  local pseudopotential read in
  partial core-charges read in
  partial kinetic energy density read in
  atomic valenz-charges read in
  non local Contribution for L=           2  read in
    real space projection operators read in
  non local Contribution for L=           2  read in
    real space projection operators read in
  non local Contribution for L=           0  read in
    real space projection operators read in
  non local Contribution for L=           0  read in
    real space projection operators read in
  non local Contribution for L=           1  read in
    real space projection operators read in
  non local Contribution for L=           1  read in
    real space projection operators read in
    PAW grid and wavefunctions read in
 
   number of l-projection  operators is LMAX  =           6
   number of lm-projection operators is LMMAX =          18
 
 Optimization of the real space projectors (new method)

 maximal supplied QI-value         = 15.12
 optimisation between [QCUT,QGAM] = [ 10.13, 20.41] = [ 28.73,116.64] Ry 
 Optimized for a Real-space Cutoff    1.51 Angstroem

   l    n(q)    QCUT    max X(q) W(low)/X(q) W(high)/X(q)  e(spline) 
   2      8    10.129    60.898    0.46E-03    0.46E-03    0.14E-06
   2      8    10.129    58.894    0.47E-03    0.47E-03    0.14E-06
   0      9    10.129   109.617    0.16E-03    0.11E-03    0.54E-07
   0      9    10.129    75.026    0.15E-03    0.11E-03    0.52E-07
   1      9    10.129    16.344    0.96E-04    0.15E-03    0.14E-06
   1      9    10.129    10.160    0.81E-04    0.12E-03    0.11E-06
 Optimization of the real space projectors (new method)

 maximal supplied QI-value         = 14.36
 optimisation between [QCUT,QGAM] = [ 10.20, 20.39] = [ 29.12,116.47] Ry 
 Optimized for a Real-space Cutoff    1.51 Angstroem

   l    n(q)    QCUT    max X(q) W(low)/X(q) W(high)/X(q)  e(spline) 
   2      8    10.197    59.108    0.26E-03    0.14E-03    0.96E-07
   2      8    10.197    58.101    0.27E-03    0.14E-03    0.98E-07
   0      9    10.197   102.235    0.54E-04    0.60E-05    0.72E-07
   0      9    10.197    58.388    0.52E-04    0.60E-05    0.68E-07
   1      9    10.197    22.191    0.18E-03    0.25E-03    0.79E-07
   1      9    10.197    15.590    0.15E-03    0.21E-03    0.69E-07
  PAW_PBE Au 04Oct2007                  :
 energy of atom  1       EATOM= -926.0867
 kinetic energy error for atom=    0.0062 (will be added to EATOM!!)
  PAW_PBE Pd 04Jan2005                  :
 energy of atom  2       EATOM= -809.7530
 kinetic energy error for atom=    0.0091 (will be added to EATOM!!)
 
 
 POSCAR: Au Pd                                   
  positions in cartesian coordinates
  No initial velocities read in
 exchange correlation table for  LEXCH =        8
   RHO(1)=    0.500       N(1)  =     2000
   RHO(2)=  100.500       N(2)  =     4000

 VTST: version 3.2, (02/03/18)

 CHAIN: initializing optimizer
 
 OPT: Using VASP Conjugate-Gradient optimizer
 CHAIN: Read ICHAIN            0
 
 POSCAR: Au Pd                                   
  positions in cartesian coordinates
  No initial velocities read in
 


--------------------------------------------------------------------------------------------------------


 ion  position               nearest neighbor table
   1  0.083  0.083  0.408-  32 2.75  21 2.75  31 2.75  13 2.75  42 2.75   4 2.75  19 2.75  24 2.75
                            39 2.75
   2  0.333  0.333  0.408-  25 2.75   4 2.75  28 2.75  29 2.75  47 2.75  42 2.75  26 2.75  14 2.75
                             9 2.75
   3  0.000  0.000  0.592-  39 2.75  24 2.75  38 2.75  30 2.75  45 2.75  48 2.75   7 2.75  20 2.75
                            27 2.75
   4  0.333  0.083  0.408-  14 2.75   2 2.75  31 2.75  35 2.75  42 2.75  28 2.75   1 2.75  46 2.75
                            32 2.75
   5  0.000  0.500  0.592-   6 2.75   9 2.75   8 2.75  10 2.75  30 2.75  45 2.75  36 2.75  12 2.75
                            43 2.75
   6  0.917  0.667  0.500-  41 2.75   5 2.75   8 2.75  27 2.75  34 2.75   9 2.75  43 2.75  11 2.75
                            40 2.75  23 2.75  30 2.75  47 2.75
   7  0.250  0.000  0.592-  32 2.75  46 2.75  37 2.75  45 2.75  10 2.75  48 2.75  15 2.75   3 2.75
                            24 2.75
   8  0.750  0.750  0.592-  34 2.75   6 2.75  15 2.75  20 2.75   5 2.75  36 2.75  30 2.75  37 2.75
                            40 2.75
   9  0.167  0.417  0.500-  42 2.75  10 2.75   5 2.75  11 2.75  14 2.75  32 2.75   6 2.75  25 2.75
                            43 2.75  47 2.75   2 2.75  12 2.75
  10  0.250  0.250  0.592-   9 2.75  14 2.75   5 2.75  12 2.75   7 2.75  15 2.75  33 2.75  45 2.75
                            32 2.75
  11  0.167  0.667  0.500-  47 2.75  12 2.75  30 2.75  25 2.75  27 2.75   9 2.75  24 2.75  17 2.75
                             6 2.75  13 2.75  29 2.75  48 2.75
  12  0.250  0.500  0.592-  11 2.75  25 2.75  10 2.75  30 2.75  33 2.75  48 2.75   5 2.75  18 2.75
                             9 2.75
  13  0.083  0.833  0.408-  24 2.75  19 2.75   1 2.75  29 2.75  47 2.75  31 2.75  23 2.75  11 2.75
                            27 2.75
  14  0.417  0.167  0.500-   4 2.75  15 2.75  10 2.75   9 2.75  25 2.75  34 2.75  46 2.75  44 2.75
                            32 2.75   2 2.75  33 2.75  28 2.75
  15  0.500  0.000  0.592-  14 2.75  34 2.75   8 2.75  33 2.75  10 2.75  37 2.75  20 2.75   7 2.75
                            46 2.75
  16  0.583  0.583  0.408-  40 2.75  26 2.75  31 2.75  35 2.75  21 2.75  29 2.75  41 2.75  22 2.75
                            17 2.75
  17  0.417  0.667  0.500-  29 2.75  18 2.75  48 2.75  25 2.75  22 2.75  46 2.75  24 2.75  11 2.75
                            40 2.75  31 2.75  37 2.75  16 2.75
  18  0.500  0.500  0.592-  17 2.75  22 2.75  33 2.75  37 2.75  38 2.75  48 2.75  36 2.75  12 2.75
                            25 2.75
  19  0.833  0.083  0.408-  39 2.75  21 2.75  23 2.75  26 2.75  13 2.75  28 2.75   1 2.75  27 2.75
                            44 2.75
  20  0.750  0.000  0.592-  44 2.75  27 2.75  30 2.75  33 2.75  38 2.75   8 2.75  15 2.75   3 2.75
                            34 2.75
  21  0.833  0.333  0.408-  43 2.75  16 2.75  19 2.75  41 2.75   1 2.75  42 2.75  26 2.75  39 2.75
                            22 2.75
  22  0.667  0.417  0.500-  26 2.75  38 2.75  18 2.75  17 2.75  39 2.75  40 2.75  44 2.75  43 2.75
                            25 2.75  16 2.75  36 2.75  21 2.75
  23  0.833  0.833  0.408-  27 2.75  19 2.75  28 2.75  41 2.75  47 2.75  13 2.75  35 2.75   6 2.75
                            34 2.75
  24  0.167  0.917  0.500-  13 2.75  48 2.75   3 2.75  17 2.75  32 2.75  39 2.75  11 2.75  46 2.75
                            27 2.75   1 2.75   7 2.75  31 2.75
  25  0.417  0.417  0.500-   2 2.75  33 2.75  12 2.75  14 2.75  17 2.75  11 2.75  44 2.75   9 2.75
                            22 2.75  29 2.75  26 2.75  18 2.75
  26  0.583  0.333  0.408-  22 2.75  19 2.75  16 2.75  28 2.75  29 2.75  21 2.75   2 2.75  44 2.75
                            25 2.75
  27  0.917  0.917  0.500-  23 2.75  30 2.75  20 2.75  11 2.75   6 2.75  39 2.75  44 2.75  24 2.75
                            34 2.75  19 2.75   3 2.75  13 2.75
  28  0.583  0.083  0.408-  44 2.75  23 2.75  26 2.75  35 2.75   2 2.75   4 2.75  19 2.75  34 2.75
                            14 2.75
  29  0.333  0.583  0.408-  17 2.75  13 2.75   2 2.75  26 2.75  31 2.75  16 2.75  47 2.75  25 2.75
                            11 2.75
  30  0.000  0.750  0.592-  27 2.75  11 2.75   3 2.75  12 2.75  20 2.75   5 2.75   8 2.75  48 2.75
                             6 2.75
  31  0.333  0.833  0.408-  46 2.75   4 2.75  16 2.75  29 2.75   1 2.75  35 2.75  13 2.75  17 2.75
                            24 2.75
  32  0.167  0.167  0.500-   1 2.75   7 2.75  45 2.75  24 2.75  43 2.75   9 2.75  46 2.75  39 2.75
                            14 2.75  42 2.75  10 2.75   4 2.75
  33  0.500  0.250  0.592-  25 2.75  44 2.75  18 2.75  20 2.75  12 2.75  15 2.75  38 2.75  10 2.75
                            14 2.75
  34  0.667  0.917  0.500-  35 2.75   8 2.75  15 2.75   6 2.75  14 2.75  40 2.75  44 2.75  27 2.75
                            46 2.75  28 2.75  20 2.75  23 2.75
  35  0.583  0.833  0.408-  34 2.75  16 2.75  28 2.75   4 2.75  41 2.75  23 2.75  31 2.75  40 2.75
                            46 2.75
  36  0.750  0.500  0.592-  40 2.75  43 2.75  38 2.75   8 2.75  37 2.75  45 2.75  18 2.75   5 2.75
                            22 2.75
  37  0.500  0.750  0.592-  46 2.75  40 2.75  18 2.75  36 2.75   7 2.75  15 2.75   8 2.75  48 2.75
                            17 2.75
  38  0.750  0.250  0.592-  22 2.75  39 2.75  20 2.75   3 2.75  36 2.75  18 2.75  33 2.75  45 2.75
                            44 2.75
  39  0.917  0.167  0.500-  19 2.75   3 2.75  38 2.75  24 2.75  27 2.75  22 2.75  43 2.75  32 2.75
                            44 2.75  21 2.75   1 2.75  45 2.75
  40  0.667  0.667  0.500-  16 2.75  36 2.75  37 2.75  22 2.75  34 2.75  43 2.75  46 2.75   6 2.75
                            17 2.75  35 2.75   8 2.75  41 2.75
  41  0.833  0.583  0.408-   6 2.75  21 2.75  23 2.75  35 2.75  42 2.75  16 2.75  47 2.75  43 2.75
                            40 2.75
  42  0.083  0.333  0.408-   9 2.75   4 2.75   1 2.75  41 2.75  47 2.75   2 2.75  21 2.75  32 2.75
                            43 2.75
  43  0.917  0.417  0.500-  21 2.75  45 2.75  36 2.75   6 2.75  39 2.75  40 2.75  32 2.75  22 2.75
                             9 2.75  41 2.75  42 2.75   5 2.75
  44  0.667  0.167  0.500-  28 2.75  20 2.75  33 2.75  27 2.75  22 2.75  25 2.75  34 2.75  14 2.75
                            39 2.75  26 2.75  38 2.75  19 2.75
  45  0.000  0.250  0.592-  43 2.75  32 2.75   7 2.75   3 2.75  36 2.75   5 2.75  38 2.75  10 2.75
                            39 2.75
  46  0.417  0.917  0.500-  31 2.75  37 2.75   7 2.75  14 2.75  32 2.75  17 2.75  40 2.75  24 2.75
                            34 2.75   4 2.75  15 2.75  35 2.75
  47  0.083  0.583  0.408-  11 2.75   2 2.75  13 2.75  23 2.75  42 2.75  41 2.75  29 2.75   9 2.75
                             6 2.75
  48  0.250  0.750  0.592-  24 2.75  17 2.75  12 2.75   3 2.75  18 2.75   7 2.75  30 2.75  37 2.75
                            11 2.75
 
  LATTYP: Found a hexagonal cell.
 ALAT       =    11.0025815153
 C/A-ratio  =     2.2260035120
  
  Lattice vectors:
  
 A1 = (   5.5012907576,  -9.5285150994,   0.0000000000)
 A2 = ( -11.0025815153,   0.0000000000,   0.0000000000)
 A3 = (   0.0000000000,   0.0000000000, -24.4917850943)


Analysis of symmetry for initial positions (statically):
=====================================================================
 Subroutine PRICEL returns:
 Original cell was already a primitive cell.
 

 Routine SETGRP: Setting up the symmetry group for a 
 hexagonal supercell.


 Subroutine GETGRP returns: Found  1 space group operations
 (whereof  1 operations were pure point group operations)
 out of a pool of 24 trial point group operations.


The static configuration has the point symmetry C_1 .


Analysis of symmetry for dynamics (positions and initial velocities):
=====================================================================
 Subroutine PRICEL returns:
 Original cell was already a primitive cell.
 

 Routine SETGRP: Setting up the symmetry group for a 
 hexagonal supercell.


 Subroutine GETGRP returns: Found  1 space group operations
 (whereof  1 operations were pure point group operations)
 out of a pool of 24 trial point group operations.


The dynamic configuration has the point symmetry C_1 .


Analysis of constrained symmetry for selective dynamics:
=====================================================================
 Subroutine PRICEL returns:
 Original cell was already a primitive cell.
 

 Routine SETGRP: Setting up the symmetry group for a 
 hexagonal supercell.


 Subroutine GETGRP returns: Found  1 space group operations
 (whereof  1 operations were pure point group operations)
 out of a pool of 24 trial point group operations.


The constrained configuration has the point symmetry C_1 .
 
 
 KPOINTS: Automatic mesh                          

Automatic generation of k-mesh.
Space group operators:
 irot       det(A)        alpha          n_x          n_y          n_z        tau_x        tau_y        tau_z
    1     1.000000     0.000000     1.000000     0.000000     0.000000     0.000000     0.000000     0.000000
 
 Subroutine IBZKPT returns following result:
 ===========================================
 
 Found      6 irreducible k-points:
 
 Following reciprocal coordinates:
            Coordinates               Weight
  0.250000  0.250000  0.000000     16.000000
  0.000000  0.250000  0.000000     16.000000
 -0.250000  0.000000  0.000000     16.000000
 -0.250000  0.250000  0.000000     16.000000
  0.500000 -0.250000  0.000000     16.000000
 -0.250000  0.500000  0.000000     16.000000
 
 Following cartesian coordinates:
            Coordinates               Weight
  0.022722  0.013119  0.000000     16.000000
  0.000000  0.026237  0.000000     16.000000
 -0.022722  0.013119  0.000000     16.000000
 -0.022722  0.039356  0.000000     16.000000
  0.045444 -0.052474  0.000000     16.000000
 -0.022722  0.065593  0.000000     16.000000
 


--------------------------------------------------------------------------------------------------------




 Dimension of arrays:
   k-points           NKPTS =      6   k-points in BZ     NKDIM =      6   number of bands    NBANDS=    306
   number of dos      NEDOS =    301   number of ions     NIONS =     48
   non local maximal  LDIM  =      6   non local SUM 2l+1 LMDIM =     18
   total plane-waves  NPLWV = 349920
   max r-space proj   IRMAX =   2009   max aug-charges    IRDMAX=   8532
   dimension x,y,z NGX =    54 NGY =   54 NGZ =  120
   dimension x,y,z NGXF=   108 NGYF=  108 NGZF=  240
   support grid    NGXF=   108 NGYF=  108 NGZF=  240
   ions per type =              24  24
 NGX,Y,Z   is equivalent  to a cutoff of   8.16,  8.16,  8.15 a.u.
 NGXF,Y,Z  is equivalent  to a cutoff of  16.32, 16.32, 16.29 a.u.


 I would recommend the setting:
   dimension x,y,z NGX =    54 NGY =   54 NGZ =  120
 SYSTEM =  unknown system                          
 POSCAR =  Au Pd                                   

 Startparameter for this run:
   NWRITE =      1    write-flag & timer
   PREC   = normal    normal or accurate (medium, high low for compatibility)
   ISTART =      0    job   : 0-new  1-cont  2-samecut
   ICHARG =      2    charge: 1-file 2-atom 10-const
   ISPIN  =      1    spin polarized calculation?
   LNONCOLLINEAR =      F non collinear calculations
   LSORBIT =      F    spin-orbit coupling
   INIWAV =      1    electr: 0-lowe 1-rand  2-diag
   LASPH  =      F    aspherical Exc in radial PAW
   METAGGA=      F    non-selfconsistent MetaGGA calc.

 Electronic Relaxation 1
   ENCUT  =  400.0 eV  29.40 Ry    5.42 a.u.  17.94 17.94 39.94*2*pi/ulx,y,z
   ENINI  =  400.0     initial cutoff
   ENAUG  =  416.2 eV  augmentation charge cutoff
   NELM   =    500;   NELMIN=  2; NELMDL= -5     # of ELM steps 
   EDIFF  = 0.1E-05   stopping-criterion for ELM
   LREAL  =      T    real-space projection
   NLSPLINE    = F    spline interpolate recip. space projectors
   LCOMPAT=      F    compatible to vasp.4.4
   GGA_COMPAT  = T    GGA compatible to vasp.4.4-vasp.4.6
   LMAXPAW     = -100 max onsite density
   LMAXMIX     =    2 max onsite mixed and CHGCAR
   VOSKOWN=      1    Vosko Wilk Nusair interpolation
   ROPT   =   -0.00050  -0.00050
 Ionic relaxation
   EDIFFG = -.2E-01   stopping-criterion for IOM
   NSW    =    500    number of steps for IOM
   NBLOCK =      1;   KBLOCK =    500    inner block; outer block 
   IBRION =      2    ionic relax: 0-MD 1-quasi-New 2-CG
   NFREE  =      2    steps in history (QN), initial steepest desc. (CG)
   ISIF   =      0    stress and relaxation
   IWAVPR =     11    prediction:  0-non 1-charg 2-wave 3-comb
   ISYM   =      2    0-nonsym 1-usesym 2-fastsym
   LCORR  =      T    Harris-Foulkes like correction to forces

   POTIM  = 0.3500    time-step for ionic-motion
   TEIN   =    0.0    initial temperature
   TEBEG  =    0.0;   TEEND  =   0.0 temperature during run
   SMASS  =  -3.00    Nose mass-parameter (am)
   estimated Nose-frequenzy (Omega)   =  0.10E-29 period in steps =****** mass=  -0.277E-26a.u.
   SCALEE = 1.0000    scale energy and forces
   NPACO  =    256;   APACO  = 16.0  distance and # of slots for P.C.
   PSTRESS=    0.0 pullay stress

  Mass of Ions in am
   POMASS = 196.97106.42
  Ionic Valenz
   ZVAL   =  11.00 10.00
  Atomic Wigner-Seitz radii
   RWIGS  =  -1.00 -1.00
  virtual crystal weights 
   VCA    =   1.00  1.00
   NELECT =     504.0000    total number of electrons
   NUPDOWN=      -1.0000    fix difference up-down

 DOS related values:
   EMIN   =  10.00;   EMAX   =-10.00  energy-range for DOS
   EFERMI =   0.00
   ISMEAR =     0;   SIGMA  =   0.10  broadening in eV -4-tet -1-fermi 0-gaus

 Electronic relaxation 2 (details)
   IALGO  =     68    algorithm
   LDIAG  =      T    sub-space diagonalisation (order eigenvalues)
   LSUBROT=      F    optimize rotation matrix (better conditioning)
   TURBO    =      0    0=normal 1=particle mesh
   IRESTART =      0    0=no restart 2=restart with 2 vectors
   NREBOOT  =      0    no. of reboots
   NMIN     =      0    reboot dimension
   EREF     =   0.00    reference energy to select bands
   IMIX   =      4    mixing-type and parameters
     AMIX     =   0.40;   BMIX     =  1.00
     AMIX_MAG =   1.60;   BMIX_MAG =  1.00
     AMIN     =   0.10
     WC   =   100.;   INIMIX=   1;  MIXPRE=   1;  MAXMIX= -45

 Intra band minimization:
   WEIMIN = 0.0010     energy-eigenvalue tresh-hold
   EBREAK =  0.82E-09  absolut break condition
   DEPER  =   0.30     relativ break condition  

   TIME   =   0.40     timestep for ELM

  volume/ion in A,a.u.               =      53.49       360.99
  Fermi-wavevector in a.u.,A,eV,Ry     =   0.951418  1.797920 12.315955  0.905197
  Thomas-Fermi vector in A             =   2.079887
 
 Write flags
   LWAVE  =      F    write WAVECAR
   LCHARG =      F    write CHGCAR
   LVTOT  =      F    write LOCPOT, total local potential
   LVHAR  =      F    write LOCPOT, Hartree potential only
   LELF   =      F    write electronic localiz. function (ELF)
   LORBIT =      0    0 simple, 1 ext, 2 COOP (PROOUT)


 Dipole corrections
   LMONO  =      F    monopole corrections only (constant potential shift)
   LDIPOL =      T    correct potential (dipole corrections)
   IDIPOL =      3    1-x, 2-y, 3-z, 4-all directions 
   EPSILON=  1.0000000 bulk dielectric constant

 Exchange correlation treatment:
   GGA     =    PE    GGA type
   LEXCH   =     8    internal setting for exchange type
   VOSKOWN=      1    Vosko Wilk Nusair interpolation
   LHFCALC =     F    Hartree Fock is set to
   LHFONE  =     F    Hartree Fock one center treatment
   AEXX    =    0.0000 exact exchange contribution

 Linear response parameters
   LEPSILON=     F    determine dielectric tensor
   LRPA    =     F    only Hartree local field effects (RPA)
   LNABLA  =     F    use nabla operator in PAW spheres
   LVEL    =     F    velocity operator in full k-point grid
   LINTERFAST=   F  fast interpolation
   KINTER  =     0    interpolate to denser k-point grid
   CSHIFT  =0.1000    complex shift for real part using Kramers Kronig
   OMEGAMAX=  -1.0    maximum frequency
   DEG_THRESHOLD= 0.2000000E-02 threshold for treating states as degnerate
   RTIME   =    0.100 relaxation time in fs

 Orbital magnetization related:
   ORBITALMAG=     F  switch on orbital magnetization
   LCHIMAG   =     F  perturbation theory with respect to B field
   DQ        =  0.001000  dq finite difference perturbation B field



--------------------------------------------------------------------------------------------------------


 conjugate gradient relaxation of ions
   using selective dynamics as specified on POSCAR
   WARNING: If single coordinates had been selected the selection of coordinates
            is made according to the corresponding   d i r e c t   coordinates!
            Don't support selection of single cartesian coordinates -- sorry ...
  !
 charge density and potential will be updated during run
 non-spin polarized calculation
 RMM-DIIS sequential band-by-band and
  variant of blocked Davidson during initial phase
 perform sub-space diagonalisation
    before iterative eigenvector-optimisation
 modified Broyden-mixing scheme, WC =      100.0
 initial mixing is a Kerker type mixing with AMIX =  0.4000 and BMIX =      1.0000
 Hartree-type preconditioning will be used
 using additional bands           54
 real space projection scheme for non local part
 use partial core corrections
 calculate Harris-corrections to forces 
   (improved forces if not selfconsistent)
 use gradient corrections 
 use of overlap-Matrix (Vanderbilt PP)
 Gauss-broadening in eV      SIGMA  =   0.10


--------------------------------------------------------------------------------------------------------


  energy-cutoff  :      400.00
  volume of cell :     2567.68
      direct lattice vectors                 reciprocal lattice vectors
    11.002581515  0.000000000  0.000000000     0.090887761 -0.052474073  0.000000000
     5.501290758  9.528515099  0.000000000     0.000000000  0.104948147  0.000000000
     0.000000000  0.000000000 24.491785094     0.000000000  0.000000000  0.040830017

  length of vectors
    11.002581515 11.002581515 24.491785094     0.104948147  0.104948147  0.040830017


 
 k-points in units of 2pi/SCALE and weight: Automatic mesh                          
   0.02272194  0.01311852  0.00000000       0.167
   0.00000000  0.02623704  0.00000000       0.167
  -0.02272194  0.01311852  0.00000000       0.167
  -0.02272194  0.03935555  0.00000000       0.167
   0.04544388 -0.05247407  0.00000000       0.167
  -0.02272194  0.06559259  0.00000000       0.167
 
 k-points in reciprocal lattice and weights: Automatic mesh                          
   0.25000000  0.25000000  0.00000000       0.167
   0.00000000  0.25000000  0.00000000       0.167
  -0.25000000  0.00000000  0.00000000       0.167
  -0.25000000  0.25000000  0.00000000       0.167
   0.50000000 -0.25000000  0.00000000       0.167
  -0.25000000  0.50000000  0.00000000       0.167
 
 position of ions in fractional coordinates (direct lattice) 
   0.08333333  0.08333333  0.40830017
   0.33333333  0.33333333  0.40830017
   0.00000000  0.00000000  0.59169983
   0.33333333  0.08333333  0.40830017
   0.00000000  0.50000000  0.59169983
   0.91666667  0.66666667  0.50000000
   0.25000000  0.00000000  0.59169983
   0.75000000  0.75000000  0.59169983
   0.16666667  0.41666667  0.50000000
   0.25000000  0.25000000  0.59169983
   0.16666667  0.66666667  0.50000000
   0.25000000  0.50000000  0.59169983
   0.08333333  0.83333333  0.40830017
   0.41666667  0.16666667  0.50000000
   0.50000000  0.00000000  0.59169983
   0.58333333  0.58333333  0.40830017
   0.41666667  0.66666667  0.50000000
   0.50000000  0.50000000  0.59169983
   0.83333333  0.08333333  0.40830017
   0.75000000  0.00000000  0.59169983
   0.83333333  0.33333333  0.40830017
   0.66666667  0.41666667  0.50000000
   0.83333333  0.83333333  0.40830017
   0.16666667  0.91666667  0.50000000
   0.41666667  0.41666667  0.50000000
   0.58333333  0.33333333  0.40830017
   0.91666667  0.91666667  0.50000000
   0.58333333  0.08333333  0.40830017
   0.33333333  0.58333333  0.40830017
   0.00000000  0.75000000  0.59169983
   0.33333333  0.83333333  0.40830017
   0.16666667  0.16666667  0.50000000
   0.50000000  0.25000000  0.59169983
   0.66666667  0.91666667  0.50000000
   0.58333333  0.83333333  0.40830017
   0.75000000  0.50000000  0.59169983
   0.50000000  0.75000000  0.59169983
   0.75000000  0.25000000  0.59169983
   0.91666667  0.16666667  0.50000000
   0.66666667  0.66666667  0.50000000
   0.83333333  0.58333333  0.40830017
   0.08333333  0.33333333  0.40830017
   0.91666667  0.41666667  0.50000000
   0.66666667  0.16666667  0.50000000
   0.00000000  0.25000000  0.59169983
   0.41666667  0.91666667  0.50000000
   0.08333333  0.58333333  0.40830017
   0.25000000  0.75000000  0.59169983
 
 position of ions in cartesian coordinates  (Angst):
   1.37532269  0.79404292 10.00000000
   5.50129076  3.17617170 10.00000000
   0.00000000  0.00000000 14.49178509
   4.12596807  0.79404292 10.00000000
   2.75064538  4.76425755 14.49178509
  13.75322689  6.35234340 12.24589255
   2.75064538  0.00000000 14.49178509
  12.37790420  7.14638632 14.49178509
   4.12596807  3.97021462 12.24589255
   4.12596807  2.38212877 14.49178509
   5.50129076  6.35234340 12.24589255
   5.50129076  4.76425755 14.49178509
   5.50129076  7.94042925 10.00000000
   5.50129076  1.58808585 12.24589255
   5.50129076  0.00000000 14.49178509
   9.62725883  5.55830047 10.00000000
   8.25193614  6.35234340 12.24589255
   8.25193614  4.76425755 14.49178509
   9.62725883  0.79404292 10.00000000
   8.25193614  0.00000000 14.49178509
  11.00258152  3.17617170 10.00000000
   9.62725883  3.97021462 12.24589255
  13.75322689  7.94042925 10.00000000
   6.87661345  8.73447217 12.24589255
   6.87661345  3.97021462 12.24589255
   8.25193614  3.17617170 10.00000000
  15.12854958  8.73447217 12.24589255
   6.87661345  0.79404292 10.00000000
   6.87661345  5.55830047 10.00000000
   4.12596807  7.14638632 14.49178509
   8.25193614  7.94042925 10.00000000
   2.75064538  1.58808585 12.24589255
   6.87661345  2.38212877 14.49178509
  12.37790420  8.73447217 12.24589255
  11.00258152  7.94042925 10.00000000
  11.00258152  4.76425755 14.49178509
   9.62725883  7.14638632 14.49178509
   9.62725883  2.38212877 14.49178509
  11.00258152  1.58808585 12.24589255
  11.00258152  6.35234340 12.24589255
  12.37790420  5.55830047 10.00000000
   2.75064538  3.17617170 10.00000000
  12.37790420  3.97021462 12.24589255
   8.25193614  1.58808585 12.24589255
   1.37532269  2.38212877 14.49178509
   9.62725883  8.73447217 12.24589255
   4.12596807  5.55830047 10.00000000
   6.87661345  7.14638632 14.49178509
 


--------------------------------------------------------------------------------------------------------


 k-point  1 :   0.2500 0.2500 0.0000  plane waves:   46635
 k-point  2 :   0.0000 0.2500 0.0000  plane waves:   46635
 k-point  3 :  -0.2500 0.0000 0.0000  plane waves:   46635
 k-point  4 :  -0.2500 0.2500 0.0000  plane waves:   46644
 k-point  5 :   0.5000-0.2500 0.0000  plane waves:   46644
 k-point  6 :  -0.2500 0.5000 0.0000  plane waves:   46644

 maximum and minimum number of plane-waves per node :      7818     7732

 maximum number of plane-waves:     46644
 maximum index in each direction: 
   IXMAX=   18   IYMAX=   18   IZMAX=   39
   IXMIN=  -18   IYMIN=  -18   IZMIN=  -39

 WARNING: aliasing errors must be expected set NGX to  74 to avoid them
 WARNING: aliasing errors must be expected set NGY to  74 to avoid them
 WARNING: aliasing errors must be expected set NGZ to 158 to avoid them
 aliasing errors are usually negligible using standard VASP settings
 and one can safely disregard these warnings

 real space projection operators:
  total allocation   :      12803.06 KBytes
  max/ min on nodes  :       2145.66       2127.94


 parallel 3D FFT for wavefunctions:
    minimum data exchange during FFTs selected (reduces bandwidth)
 parallel 3D FFT for charge:
    minimum data exchange during FFTs selected (reduces bandwidth)


 total amount of memory used by VASP on root node    84353. kBytes
========================================================================

   base      :      30000. kBytes
   nonlr-proj:       4285. kBytes
   fftplans  :       4447. kBytes
   grid      :       6721. kBytes
   one-center:        124. kBytes
   wavefun   :      38776. kBytes
 
     INWAV:  cpu time    0.0000: real time    0.0000
 Broyden mixing: mesh for mixing (old mesh)
   NGX = 35   NGY = 35   NGZ = 79
  (NGX  =108   NGY  =108   NGZ  =240)
  gives a total of  96775 points

 initial charge density was supplied:
 charge density of overlapping atoms calculated
 number of electron     504.0000000 magnetization 
 keeping initial charge density in first step


--------------------------------------------------------------------------------------------------------


 Maximum index for non-local projection operator          355
 Maximum index for augmentation-charges          437 (set IRDMAX)


--------------------------------------------------------------------------------------------------------


 First call to EWALD:  gamma=   0.129
 Maximum number of real-space cells 4x 4x 2
 Maximum number of reciprocal cells 2x 2x 5

 FEWALD executed in parallel
    FEWALD:  cpu time    0.0023: real time    0.0024


----------------------------------------- Iteration    1(   1)  ---------------------------------------


    POTLOK:  cpu time    0.0455: real time    0.0458
    SETDIJ:  cpu time    0.0056: real time    0.0057
     EDDAV:  cpu time    7.1319: real time    7.1720
       DOS:  cpu time    0.0014: real time    0.0014
    --------------------------------------------
      LOOP:  cpu time    7.1871: real time    7.2315

 eigenvalue-minimisations  :  3672
 total energy-change (2. order) : 0.3200836E+04  (-0.1897938E+05)
 number of electron     504.0000000 magnetization 
 augmentation part      504.0000000 magnetization 

 DIPCOR: dipole corrections for dipol
 direction  3 min pos     1,
 dipolmoment           0.000000      0.000000     -0.000001 electrons x Angstroem
 Tr[quadrupol]    -10254.623971

 energy correction for charged system         0.000000 eV
 dipol+quadrupol energy correction           -0.000000 eV
 added-field ion interaction          0.000000 eV  (added to PSCEN)


 Free energy of the ion-electron system (eV)
  ---------------------------------------------------
  alpha Z        PSCENC =       805.86936440
  Ewald energy   TEWEN  =    199921.17299199
  -Hartree energ DENC   =   -242334.13946419
  -exchange      EXHF   =         0.00000000
  -V(xc)+E(xc)   XCENC  =      -327.69178124
  PAW double counting   =     40340.05962942   -38292.62782345
  entropy T*S    EENTRO =        -0.13849711
  eigenvalues    EBANDS =      1428.54531116
  atomic energy  EATOM  =     41659.78587232
  Solvation  Ediel_sol  =         0.00000000
  ---------------------------------------------------
  free energy    TOTEN  =      3200.83560331 eV

  energy without entropy =     3200.97410042  energy(sigma->0) =     3200.90485186


--------------------------------------------------------------------------------------------------------




----------------------------------------- Iteration    1(   2)  ---------------------------------------


     EDDAV:  cpu time    8.5609: real time    8.5839
       DOS:  cpu time    0.0014: real time    0.0014
    --------------------------------------------
      LOOP:  cpu time    8.5630: real time    8.5877

 eigenvalue-minimisations  :  4380
 total energy-change (2. order) :-0.3186018E+04  (-0.2931343E+04)
 number of electron     504.0000000 magnetization 
 augmentation part      504.0000000 magnetization 

 DIPCOR: dipole corrections for dipol
 direction  3 min pos     1,
 dipolmoment           0.000000      0.000000     -0.000001 electrons x Angstroem
 Tr[quadrupol]    -10254.623971

 energy correction for charged system         0.000000 eV
 dipol+quadrupol energy correction           -0.000000 eV
 added-field ion interaction          0.000000 eV  (added to PSCEN)


 Free energy of the ion-electron system (eV)
  ---------------------------------------------------
  alpha Z        PSCENC =       805.86936440
  Ewald energy   TEWEN  =    199921.17299199
  -Hartree energ DENC   =   -242334.13946419
  -exchange      EXHF   =         0.00000000
  -V(xc)+E(xc)   XCENC  =      -327.69178124
  PAW double counting   =     40340.05962942   -38292.62782345
  entropy T*S    EENTRO =        -0.13188045
  eigenvalues    EBANDS =     -1757.47891696
  atomic energy  EATOM  =     41659.78587232
  Solvation  Ediel_sol  =         0.00000000
  ---------------------------------------------------
  free energy    TOTEN  =        14.81799184 eV

  energy without entropy =       14.94987229  energy(sigma->0) =       14.88393206


--------------------------------------------------------------------------------------------------------




----------------------------------------- Iteration    1(   3)  ---------------------------------------


     EDDAV:  cpu time    8.1697: real time    8.1955
       DOS:  cpu time    0.0014: real time    0.0014
    --------------------------------------------
      LOOP:  cpu time    8.1717: real time    8.1991

 eigenvalue-minimisations  :  4128
 total energy-change (2. order) :-0.2157239E+03  (-0.2002594E+03)
 number of electron     504.0000000 magnetization 
 augmentation part      504.0000000 magnetization 

 DIPCOR: dipole corrections for dipol
 direction  3 min pos     1,
 dipolmoment           0.000000      0.000000     -0.000001 electrons x Angstroem
 Tr[quadrupol]    -10254.623971

 energy correction for charged system         0.000000 eV
 dipol+quadrupol energy correction           -0.000000 eV
 added-field ion interaction          0.000000 eV  (added to PSCEN)


 Free energy of the ion-electron system (eV)
  ---------------------------------------------------
  alpha Z        PSCENC =       805.86936440
  Ewald energy   TEWEN  =    199921.17299199
  -Hartree energ DENC   =   -242334.13946419
  -exchange      EXHF   =         0.00000000
  -V(xc)+E(xc)   XCENC  =      -327.69178124
  PAW double counting   =     40340.05962942   -38292.62782345
  entropy T*S    EENTRO =        -0.18783815
  eigenvalues    EBANDS =     -1973.14688834
  atomic energy  EATOM  =     41659.78587232
  Solvation  Ediel_sol  =         0.00000000
  ---------------------------------------------------
  free energy    TOTEN  =      -200.90593724 eV

  energy without entropy =     -200.71809909  energy(sigma->0) =     -200.81201816


--------------------------------------------------------------------------------------------------------




----------------------------------------- Iteration    1(   4)  ---------------------------------------


     EDDAV:  cpu time    8.3477: real time    8.3714
       DOS:  cpu time    0.0014: real time    0.0014
    --------------------------------------------
      LOOP:  cpu time    8.3499: real time    8.4132

 eigenvalue-minimisations  :  4236
 total energy-change (2. order) :-0.5836434E+01  (-0.5769901E+01)
 number of electron     504.0000000 magnetization 
 augmentation part      504.0000000 magnetization 

 DIPCOR: dipole corrections for dipol
 direction  3 min pos     1,
 dipolmoment           0.000000      0.000000     -0.000001 electrons x Angstroem
 Tr[quadrupol]    -10254.623971

 energy correction for charged system         0.000000 eV
 dipol+quadrupol energy correction           -0.000000 eV
 added-field ion interaction          0.000000 eV  (added to PSCEN)


 Free energy of the ion-electron system (eV)
  ---------------------------------------------------
  alpha Z        PSCENC =       805.86936440
  Ewald energy   TEWEN  =    199921.17299199
  -Hartree energ DENC   =   -242334.13946419
  -exchange      EXHF   =         0.00000000
  -V(xc)+E(xc)   XCENC  =      -327.69178124
  PAW double counting   =     40340.05962942   -38292.62782345
  entropy T*S    EENTRO =        -0.19631630
  eigenvalues    EBANDS =     -1978.97484400
  atomic energy  EATOM  =     41659.78587232
  Solvation  Ediel_sol  =         0.00000000
  ---------------------------------------------------
  free energy    TOTEN  =      -206.74237105 eV

  energy without entropy =     -206.54605475  energy(sigma->0) =     -206.64421290


--------------------------------------------------------------------------------------------------------




----------------------------------------- Iteration    1(   5)  ---------------------------------------


     EDDAV:  cpu time    8.6054: real time    8.7012
       DOS:  cpu time    0.0015: real time    0.0015
    CHARGE:  cpu time    0.2190: real time    0.2196
    MIXING:  cpu time    0.0022: real time    0.0023
    --------------------------------------------
      LOOP:  cpu time    8.8288: real time    8.9288

 eigenvalue-minimisations  :  4440
 total energy-change (2. order) :-0.1963583E+00  (-0.1957824E+00)
 number of electron     503.9998404 magnetization 
 augmentation part      191.2412446 magnetization 

 DIPCOR: dipole corrections for dipol
 direction  3 min pos     1,
 dipolmoment           0.000000      0.000000     -0.000001 electrons x Angstroem
 Tr[quadrupol]    -10254.623971

 energy correction for charged system         0.000000 eV
 dipol+quadrupol energy correction           -0.000000 eV
 added-field ion interaction          0.000000 eV  (added to PSCEN)


 Broyden mixing:
  rms(total) = 0.62134E+01    rms(broyden)= 0.62134E+01
  rms(prec ) = 0.63282E+01
  weight for this iteration     100.00

 Free energy of the ion-electron system (eV)
  ---------------------------------------------------
  alpha Z        PSCENC =       805.86936440
  Ewald energy   TEWEN  =    199921.17299199
  -Hartree energ DENC   =   -242334.13946419
  -exchange      EXHF   =         0.00000000
  -V(xc)+E(xc)   XCENC  =      -327.69178124
  PAW double counting   =     40340.05962942   -38292.62782345
  entropy T*S    EENTRO =        -0.19552253
  eigenvalues    EBANDS =     -1979.17199610
  atomic energy  EATOM  =     41659.78587232
  Solvation  Ediel_sol  =         0.00000000
  ---------------------------------------------------
  free energy    TOTEN  =      -206.93872938 eV

  energy without entropy =     -206.74320685  energy(sigma->0) =     -206.84096811


--------------------------------------------------------------------------------------------------------




----------------------------------------- Iteration    1(   6)  ---------------------------------------


    POTLOK:  cpu time    0.0413: real time    0.0414
    SETDIJ:  cpu time    0.0058: real time    0.0058
    EDDIAG:  cpu time    1.2887: real time    1.2921
  RMM-DIIS:  cpu time    3.4427: real time    3.4519
    ORTHCH:  cpu time    0.3537: real time    0.3546
       DOS:  cpu time    0.0014: real time    0.0014
    CHARGE:  cpu time    0.2215: real time    0.2221
    MIXING:  cpu time    0.0019: real time    0.0019
    --------------------------------------------
      LOOP:  cpu time    5.3576: real time    5.3737

 eigenvalue-minimisations  :  3678
 total energy-change (2. order) : 0.7093882E+01  (-0.9328320E+01)
 number of electron     503.9998416 magnetization 
 augmentation part      192.0192693 magnetization 

 DIPCOR: dipole corrections for dipol
 direction  3 min pos     1,
 dipolmoment           0.000000      0.000000     -0.341182 electrons x Angstroem
 Tr[quadrupol]    -10256.728157

 energy correction for charged system         0.000000 eV
 dipol+quadrupol energy correction           -0.004102 eV
 added-field ion interaction          0.054002 eV  (added to PSCEN)


 Broyden mixing:
  rms(total) = 0.52714E+01    rms(broyden)= 0.52712E+01
  rms(prec ) = 0.54415E+01
  weight for this iteration     100.00

 eigenvalues of (default mixing * dielectric matrix)
  average eigenvalue GAMMA=   0.7918
  0.7918

 Free energy of the ion-electron system (eV)
  ---------------------------------------------------
  alpha Z        PSCENC =       805.91926422
  Ewald energy   TEWEN  =    199921.17299199
  -Hartree energ DENC   =   -242109.25279003
  -exchange      EXHF   =         0.00000000
  -V(xc)+E(xc)   XCENC  =      -340.43403641
  PAW double counting   =     43906.44237918   -41918.44856518
  entropy T*S    EENTRO =        -0.22479642
  eigenvalues    EBANDS =     -2124.80516754
  atomic energy  EATOM  =     41659.78587232
  Solvation  Ediel_sol  =         0.00000000
  ---------------------------------------------------
  free energy    TOTEN  =      -199.84484788 eV

  energy without entropy =     -199.62005146  energy(sigma->0) =     -199.73244967


--------------------------------------------------------------------------------------------------------




----------------------------------------- Iteration    1(   7)  ---------------------------------------


    POTLOK:  cpu time    0.0416: real time    0.0418
    SETDIJ:  cpu time    0.0052: real time    0.0060
    EDDIAG:  cpu time    1.2906: real time    1.2965
  RMM-DIIS:  cpu time    3.4123: real time    3.4214
    ORTHCH:  cpu time    0.3521: real time    0.3530
       DOS:  cpu time    0.0014: real time    0.0014
    CHARGE:  cpu time    0.2195: real time    0.2201
    MIXING:  cpu time    0.0020: real time    0.0020
    --------------------------------------------
      LOOP:  cpu time    5.3255: real time    5.3458

 eigenvalue-minimisations  :  3682
 total energy-change (2. order) :-0.4002527E+01  (-0.5700545E+01)
 number of electron     503.9998362 magnetization 
 augmentation part      196.7347729 magnetization 

 DIPCOR: dipole corrections for dipol
 direction  3 min pos     1,
 dipolmoment           0.000000      0.000000      0.583022 electrons x Angstroem
 Tr[quadrupol]    -10254.201660

 energy correction for charged system         0.000000 eV
 dipol+quadrupol energy correction           -0.011978 eV
 added-field ion interaction         -0.092280 eV  (added to PSCEN)


 Broyden mixing:
  rms(total) = 0.40822E+01    rms(broyden)= 0.40820E+01
  rms(prec ) = 0.45174E+01
  weight for this iteration     100.00

 eigenvalues of (default mixing * dielectric matrix)
  average eigenvalue GAMMA=   1.0292
  1.6655  0.3928

 Free energy of the ion-electron system (eV)
  ---------------------------------------------------
  alpha Z        PSCENC =       805.76510679
  Ewald energy   TEWEN  =    199921.17299199
  -Hartree energ DENC   =   -241915.13601849
  -exchange      EXHF   =         0.00000000
  -V(xc)+E(xc)   XCENC  =      -342.60726382
  PAW double counting   =     45462.79189915   -43502.01744072
  entropy T*S    EENTRO =        -0.15290590
  eigenvalues    EBANDS =     -2293.44961575
  atomic energy  EATOM  =     41659.78587232
  Solvation  Ediel_sol  =         0.00000000
  ---------------------------------------------------
  free energy    TOTEN  =      -203.84737443 eV

  energy without entropy =     -203.69446853  energy(sigma->0) =     -203.77092148


--------------------------------------------------------------------------------------------------------




----------------------------------------- Iteration    1(   8)  ---------------------------------------


    POTLOK:  cpu time    0.0412: real time    0.0414
    SETDIJ:  cpu time    0.0054: real time    0.0056
    EDDIAG:  cpu time    1.2888: real time    1.2930
  RMM-DIIS:  cpu time    3.4195: real time    3.4309
    ORTHCH:  cpu time    0.3497: real time    0.3507
       DOS:  cpu time    0.0015: real time    0.0015
    CHARGE:  cpu time    0.2248: real time    0.2254
    MIXING:  cpu time    0.0020: real time    0.0020
    --------------------------------------------
      LOOP:  cpu time    5.3336: real time    5.3543

 eigenvalue-minimisations  :  3672
 total energy-change (2. order) :-0.1568566E+02  (-0.8229755E+01)
 number of electron     503.9998362 magnetization 
 augmentation part      196.4422588 magnetization 

 DIPCOR: dipole corrections for dipol
 direction  3 min pos     1,
 dipolmoment           0.000000      0.000000     -1.646010 electrons x Angstroem
 Tr[quadrupol]    -10256.651668

 energy correction for charged system         0.000000 eV
 dipol+quadrupol energy correction           -0.095470 eV
 added-field ion interaction          0.260528 eV  (added to PSCEN)


 Broyden mixing:
  rms(total) = 0.40948E+01    rms(broyden)= 0.40944E+01
  rms(prec ) = 0.48666E+01
  weight for this iteration     100.00

 eigenvalues of (default mixing * dielectric matrix)
  average eigenvalue GAMMA=   0.9491
  2.1174  0.4267  0.3032

 Free energy of the ion-electron system (eV)
  ---------------------------------------------------
  alpha Z        PSCENC =       806.03442205
  Ewald energy   TEWEN  =    199921.17299199
  -Hartree energ DENC   =   -241933.90454188
  -exchange      EXHF   =         0.00000000
  -V(xc)+E(xc)   XCENC  =      -344.73317549
  PAW double counting   =     47527.42142077   -45595.16875555
  entropy T*S    EENTRO =        -0.28140078
  eigenvalues    EBANDS =     -2259.85986902
  atomic energy  EATOM  =     41659.78587232
  Solvation  Ediel_sol  =         0.00000000
  ---------------------------------------------------
  free energy    TOTEN  =      -219.53303559 eV

  energy without entropy =     -219.25163481  energy(sigma->0) =     -219.39233520


--------------------------------------------------------------------------------------------------------




----------------------------------------- Iteration    1(   9)  ---------------------------------------


    POTLOK:  cpu time    0.0402: real time    0.0403
    SETDIJ:  cpu time    0.0058: real time    0.0058
    EDDIAG:  cpu time    1.2799: real time    1.2837
  RMM-DIIS:  cpu time    3.4793: real time    3.4950
    ORTHCH:  cpu time    0.3500: real time    0.3508
       DOS:  cpu time    0.0014: real time    0.0014
    CHARGE:  cpu time    0.2270: real time    0.2275
    MIXING:  cpu time    0.0021: real time    0.0021
    --------------------------------------------
      LOOP:  cpu time    5.3863: real time    5.4099

 eigenvalue-minimisations  :  3678
 total energy-change (2. order) : 0.1158530E+02  (-0.3447479E+01)
 number of electron     503.9998347 magnetization 
 augmentation part      197.7439509 magnetization 

 DIPCOR: dipole corrections for dipol
 direction  3 min pos     1,
 dipolmoment           0.000000      0.000000      0.812410 electrons x Angstroem
 Tr[quadrupol]    -10257.914423

 energy correction for charged system         0.000000 eV
 dipol+quadrupol energy correction           -0.023257 eV
 added-field ion interaction         -0.128587 eV  (added to PSCEN)


 Broyden mixing:
  rms(total) = 0.30938E+01    rms(broyden)= 0.30934E+01
  rms(prec ) = 0.35709E+01
  weight for this iteration     100.00

 eigenvalues of (default mixing * dielectric matrix)
  average eigenvalue GAMMA=   0.8339
  2.2361  0.4642  0.3176  0.3176

 Free energy of the ion-electron system (eV)
  ---------------------------------------------------
  alpha Z        PSCENC =       805.71752018
  Ewald energy   TEWEN  =    199921.17299199
  -Hartree energ DENC   =   -241949.74749004
  -exchange      EXHF   =         0.00000000
  -V(xc)+E(xc)   XCENC  =      -346.02247333
  PAW double counting   =     48661.63152246   -46745.79023169
  entropy T*S    EENTRO =        -0.24120344
  eigenvalues    EBANDS =     -2214.45424740
  atomic energy  EATOM  =     41659.78587232
  Solvation  Ediel_sol  =         0.00000000
  ---------------------------------------------------
  free energy    TOTEN  =      -207.94773896 eV

  energy without entropy =     -207.70653551  energy(sigma->0) =     -207.82713724


--------------------------------------------------------------------------------------------------------




----------------------------------------- Iteration    1(  10)  ---------------------------------------


    POTLOK:  cpu time    0.0404: real time    0.0406
    SETDIJ:  cpu time    0.0051: real time    0.0051
    EDDIAG:  cpu time    1.2869: real time    1.2905
  RMM-DIIS:  cpu time    3.4874: real time    3.4995
    ORTHCH:  cpu time    0.3496: real time    0.3505
       DOS:  cpu time    0.0013: real time    0.0013
    CHARGE:  cpu time    0.2187: real time    0.2192
    MIXING:  cpu time    0.0022: real time    0.0022
    --------------------------------------------
      LOOP:  cpu time    5.3923: real time    5.4110

 eigenvalue-minimisations  :  3681
 total energy-change (2. order) : 0.1162289E+02  (-0.1698968E+01)
 number of electron     503.9998341 magnetization 
 augmentation part      198.6288926 magnetization 

 DIPCOR: dipole corrections for dipol
 direction  3 min pos     1,
 dipolmoment           0.000000      0.000000     -0.511659 electrons x Angstroem
 Tr[quadrupol]    -10257.146887

 energy correction for charged system         0.000000 eV
 dipol+quadrupol energy correction           -0.009225 eV
 added-field ion interaction          0.080985 eV  (added to PSCEN)


 Broyden mixing:
  rms(total) = 0.18507E+01    rms(broyden)= 0.18504E+01
  rms(prec ) = 0.21957E+01
  weight for this iteration     100.00

 eigenvalues of (default mixing * dielectric matrix)
  average eigenvalue GAMMA=   0.7815
  2.2644  0.4959  0.4959  0.4274  0.2241

 Free energy of the ion-electron system (eV)
  ---------------------------------------------------
  alpha Z        PSCENC =       805.94112389
  Ewald energy   TEWEN  =    199921.17299199
  -Hartree energ DENC   =   -241934.61059555
  -exchange      EXHF   =         0.00000000
  -V(xc)+E(xc)   XCENC  =      -345.89187313
  PAW double counting   =     49043.04481670   -47131.24138104
  entropy T*S    EENTRO =        -0.20443744
  eigenvalues    EBANDS =     -2214.32136855
  atomic energy  EATOM  =     41659.78587232
  Solvation  Ediel_sol  =         0.00000000
  ---------------------------------------------------
  free energy    TOTEN  =      -196.32485081 eV

  energy without entropy =     -196.12041338  energy(sigma->0) =     -196.22263210


--------------------------------------------------------------------------------------------------------




----------------------------------------- Iteration    1(  11)  ---------------------------------------


    POTLOK:  cpu time    0.0400: real time    0.0401
    SETDIJ:  cpu time    0.0051: real time    0.0051
    EDDIAG:  cpu time    1.2822: real time    1.2857
  RMM-DIIS:  cpu time    3.5265: real time    3.5359
    ORTHCH:  cpu time    0.3503: real time    0.3512
       DOS:  cpu time    0.0014: real time    0.0014
    CHARGE:  cpu time    0.2190: real time    0.2196
    MIXING:  cpu time    0.0023: real time    0.0023
    --------------------------------------------
      LOOP:  cpu time    5.4275: real time    5.4436

 eigenvalue-minimisations  :  3680
 total energy-change (2. order) : 0.3385423E+01  (-0.1108314E+01)
 number of electron     503.9998352 magnetization 
 augmentation part      197.8191420 magnetization 

 DIPCOR: dipole corrections for dipol
 direction  3 min pos     1,
 dipolmoment           0.000000      0.000000     -0.197454 electrons x Angstroem
 Tr[quadrupol]    -10257.517072

 energy correction for charged system         0.000000 eV
 dipol+quadrupol energy correction           -0.001374 eV
 added-field ion interaction          0.031253 eV  (added to PSCEN)


 Broyden mixing:
  rms(total) = 0.14088E+01    rms(broyden)= 0.14086E+01
  rms(prec ) = 0.16415E+01
  weight for this iteration     100.00

 eigenvalues of (default mixing * dielectric matrix)
  average eigenvalue GAMMA=   0.7201
  2.2506  0.5646  0.5646  0.4248  0.2580  0.2580

 Free energy of the ion-electron system (eV)
  ---------------------------------------------------
  alpha Z        PSCENC =       805.89924315
  Ewald energy   TEWEN  =    199921.17299199
  -Hartree energ DENC   =   -241975.92508930
  -exchange      EXHF   =         0.00000000
  -V(xc)+E(xc)   XCENC  =      -345.17939531
  PAW double counting   =     49182.59334842   -47268.78465938
  entropy T*S    EENTRO =        -0.20133557
  eigenvalues    EBANDS =     -2172.30040420
  atomic energy  EATOM  =     41659.78587232
  Solvation  Ediel_sol  =         0.00000000
  ---------------------------------------------------
  free energy    TOTEN  =      -192.93942789 eV

  energy without entropy =     -192.73809232  energy(sigma->0) =     -192.83876010


--------------------------------------------------------------------------------------------------------




----------------------------------------- Iteration    1(  12)  ---------------------------------------


    POTLOK:  cpu time    0.0400: real time    0.0401
    SETDIJ:  cpu time    0.0051: real time    0.0051
    EDDIAG:  cpu time    1.2746: real time    1.3307
  RMM-DIIS:  cpu time    3.4719: real time    3.5094
    ORTHCH:  cpu time    0.3511: real time    0.3520
       DOS:  cpu time    0.0015: real time    0.0015
    CHARGE:  cpu time    0.2223: real time    0.2229
    MIXING:  cpu time    0.0025: real time    0.0025
    --------------------------------------------
      LOOP:  cpu time    5.3699: real time    5.4668

 eigenvalue-minimisations  :  3678
 total energy-change (2. order) : 0.3087934E+01  (-0.3467372E+00)
 number of electron     503.9998355 magnetization 
 augmentation part      197.5945969 magnetization 

 DIPCOR: dipole corrections for dipol
 direction  3 min pos     1,
 dipolmoment           0.000000      0.000000     -0.077543 electrons x Angstroem
 Tr[quadrupol]    -10257.697306

 energy correction for charged system         0.000000 eV
 dipol+quadrupol energy correction           -0.000212 eV
 added-field ion interaction          0.012273 eV  (added to PSCEN)


 Broyden mixing:
  rms(total) = 0.70876E+00    rms(broyden)= 0.70853E+00
  rms(prec ) = 0.77890E+00
  weight for this iteration     100.00

 eigenvalues of (default mixing * dielectric matrix)
  average eigenvalue GAMMA=   0.6847
  2.2515  0.6124  0.5384  0.5384  0.2935  0.2935  0.2653

 Free energy of the ion-electron system (eV)
  ---------------------------------------------------
  alpha Z        PSCENC =       805.88142586
  Ewald energy   TEWEN  =    199921.17299199
  -Hartree energ DENC   =   -241999.93732761
  -exchange      EXHF   =         0.00000000
  -V(xc)+E(xc)   XCENC  =      -344.66042015
  PAW double counting   =     49219.51444943   -47303.71062792
  entropy T*S    EENTRO =        -0.25687490
  eigenvalues    EBANDS =     -2147.64098310
  atomic energy  EATOM  =     41659.78587232
  Solvation  Ediel_sol  =         0.00000000
  ---------------------------------------------------
  free energy    TOTEN  =      -189.85149409 eV

  energy without entropy =     -189.59461919  energy(sigma->0) =     -189.72305664


--------------------------------------------------------------------------------------------------------




----------------------------------------- Iteration    1(  13)  ---------------------------------------


    POTLOK:  cpu time    0.0399: real time    0.0400
    SETDIJ:  cpu time    0.0053: real time    0.0053
    EDDIAG:  cpu time    1.2859: real time    1.2898
  RMM-DIIS:  cpu time    3.4515: real time    3.4607
    ORTHCH:  cpu time    0.3486: real time    0.3495
       DOS:  cpu time    0.0014: real time    0.0014
    CHARGE:  cpu time    0.2248: real time    0.2253
    MIXING:  cpu time    0.0026: real time    0.0026
    --------------------------------------------
      LOOP:  cpu time    5.3608: real time    5.3784

 eigenvalue-minimisations  :  3680
 total energy-change (2. order) : 0.3478518E+00  (-0.1215944E+00)
 number of electron     503.9998357 magnetization 
 augmentation part      197.3879216 magnetization 

 DIPCOR: dipole corrections for dipol
 direction  3 min pos     1,
 dipolmoment           0.000000      0.000000     -0.019367 electrons x Angstroem
 Tr[quadrupol]    -10257.945534

 energy correction for charged system         0.000000 eV
 dipol+quadrupol energy correction           -0.000013 eV
 added-field ion interaction          0.003065 eV  (added to PSCEN)


 Broyden mixing:
  rms(total) = 0.65838E+00    rms(broyden)= 0.65828E+00
  rms(prec ) = 0.71798E+00
  weight for this iteration     100.00

 eigenvalues of (default mixing * dielectric matrix)
  average eigenvalue GAMMA=   0.6952
  2.2668  0.7221  0.7221  0.7374  0.3151  0.3151  0.2415  0.2415

 Free energy of the ion-electron system (eV)
  ---------------------------------------------------
  alpha Z        PSCENC =       805.87241638
  Ewald energy   TEWEN  =    199921.17299199
  -Hartree energ DENC   =   -242015.61494579
  -exchange      EXHF   =         0.00000000
  -V(xc)+E(xc)   XCENC  =      -344.46679362
  PAW double counting   =     49240.77386812   -47323.92479597
  entropy T*S    EENTRO =        -0.25193003
  eigenvalues    EBANDS =     -2132.85032571
  atomic energy  EATOM  =     41659.78587232
  Solvation  Ediel_sol  =         0.00000000
  ---------------------------------------------------
  free energy    TOTEN  =      -189.50364231 eV

  energy without entropy =     -189.25171228  energy(sigma->0) =     -189.37767729


--------------------------------------------------------------------------------------------------------




----------------------------------------- Iteration    1(  14)  ---------------------------------------


    POTLOK:  cpu time    0.0407: real time    0.0410
    SETDIJ:  cpu time    0.0051: real time    0.0051
    EDDIAG:  cpu time    1.2819: real time    1.2858
  RMM-DIIS:  cpu time    3.4461: real time    3.4554
    ORTHCH:  cpu time    0.3483: real time    0.3492
       DOS:  cpu time    0.0015: real time    0.0015
    CHARGE:  cpu time    0.2189: real time    0.2195
    MIXING:  cpu time    0.0028: real time    0.0028
    --------------------------------------------
      LOOP:  cpu time    5.3461: real time    5.3644

 eigenvalue-minimisations  :  3680
 total energy-change (2. order) :-0.1258255E+00  (-0.5857068E-01)
 number of electron     503.9998356 magnetization 
 augmentation part      197.2523562 magnetization 

 DIPCOR: dipole corrections for dipol
 direction  3 min pos     1,
 dipolmoment           0.000000      0.000000     -0.014652 electrons x Angstroem
 Tr[quadrupol]    -10258.213447

 energy correction for charged system         0.000000 eV
 dipol+quadrupol energy correction           -0.000008 eV
 added-field ion interaction          0.002319 eV  (added to PSCEN)


 Broyden mixing:
  rms(total) = 0.67477E+00    rms(broyden)= 0.67469E+00
  rms(prec ) = 0.75275E+00
  weight for this iteration     100.00

 eigenvalues of (default mixing * dielectric matrix)
  average eigenvalue GAMMA=   0.6762
  2.2734  0.8279  0.8279  0.7599  0.3385  0.3385  0.2620  0.2620  0.1955

 Free energy of the ion-electron system (eV)
  ---------------------------------------------------
  alpha Z        PSCENC =       805.87167589
  Ewald energy   TEWEN  =    199921.17299199
  -Hartree energ DENC   =   -242029.77971570
  -exchange      EXHF   =         0.00000000
  -V(xc)+E(xc)   XCENC  =      -344.30708176
  PAW double counting   =     49269.87153326   -47352.07955234
  entropy T*S    EENTRO =        -0.24769422
  eigenvalues    EBANDS =     -2119.91749720
  atomic energy  EATOM  =     41659.78587232
  Solvation  Ediel_sol  =         0.00000000
  ---------------------------------------------------
  free energy    TOTEN  =      -189.62946777 eV

  energy without entropy =     -189.38177355  energy(sigma->0) =     -189.50562066


--------------------------------------------------------------------------------------------------------




----------------------------------------- Iteration    1(  15)  ---------------------------------------


    POTLOK:  cpu time    0.0404: real time    0.0408
    SETDIJ:  cpu time    0.0056: real time    0.0056
    EDDIAG:  cpu time    1.2793: real time    1.2834
  RMM-DIIS:  cpu time    3.4275: real time    3.4367
    ORTHCH:  cpu time    0.3467: real time    0.3477
       DOS:  cpu time    0.0014: real time    0.0014
    CHARGE:  cpu time    0.2182: real time    0.2187
    MIXING:  cpu time    0.0030: real time    0.0030
    --------------------------------------------
      LOOP:  cpu time    5.3228: real time    5.3399

 eigenvalue-minimisations  :  3680
 total energy-change (2. order) : 0.2264319E+00  (-0.3361666E-01)
 number of electron     503.9998359 magnetization 
 augmentation part      197.2664947 magnetization 

 DIPCOR: dipole corrections for dipol
 direction  3 min pos     1,
 dipolmoment           0.000000      0.000000     -0.015801 electrons x Angstroem
 Tr[quadrupol]    -10258.350494

 energy correction for charged system         0.000000 eV
 dipol+quadrupol energy correction           -0.000009 eV
 added-field ion interaction          0.002501 eV  (added to PSCEN)


 Broyden mixing:
  rms(total) = 0.42741E+00    rms(broyden)= 0.42736E+00
  rms(prec ) = 0.46736E+00
  weight for this iteration     100.00

 eigenvalues of (default mixing * dielectric matrix)
  average eigenvalue GAMMA=   0.7050
  2.2423  1.0942  1.0942  0.7208  0.4359  0.4359  0.3132  0.2601  0.2601  0.1930

 Free energy of the ion-electron system (eV)
  ---------------------------------------------------
  alpha Z        PSCENC =       805.87185647
  Ewald energy   TEWEN  =    199921.17299199
  -Hartree energ DENC   =   -242036.71380958
  -exchange      EXHF   =         0.00000000
  -V(xc)+E(xc)   XCENC  =      -344.21586515
  PAW double counting   =     49282.25003834   -47363.91808837
  entropy T*S    EENTRO =        -0.26366660
  eigenvalues    EBANDS =     -2113.37236533
  atomic energy  EATOM  =     41659.78587232
  Solvation  Ediel_sol  =         0.00000000
  ---------------------------------------------------
  free energy    TOTEN  =      -189.40303591 eV

  energy without entropy =     -189.13936931  energy(sigma->0) =     -189.27120261


--------------------------------------------------------------------------------------------------------




----------------------------------------- Iteration    1(  16)  ---------------------------------------


    POTLOK:  cpu time    0.0403: real time    0.0403
    SETDIJ:  cpu time    0.0053: real time    0.0054
    EDDIAG:  cpu time    1.2815: real time    1.2848
  RMM-DIIS:  cpu time    3.4814: real time    3.4950
    ORTHCH:  cpu time    0.3464: real time    0.3473
       DOS:  cpu time    0.0015: real time    0.0015
    CHARGE:  cpu time    0.2217: real time    0.2222
    MIXING:  cpu time    0.0028: real time    0.0028
    --------------------------------------------
      LOOP:  cpu time    5.3817: real time    5.4045

 eigenvalue-minimisations  :  3679
 total energy-change (2. order) : 0.3327869E-01  (-0.2142433E-01)
 number of electron     503.9998358 magnetization 
 augmentation part      197.2123172 magnetization 

 DIPCOR: dipole corrections for dipol
 direction  3 min pos     1,
 dipolmoment           0.000000      0.000000     -0.027326 electrons x Angstroem
 Tr[quadrupol]    -10258.529557

 energy correction for charged system         0.000000 eV
 dipol+quadrupol energy correction           -0.000026 eV
 added-field ion interaction          0.004325 eV  (added to PSCEN)


 Broyden mixing:
  rms(total) = 0.38063E+00    rms(broyden)= 0.38057E+00
  rms(prec ) = 0.42585E+00
  weight for this iteration     100.00

 eigenvalues of (default mixing * dielectric matrix)
  average eigenvalue GAMMA=   0.7152
  2.2302  1.3492  1.3492  0.6209  0.6209  0.3939  0.3098  0.3098  0.2480  0.2480
  0.1880

 Free energy of the ion-electron system (eV)
  ---------------------------------------------------
  alpha Z        PSCENC =       805.87366309
  Ewald energy   TEWEN  =    199921.17299199
  -Hartree energ DENC   =   -242048.15008719
  -exchange      EXHF   =         0.00000000
  -V(xc)+E(xc)   XCENC  =      -344.00277425
  PAW double counting   =     49283.78830250   -47364.08751672
  entropy T*S    EENTRO =        -0.26118614
  eigenvalues    EBANDS =     -2103.48902282
  atomic energy  EATOM  =     41659.78587232
  Solvation  Ediel_sol  =         0.00000000
  ---------------------------------------------------
  free energy    TOTEN  =      -189.36975721 eV

  energy without entropy =     -189.10857108  energy(sigma->0) =     -189.23916415


--------------------------------------------------------------------------------------------------------




----------------------------------------- Iteration    1(  17)  ---------------------------------------


    POTLOK:  cpu time    0.0399: real time    0.0400
    SETDIJ:  cpu time    0.0051: real time    0.0051
    EDDIAG:  cpu time    1.2786: real time    1.2820
  RMM-DIIS:  cpu time    3.4931: real time    3.5023
    ORTHCH:  cpu time    0.3462: real time    0.3471
       DOS:  cpu time    0.0015: real time    0.0015
    CHARGE:  cpu time    0.2225: real time    0.2232
    MIXING:  cpu time    0.0030: real time    0.0030
    --------------------------------------------
      LOOP:  cpu time    5.3906: real time    5.4068

 eigenvalue-minimisations  :  3682
 total energy-change (2. order) : 0.1076188E+00  (-0.1495123E-01)
 number of electron     503.9998359 magnetization 
 augmentation part      197.1777249 magnetization 

 DIPCOR: dipole corrections for dipol
 direction  3 min pos     1,
 dipolmoment           0.000000      0.000000     -0.025219 electrons x Angstroem
 Tr[quadrupol]    -10258.862846

 energy correction for charged system         0.000000 eV
 dipol+quadrupol energy correction           -0.000022 eV
 added-field ion interaction          0.003992 eV  (added to PSCEN)


 Broyden mixing:
  rms(total) = 0.20187E+00    rms(broyden)= 0.20179E+00
  rms(prec ) = 0.22134E+00
  weight for this iteration     100.00

 eigenvalues of (default mixing * dielectric matrix)
  average eigenvalue GAMMA=   0.7292
  2.1640  1.5902  1.5902  0.6363  0.6363  0.4890  0.3540  0.3540  0.2588  0.2588
  0.2348  0.1842

 Free energy of the ion-electron system (eV)
  ---------------------------------------------------
  alpha Z        PSCENC =       805.87333357
  Ewald energy   TEWEN  =    199921.17299199
  -Hartree energ DENC   =   -242063.54756617
  -exchange      EXHF   =         0.00000000
  -V(xc)+E(xc)   XCENC  =      -343.85077842
  PAW double counting   =     49293.19037039   -47372.43424000
  entropy T*S    EENTRO =        -0.26742239
  eigenvalues    EBANDS =     -2089.18469975
  atomic energy  EATOM  =     41659.78587232
  Solvation  Ediel_sol  =         0.00000000
  ---------------------------------------------------
  free energy    TOTEN  =      -189.26213846 eV

  energy without entropy =     -188.99471607  energy(sigma->0) =     -189.12842727


--------------------------------------------------------------------------------------------------------




----------------------------------------- Iteration    1(  18)  ---------------------------------------


    POTLOK:  cpu time    0.0400: real time    0.0409
    SETDIJ:  cpu time    0.0051: real time    0.0051
    EDDIAG:  cpu time    1.2804: real time    1.2837
  RMM-DIIS:  cpu time    3.4737: real time    3.4828
    ORTHCH:  cpu time    0.3464: real time    0.3474
       DOS:  cpu time    0.0014: real time    0.0015
    CHARGE:  cpu time    0.2170: real time    0.2176
    MIXING:  cpu time    0.0032: real time    0.0032
    --------------------------------------------
      LOOP:  cpu time    5.3680: real time    5.3847

 eigenvalue-minimisations  :  3679
 total energy-change (2. order) : 0.2426090E-01  (-0.6412284E-02)
 number of electron     503.9998360 magnetization 
 augmentation part      197.1221320 magnetization 

 DIPCOR: dipole corrections for dipol
 direction  3 min pos     1,
 dipolmoment           0.000000      0.000000     -0.018118 electrons x Angstroem
 Tr[quadrupol]    -10259.044064

 energy correction for charged system         0.000000 eV
 dipol+quadrupol energy correction           -0.000012 eV
 added-field ion interaction          0.002868 eV  (added to PSCEN)


 Broyden mixing:
  rms(total) = 0.12713E+00    rms(broyden)= 0.12709E+00
  rms(prec ) = 0.14345E+00
  weight for this iteration     100.00

 eigenvalues of (default mixing * dielectric matrix)
  average eigenvalue GAMMA=   0.7198
  2.1279  1.9715  1.4458  0.6725  0.6725  0.5071  0.3700  0.3700  0.2848  0.2848
  0.2364  0.2293  0.1848

 Free energy of the ion-electron system (eV)
  ---------------------------------------------------
  alpha Z        PSCENC =       805.87222036
  Ewald energy   TEWEN  =    199921.17299199
  -Hartree energ DENC   =   -242073.51701312
  -exchange      EXHF   =         0.00000000
  -V(xc)+E(xc)   XCENC  =      -343.72425400
  PAW double counting   =     49300.04813957   -47378.47090971
  entropy T*S    EENTRO =        -0.26787160
  eigenvalues    EBANDS =     -2080.13705338
  atomic energy  EATOM  =     41659.78587232
  Solvation  Ediel_sol  =         0.00000000
  ---------------------------------------------------
  free energy    TOTEN  =      -189.23787756 eV

  energy without entropy =     -188.97000597  energy(sigma->0) =     -189.10394176


--------------------------------------------------------------------------------------------------------




----------------------------------------- Iteration    1(  19)  ---------------------------------------


    POTLOK:  cpu time    0.0402: real time    0.0411
    SETDIJ:  cpu time    0.0058: real time    0.0059
    EDDIAG:  cpu time    1.2793: real time    1.2827
  RMM-DIIS:  cpu time    3.3815: real time    3.4757
    ORTHCH:  cpu time    0.3478: real time    0.3486
       DOS:  cpu time    0.0014: real time    0.0014
    CHARGE:  cpu time    0.2171: real time    0.2176
    MIXING:  cpu time    0.0033: real time    0.0033
    --------------------------------------------
      LOOP:  cpu time    5.2770: real time    5.3797

 eigenvalue-minimisations  :  3681
 total energy-change (2. order) : 0.1645458E-01  (-0.1430499E-02)
 number of electron     503.9998360 magnetization 
 augmentation part      197.0925691 magnetization 

 DIPCOR: dipole corrections for dipol
 direction  3 min pos     1,
 dipolmoment           0.000000      0.000000     -0.013350 electrons x Angstroem
 Tr[quadrupol]    -10259.174984

 energy correction for charged system         0.000000 eV
 dipol+quadrupol energy correction           -0.000006 eV
 added-field ion interaction          0.002113 eV  (added to PSCEN)


 Broyden mixing:
  rms(total) = 0.66934E-01    rms(broyden)= 0.66918E-01
  rms(prec ) = 0.72506E-01
  weight for this iteration     100.00

 eigenvalues of (default mixing * dielectric matrix)
  average eigenvalue GAMMA=   0.7128
  2.2288  1.8848  1.5170  0.7153  0.7153  0.5127  0.4181  0.4181  0.3239  0.3239
  0.2576  0.2576  0.2225  0.1842

 Free energy of the ion-electron system (eV)
  ---------------------------------------------------
  alpha Z        PSCENC =       805.87147108
  Ewald energy   TEWEN  =    199921.17299199
  -Hartree energ DENC   =   -242079.11642012
  -exchange      EXHF   =         0.00000000
  -V(xc)+E(xc)   XCENC  =      -343.68379622
  PAW double counting   =     49304.84064798   -47383.01294664
  entropy T*S    EENTRO =        -0.26890065
  eigenvalues    EBANDS =     -2074.81034271
  atomic energy  EATOM  =     41659.78587232
  Solvation  Ediel_sol  =         0.00000000
  ---------------------------------------------------
  free energy    TOTEN  =      -189.22142298 eV

  energy without entropy =     -188.95252233  energy(sigma->0) =     -189.08697265


--------------------------------------------------------------------------------------------------------




----------------------------------------- Iteration    1(  20)  ---------------------------------------


    POTLOK:  cpu time    0.0408: real time    0.0410
    SETDIJ:  cpu time    0.0060: real time    0.0060
    EDDIAG:  cpu time    1.2804: real time    1.2861
  RMM-DIIS:  cpu time    3.4423: real time    3.4532
    ORTHCH:  cpu time    0.3475: real time    0.3484
       DOS:  cpu time    0.0015: real time    0.0015
    CHARGE:  cpu time    0.2157: real time    0.2216
    MIXING:  cpu time    0.0036: real time    0.0036
    --------------------------------------------
      LOOP:  cpu time    5.3385: real time    5.3650

 eigenvalue-minimisations  :  3681
 total energy-change (2. order) : 0.1864444E-02  (-0.4768224E-03)
 number of electron     503.9998360 magnetization 
 augmentation part      197.0787139 magnetization 

 DIPCOR: dipole corrections for dipol
 direction  3 min pos     1,
 dipolmoment           0.000000      0.000000     -0.017792 electrons x Angstroem
 Tr[quadrupol]    -10259.268130

 energy correction for charged system         0.000000 eV
 dipol+quadrupol energy correction           -0.000011 eV
 added-field ion interaction          0.002816 eV  (added to PSCEN)


 Broyden mixing:
  rms(total) = 0.55765E-01    rms(broyden)= 0.55761E-01
  rms(prec ) = 0.60629E-01
  weight for this iteration     100.00

 eigenvalues of (default mixing * dielectric matrix)
  average eigenvalue GAMMA=   0.7260
  2.2511  1.7100  1.7100  0.8404  0.8404  0.6995  0.4895  0.4895  0.3353  0.3353
  0.2665  0.2665  0.2511  0.2212  0.1843

 Free energy of the ion-electron system (eV)
  ---------------------------------------------------
  alpha Z        PSCENC =       805.87216923
  Ewald energy   TEWEN  =    199921.17299199
  -Hartree energ DENC   =   -242082.94018251
  -exchange      EXHF   =         0.00000000
  -V(xc)+E(xc)   XCENC  =      -343.66796448
  PAW double counting   =     49308.53247907   -47386.64719583
  entropy T*S    EENTRO =        -0.26972021
  eigenvalues    EBANDS =     -2071.05800811
  atomic energy  EATOM  =     41659.78587232
  Solvation  Ediel_sol  =         0.00000000
  ---------------------------------------------------
  free energy    TOTEN  =      -189.21955854 eV

  energy without entropy =     -188.94983832  energy(sigma->0) =     -189.08469843


--------------------------------------------------------------------------------------------------------




----------------------------------------- Iteration    1(  21)  ---------------------------------------


    POTLOK:  cpu time    0.0403: real time    0.0405
    SETDIJ:  cpu time    0.0052: real time    0.0053
    EDDIAG:  cpu time    1.2769: real time    1.2817
  RMM-DIIS:  cpu time    3.4599: real time    3.4691
    ORTHCH:  cpu time    0.3452: real time    0.3463
       DOS:  cpu time    0.0015: real time    0.0015
    CHARGE:  cpu time    0.2237: real time    0.2244
    MIXING:  cpu time    0.0037: real time    0.0038
    --------------------------------------------
      LOOP:  cpu time    5.3572: real time    5.3755

 eigenvalue-minimisations  :  3681
 total energy-change (2. order) :-0.6284905E-04  (-0.4082754E-03)
 number of electron     503.9998360 magnetization 
 augmentation part      197.0633282 magnetization 

 DIPCOR: dipole corrections for dipol
 direction  3 min pos     1,
 dipolmoment           0.000000      0.000000     -0.016553 electrons x Angstroem
 Tr[quadrupol]    -10259.370352

 energy correction for charged system         0.000000 eV
 dipol+quadrupol energy correction           -0.000010 eV
 added-field ion interaction          0.002620 eV  (added to PSCEN)


 Broyden mixing:
  rms(total) = 0.52282E-01    rms(broyden)= 0.52274E-01
  rms(prec ) = 0.58910E-01
  weight for this iteration     100.00

 eigenvalues of (default mixing * dielectric matrix)
  average eigenvalue GAMMA=   0.7590
  2.2934  1.9406  1.9406  1.1385  0.7738  0.7738  0.5573  0.5573  0.3488  0.3488
  0.3105  0.2609  0.2609  0.1844  0.2199  0.2350

 Free energy of the ion-electron system (eV)
  ---------------------------------------------------
  alpha Z        PSCENC =       805.87197456
  Ewald energy   TEWEN  =    199921.17299199
  -Hartree energ DENC   =   -242087.29660220
  -exchange      EXHF   =         0.00000000
  -V(xc)+E(xc)   XCENC  =      -343.64481859
  PAW double counting   =     49311.09205341   -47389.16584706
  entropy T*S    EENTRO =        -0.26915071
  eigenvalues    EBANDS =     -2066.76609511
  atomic energy  EATOM  =     41659.78587232
  Solvation  Ediel_sol  =         0.00000000
  ---------------------------------------------------
  free energy    TOTEN  =      -189.21962138 eV

  energy without entropy =     -188.95047068  energy(sigma->0) =     -189.08504603


--------------------------------------------------------------------------------------------------------




----------------------------------------- Iteration    1(  22)  ---------------------------------------


    POTLOK:  cpu time    0.0401: real time    0.0441
    SETDIJ:  cpu time    0.0050: real time    0.0051
    EDDIAG:  cpu time    1.2788: real time    1.2829
  RMM-DIIS:  cpu time    3.4622: real time    3.4713
    ORTHCH:  cpu time    0.3457: real time    0.3465
       DOS:  cpu time    0.0014: real time    0.0014
    CHARGE:  cpu time    0.2171: real time    0.2177
    MIXING:  cpu time    0.0040: real time    0.0040
    --------------------------------------------
      LOOP:  cpu time    5.3550: real time    5.3754

 eigenvalue-minimisations  :  3681
 total energy-change (2. order) : 0.1091484E-02  (-0.2533157E-03)
 number of electron     503.9998361 magnetization 
 augmentation part      197.0561049 magnetization 

 DIPCOR: dipole corrections for dipol
 direction  3 min pos     1,
 dipolmoment           0.000000      0.000000     -0.013776 electrons x Angstroem
 Tr[quadrupol]    -10259.491511

 energy correction for charged system         0.000000 eV
 dipol+quadrupol energy correction           -0.000007 eV
 added-field ion interaction          0.002180 eV  (added to PSCEN)


 Broyden mixing:
  rms(total) = 0.39126E-01    rms(broyden)= 0.39118E-01
  rms(prec ) = 0.45419E-01
  weight for this iteration     100.00

 eigenvalues of (default mixing * dielectric matrix)
  average eigenvalue GAMMA=   0.7624
  2.2966  2.1328  2.1328  1.2338  0.7472  0.7472  0.5835  0.5835  0.3685  0.3685
  0.2994  0.2994  0.2901  0.1844  0.2414  0.2414  0.2113

 Free energy of the ion-electron system (eV)
  ---------------------------------------------------
  alpha Z        PSCENC =       805.87153798
  Ewald energy   TEWEN  =    199921.17299199
  -Hartree energ DENC   =   -242092.21041419
  -exchange      EXHF   =         0.00000000
  -V(xc)+E(xc)   XCENC  =      -343.62648733
  PAW double counting   =     49313.08318759   -47391.17376102
  entropy T*S    EENTRO =        -0.26972401
  eigenvalues    EBANDS =     -2061.85173323
  atomic energy  EATOM  =     41659.78587232
  Solvation  Ediel_sol  =         0.00000000
  ---------------------------------------------------
  free energy    TOTEN  =      -189.21852990 eV

  energy without entropy =     -188.94880589  energy(sigma->0) =     -189.08366789


--------------------------------------------------------------------------------------------------------




----------------------------------------- Iteration    1(  23)  ---------------------------------------


    POTLOK:  cpu time    0.0407: real time    0.0408
    SETDIJ:  cpu time    0.0054: real time    0.0054
    EDDIAG:  cpu time    1.2739: real time    1.2779
  RMM-DIIS:  cpu time    3.4908: real time    3.5000
[...]
    275       1.7655      0.00000
    276       1.8448      0.00000
    277       2.1637      0.00000
    278       2.3188      0.00000
    279       2.3667      0.00000
    280       2.4004      0.00000
    281       2.4715      0.00000
    282       2.5003      0.00000
    283       2.7149      0.00000
    284       2.9628      0.00000
    285       3.1669      0.00000
    286       3.1894      0.00000
    287       3.5678      0.00000
    288       3.6294      0.00000
    289       3.8242      0.00000
    290       3.9890      0.00000
    291       4.1534      0.00000
    292       4.2123      0.00000
    293       4.4771      0.00000
    294       4.5670      0.00000
    295       4.6117      0.00000
    296       4.6384      0.00000
    297       4.7668      0.00000
    298       4.8539      0.00000
    299       4.8856      0.00000
    300       4.9433      0.00000
    301       4.9794      0.00000
    302       5.0444      0.00000
    303       5.0677      0.00000
    304       5.1058      0.00000
    305       5.1851      0.00000
    306       5.2375      0.00000


--------------------------------------------------------------------------------------------------------


 soft charge-density along one line, spin component           1
         0         1         2         3         4         5         6         7         8         9
 total charge-density along one line
 
 pseudopotential strength for first ion, spin component:           1
 -8.067   0.000   0.000  -0.001   0.000  -8.213   0.000   0.000
  0.000  -7.992   0.002   0.000  -0.003   0.000  -8.140   0.002
  0.000   0.002  -7.990   0.002   0.002   0.000   0.002  -8.138
 -0.001   0.000   0.002  -7.996   0.001  -0.001   0.000   0.002
  0.000  -0.003   0.002   0.001  -8.067   0.000  -0.003   0.002
 -8.213   0.000   0.000  -0.001   0.000  -8.343   0.000   0.000
  0.000  -8.140   0.002   0.000  -0.003   0.000  -8.271   0.002
  0.000   0.002  -8.138   0.002   0.002   0.000   0.002  -8.270
 -0.001   0.000   0.002  -8.144   0.001  -0.001   0.000   0.002
  0.000  -0.003   0.002   0.001  -8.213   0.000  -0.003   0.002
 -0.000  -0.001  -0.024  -0.000   0.001  -0.000  -0.001  -0.024
 -0.001  -0.001  -0.035  -0.001   0.002  -0.001  -0.001  -0.035
 -0.004  -0.005   0.001  -0.000   0.002  -0.004  -0.004   0.001
 -0.000  -0.002  -0.007  -0.003  -0.000  -0.000  -0.002  -0.007
 -0.001  -0.000   0.002  -0.005  -0.003  -0.001  -0.000   0.002
 -0.005  -0.005   0.001  -0.000   0.002  -0.005  -0.004   0.001
 -0.000  -0.002  -0.008  -0.004  -0.000  -0.000  -0.002  -0.007
 -0.002  -0.000   0.003  -0.005  -0.004  -0.002  -0.000   0.003
 total augmentation occupancy for first ion, spin component:           1
  4.492  -0.002   0.014   0.024   0.014  -2.668  -0.007  -0.011  -0.054  -0.010   0.014   0.009   0.097  -0.003  -0.028  -0.008
 -0.002   4.271  -0.056   0.009   0.065  -0.006  -2.001   0.060  -0.008  -0.093   0.057  -0.037  -0.143   0.018  -0.001   0.003
  0.014  -0.056   4.553   0.065  -0.185  -0.011   0.060  -2.456  -0.047   0.177   1.034  -0.166   0.011  -0.235  -0.032  -0.000
  0.024   0.009   0.065   4.077  -0.006  -0.053  -0.008  -0.047  -1.844   0.008   0.004   0.002  -0.002  -0.013  -0.131   0.000
  0.014   0.065  -0.185  -0.006   4.762  -0.010  -0.094   0.177   0.008  -2.930  -0.103   0.053  -0.027   0.015  -0.040   0.002
 -2.668  -0.006  -0.011  -0.053  -0.010   2.730   0.012   0.008   0.076   0.008  -0.010  -0.007  -0.082   0.002   0.026   0.004
 -0.007  -2.001   0.060  -0.008  -0.094   0.012   1.705  -0.062   0.007   0.116  -0.047   0.032   0.133  -0.015   0.001  -0.005
 -0.011   0.060  -2.456  -0.047   0.177   0.008  -0.062   2.300   0.033  -0.170  -0.973   0.186  -0.009   0.245   0.027   0.001
 -0.054  -0.008  -0.047  -1.844   0.008   0.076   0.007   0.033   1.579  -0.010  -0.001  -0.004   0.001   0.010   0.123  -0.000
 -0.010  -0.093   0.177   0.008  -2.930   0.008   0.116  -0.170  -0.010   2.982   0.095  -0.050   0.025  -0.012   0.034  -0.001
  0.014   0.057   1.034   0.004  -0.103  -0.010  -0.047  -0.973  -0.001   0.095   2.496  -0.548  -0.002   0.117  -0.014  -0.000
  0.009  -0.037  -0.166   0.002   0.053  -0.007   0.032   0.186  -0.004  -0.050  -0.548   0.161   0.003  -0.051   0.014  -0.000
  0.097  -0.143   0.011  -0.002  -0.027  -0.082   0.133  -0.009   0.001   0.025  -0.002   0.003   0.197  -0.001  -0.001  -0.006
 -0.003   0.018  -0.235  -0.013   0.015   0.002  -0.015   0.245   0.010  -0.012   0.117  -0.051  -0.001   0.097   0.001   0.000
 -0.028  -0.001  -0.032  -0.131  -0.040   0.026   0.001   0.027   0.123   0.034  -0.014   0.014  -0.001   0.001   0.205   0.000
 -0.008   0.003  -0.000   0.000   0.002   0.004  -0.005   0.001  -0.000  -0.001  -0.000  -0.000  -0.006   0.000   0.000   0.000
  0.000  -0.003  -0.001  -0.003  -0.001  -0.000   0.001  -0.006   0.001   0.000  -0.008   0.002   0.000  -0.003  -0.000  -0.000
 -0.001   0.000   0.004   0.002  -0.002  -0.001  -0.000  -0.002  -0.005  -0.001   0.000  -0.001   0.000  -0.000  -0.007   0.000


------------------------ aborting loop because EDIFF is reached ----------------------------------------


    CHARGE:  cpu time    0.2159: real time    0.2165
    FORLOC:  cpu time    0.0159: real time    0.0159
    FORNL :  cpu time    1.3115: real time    1.3148
    FORCOR:  cpu time    0.0557: real time    0.0570
    FORHAR:  cpu time    0.0241: real time    0.0242
    MIXING:  cpu time    0.0028: real time    0.0028
    OFIELD:  cpu time    0.0000: real time    0.0000

 VOLUME and BASIS-vectors are now :
 -----------------------------------------------------------------------------
  energy-cutoff  :      400.00
  volume of cell :     2567.68
      direct lattice vectors                 reciprocal lattice vectors
    11.002581515  0.000000000  0.000000000     0.090887761 -0.052474073  0.000000000
     5.501290758  9.528515099  0.000000000     0.000000000  0.104948147  0.000000000
     0.000000000  0.000000000 24.491785094     0.000000000  0.000000000  0.040830017

  length of vectors
    11.002581515 11.002581515 24.491785094     0.104948147  0.104948147  0.040830017


 FORCES acting on ions
    electron-ion (+dipol)            ewald-force                    non-local-force                 convergence-correction
 -----------------------------------------------------------------------------------------------
   -.155E+02 -.379E+01 0.222E+04   0.160E+02 0.398E+01 -.221E+04   -.288E+00 -.915E-01 -.390E+00   0.385E-02 0.314E-02 0.185E-02
   -.898E+01 -.113E+02 0.222E+04   0.957E+01 0.120E+02 -.223E+04   -.354E+00 -.472E+00 0.211E+00   -.931E-02 0.122E-02 -.112E-02
   0.453E+01 -.379E+01 -.226E+04   -.470E+01 0.385E+01 0.226E+04   0.159E+00 -.631E-01 0.370E+00   0.102E-01 -.367E-03 0.589E-03
   -.652E+01 0.902E+01 0.222E+04   0.650E+01 -.972E+01 -.222E+04   0.613E-01 0.453E+00 -.417E+00   -.524E-02 -.624E-03 0.386E-02
   0.137E+02 -.210E+01 -.227E+04   -.145E+02 0.194E+01 0.227E+04   0.719E+00 0.151E+00 -.218E+00   -.489E-02 -.477E-02 -.651E-02
   0.495E+01 0.400E+01 0.136E+02   -.558E+01 -.381E+01 -.141E+02   0.645E+00 -.202E+00 0.535E+00   -.489E-02 -.901E-02 -.757E-02
   0.113E+01 0.746E+01 -.225E+04   -.110E+01 -.776E+01 0.225E+04   -.317E-01 0.300E+00 0.212E+00   0.847E-04 -.316E-02 -.843E-02
   0.567E+01 0.153E+01 -.223E+04   -.605E+01 -.191E+01 0.223E+04   0.392E+00 0.387E+00 0.248E+00   -.114E-01 -.305E-02 -.676E-02
   -.138E+01 -.192E-01 -.181E+01   0.740E+00 -.373E+00 0.645E+00   0.647E+00 0.394E+00 0.116E+01   -.194E-01 0.492E-02 0.137E-02
   0.102E+01 0.429E+01 -.227E+04   -.122E+01 -.421E+01 0.227E+04   0.193E+00 -.864E-01 0.382E-01   -.870E-02 0.515E-02 -.294E-02
   0.956E+00 0.957E+01 0.440E+01   -.995E+00 -.972E+01 -.422E+01   0.364E-01 0.147E+00 -.185E+00   -.105E-01 0.629E-02 -.486E-02
   -.676E+01 -.581E+01 -.227E+04   0.719E+01 0.603E+01 0.227E+04   -.445E+00 -.220E+00 -.455E-01   0.533E-02 0.977E-02 0.987E-03
   -.666E+01 0.205E+02 0.222E+04   0.707E+01 -.213E+02 -.222E+04   -.241E+00 0.490E+00 0.169E+00   -.418E-03 -.311E-03 0.584E-03
   0.774E+01 0.222E+01 -.116E+02   -.695E+01 -.261E+01 0.118E+02   -.787E+00 0.379E+00 -.198E+00   -.567E-02 -.852E-02 -.134E-01
   -.344E+01 0.628E+01 -.223E+04   0.335E+01 -.660E+01 0.223E+04   0.896E-01 0.312E+00 0.173E+00   -.250E-02 -.987E-02 -.164E-02
   0.112E+01 -.113E+02 0.223E+04   -.129E+01 0.118E+02 -.223E+04   0.132E+00 -.386E+00 -.203E-01   0.943E-02 0.465E-02 0.516E-02
   -.439E+00 0.645E+01 0.207E+02   0.723E+00 -.605E+01 -.206E+02   -.280E+00 -.405E+00 -.377E-01   0.151E-01 0.507E-02 0.238E-02
   -.119E+02 0.100E+01 -.228E+04   0.121E+02 -.111E+01 0.228E+04   -.245E+00 0.873E-01 -.576E-01   0.755E-02 0.972E-02 0.658E-02
   0.186E+02 -.709E+01 0.221E+04   -.195E+02 0.764E+01 -.221E+04   0.648E+00 -.389E+00 -.825E+00   0.686E-02 -.300E-02 -.280E-02
   -.101E+01 -.429E+01 -.221E+04   0.122E+01 0.485E+01 0.221E+04   -.213E+00 -.566E+00 0.595E+00   -.233E-02 -.322E-02 -.976E-02
   -.838E+01 -.131E+02 0.222E+04   0.902E+01 0.134E+02 -.222E+04   -.475E+00 -.163E+00 -.471E-01   0.954E-02 0.639E-02 0.282E-02
   0.558E+01 -.483E+01 -.668E+01   -.538E+01 0.405E+01 0.732E+01   -.208E+00 0.761E+00 -.634E+00   0.981E-02 0.171E-01 0.210E-02
   0.187E+02 0.802E+01 0.222E+04   -.196E+02 -.818E+01 -.222E+04   0.536E+00 0.995E-01 -.193E+00   -.176E-02 -.941E-02 -.237E-03
   -.237E+01 -.437E+01 -.228E+02   0.265E+01 0.494E+01 0.228E+02   -.290E+00 -.576E+00 -.460E-01   0.599E-02 0.274E-02 0.147E-02
   0.292E+01 -.439E+01 0.345E+01   -.261E+01 0.389E+01 -.390E+01   -.317E+00 0.491E+00 0.432E+00   0.472E-02 0.366E-02 0.378E-02
   0.174E+02 -.268E+01 0.202E+04   -.178E+02 0.259E+01 -.202E+04   0.238E+00 0.784E-01 -.164E+01   0.390E-02 0.446E-02 -.224E-02
   0.188E+01 0.123E+01 -.241E+02   -.228E+01 -.823E+00 0.247E+02   0.401E+00 -.409E+00 -.540E+00   0.367E-02 -.942E-03 -.352E-02
   0.264E+01 0.124E+01 0.202E+04   -.233E+01 -.133E+01 -.202E+04   -.266E+00 0.949E-01 -.170E+01   -.496E-02 -.451E-02 -.161E-02
   0.129E+01 0.776E+01 0.203E+04   -.131E+01 -.798E+01 -.203E+04   -.266E-01 0.145E+00 -.164E+01   -.350E-03 0.383E-02 -.478E-03
   -.780E+00 -.587E+01 -.197E+04   0.108E+01 0.594E+01 0.197E+04   -.316E+00 -.587E-01 0.152E+01   0.926E-02 -.570E-02 0.246E-02
   -.109E+02 0.790E+01 0.203E+04   0.112E+02 -.801E+01 -.203E+04   -.208E+00 0.542E-01 -.137E+01   0.376E-02 0.119E-02 0.266E-02
   -.104E+02 0.174E+01 -.105E+02   0.983E+01 -.134E+01 0.106E+02   0.608E+00 -.423E+00 -.280E-01   0.461E-03 0.612E-02 -.153E-01
   -.135E+02 0.120E+01 -.196E+04   0.138E+02 -.104E+01 0.195E+04   -.318E+00 -.170E+00 0.159E+01   0.228E-02 0.945E-02 -.648E-02
   0.328E+01 0.106E+01 0.206E+02   -.353E+01 -.981E+00 -.215E+02   0.263E+00 -.535E-01 0.857E+00   -.131E-01 -.569E-02 0.784E-02
   -.654E+00 0.835E+00 0.203E+04   0.674E+00 -.853E+00 -.202E+04   0.698E-02 0.100E-01 -.192E+01   -.179E-02 -.745E-02 0.390E-02
   0.292E+01 0.335E+01 -.197E+04   -.287E+01 -.357E+01 0.196E+04   -.589E-01 0.206E+00 0.175E+01   0.135E-02 0.679E-02 -.250E-01
   -.133E+01 0.567E+01 -.195E+04   0.137E+01 -.576E+01 0.195E+04   -.451E-01 0.996E-01 0.162E+01   0.388E-02 -.110E-02 -.172E-01
   -.248E+01 -.369E+01 -.198E+04   0.258E+01 0.375E+01 0.198E+04   -.108E+00 -.710E-01 0.179E+01   0.669E-02 0.117E-01 -.139E-01
   0.521E+00 0.309E+01 -.135E+02   -.441E+00 -.279E+01 0.145E+02   -.969E-01 -.296E+00 -.937E+00   0.849E-02 0.372E-02 -.117E-01
   -.490E+01 -.358E+01 0.271E+02   0.514E+01 0.401E+01 -.271E+02   -.250E+00 -.428E+00 -.157E-01   0.358E-02 -.187E-02 -.187E-02
   -.696E+01 0.887E-01 0.203E+04   0.708E+01 -.143E+00 -.203E+04   0.130E-01 0.405E-01 -.187E+01   -.995E-03 -.171E-02 0.619E-02
   -.629E+00 -.173E+02 0.202E+04   0.307E+00 0.177E+02 -.202E+04   0.241E+00 -.203E+00 -.171E+01   -.406E-02 0.303E-02 0.465E-02
   -.768E+01 -.668E+01 0.227E+02   0.761E+01 0.628E+01 -.226E+02   0.717E-01 0.380E+00 -.522E-01   0.362E-02 0.853E-02 -.831E-02
   0.529E+01 0.392E+00 0.318E+02   -.535E+01 -.375E+00 -.318E+02   0.590E-01 -.216E-01 0.166E-01   -.221E-02 -.218E-02 -.198E-02
   0.130E+02 -.657E+01 -.195E+04   -.133E+02 0.690E+01 0.195E+04   0.290E+00 -.337E+00 0.184E+01   0.765E-02 0.814E-02 -.192E-01
   -.248E+01 -.563E+01 0.263E+02   0.291E+01 0.520E+01 -.268E+02   -.436E+00 0.427E+00 0.412E+00   0.276E-02 -.435E-02 0.309E-02
   0.467E+01 0.116E+02 0.203E+04   -.467E+01 -.118E+02 -.203E+04   -.400E-01 0.633E-01 -.131E+01   -.722E-02 -.900E-03 0.171E-02
   -.368E+01 0.551E+00 -.200E+04   0.360E+01 -.590E+00 0.200E+04   0.759E-01 0.329E-01 0.124E+01   0.477E-02 -.378E-02 0.691E-03
 -----------------------------------------------------------------------------------------------
   -.230E+00 -.386E-01 0.133E+01   -.355E-12 -.312E-12 -.136E-11   0.179E+00 -.521E-02 -.125E+01   0.328E-01 0.513E-01 -.128E+00
 
 
 POSITION                                       TOTAL-FORCE (eV/Angst)
 -----------------------------------------------------------------------------------
      1.37532      0.79404     10.00000         0.240273      0.101803     -0.139986
      5.50129      3.17617     10.00000         0.222703      0.237479     -0.269718
     -0.00805      0.00379     14.94938        -0.005379     -0.000374      0.006638
      4.12597      0.79404     10.00000         0.038179     -0.238643     -0.119812
      2.72082      4.75566     15.00616        -0.004342     -0.010004      0.001156
     13.72560      6.34850     12.42656         0.006214     -0.016833     -0.002671
      2.74704     -0.01068     14.95958        -0.005411     -0.007588      0.004587
     12.35411      7.12828     14.93288        -0.005025      0.003811      0.003252
      4.10430      3.94757     12.43610        -0.010285      0.006634     -0.002778
      4.11542      2.38497     15.01095        -0.008001     -0.005078      0.002333
      5.49573      6.33820     12.44436        -0.012973     -0.000031     -0.009088
      5.50939      4.77053     15.00494        -0.003569      0.010212      0.003198
      5.50129      7.94043     10.00000         0.160197     -0.357615     -0.267389
      5.52730      1.56754     12.45880        -0.002975     -0.013089      0.005677
      5.49571     -0.01098     14.93685        -0.000227     -0.014336      0.003539
      9.62726      5.55830     10.00000        -0.027992      0.194629     -0.325719
      8.26167      6.35177     12.42583         0.018751      0.000936     -0.003502
      8.26497      4.76268     14.98023        -0.007205     -0.008366     -0.001956
      9.62726      0.79404     10.00000        -0.332391      0.165425     -0.081086
      8.25004      0.01566     14.89500        -0.002888     -0.006489      0.003119
     11.00258      3.17617     10.00000         0.175589      0.142600     -0.207052
      9.62456      3.94135     12.45720        -0.002947     -0.007873      0.010854
     13.75323      7.94043     10.00000        -0.312352     -0.069598     -0.171446
      6.89441      8.75244     12.47400        -0.000553     -0.001897     -0.003248
      6.88960      3.95167     12.44352        -0.002190     -0.003801     -0.011361
      8.25194      3.17617     10.00000        -0.168237     -0.012020      0.230279
     15.11017      8.76072     12.47687         0.006751     -0.005808     -0.000118
      6.87661      0.79404     10.00000         0.036274      0.003677      0.211789
      6.87661      5.55830     10.00000        -0.042527     -0.072424      0.168611
      4.12362      7.13957     14.83003        -0.002485      0.000398     -0.005631
      8.25194      7.94043     10.00000         0.074373     -0.051417      0.179361
      2.74395      1.59311     12.45664         0.005012     -0.012110      0.012570
      6.88796      2.39270     14.81007         0.003380     -0.002661      0.001242
     12.37251      8.72600     12.42014         0.001692      0.016951     -0.006298
     11.00258      7.94043     10.00000         0.025226     -0.015959      0.252702
     10.99437      4.75264     14.80052        -0.006926     -0.009980      0.003365
      9.61947      7.13167     14.78662        -0.002750      0.003558     -0.006576
      9.62672      2.38596     14.81590        -0.007857     -0.003282      0.003014
     11.00741      1.58151     12.46538        -0.008501      0.004090      0.001277
     11.01554      6.35891     12.41746        -0.011405      0.004087      0.000507
     12.37790      5.55830     10.00000         0.124487     -0.015690      0.167976
      2.75065      3.17617     10.00000        -0.083696      0.221693      0.211756
     12.37045      3.95548     12.42142         0.009045     -0.008776      0.006476
      8.26096      1.56438     12.41231         0.002946     -0.007339      0.001724
      1.35584      2.38843     14.78528        -0.002432      0.002253      0.010500
      9.65560      8.72694     12.41376        -0.008813     -0.003348     -0.002042
      4.12597      5.55830     10.00000        -0.050361     -0.127960      0.126670
      6.87184      7.14063     14.85274        -0.008397     -0.009851      0.003306
 -----------------------------------------------------------------------------------
    total drift:                               -0.017631      0.007533     -0.046342


--------------------------------------------------------------------------------------------------------



  FREE ENERGIE OF THE ION-ELECTRON SYSTEM (eV)
  ---------------------------------------------------
  free  energy   TOTEN  =      -192.57148375 eV

  energy  without entropy=     -192.33779218  energy(sigma->0) =     -192.45463796
 
 d Force = 0.7186872E-03[ 0.102E-03, 0.134E-02]  d Energy = 0.6964248E-03 0.223E-04
 d Force = 0.3873366E+02[ 0.387E+02, 0.387E+02]  d Ewald  = 0.3873366E+02-0.405E-05


--------------------------------------------------------------------------------------------------------


    POTLOK:  cpu time    0.0493: real time    0.0495


--------------------------------------------------------------------------------------------------------


 stress matrix after NEB project (eV)
      0.00000      0.00000      0.00000
      0.00000      0.00000      0.00000
      0.00000      0.00000      0.00000
  FORCES: max atom, RMS     0.019098    0.009834
  FORCE total and by dimension    0.068131    0.018751
  Stress total and by dimension    0.000000    0.000000
 Conjugate gradient step on ions:
 trial-energy change:   -0.000696  1 .order   -0.000719   -0.001335   -0.000102
  (g-gl).g = 0.415E-03      g.g   = 0.487E-03  gl.gl    = 0.110E-02
 g(Force)  = 0.487E-03   g(Stress)= 0.000E+00 ortho     = 0.215E-04
 gamma     =   0.37648
 trial     =   2.69819
 opt step  =   2.95103  (harmonic =   2.92109) maximal distance =0.00470367
 next E    =  -192.571489   (d E  =  -0.00070)


--------------------------------------------------------------------------------------------------------


  
 reached required accuracy - stopping structural energy minimisation
     LOOP+:  cpu time   54.6044: real time   54.8902
    4ORBIT:  cpu time    0.0000: real time    0.0000

 total amount of memory used by VASP on root node    84353. kBytes
========================================================================

   base      :      30000. kBytes
   nonlr-proj:       4285. kBytes
   fftplans  :       4447. kBytes
   grid      :       6721. kBytes
   one-center:        124. kBytes
   wavefun   :      38776. kBytes
 
  
  
 General timing and accounting informations for this job:
 ========================================================
  
                  Total CPU time used (sec):     1347.260
                            User time (sec):     1284.611
                          System time (sec):       62.649
                         Elapsed time (sec):     1356.746
  
                   Maximum memory used (kb):      757664.
                   Average memory used (kb):           0.
  
                          Minor page faults:       616727
                          Major page faults:            0
                 Voluntary context switches:         8476
