       N       E                     dE             d eps       ncg     rms          rms(c)
DAV:   1     0.361281220417E+04    0.36128E+04   -0.21012E+05  4092   0.112E+03
DAV:   2     0.500313153376E+02   -0.35628E+04   -0.33136E+04  4824   0.271E+02
DAV:   3    -0.253885798659E+03   -0.30392E+03   -0.28289E+03  4584   0.755E+01
DAV:   4    -0.264615945751E+03   -0.10730E+02   -0.10562E+02  4476   0.149E+01
DAV:   5    -0.264905536704E+03   -0.28959E+00   -0.28898E+00  4548   0.238E+00    0.671E+01
RMM:   6    -0.250633293837E+03    0.14272E+02   -0.15837E+02  4038   0.189E+01    0.573E+01
RMM:   7    -0.288226576077E+03   -0.37593E+02   -0.77932E+01  4032   0.114E+01    0.748E+01
RMM:   8    -0.242828484449E+03    0.45398E+02   -0.20499E+01  4032   0.640E+00    0.366E+01
RMM:   9    -0.252041385691E+03   -0.92129E+01   -0.58955E+01  4036   0.121E+01    0.421E+01
RMM:  10    -0.242039418370E+03    0.10002E+02   -0.24660E+01  4035   0.726E+00    0.269E+01
RMM:  11    -0.234190163141E+03    0.78493E+01   -0.52238E+00  4035   0.372E+00    0.110E+01
RMM:  12    -0.233242837189E+03    0.94733E+00   -0.48189E+00  4037   0.327E+00    0.115E+01
RMM:  13    -0.232421558980E+03    0.82128E+00   -0.10347E+00  4038   0.150E+00    0.798E+00
RMM:  14    -0.232156177799E+03    0.26538E+00   -0.42875E-01  4035   0.969E-01    0.512E+00
RMM:  15    -0.232072638451E+03    0.83539E-01   -0.27932E-01  4036   0.810E-01    0.356E+00
RMM:  16    -0.232006593083E+03    0.66045E-01   -0.48780E-02  4036   0.357E-01    0.237E+00
RMM:  17    -0.231984384335E+03    0.22209E-01   -0.24616E-02  4037   0.239E-01    0.197E+00
RMM:  18    -0.231966005947E+03    0.18378E-01   -0.28790E-02  4035   0.256E-01    0.143E+00
RMM:  19    -0.231955998795E+03    0.10007E-01   -0.17467E-02  4035   0.200E-01    0.852E-01
RMM:  20    -0.231952439338E+03    0.35595E-02   -0.42991E-03  4038   0.952E-02    0.584E-01
RMM:  21    -0.231952135682E+03    0.30366E-03   -0.30665E-03  4035   0.805E-02    0.448E-01
RMM:  22    -0.231951116996E+03    0.10187E-02   -0.10170E-03  4036   0.456E-02    0.237E-01
RMM:  23    -0.231951372768E+03   -0.25577E-03   -0.60992E-04  4038   0.354E-02    0.138E-01
RMM:  24    -0.231951636802E+03   -0.26403E-03   -0.23828E-04  4036   0.226E-02    0.101E-01
RMM:  25    -0.231951824673E+03   -0.18787E-03   -0.79239E-05  4036   0.136E-02    0.696E-02
RMM:  26    -0.231952105255E+03   -0.28058E-03   -0.52413E-05  4032   0.109E-02    0.579E-02
RMM:  27    -0.231952451670E+03   -0.34641E-03   -0.43664E-05  4032   0.905E-03    0.313E-02
RMM:  28    -0.231952654457E+03   -0.20279E-03   -0.17394E-05  4026   0.569E-03    0.135E-02
RMM:  29    -0.231952792483E+03   -0.13803E-03   -0.66229E-06  3133   0.339E-03    0.135E-02
RMM:  30    -0.231953042037E+03   -0.24955E-03   -0.96719E-06  3469   0.396E-03    0.143E-02
RMM:  31    -0.231953373690E+03   -0.33165E-03   -0.22374E-05  3915   0.532E-03    0.136E-02
RMM:  32    -0.231953440154E+03   -0.66463E-04   -0.42577E-06  2847   0.229E-03    0.103E-02
RMM:  33    -0.231953504249E+03   -0.64095E-04   -0.24615E-06  2606   0.183E-03    0.606E-03
RMM:  34    -0.231953575559E+03   -0.71311E-04   -0.47812E-06  2965   0.232E-03    0.490E-03
RMM:  35    -0.231953605763E+03   -0.30204E-04   -0.22679E-06  2597   0.165E-03    0.340E-03
RMM:  36    -0.231953620825E+03   -0.15062E-04   -0.51729E-07  2352   0.950E-04    0.379E-03
RMM:  37    -0.231953634133E+03   -0.13308E-04   -0.22541E-07  2200   0.723E-04    0.325E-03
RMM:  38    -0.231953645784E+03   -0.11651E-04   -0.15722E-07  2222   0.659E-04    0.244E-03
RMM:  39    -0.231953660597E+03   -0.14814E-04   -0.28009E-07  2323   0.905E-04    0.119E-03
RMM:  40    -0.231953664438E+03   -0.38405E-05   -0.85190E-08  1152   0.427E-04    0.671E-04
RMM:  41    -0.231953666841E+03   -0.24035E-05   -0.74800E-08  1569   0.478E-04    0.421E-04
RMM:  42    -0.231953667477E+03   -0.63547E-06   -0.22260E-08   934   0.314E-04
   1 F= -.23195367E+03 E0= -.23185122E+03  d E =-.231954E+03
       N       E                     dE             d eps       ncg     rms          rms(c)
DAV:   1    -0.231958077810E+03   -0.44110E-02   -0.15942E+00  4152   0.207E+00    0.235E-01
RMM:   2    -0.231961746376E+03   -0.36686E-02   -0.31554E-02  4038   0.318E-01    0.381E-01
RMM:   3    -0.231961248045E+03    0.49833E-03   -0.19360E-03  4043   0.697E-02    0.290E-01
RMM:   4    -0.231961231613E+03    0.16432E-04   -0.85698E-04  4044   0.441E-02    0.297E-01
RMM:   5    -0.231960629830E+03    0.60178E-03   -0.39286E-04  4038   0.307E-02    0.146E-01
RMM:   6    -0.231960607304E+03    0.22526E-04   -0.31058E-04  4038   0.272E-02    0.104E-01
RMM:   7    -0.231960561768E+03    0.45536E-04   -0.15742E-04  4038   0.193E-02    0.435E-02
RMM:   8    -0.231960548670E+03    0.13098E-04   -0.25314E-05  4036   0.785E-03    0.260E-02
RMM:   9    -0.231960545503E+03    0.31672E-05   -0.46781E-06  3194   0.342E-03    0.169E-02
RMM:  10    -0.231960544011E+03    0.14916E-05   -0.29102E-06  2452   0.276E-03    0.141E-02
RMM:  11    -0.231960543366E+03    0.64563E-06   -0.52737E-06  3566   0.351E-03
   2 F= -.23196054E+03 E0= -.23185806E+03  d E =-.687589E-02
       N       E                     dE             d eps       ncg     rms          rms(c)
DAV:   1    -0.231951384112E+03    0.91599E-02   -0.10794E+01  4176   0.538E+00    0.612E-01
RMM:   2    -0.231975822734E+03   -0.24439E-01   -0.21294E-01  4038   0.825E-01    0.945E-01
RMM:   3    -0.231973663961E+03    0.21588E-02   -0.13325E-02  4043   0.183E-01    0.792E-01
RMM:   4    -0.231972718645E+03    0.94532E-03   -0.57442E-03  4044   0.114E-01    0.760E-01
RMM:   5    -0.231968783103E+03    0.39355E-02   -0.26567E-03  4038   0.802E-02    0.360E-01
RMM:   6    -0.231968885996E+03   -0.10289E-03   -0.22420E-03  4038   0.736E-02    0.360E-01
RMM:   7    -0.231968500448E+03    0.38555E-03   -0.12047E-03  4038   0.538E-02    0.239E-01
RMM:   8    -0.231968143105E+03    0.35734E-03   -0.38779E-04  4039   0.306E-02    0.786E-02
RMM:   9    -0.231968110523E+03    0.32582E-04   -0.55655E-05  4038   0.119E-02    0.402E-02
RMM:  10    -0.231968101534E+03    0.89891E-05   -0.21948E-05  4032   0.704E-03    0.297E-02
RMM:  11    -0.231968099750E+03    0.17839E-05   -0.36337E-05  4038   0.873E-03    0.228E-02
RMM:  12    -0.231968099527E+03    0.22243E-06   -0.14936E-05  4026   0.557E-03    0.104E-02
RMM:  13    -0.231968100877E+03   -0.13502E-05   -0.18589E-06  2357   0.231E-03    0.660E-03
RMM:  14    -0.231968101914E+03   -0.10361E-05   -0.58378E-07  2195   0.136E-03    0.235E-03
RMM:  15    -0.231968103124E+03   -0.12108E-05   -0.19158E-07  2172   0.735E-04    0.145E-03
RMM:  16    -0.231968105365E+03   -0.22409E-05   -0.13841E-07  2001   0.541E-04    0.156E-03
RMM:  17    -0.231968106541E+03   -0.11755E-05   -0.42764E-08  1028   0.405E-04    0.616E-04
RMM:  18    -0.231968107834E+03   -0.12928E-05   -0.44374E-08  1025   0.399E-04    0.521E-04
RMM:  19    -0.231968108901E+03   -0.10674E-05   -0.54518E-08  1028   0.391E-04    0.360E-04
RMM:  20    -0.231968110336E+03   -0.14349E-05   -0.10168E-07  1330   0.433E-04    0.322E-04
RMM:  21    -0.231968111119E+03   -0.78275E-06   -0.64573E-08   996   0.367E-04
   3 F= -.23196811E+03 E0= -.23186547E+03  d E =-.144436E-01
       N       E                     dE             d eps       ncg     rms          rms(c)
DAV:   1    -0.231970826520E+03   -0.27162E-02   -0.83217E-01  4176   0.151E+00    0.147E-01
RMM:   2    -0.231972486911E+03   -0.16604E-02   -0.16651E-02  4038   0.230E-01    0.164E-01
RMM:   3    -0.231972472998E+03    0.13913E-04   -0.99221E-04  4043   0.501E-02    0.187E-01
RMM:   4    -0.231972471106E+03    0.18923E-05   -0.29548E-04  4056   0.257E-02    0.191E-01
RMM:   5    -0.231972186573E+03    0.28453E-03   -0.13182E-04  4039   0.178E-02    0.707E-02
RMM:   6    -0.231972211282E+03   -0.24709E-04   -0.11225E-04  4038   0.162E-02    0.720E-02
RMM:   7    -0.231972212332E+03   -0.10496E-05   -0.96433E-05  4038   0.147E-02    0.722E-02
RMM:   8    -0.231972177181E+03    0.35150E-04   -0.34394E-05  4032   0.925E-03    0.179E-02
RMM:   9    -0.231972176951E+03    0.23010E-06   -0.48602E-06  3168   0.368E-03
   4 F= -.23197218E+03 E0= -.23186946E+03  d E =-.406583E-02
       N       E                     dE             d eps       ncg     rms          rms(c)
DAV:   1    -0.231965970812E+03    0.62064E-02   -0.74889E+00  4056   0.453E+00    0.442E-01
RMM:   2    -0.231980776459E+03   -0.14806E-01   -0.14995E-01  4038   0.688E-01    0.451E-01
RMM:   3    -0.231979848418E+03    0.92804E-03   -0.88461E-03  4043   0.149E-01    0.424E-01
RMM:   4    -0.231980601164E+03   -0.75275E-03   -0.21275E-03  4054   0.705E-02    0.536E-01
RMM:   5    -0.231978439898E+03    0.21613E-02   -0.10256E-03  4040   0.479E-02    0.239E-01
RMM:   6    -0.231978407980E+03    0.31918E-04   -0.94710E-04  4038   0.484E-02    0.182E-01
RMM:   7    -0.231978305817E+03    0.10216E-03   -0.83408E-04  4037   0.439E-02    0.124E-01
RMM:   8    -0.231978216206E+03    0.89611E-04   -0.16103E-04  4037   0.199E-02    0.638E-02
RMM:   9    -0.231978194695E+03    0.21511E-04   -0.36266E-05  4032   0.949E-03    0.377E-02
RMM:  10    -0.231978188959E+03    0.57359E-05   -0.12766E-05  4020   0.559E-03    0.226E-02
RMM:  11    -0.231978190114E+03   -0.11552E-05   -0.11964E-05  4032   0.510E-03    0.176E-02
RMM:  12    -0.231978194466E+03   -0.43523E-05   -0.11658E-05  4012   0.497E-03    0.109E-02
RMM:  13    -0.231978196977E+03   -0.25109E-05   -0.21482E-06  2397   0.239E-03    0.558E-03
RMM:  14    -0.231978198700E+03   -0.17224E-05   -0.51463E-07  2206   0.127E-03    0.224E-03
RMM:  15    -0.231978200562E+03   -0.18621E-05   -0.15194E-07  2170   0.643E-04    0.131E-03
RMM:  16    -0.231978203995E+03   -0.34333E-05   -0.20479E-07  2204   0.615E-04    0.121E-03
RMM:  17    -0.231978206554E+03   -0.25589E-05   -0.87098E-08  1303   0.453E-04    0.719E-04
RMM:  18    -0.231978208340E+03   -0.17865E-05   -0.59867E-08  1121   0.417E-04    0.493E-04
RMM:  19    -0.231978210450E+03   -0.21095E-05   -0.13019E-07  1523   0.442E-04    0.458E-04
RMM:  20    -0.231978212125E+03   -0.16748E-05   -0.74488E-08  1105   0.395E-04    0.295E-04
RMM:  21    -0.231978213082E+03   -0.95765E-06   -0.89020E-08  1109   0.383E-04
   5 F= -.23197821E+03 E0= -.23187526E+03  d E =-.101020E-01
       N       E                     dE             d eps       ncg     rms          rms(c)
DAV:   1    -0.231980416537E+03   -0.22044E-02   -0.87470E-01  4152   0.157E+00    0.171E-01
RMM:   2    -0.231982200984E+03   -0.17844E-02   -0.18139E-02  4039   0.236E-01    0.175E-01
RMM:   3    -0.231982262193E+03   -0.61209E-04   -0.10811E-03  4045   0.532E-02    0.191E-01
RMM:   4    -0.231982484839E+03   -0.22265E-03   -0.45913E-04  4048   0.310E-02    0.260E-01
RMM:   5    -0.231981946915E+03    0.53792E-03   -0.22541E-04  4039   0.233E-02    0.116E-01
RMM:   6    -0.231981940116E+03    0.67982E-05   -0.13215E-04  4038   0.178E-02    0.932E-02
RMM:   7    -0.231981924437E+03    0.15680E-04   -0.10215E-04  4038   0.158E-02    0.698E-02
RMM:   8    -0.231981895222E+03    0.29215E-04   -0.37395E-05  4034   0.970E-03    0.218E-02
RMM:   9    -0.231981893081E+03    0.21409E-05   -0.52993E-06  3370   0.367E-03    0.127E-02
RMM:  10    -0.231981891944E+03    0.11368E-05   -0.16798E-06  2221   0.218E-03    0.784E-03
RMM:  11    -0.231981891578E+03    0.36567E-06   -0.18049E-06  2184   0.217E-03
   6 F= -.23198189E+03 E0= -.23187886E+03  d E =-.367850E-02
       N       E                     dE             d eps       ncg     rms          rms(c)
DAV:   1    -0.231975665041E+03    0.62269E-02   -0.69950E+00  4032   0.443E+00    0.484E-01
RMM:   2    -0.231990138209E+03   -0.14473E-01   -0.14537E-01  4039   0.669E-01    0.510E-01
RMM:   3    -0.231991043516E+03   -0.90531E-03   -0.87318E-03  4045   0.151E-01    0.588E-01
RMM:   4    -0.231991963430E+03   -0.91991E-03   -0.37073E-03  4048   0.884E-02    0.721E-01
RMM:   5    -0.231987979907E+03    0.39835E-02   -0.18266E-03  4039   0.672E-02    0.320E-01
RMM:   6    -0.231987868743E+03    0.11116E-03   -0.10641E-03  4038   0.505E-02    0.258E-01
RMM:   7    -0.231987742220E+03    0.12652E-03   -0.81966E-04  4038   0.447E-02    0.204E-01
RMM:   8    -0.231987494908E+03    0.24731E-03   -0.29074E-04  4038   0.271E-02    0.637E-02
RMM:   9    -0.231987475843E+03    0.19065E-04   -0.43560E-05  4038   0.104E-02    0.370E-02
RMM:  10    -0.231987466639E+03    0.92043E-05   -0.14637E-05  4032   0.602E-03    0.222E-02
RMM:  11    -0.231987463986E+03    0.26528E-05   -0.15091E-05  4032   0.564E-03    0.154E-02
RMM:  12    -0.231987464000E+03   -0.14115E-07   -0.89800E-06  4018   0.439E-03
   7 F= -.23198746E+03 E0= -.23188414E+03  d E =-.925092E-02
       N       E                     dE             d eps       ncg     rms          rms(c)
DAV:   1    -0.231986818390E+03    0.64560E-03   -0.56232E-01  4104   0.126E+00    0.138E-01
RMM:   2    -0.231987960393E+03   -0.11420E-02   -0.11659E-02  4039   0.190E-01    0.140E-01
RMM:   3    -0.231987996951E+03   -0.36558E-04   -0.69305E-04  4044   0.427E-02    0.154E-01
RMM:   4    -0.231988158987E+03   -0.16204E-03   -0.29552E-04  4049   0.249E-02    0.214E-01
RMM:   5    -0.231987795889E+03    0.36310E-03   -0.14660E-04  4039   0.189E-02    0.888E-02
RMM:   6    -0.231987795543E+03    0.34507E-06   -0.87923E-05  4038   0.145E-02    0.738E-02
RMM:   7    -0.231987788602E+03    0.69410E-05   -0.64998E-05  4038   0.126E-02    0.583E-02
RMM:   8    -0.231987768531E+03    0.20071E-04   -0.23923E-05  4032   0.781E-03    0.188E-02
RMM:   9    -0.231987767145E+03    0.13858E-05   -0.35793E-06  2772   0.307E-03    0.103E-02
RMM:  10    -0.231987766721E+03    0.42448E-06   -0.11932E-06  2182   0.189E-03
   8 F= -.23198777E+03 E0= -.23188437E+03  d E =-.955364E-02
       N       E                     dE             d eps       ncg     rms          rms(c)
DAV:   1    -0.231988271184E+03   -0.50404E-03   -0.20229E+00  4032   0.236E+00    0.220E-01
RMM:   2    -0.231992207106E+03   -0.39359E-02   -0.38649E-02  4038   0.349E-01    0.252E-01
RMM:   3    -0.231991935971E+03    0.27114E-03   -0.22193E-03  4046   0.759E-02    0.217E-01
RMM:   4    -0.231992195852E+03   -0.25988E-03   -0.61720E-04  4054   0.375E-02    0.282E-01
RMM:   5    -0.231991517968E+03    0.67788E-03   -0.28523E-04  4045   0.247E-02    0.137E-01
RMM:   6    -0.231991522695E+03   -0.47270E-05   -0.17441E-04  4038   0.212E-02    0.124E-01
RMM:   7    -0.231991483393E+03    0.39302E-04   -0.19545E-04  4038   0.214E-02    0.827E-02
RMM:   8    -0.231991441192E+03    0.42201E-04   -0.91207E-05  4038   0.149E-02    0.271E-02
RMM:   9    -0.231991437320E+03    0.38719E-05   -0.13055E-05  4026   0.566E-03    0.165E-02
RMM:  10    -0.231991434945E+03    0.23747E-05   -0.27659E-06  2446   0.264E-03    0.917E-03
RMM:  11    -0.231991434665E+03    0.28017E-06   -0.32923E-06  2570   0.285E-03
   9 F= -.23199143E+03 E0= -.23188791E+03  d E =-.366794E-02
       N       E                     dE             d eps       ncg     rms          rms(c)
DAV:   1    -0.231975070340E+03    0.16365E-01   -0.13920E+01  4032   0.618E+00    0.576E-01
RMM:   2    -0.232002102434E+03   -0.27032E-01   -0.26544E-01  4038   0.915E-01    0.659E-01
RMM:   3    -0.232000030800E+03    0.20716E-02   -0.15084E-02  4046   0.198E-01    0.551E-01
RMM:   4    -0.232001408011E+03   -0.13772E-02   -0.40162E-03  4052   0.969E-02    0.680E-01
RMM:   5    -0.231997594574E+03    0.38134E-02   -0.18634E-03  4043   0.623E-02    0.390E-01
RMM:   6    -0.231997351555E+03    0.24302E-03   -0.11479E-03  4038   0.544E-02    0.324E-01
RMM:   7    -0.231997088437E+03    0.26312E-03   -0.13748E-03  4037   0.569E-02    0.216E-01
RMM:   8    -0.231996789492E+03    0.29894E-03   -0.63389E-04  4038   0.392E-02    0.717E-02
RMM:   9    -0.231996762055E+03    0.27437E-04   -0.90506E-05  4039   0.148E-02    0.446E-02
RMM:  10    -0.231996743978E+03    0.18077E-04   -0.21457E-05  4032   0.701E-03    0.240E-02
RMM:  11    -0.231996742336E+03    0.16423E-05   -0.22244E-05  4036   0.681E-03    0.190E-02
RMM:  12    -0.231996743128E+03   -0.79259E-06   -0.14743E-05  4020   0.561E-03    0.108E-02
RMM:  13    -0.231996743505E+03   -0.37669E-06   -0.20557E-06  2389   0.242E-03
  10 F= -.23199674E+03 E0= -.23189284E+03  d E =-.897678E-02
       N       E                     dE             d eps       ncg     rms          rms(c)
DAV:   1    -0.231994894891E+03    0.18482E-02   -0.13683E+00  4032   0.194E+00    0.180E-01
RMM:   2    -0.231997543977E+03   -0.26491E-02   -0.26079E-02  4038   0.287E-01    0.205E-01
RMM:   3    -0.231997433552E+03    0.11042E-03   -0.15087E-03  4046   0.625E-02    0.195E-01
RMM:   4    -0.231997550167E+03   -0.11661E-03   -0.44170E-04  4053   0.315E-02    0.239E-01
RMM:   5    -0.231997079398E+03    0.47077E-03   -0.20127E-04  4042   0.211E-02    0.117E-01
RMM:   6    -0.231997079056E+03    0.34159E-06   -0.11677E-04  4038   0.175E-02    0.992E-02
RMM:   7    -0.231997055396E+03    0.23661E-04   -0.13812E-04  4037   0.180E-02    0.651E-02
RMM:   8    -0.231997029093E+03    0.26302E-04   -0.63004E-05  4038   0.123E-02    0.222E-02
RMM:   9    -0.231997026720E+03    0.23730E-05   -0.88824E-06  3941   0.466E-03    0.136E-02
RMM:  10    -0.231997025472E+03    0.12486E-05   -0.18998E-06  2322   0.220E-03    0.759E-03
RMM:  11    -0.231997025858E+03   -0.38615E-06   -0.21473E-06  2254   0.234E-03
  11 F= -.23199703E+03 E0= -.23189301E+03  d E =-.925914E-02
       N       E                     dE             d eps       ncg     rms          rms(c)
DAV:   1    -0.231993107238E+03    0.39182E-02   -0.52221E+00  4032   0.380E+00    0.379E-01
RMM:   2    -0.232004466944E+03   -0.11360E-01   -0.10370E-01  4040   0.568E-01    0.550E-01
RMM:   3    -0.232004538502E+03   -0.71557E-04   -0.60047E-03  4045   0.124E-01    0.568E-01
RMM:   4    -0.232003594952E+03    0.94355E-03   -0.25885E-03  4050   0.769E-02    0.516E-01
RMM:   5    -0.232001720277E+03    0.18747E-02   -0.91814E-04  4039   0.499E-02    0.220E-01
RMM:   6    -0.232001776857E+03   -0.56580E-04   -0.77861E-04  4038   0.428E-02    0.209E-01
RMM:   7    -0.232001583808E+03    0.19305E-03   -0.56461E-04  4038   0.366E-02    0.113E-01
RMM:   8    -0.232001506925E+03    0.76883E-04   -0.12763E-04  4038   0.169E-02    0.682E-02
RMM:   9    -0.232001489596E+03    0.17329E-04   -0.24475E-05  4032   0.791E-03    0.367E-02
RMM:  10    -0.232001480828E+03    0.87677E-05   -0.11248E-05  4026   0.523E-03    0.272E-02
RMM:  11    -0.232001477287E+03    0.35409E-05   -0.10859E-05  4007   0.484E-03    0.159E-02
RMM:  12    -0.232001477062E+03    0.22558E-06   -0.87058E-06  4006   0.429E-03
  12 F= -.23200148E+03 E0= -.23189729E+03  d E =-.445120E-02
       N       E                     dE             d eps       ncg     rms          rms(c)
DAV:   1    -0.231996481058E+03    0.49962E-02   -0.38542E+00  4032   0.327E+00    0.324E-01
RMM:   2    -0.232004783439E+03   -0.83024E-02   -0.76374E-02  4039   0.488E-01    0.457E-01
RMM:   3    -0.232005064533E+03   -0.28109E-03   -0.44722E-03  4043   0.107E-01    0.503E-01
RMM:   4    -0.232004082850E+03    0.98168E-03   -0.18805E-03  4051   0.656E-02    0.429E-01
RMM:   5    -0.232002832281E+03    0.12506E-02   -0.66828E-04  4039   0.427E-02    0.184E-01
RMM:   6    -0.232002897590E+03   -0.65309E-04   -0.58442E-04  4038   0.374E-02    0.200E-01
RMM:   7    -0.232002771320E+03    0.12627E-03   -0.40726E-04  4038   0.310E-02    0.126E-01
RMM:   8    -0.232002677180E+03    0.94140E-04   -0.13234E-04  4038   0.174E-02    0.621E-02
RMM:   9    -0.232002659114E+03    0.18066E-04   -0.24352E-05  4032   0.797E-03    0.300E-02
RMM:  10    -0.232002653511E+03    0.56038E-05   -0.80757E-06  4003   0.437E-03    0.219E-02
RMM:  11    -0.232002651380E+03    0.21309E-05   -0.80014E-06  3975   0.417E-03    0.137E-02
RMM:  12    -0.232002651416E+03   -0.36700E-07   -0.62899E-06  3789   0.367E-03
  13 F= -.23200265E+03 E0= -.23189831E+03  d E =-.562556E-02
       N       E                     dE             d eps       ncg     rms          rms(c)
DAV:   1    -0.231997631282E+03    0.50201E-02   -0.58718E+00  4032   0.398E+00    0.406E-01
RMM:   2    -0.232009159451E+03   -0.11528E-01   -0.11394E-01  4041   0.601E-01    0.459E-01
RMM:   3    -0.232008292824E+03    0.86663E-03   -0.70857E-03  4044   0.135E-01    0.431E-01
RMM:   4    -0.232009022636E+03   -0.72981E-03   -0.18954E-03  4059   0.669E-02    0.560E-01
RMM:   5    -0.232006840543E+03    0.21821E-02   -0.71307E-04  4042   0.437E-02    0.176E-01
RMM:   6    -0.232007348677E+03   -0.50813E-03   -0.83871E-04  4038   0.440E-02    0.256E-01
RMM:   7    -0.232006998589E+03    0.35009E-03   -0.66136E-04  4038   0.382E-02    0.200E-01
RMM:   8    -0.232006759848E+03    0.23874E-03   -0.31083E-04  4038   0.280E-02    0.522E-02
RMM:   9    -0.232006754864E+03    0.49847E-05   -0.41656E-05  4038   0.105E-02    0.339E-02
RMM:  10    -0.232006748932E+03    0.59315E-05   -0.10049E-05  4001   0.496E-03    0.220E-02
RMM:  11    -0.232006747710E+03    0.12225E-05   -0.11933E-05  4032   0.508E-03    0.162E-02
RMM:  12    -0.232006747611E+03    0.99048E-07   -0.64871E-06  3811   0.373E-03
  14 F= -.23200675E+03 E0= -.23190235E+03  d E =-.409619E-02
       N       E                     dE             d eps       ncg     rms          rms(c)
DAV:   1    -0.232003172106E+03    0.35756E-02   -0.28126E+00  4032   0.276E+00    0.281E-01
RMM:   2    -0.232008668834E+03   -0.54967E-02   -0.54522E-02  4041   0.416E-01    0.311E-01
RMM:   3    -0.232008276044E+03    0.39279E-03   -0.34278E-03  4044   0.935E-02    0.297E-01
RMM:   4    -0.232008600343E+03   -0.32430E-03   -0.89533E-04  4059   0.460E-02    0.382E-01
RMM:   5    -0.232007566616E+03    0.10337E-02   -0.33859E-04  4043   0.300E-02    0.117E-01
RMM:   6    -0.232007788879E+03   -0.22226E-03   -0.39886E-04  4038   0.305E-02    0.170E-01
RMM:   7    -0.232007652336E+03    0.13654E-03   -0.30717E-04  4038   0.260E-02    0.139E-01
RMM:   8    -0.232007537976E+03    0.11436E-03   -0.14405E-04  4038   0.191E-02    0.364E-02
RMM:   9    -0.232007535880E+03    0.20967E-05   -0.20868E-05  4026   0.747E-03    0.234E-02
RMM:  10    -0.232007533367E+03    0.25122E-05   -0.47847E-06  3254   0.347E-03    0.154E-02
RMM:  11    -0.232007533421E+03   -0.53282E-07   -0.51990E-06  3540   0.345E-03
  15 F= -.23200753E+03 E0= -.23190312E+03  d E =-.488200E-02
       N       E                     dE             d eps       ncg     rms          rms(c)
DAV:   1    -0.232003837490E+03    0.36959E-02   -0.40509E+00  4032   0.341E+00    0.342E-01
RMM:   2    -0.232012195455E+03   -0.83580E-02   -0.82938E-02  4040   0.502E-01    0.348E-01
RMM:   3    -0.232013947948E+03   -0.17525E-02   -0.51871E-03  4044   0.114E-01    0.624E-01
RMM:   4    -0.232011499244E+03    0.24487E-02   -0.15160E-03  4057   0.600E-02    0.338E-01
RMM:   5    -0.232010729209E+03    0.77003E-03   -0.63059E-04  4038   0.416E-02    0.135E-01
RMM:   6    -0.232010825227E+03   -0.96018E-04   -0.55480E-04  4038   0.362E-02    0.151E-01
RMM:   7    -0.232010686817E+03    0.13841E-03   -0.35342E-04  4037   0.287E-02    0.906E-02
RMM:   8    -0.232010659414E+03    0.27404E-04   -0.88084E-05  4037   0.149E-02    0.534E-02
RMM:   9    -0.232010642705E+03    0.16709E-04   -0.20185E-05  4027   0.703E-03    0.279E-02
RMM:  10    -0.232010637575E+03    0.51304E-05   -0.75596E-06  3931   0.430E-03    0.163E-02
RMM:  11    -0.232010636271E+03    0.13036E-05   -0.56144E-06  3607   0.347E-03    0.115E-02
RMM:  12    -0.232010636009E+03    0.26208E-06   -0.51986E-06  3475   0.343E-03
  16 F= -.23201064E+03 E0= -.23190625E+03  d E =-.310259E-02
       N       E                     dE             d eps       ncg     rms          rms(c)
DAV:   1    -0.232002627821E+03    0.80085E-02   -0.54289E+00  4032   0.395E+00    0.395E-01
RMM:   2    -0.232013826027E+03   -0.11198E-01   -0.11110E-01  4041   0.581E-01    0.406E-01
RMM:   3    -0.232015750872E+03   -0.19248E-02   -0.68902E-03  4043   0.132E-01    0.684E-01
RMM:   4    -0.232013061534E+03    0.26893E-02   -0.20192E-03  4058   0.688E-02    0.411E-01
RMM:   5    -0.232011844037E+03    0.12175E-02   -0.88440E-04  4038   0.488E-02    0.161E-01
RMM:   6    -0.232011959303E+03   -0.11527E-03   -0.73632E-04  4038   0.418E-02    0.175E-01
RMM:   7    -0.232011780877E+03    0.17843E-03   -0.47161E-04  4037   0.331E-02    0.107E-01
RMM:   8    -0.232011740797E+03    0.40080E-04   -0.12459E-04  4037   0.177E-02    0.628E-02
RMM:   9    -0.232011717905E+03    0.22891E-04   -0.28238E-05  4036   0.830E-03    0.330E-02
RMM:  10    -0.232011710662E+03    0.72430E-05   -0.10502E-05  4028   0.508E-03    0.190E-02
RMM:  11    -0.232011708874E+03    0.17881E-05   -0.74150E-06  3958   0.395E-03    0.135E-02
RMM:  12    -0.232011708416E+03    0.45883E-06   -0.72397E-06  3942   0.393E-03
  17 F= -.23201171E+03 E0= -.23190734E+03  d E =-.417499E-02
       N       E                     dE             d eps       ncg     rms          rms(c)
DAV:   1    -0.232005608968E+03    0.60999E-02   -0.53742E+00  4032   0.394E+00    0.420E-01
RMM:   2    -0.232018609072E+03   -0.13000E-01   -0.11566E-01  4039   0.588E-01    0.684E-01
RMM:   3    -0.232015484818E+03    0.31243E-02   -0.69360E-03  4044   0.134E-01    0.344E-01
RMM:   4    -0.232016001520E+03   -0.51670E-03   -0.18345E-03  4050   0.686E-02    0.462E-01
RMM:   5    -0.232015458085E+03    0.54343E-03   -0.89331E-04  4040   0.465E-02    0.314E-01
RMM:   6    -0.232015231022E+03    0.22706E-03   -0.71887E-04  4038   0.397E-02    0.257E-01
RMM:   7    -0.232014884834E+03    0.34619E-03   -0.62429E-04  4037   0.382E-02    0.163E-01
RMM:   8    -0.232014730438E+03    0.15440E-03   -0.31556E-04  4038   0.278E-02    0.507E-02
RMM:   9    -0.232014717128E+03    0.13310E-04   -0.39461E-05  4039   0.100E-02    0.325E-02
RMM:  10    -0.232014710540E+03    0.65881E-05   -0.85064E-06  3975   0.459E-03    0.188E-02
RMM:  11    -0.232014709142E+03    0.13986E-05   -0.94841E-06  4024   0.454E-03    0.168E-02
RMM:  12    -0.232014708496E+03    0.64537E-06   -0.72385E-06  3918   0.393E-03
  18 F= -.23201471E+03 E0= -.23191037E+03  d E =-.300008E-02
       N       E                     dE             d eps       ncg     rms          rms(c)
DAV:   1    -0.232009564649E+03    0.51445E-02   -0.34046E+00  4032   0.313E+00    0.334E-01
RMM:   2    -0.232017753601E+03   -0.81890E-02   -0.73174E-02  4039   0.468E-01    0.540E-01
RMM:   3    -0.232015787591E+03    0.19660E-02   -0.43909E-03  4044   0.107E-01    0.267E-01
RMM:   4    -0.232015987996E+03   -0.20040E-03   -0.11331E-03  4050   0.543E-02    0.342E-01
RMM:   5    -0.232015685000E+03    0.30300E-03   -0.50090E-04  4040   0.350E-02    0.227E-01
RMM:   6    -0.232015832503E+03   -0.14750E-03   -0.47713E-04  4038   0.318E-02    0.246E-01
RMM:   7    -0.232015434505E+03    0.39800E-03   -0.41697E-04  4037   0.309E-02    0.132E-01
RMM:   8    -0.232015338316E+03    0.96189E-04   -0.20078E-04  4038   0.222E-02    0.417E-02
RMM:   9    -0.232015329121E+03    0.91954E-05   -0.25734E-05  4032   0.808E-03    0.262E-02
RMM:  10    -0.232015325232E+03    0.38888E-05   -0.53234E-06  3471   0.366E-03    0.153E-02
RMM:  11    -0.232015324629E+03    0.60321E-06   -0.61308E-06  3821   0.370E-03
  19 F= -.23201532E+03 E0= -.23191097E+03  d E =-.361621E-02
       N       E                     dE             d eps       ncg     rms          rms(c)
DAV:   1    -0.232010247117E+03    0.50781E-02   -0.41755E+00  4032   0.345E+00    0.329E-01
RMM:   2    -0.232018672372E+03   -0.84253E-02   -0.85364E-02  4038   0.511E-01    0.322E-01
RMM:   3    -0.232018152519E+03    0.51985E-03   -0.46629E-03  4043   0.110E-01    0.304E-01
RMM:   4    -0.232017756700E+03    0.39582E-03   -0.90836E-04  4052   0.485E-02    0.234E-01
RMM:   5    -0.232017925180E+03   -0.16848E-03   -0.46438E-04  4040   0.316E-02    0.283E-01
RMM:   6    -0.232017459310E+03    0.46587E-03   -0.43468E-04  4038   0.322E-02    0.137E-01
RMM:   7    -0.232017436269E+03    0.23041E-04   -0.40886E-04  4036   0.310E-02    0.117E-01
RMM:   8    -0.232017361744E+03    0.74526E-04   -0.12815E-04  4036   0.170E-02    0.609E-02
RMM:   9    -0.232017341119E+03    0.20625E-04   -0.27498E-05  4032   0.863E-03    0.265E-02
RMM:  10    -0.232017335157E+03    0.59617E-05   -0.77241E-06  3990   0.437E-03    0.171E-02
RMM:  11    -0.232017333111E+03    0.20454E-05   -0.56217E-06  3575   0.353E-03    0.117E-02
RMM:  12    -0.232017332974E+03    0.13784E-06   -0.64192E-06  3954   0.375E-03
  20 F= -.23201733E+03 E0= -.23191278E+03  d E =-.200834E-02
       N       E                     dE             d eps       ncg     rms          rms(c)
DAV:   1    -0.232017006563E+03    0.32655E-03   -0.22608E-01  4176   0.804E-01    0.762E-02
RMM:   2    -0.232017455781E+03   -0.44922E-03   -0.46008E-03  4038   0.119E-01    0.729E-02
RMM:   3    -0.232017430796E+03    0.24985E-04   -0.25101E-04  4043   0.256E-02    0.727E-02
RMM:   4    -0.232017411778E+03    0.19019E-04   -0.51302E-05  4052   0.115E-02    0.592E-02
RMM:   5    -0.232017415144E+03   -0.33662E-05   -0.24918E-05  4034   0.745E-03    0.628E-02
RMM:   6    -0.232017396195E+03    0.18949E-04   -0.24146E-05  4032   0.762E-03    0.347E-02
RMM:   7    -0.232017396065E+03    0.12982E-06   -0.21881E-05  4032   0.708E-03    0.317E-02
RMM:   8    -0.232017390243E+03    0.58223E-05   -0.87064E-06  3990   0.444E-03    0.136E-02
RMM:   9    -0.232017389222E+03    0.10215E-05   -0.15154E-06  2234   0.214E-03    0.569E-03
RMM:  10    -0.232017388988E+03    0.23363E-06   -0.47122E-07  2130   0.120E-03
  21 F= -.23201739E+03 E0= -.23191280E+03  d E =-.206436E-02
       N       E                     dE             d eps       ncg     rms          rms(c)
DAV:   1    -0.232014866259E+03    0.25230E-02   -0.27784E+00  4032   0.274E+00    0.264E-01
RMM:   2    -0.232020539962E+03   -0.56737E-02   -0.53301E-02  4040   0.411E-01    0.360E-01
RMM:   3    -0.232019951608E+03    0.58835E-03   -0.34294E-03  4043   0.926E-02    0.278E-01
RMM:   4    -0.232020351747E+03   -0.40014E-03   -0.97155E-04  4049   0.469E-02    0.344E-01
RMM:   5    -0.232019354890E+03    0.99686E-03   -0.43461E-04  4039   0.307E-02    0.184E-01
RMM:   6    -0.232019288371E+03    0.66519E-04   -0.22392E-04  4038   0.235E-02    0.125E-01
RMM:   7    -0.232019276787E+03    0.11584E-04   -0.28892E-04  4034   0.265E-02    0.102E-01
RMM:   8    -0.232019217410E+03    0.59376E-04   -0.18187E-04  4038   0.210E-02    0.342E-02
RMM:   9    -0.232019210765E+03    0.66449E-05   -0.19516E-05  4026   0.707E-03    0.190E-02
RMM:  10    -0.232019207031E+03    0.37348E-05   -0.46554E-06  3263   0.342E-03    0.121E-02
RMM:  11    -0.232019206275E+03    0.75601E-06   -0.42546E-06  3016   0.323E-03
  22 F= -.23201921E+03 E0= -.23191447E+03  d E =-.181729E-02
       N       E                     dE             d eps       ncg     rms          rms(c)
DAV:   1    -0.232014303803E+03    0.49032E-02   -0.33656E+00  4032   0.302E+00    0.290E-01
RMM:   2    -0.232021154889E+03   -0.68511E-02   -0.64539E-02  4040   0.453E-01    0.391E-01
RMM:   3    -0.232020488264E+03    0.66663E-03   -0.41375E-03  4043   0.102E-01    0.308E-01
RMM:   4    -0.232020973686E+03   -0.48542E-03   -0.11720E-03  4049   0.514E-02    0.383E-01
RMM:   5    -0.232019718253E+03    0.12554E-02   -0.51916E-04  4039   0.337E-02    0.194E-01
RMM:   6    -0.232019668966E+03    0.49286E-04   -0.27914E-04  4038   0.263E-02    0.142E-01
RMM:   7    -0.232019646437E+03    0.22529E-04   -0.34831E-04  4034   0.291E-02    0.112E-01
RMM:   8    -0.232019574595E+03    0.71841E-04   -0.22316E-04  4038   0.233E-02    0.359E-02
RMM:   9    -0.232019567596E+03    0.69991E-05   -0.22442E-05  4032   0.758E-03    0.208E-02
RMM:  10    -0.232019563308E+03    0.42884E-05   -0.55451E-06  3524   0.373E-03    0.129E-02
RMM:  11    -0.232019562712E+03    0.59602E-06   -0.54710E-06  3657   0.352E-03
  23 F= -.23201956E+03 E0= -.23191466E+03  d E =-.217372E-02
       N       E                     dE             d eps       ncg     rms          rms(c)
DAV:   1    -0.232017229302E+03    0.23340E-02   -0.21367E+00  4032   0.249E+00    0.237E-01
RMM:   2    -0.232021823790E+03   -0.45945E-02   -0.44316E-02  4040   0.365E-01    0.310E-01
RMM:   3    -0.232021678906E+03    0.14488E-03   -0.25103E-03  4043   0.806E-02    0.325E-01
RMM:   4    -0.232021791505E+03   -0.11260E-03   -0.75404E-04  4052   0.428E-02    0.327E-01
RMM:   5    -0.232021013442E+03    0.77806E-03   -0.34812E-04  4039   0.302E-02    0.125E-01
RMM:   6    -0.232021046631E+03   -0.33188E-04   -0.20919E-04  4038   0.219E-02    0.125E-01
RMM:   7    -0.232020984246E+03    0.62384E-04   -0.24128E-04  4037   0.234E-02    0.794E-02
RMM:   8    -0.232020943589E+03    0.40657E-04   -0.10459E-04  4038   0.158E-02    0.271E-02
RMM:   9    -0.232020939885E+03    0.37044E-05   -0.10863E-05  4009   0.517E-03    0.176E-02
RMM:  10    -0.232020937610E+03    0.22750E-05   -0.26216E-06  2415   0.267E-03    0.119E-02
RMM:  11    -0.232020937132E+03    0.47807E-06   -0.23057E-06  2255   0.256E-03
  24 F= -.23202094E+03 E0= -.23191593E+03  d E =-.137442E-02
       N       E                     dE             d eps       ncg     rms          rms(c)
DAV:   1    -0.232016466616E+03    0.44710E-02   -0.31723E+00  4032   0.304E+00    0.290E-01
RMM:   2    -0.232023283716E+03   -0.68171E-02   -0.65829E-02  4040   0.445E-01    0.375E-01
RMM:   3    -0.232023036584E+03    0.24713E-03   -0.37435E-03  4043   0.983E-02    0.388E-01
RMM:   4    -0.232023239753E+03   -0.20317E-03   -0.10954E-03  4053   0.515E-02    0.399E-01
RMM:   5    -0.232022084483E+03    0.11553E-02   -0.50053E-04  4039   0.362E-02    0.149E-01
RMM:   6    -0.232022143172E+03   -0.58689E-04   -0.30745E-04  4038   0.266E-02    0.154E-01
RMM:   7    -0.232022046753E+03    0.96419E-04   -0.35602E-04  4036   0.284E-02    0.990E-02
RMM:   8    -0.232021983370E+03    0.63383E-04   -0.15812E-04  4038   0.194E-02    0.327E-02
RMM:   9    -0.232021977522E+03    0.58479E-05   -0.15788E-05  4032   0.624E-03    0.209E-02
RMM:  10    -0.232021974340E+03    0.31820E-05   -0.39821E-06  2992   0.320E-03    0.142E-02
RMM:  11    -0.232021973546E+03    0.79458E-06   -0.33488E-06  2569   0.298E-03
  25 F= -.23202197E+03 E0= -.23191685E+03  d E =-.241083E-02
       N       E                     dE             d eps       ncg     rms          rms(c)
DAV:   1    -0.231999982768E+03    0.21992E-01   -0.12690E+01  4032   0.608E+00    0.579E-01
RMM:   2    -0.232027343467E+03   -0.27361E-01   -0.26377E-01  4040   0.888E-01    0.745E-01
RMM:   3    -0.232026237049E+03    0.11064E-02   -0.15037E-02  4043   0.197E-01    0.753E-01
RMM:   4    -0.232027142498E+03   -0.90545E-03   -0.42705E-03  4054   0.102E-01    0.790E-01
RMM:   5    -0.232022564138E+03    0.45784E-02   -0.19703E-03  4039   0.715E-02    0.296E-01
RMM:   6    -0.232022747796E+03   -0.18366E-03   -0.12211E-03  4038   0.532E-02    0.304E-01
RMM:   7    -0.232022347619E+03    0.40018E-03   -0.13956E-03  4037   0.562E-02    0.205E-01
RMM:   8    -0.232022078802E+03    0.26882E-03   -0.64416E-04  4038   0.391E-02    0.713E-02
RMM:   9    -0.232022049602E+03    0.29200E-04   -0.68896E-05  4038   0.130E-02    0.451E-02
RMM:  10    -0.232022035561E+03    0.14042E-04   -0.18312E-05  4032   0.672E-03    0.299E-02
RMM:  11    -0.232022031515E+03    0.40455E-05   -0.12898E-05  4025   0.540E-03    0.220E-02
RMM:  12    -0.232022032173E+03   -0.65812E-06   -0.20113E-05  4026   0.650E-03    0.175E-02
RMM:  13    -0.232022031539E+03    0.63458E-06   -0.57498E-06  3414   0.372E-03
  26 F= -.23202203E+03 E0= -.23191667E+03  d E =-.246883E-02
       N       E                     dE             d eps       ncg     rms          rms(c)
DAV:   1    -0.232016872752E+03    0.51594E-02   -0.31443E+00  4032   0.303E+00    0.288E-01
RMM:   2    -0.232023737120E+03   -0.68644E-02   -0.65266E-02  4040   0.442E-01    0.391E-01
RMM:   3    -0.232023524573E+03    0.21255E-03   -0.37554E-03  4043   0.984E-02    0.407E-01
RMM:   4    -0.232023717711E+03   -0.19314E-03   -0.11945E-03  4052   0.533E-02    0.413E-01
RMM:   5    -0.232022432393E+03    0.12853E-02   -0.54255E-04  4039   0.378E-02    0.149E-01
RMM:   6    -0.232022487977E+03   -0.55584E-04   -0.28863E-04  4038   0.257E-02    0.152E-01
RMM:   7    -0.232022394382E+03    0.93595E-04   -0.35046E-04  4036   0.283E-02    0.935E-02
RMM:   8    -0.232022338852E+03    0.55530E-04   -0.15275E-04  4038   0.190E-02    0.341E-02
RMM:   9    -0.232022332308E+03    0.65436E-05   -0.17329E-05  4032   0.651E-03    0.207E-02
RMM:  10    -0.232022328616E+03    0.36919E-05   -0.41789E-06  3068   0.329E-03    0.139E-02
RMM:  11    -0.232022327437E+03    0.11788E-05   -0.30364E-06  2461   0.286E-03    0.109E-02
RMM:  12    -0.232022327295E+03    0.14245E-06   -0.53474E-06  3502   0.356E-03
  27 F= -.23202233E+03 E0= -.23191708E+03  d E =-.276458E-02
       N       E                     dE             d eps       ncg     rms          rms(c)
DAV:   1    -0.232020206551E+03    0.21209E-02   -0.25154E+00  4032   0.281E+00    0.297E-01
RMM:   2    -0.232027576817E+03   -0.73703E-02   -0.58435E-02  4038   0.403E-01    0.502E-01
RMM:   3    -0.232027749705E+03   -0.17289E-03   -0.42350E-03  4043   0.999E-02    0.558E-01
RMM:   4    -0.232025635948E+03    0.21138E-02   -0.14187E-03  4043   0.593E-02    0.298E-01
RMM:   5    -0.232025037633E+03    0.59831E-03   -0.45966E-04  4038   0.355E-02    0.973E-02
RMM:   6    -0.232025148237E+03   -0.11060E-03   -0.35176E-04  4038   0.286E-02    0.131E-01
RMM:   7    -0.232025087709E+03    0.60528E-04   -0.25498E-04  4036   0.245E-02    0.104E-01
RMM:   8    -0.232025033316E+03    0.54393E-04   -0.84379E-05  4036   0.144E-02    0.410E-02
RMM:   9    -0.232025025388E+03    0.79281E-05   -0.16589E-05  4032   0.651E-03    0.208E-02
RMM:  10    -0.232025022338E+03    0.30498E-05   -0.33070E-06  2704   0.300E-03    0.120E-02
RMM:  11    -0.232025021186E+03    0.11517E-05   -0.31494E-06  2515   0.289E-03    0.928E-03
RMM:  12    -0.232025021057E+03    0.12914E-06   -0.36380E-06  2886   0.310E-03
  28 F= -.23202502E+03 E0= -.23191979E+03  d E =-.269376E-02
       N       E                     dE             d eps       ncg     rms          rms(c)
DAV:   1    -0.232004868343E+03    0.20153E-01   -0.11894E+01  4032   0.610E+00    0.642E-01
RMM:   2    -0.232039637520E+03   -0.34769E-01   -0.27634E-01  4038   0.877E-01    0.108E+00
RMM:   3    -0.232040789097E+03   -0.11516E-02   -0.19929E-02  4043   0.217E-01    0.121E+00
RMM:   4    -0.232030760580E+03    0.10029E-01   -0.66152E-03  4044   0.128E-01    0.635E-01
RMM:   5    -0.232027867227E+03    0.28934E-02   -0.21581E-03  4038   0.764E-02    0.210E-01
RMM:   6    -0.232028279284E+03   -0.41206E-03   -0.16545E-03  4038   0.620E-02    0.270E-01
RMM:   7    -0.232027961558E+03    0.31773E-03   -0.12232E-03  4035   0.537E-02    0.195E-01
RMM:   8    -0.232027774382E+03    0.18718E-03   -0.35527E-04  4035   0.292E-02    0.989E-02
RMM:   9    -0.232027724375E+03    0.50007E-04   -0.74992E-05  4038   0.138E-02    0.480E-02
RMM:  10    -0.232027709895E+03    0.14480E-04   -0.17847E-05  4032   0.683E-03    0.265E-02
RMM:  11    -0.232027705141E+03    0.47544E-05   -0.15463E-05  4032   0.590E-03    0.208E-02
RMM:  12    -0.232027704575E+03    0.56529E-06   -0.15132E-05  4032   0.575E-03    0.165E-02
RMM:  13    -0.232027703252E+03    0.13228E-05   -0.55950E-06  3322   0.362E-03    0.657E-03
RMM:  14    -0.232027703322E+03   -0.69180E-07   -0.88919E-07  2169   0.167E-03
  29 F= -.23202770E+03 E0= -.23192244E+03  d E =-.537603E-02
       N       E                     dE             d eps       ncg     rms          rms(c)
DAV:   1    -0.232022562760E+03    0.51405E-02   -0.43057E+00  4032   0.370E+00    0.383E-01
RMM:   2    -0.232033731742E+03   -0.11169E-01   -0.10209E-01  4039   0.529E-01    0.530E-01
RMM:   3    -0.232036032460E+03   -0.23007E-02   -0.70146E-03  4043   0.130E-01    0.806E-01
RMM:   4    -0.232032040274E+03    0.39922E-02   -0.23354E-03  4046   0.778E-02    0.373E-01
RMM:   5    -0.232031187646E+03    0.85263E-03   -0.71998E-04  4039   0.437E-02    0.166E-01
RMM:   6    -0.232031189865E+03   -0.22188E-05   -0.40493E-04  4038   0.304E-02    0.167E-01
RMM:   7    -0.232031158711E+03    0.31154E-04   -0.41825E-04  4037   0.309E-02    0.131E-01
RMM:   8    -0.232031062338E+03    0.96373E-04   -0.24907E-04  4038   0.245E-02    0.482E-02
RMM:   9    -0.232031048126E+03    0.14212E-04   -0.37917E-05  4032   0.958E-03    0.234E-02
RMM:  10    -0.232031043530E+03    0.45961E-05   -0.63120E-06  3669   0.400E-03    0.145E-02
RMM:  11    -0.232031042359E+03    0.11708E-05   -0.50312E-06  3274   0.350E-03    0.122E-02
RMM:  12    -0.232031042387E+03   -0.28420E-07   -0.54584E-06  3570   0.363E-03
  30 F= -.23203104E+03 E0= -.23192556E+03  d E =-.333907E-02
       N       E                     dE             d eps       ncg     rms          rms(c)
DAV:   1    -0.231957041014E+03    0.74001E-01   -0.38763E+01  4032   0.111E+01    0.114E+00
RMM:   2    -0.232054934540E+03   -0.97894E-01   -0.92170E-01  4038   0.158E+00    0.142E+00
RMM:   3    -0.232080940024E+03   -0.26005E-01   -0.63096E-02  4043   0.389E-01    0.243E+00
RMM:   4    -0.232044100000E+03    0.36840E-01   -0.19965E-02  4046   0.226E-01    0.111E+00
RMM:   5    -0.232036048315E+03    0.80517E-02   -0.64868E-03  4039   0.129E-01    0.513E-01
RMM:   6    -0.232035669442E+03    0.37887E-03   -0.36951E-03  4038   0.917E-02    0.512E-01
RMM:   7    -0.232035364930E+03    0.30451E-03   -0.36871E-03  4038   0.910E-02    0.421E-01
RMM:   8    -0.232034398934E+03    0.96600E-03   -0.22322E-03  4038   0.739E-02    0.165E-01
RMM:   9    -0.232034231884E+03    0.16705E-03   -0.38185E-04  4038   0.304E-02    0.833E-02
RMM:  10    -0.232034181356E+03    0.50528E-04   -0.68866E-05  4038   0.132E-02    0.445E-02
RMM:  11    -0.232034171616E+03    0.97399E-05   -0.42605E-05  4032   0.996E-03    0.353E-02
RMM:  12    -0.232034168062E+03    0.35548E-05   -0.47746E-05  4038   0.104E-02    0.226E-02
RMM:  13    -0.232034168333E+03   -0.27167E-06   -0.14837E-05  4014   0.582E-03    0.131E-02
RMM:  14    -0.232034167917E+03    0.41655E-06   -0.20339E-06  2394   0.240E-03
  31 F= -.23203417E+03 E0= -.23192811E+03  d E =-.646460E-02
       N       E                     dE             d eps       ncg     rms          rms(c)
DAV:   1    -0.232034254241E+03   -0.85908E-04   -0.29583E-01  4176   0.983E-01    0.995E-02
RMM:   2    -0.232035108211E+03   -0.85397E-03   -0.71992E-03  4039   0.139E-01    0.170E-01
RMM:   3    -0.232035162318E+03   -0.54108E-04   -0.47119E-04  4043   0.335E-02    0.198E-01
RMM:   4    -0.232034922723E+03    0.23960E-03   -0.16911E-04  4043   0.211E-02    0.981E-02
RMM:   5    -0.232034860913E+03    0.61810E-04   -0.52558E-05  4038   0.120E-02    0.437E-02
RMM:   6    -0.232034866227E+03   -0.53142E-05   -0.25568E-05  4032   0.763E-03    0.442E-02
RMM:   7    -0.232034863448E+03    0.27784E-05   -0.29467E-05  4032   0.815E-03    0.318E-02
RMM:   8    -0.232034859011E+03    0.44374E-05   -0.14901E-05  4030   0.587E-03    0.137E-02
RMM:   9    -0.232034858166E+03    0.84518E-06   -0.22765E-06  2455   0.246E-03
  32 F= -.23203486E+03 E0= -.23192874E+03  d E =-.690249E-03
       N       E                     dE             d eps       ncg     rms          rms(c)
DAV:   1    -0.232031343206E+03    0.35158E-02   -0.26617E+00  4032   0.295E+00    0.299E-01
RMM:   2    -0.232038775202E+03   -0.74320E-02   -0.64970E-02  4039   0.416E-01    0.466E-01
RMM:   3    -0.232039842601E+03   -0.10674E-02   -0.42625E-03  4043   0.101E-01    0.620E-01
RMM:   4    -0.232037384654E+03    0.24579E-02   -0.15438E-03  4043   0.634E-02    0.294E-01
RMM:   5    -0.232036829088E+03    0.55557E-03   -0.47029E-04  4038   0.365E-02    0.126E-01
RMM:   6    -0.232036864292E+03   -0.35204E-04   -0.22489E-04  4038   0.226E-02    0.132E-01
RMM:   7    -0.232036824855E+03    0.39437E-04   -0.25536E-04  4036   0.240E-02    0.993E-02
RMM:   8    -0.232036771515E+03    0.53340E-04   -0.13410E-04  4038   0.177E-02    0.423E-02
RMM:   9    -0.232036760635E+03    0.10880E-04   -0.23801E-05  4014   0.757E-03    0.207E-02
RMM:  10    -0.232036758047E+03    0.25879E-05   -0.42333E-06  3022   0.330E-03    0.142E-02
RMM:  11    -0.232036756773E+03    0.12738E-05   -0.22333E-06  2332   0.248E-03    0.916E-03
RMM:  12    -0.232036757163E+03   -0.39007E-06   -0.35866E-06  2779   0.300E-03
  33 F= -.23203676E+03 E0= -.23193047E+03  d E =-.258925E-02
       N       E                     dE             d eps       ncg     rms          rms(c)
DAV:   1    -0.232018081394E+03    0.18675E-01   -0.10651E+01  4032   0.590E+00    0.595E-01
RMM:   2    -0.232047440696E+03   -0.29359E-01   -0.26001E-01  4039   0.831E-01    0.886E-01
RMM:   3    -0.232052918787E+03   -0.54781E-02   -0.17131E-02  4043   0.202E-01    0.127E+00
RMM:   4    -0.232042294589E+03    0.10624E-01   -0.60999E-03  4043   0.126E-01    0.579E-01
RMM:   5    -0.232040082715E+03    0.22119E-02   -0.18729E-03  4038   0.730E-02    0.241E-01
RMM:   6    -0.232040188632E+03   -0.10592E-03   -0.90475E-04  4038   0.450E-02    0.257E-01
RMM:   7    -0.232040083380E+03    0.10525E-03   -0.10236E-03  4036   0.479E-02    0.215E-01
RMM:   8    -0.232039832317E+03    0.25106E-03   -0.53863E-04  4038   0.356E-02    0.934E-02
RMM:   9    -0.232039781410E+03    0.50908E-04   -0.10555E-04  4030   0.160E-02    0.469E-02
RMM:  10    -0.232039768182E+03    0.13227E-04   -0.19850E-05  4032   0.697E-03    0.296E-02
RMM:  11    -0.232039762412E+03    0.57697E-05   -0.10009E-05  4013   0.484E-03    0.187E-02
RMM:  12    -0.232039763052E+03   -0.63947E-06   -0.13048E-05  4008   0.527E-03    0.185E-02
RMM:  13    -0.232039762500E+03    0.55140E-06   -0.67067E-06  3666   0.397E-03
  34 F= -.23203976E+03 E0= -.23193315E+03  d E =-.559458E-02
       N       E                     dE             d eps       ncg     rms          rms(c)
DAV:   1    -0.231954215871E+03    0.85547E-01   -0.42625E+01  4032   0.118E+01    0.119E+00
RMM:   2    -0.232067885426E+03   -0.11367E+00   -0.10479E+00  4038   0.166E+00    0.153E+00
RMM:   3    -0.232103202954E+03   -0.35318E-01   -0.70372E-02  4043   0.408E-01    0.268E+00
RMM:   4    -0.232052584472E+03    0.50618E-01   -0.24110E-02  4043   0.245E-01    0.114E+00
RMM:   5    -0.232043594016E+03    0.89905E-02   -0.73168E-03  4038   0.144E-01    0.447E-01
RMM:   6    -0.232043554758E+03    0.39257E-04   -0.36384E-03  4038   0.885E-02    0.434E-01
RMM:   7    -0.232043614437E+03   -0.59679E-04   -0.40546E-03  4036   0.959E-02    0.447E-01
RMM:   8    -0.232042605147E+03    0.10093E-02   -0.18926E-03  4038   0.676E-02    0.209E-01
RMM:   9    -0.232042375822E+03    0.22933E-03   -0.42696E-04  4038   0.328E-02    0.116E-01
RMM:  10    -0.232042300396E+03    0.75426E-04   -0.94154E-05  4038   0.152E-02    0.647E-02
RMM:  11    -0.232042273749E+03    0.26647E-04   -0.41658E-05  4033   0.100E-02    0.388E-02
RMM:  12    -0.232042272996E+03    0.75346E-06   -0.48227E-05  4034   0.102E-02    0.361E-02
RMM:  13    -0.232042271531E+03    0.14646E-05   -0.29878E-05  4032   0.829E-03    0.190E-02
RMM:  14    -0.232042271911E+03   -0.37979E-06   -0.55843E-06  3355   0.376E-03
  35 F= -.23204227E+03 E0= -.23193519E+03  d E =-.810399E-02
       N       E                     dE             d eps       ncg     rms          rms(c)
DAV:   1    -0.232041151424E+03    0.11201E-02   -0.33643E+00  4056   0.336E+00    0.355E-01
RMM:   2    -0.232052183546E+03   -0.11032E-01   -0.85363E-02  4038   0.466E-01    0.634E-01
RMM:   3    -0.232051528410E+03    0.65514E-03   -0.54945E-03  4043   0.113E-01    0.622E-01
RMM:   4    -0.232049457953E+03    0.20705E-02   -0.21730E-03  4040   0.730E-02    0.426E-01
RMM:   5    -0.232048329697E+03    0.11283E-02   -0.85130E-04  4038   0.493E-02    0.180E-01
RMM:   6    -0.232048325988E+03    0.37084E-05   -0.32589E-04  4038   0.276E-02    0.182E-01
RMM:   7    -0.232048239649E+03    0.86340E-04   -0.36696E-04  4038   0.294E-02    0.121E-01
RMM:   8    -0.232048164833E+03    0.74816E-04   -0.17177E-04  4038   0.200E-02    0.596E-02
RMM:   9    -0.232048140893E+03    0.23940E-04   -0.37904E-05  4032   0.971E-03    0.240E-02
RMM:  10    -0.232048139306E+03    0.15873E-05   -0.62323E-06  3651   0.398E-03    0.177E-02
RMM:  11    -0.232048138480E+03    0.82525E-06   -0.29338E-06  2511   0.275E-03
  36 F= -.23204814E+03 E0= -.23194090E+03  d E =-.586657E-02
       N       E                     dE             d eps       ncg     rms          rms(c)
DAV:   1    -0.231994987142E+03    0.53152E-01   -0.30282E+01  4032   0.101E+01    0.107E+00
RMM:   2    -0.232090469272E+03   -0.95482E-01   -0.77603E-01  4038   0.140E+00    0.171E+00
RMM:   3    -0.232095588463E+03   -0.51192E-02   -0.51961E-02  4043   0.347E-01    0.199E+00
RMM:   4    -0.232072992734E+03    0.22596E-01   -0.19994E-02  4041   0.216E-01    0.136E+00
RMM:   5    -0.232060874751E+03    0.12118E-01   -0.79604E-03  4038   0.151E-01    0.551E-01
RMM:   6    -0.232060548965E+03    0.32579E-03   -0.28762E-03  4038   0.842E-02    0.499E-01
RMM:   7    -0.232060022911E+03    0.52605E-03   -0.30651E-03  4038   0.848E-02    0.362E-01
RMM:   8    -0.232059301677E+03    0.72123E-03   -0.16764E-03  4038   0.624E-02    0.179E-01
RMM:   9    -0.232059110707E+03    0.19097E-03   -0.39896E-04  4036   0.312E-02    0.907E-02
RMM:  10    -0.232059064459E+03    0.46248E-04   -0.78497E-05  4036   0.140E-02    0.584E-02
RMM:  11    -0.232059045833E+03    0.18626E-04   -0.31337E-05  4032   0.854E-03    0.362E-02
RMM:  12    -0.232059046459E+03   -0.62576E-06   -0.32135E-05  4026   0.833E-03    0.278E-02
RMM:  13    -0.232059049656E+03   -0.31971E-05   -0.22066E-05  4026   0.704E-03    0.166E-02
RMM:  14    -0.232059051115E+03   -0.14588E-05   -0.37375E-06  2760   0.305E-03    0.754E-03
RMM:  15    -0.232059053117E+03   -0.20020E-05   -0.76355E-07  2206   0.152E-03    0.320E-03
RMM:  16    -0.232059055178E+03   -0.20611E-05   -0.27001E-07  2179   0.864E-04    0.190E-03
RMM:  17    -0.232059059326E+03   -0.41483E-05   -0.34448E-07  2239   0.845E-04    0.147E-03
RMM:  18    -0.232059062304E+03   -0.29777E-05   -0.17667E-07  1971   0.608E-04    0.797E-04
RMM:  19    -0.232059064740E+03   -0.24358E-05   -0.79502E-08  1165   0.423E-04    0.682E-04
RMM:  20    -0.232059067055E+03   -0.23152E-05   -0.10828E-07  1401   0.450E-04    0.604E-04
RMM:  21    -0.232059069133E+03   -0.20777E-05   -0.12694E-07  1479   0.471E-04    0.505E-04
RMM:  22    -0.232059071180E+03   -0.20468E-05   -0.17509E-07  1670   0.499E-04    0.330E-04
RMM:  23    -0.232059072005E+03   -0.82517E-06   -0.38386E-08   844   0.362E-04
  37 F= -.23205907E+03 E0= -.23195151E+03  d E =-.168001E-01
       N       E                     dE             d eps       ncg     rms          rms(c)
DAV:   1    -0.231769285297E+03    0.28979E+00   -0.12118E+02  4032   0.202E+01    0.226E+00
RMM:   2    -0.232144146455E+03   -0.37486E+00   -0.32378E+00  4040   0.281E+00    0.313E+00
RMM:   3    -0.232184838214E+03   -0.40692E-01   -0.22524E-01  4042   0.727E-01    0.391E+00
RMM:   4    -0.232127674591E+03    0.57164E-01   -0.84625E-02  4042   0.423E-01    0.320E+00
RMM:   5    -0.232046926388E+03    0.80748E-01   -0.38948E-02  4038   0.318E-01    0.126E+00
RMM:   6    -0.232044194510E+03    0.27319E-02   -0.14680E-02  4038   0.197E-01    0.898E-01
RMM:   7    -0.232043075279E+03    0.11192E-02   -0.11131E-02  4038   0.161E-01    0.788E-01
RMM:   8    -0.232040023147E+03    0.30521E-02   -0.70700E-03  4038   0.127E-01    0.420E-01
RMM:   9    -0.232039252547E+03    0.77060E-03   -0.19752E-03  4037   0.689E-02    0.253E-01
RMM:  10    -0.232038794184E+03    0.45836E-03   -0.56121E-04  4036   0.372E-02    0.127E-01
RMM:  11    -0.232038702364E+03    0.91820E-04   -0.17253E-04  4037   0.199E-02    0.777E-02
RMM:  12    -0.232038683327E+03    0.19037E-04   -0.10123E-04  4035   0.151E-02    0.575E-02
RMM:  13    -0.232038682129E+03    0.11979E-05   -0.95066E-05  4035   0.148E-02    0.357E-02
RMM:  14    -0.232038685185E+03   -0.30556E-05   -0.22599E-05  4026   0.717E-03    0.214E-02
RMM:  15    -0.232038686909E+03   -0.17243E-05   -0.43732E-06  2958   0.332E-03    0.748E-03
RMM:  16    -0.232038691211E+03   -0.43018E-05   -0.12802E-06  2250   0.191E-03    0.491E-03
RMM:  17    -0.232038698910E+03   -0.76995E-05   -0.11645E-06  2288   0.170E-03    0.308E-03
RMM:  18    -0.232038704890E+03   -0.59796E-05   -0.60614E-07  2235   0.122E-03    0.168E-03
RMM:  19    -0.232038711307E+03   -0.64168E-05   -0.35379E-07  2252   0.797E-04    0.144E-03
RMM:  20    -0.232038716290E+03   -0.49838E-05   -0.22335E-07  1662   0.563E-04    0.113E-03
RMM:  21    -0.232038720458E+03   -0.41672E-05   -0.21347E-07  1844   0.559E-04    0.864E-04
RMM:  22    -0.232038725597E+03   -0.51390E-05   -0.32138E-07  1809   0.626E-04    0.617E-04
RMM:  23    -0.232038728832E+03   -0.32354E-05   -0.25676E-07  1787   0.559E-04    0.475E-04
RMM:  24    -0.232038730041E+03   -0.12095E-05   -0.10706E-07  1237   0.394E-04    0.411E-04
RMM:  25    -0.232038731001E+03   -0.95949E-06   -0.63832E-08  1036   0.383E-04
  38 F= -.23203873E+03 E0= -.23193098E+03  d E =0.354091E-02
       N       E                     dE             d eps       ncg     rms          rms(c)
DAV:   1    -0.231868832777E+03    0.16990E+00   -0.86792E+01  4032   0.170E+01    0.192E+00
RMM:   2    -0.232155648063E+03   -0.28682E+00   -0.23251E+00  4038   0.241E+00    0.309E+00
RMM:   3    -0.232166032190E+03   -0.10384E-01   -0.15361E-01  4044   0.596E-01    0.315E+00
RMM:   4    -0.232107289636E+03    0.58743E-01   -0.59080E-02  4044   0.362E-01    0.250E+00
RMM:   5    -0.232065771209E+03    0.41518E-01   -0.27277E-02  4038   0.273E-01    0.106E+00
RMM:   6    -0.232065475289E+03    0.29592E-03   -0.97399E-03  4038   0.161E-01    0.858E-01
RMM:   7    -0.232062477489E+03    0.29978E-02   -0.98106E-03  4038   0.155E-01    0.600E-01
RMM:   8    -0.232060879869E+03    0.15976E-02   -0.43101E-03  4038   0.100E-01    0.301E-01
RMM:   9    -0.232060230428E+03    0.64944E-03   -0.11223E-03  4036   0.524E-02    0.161E-01
RMM:  10    -0.232060117246E+03    0.11318E-03   -0.24616E-04  4036   0.245E-02    0.115E-01
RMM:  11    -0.232060045611E+03    0.71635E-04   -0.98590E-05  4037   0.153E-02    0.663E-02
RMM:  12    -0.232060048393E+03   -0.27821E-05   -0.98121E-05  4033   0.150E-02    0.487E-02
RMM:  13    -0.232060035452E+03    0.12941E-04   -0.46196E-05  4029   0.103E-02    0.215E-02
RMM:  14    -0.232060036780E+03   -0.13286E-05   -0.84127E-06  3885   0.458E-03    0.118E-02
RMM:  15    -0.232060039469E+03   -0.26884E-05   -0.13736E-06  2293   0.196E-03    0.608E-03
RMM:  16    -0.232060042408E+03   -0.29390E-05   -0.48336E-07  2204   0.117E-03    0.366E-03
RMM:  17    -0.232060048023E+03   -0.56151E-05   -0.50453E-07  2238   0.107E-03    0.270E-03
RMM:  18    -0.232060051707E+03   -0.36842E-05   -0.24270E-07  2212   0.752E-04    0.150E-03
RMM:  19    -0.232060055739E+03   -0.40318E-05   -0.13277E-07  1533   0.521E-04    0.101E-03
RMM:  20    -0.232060058707E+03   -0.29682E-05   -0.89909E-08  1362   0.446E-04    0.667E-04
RMM:  21    -0.232060062436E+03   -0.37295E-05   -0.17194E-07  1759   0.511E-04    0.730E-04
RMM:  22    -0.232060065875E+03   -0.34383E-05   -0.18280E-07  1687   0.515E-04    0.477E-04
RMM:  23    -0.232060067291E+03   -0.14159E-05   -0.81467E-08  1137   0.394E-04    0.475E-04
RMM:  24    -0.232060068140E+03   -0.84916E-06   -0.50840E-08   991   0.366E-04
  39 F= -.23206007E+03 E0= -.23195243E+03  d E =-.177962E-01
       N       E                     dE             d eps       ncg     rms          rms(c)
DAV:   1    -0.232061697897E+03   -0.16306E-02   -0.24437E+00  4032   0.282E+00    0.340E-01
RMM:   2    -0.232069168492E+03   -0.74706E-02   -0.62899E-02  4038   0.400E-01    0.537E-01
RMM:   3    -0.232067553177E+03    0.16153E-02   -0.41147E-03  4043   0.995E-02    0.335E-01
RMM:   4    -0.232069584543E+03   -0.20314E-02   -0.17254E-03  4040   0.597E-02    0.583E-01
RMM:   5    -0.232066805452E+03    0.27791E-02   -0.10285E-03  4038   0.487E-02    0.253E-01
RMM:   6    -0.232066753058E+03    0.52394E-04   -0.40663E-04  4038   0.330E-02    0.181E-01
RMM:   7    -0.232066676016E+03    0.77042E-04   -0.37589E-04  4036   0.310E-02    0.149E-01
RMM:   8    -0.232066552785E+03    0.12323E-03   -0.19155E-04  4038   0.219E-02    0.547E-02
RMM:   9    -0.232066535570E+03    0.17215E-04   -0.36834E-05  4032   0.964E-03    0.237E-02
RMM:  10    -0.232066534166E+03    0.14040E-05   -0.57064E-06  3468   0.373E-03    0.176E-02
RMM:  11    -0.232066532804E+03    0.13616E-05   -0.32203E-06  2606   0.289E-03    0.115E-02
RMM:  12    -0.232066533275E+03   -0.47051E-06   -0.35750E-06  2822   0.307E-03
  40 F= -.23206653E+03 E0= -.23195873E+03  d E =-.646514E-02
       N       E                     dE             d eps       ncg     rms          rms(c)
DAV:   1    -0.232060711041E+03    0.58218E-02   -0.47525E+00  4032   0.393E+00    0.482E-01
RMM:   2    -0.232075319096E+03   -0.14608E-01   -0.12280E-01  4038   0.560E-01    0.767E-01
RMM:   3    -0.232071664486E+03    0.36546E-02   -0.78905E-03  4043   0.138E-01    0.414E-01
RMM:   4    -0.232076520170E+03   -0.48557E-02   -0.34134E-03  4040   0.843E-02    0.823E-01
RMM:   5    -0.232070941074E+03    0.55791E-02   -0.21337E-03  4038   0.681E-02    0.407E-01
RMM:   6    -0.232070582310E+03    0.35876E-03   -0.82943E-04  4038   0.471E-02    0.260E-01
RMM:   7    -0.232070426808E+03    0.15550E-03   -0.78033E-04  4035   0.450E-02    0.214E-01
RMM:   8    -0.232070178361E+03    0.24845E-03   -0.38059E-04  4037   0.309E-02    0.787E-02
RMM:   9    -0.232070143260E+03    0.35102E-04   -0.73324E-05  4036   0.136E-02    0.348E-02
RMM:  10    -0.232070141085E+03    0.21743E-05   -0.11958E-05  4021   0.533E-03    0.253E-02
RMM:  11    -0.232070138917E+03    0.21682E-05   -0.70594E-06  3861   0.407E-03    0.165E-02
RMM:  12    -0.232070140757E+03   -0.18399E-05   -0.65844E-06  3644   0.388E-03    0.133E-02
RMM:  13    -0.232070142325E+03   -0.15683E-05   -0.31533E-06  2587   0.282E-03    0.538E-03
RMM:  14    -0.232070143715E+03   -0.13894E-05   -0.76692E-07  2199   0.152E-03    0.314E-03
RMM:  15    -0.232070144799E+03   -0.10844E-05   -0.20950E-07  2170   0.822E-04    0.152E-03
RMM:  16    -0.232070146074E+03   -0.12749E-05   -0.49873E-08  1227   0.450E-04    0.922E-04
RMM:  17    -0.232070147635E+03   -0.15610E-05   -0.78765E-08  1528   0.471E-04    0.715E-04
RMM:  18    -0.232070149806E+03   -0.21705E-05   -0.13941E-07  1539   0.509E-04    0.524E-04
RMM:  19    -0.232070150615E+03   -0.80962E-06   -0.21356E-08   718   0.345E-04
  41 F= -.23207015E+03 E0= -.23196205E+03  d E =-.100825E-01
       N       E                     dE             d eps       ncg     rms          rms(c)
DAV:   1    -0.232070984213E+03   -0.83441E-03   -0.21885E+00  4032   0.275E+00    0.322E-01
RMM:   2    -0.232077278475E+03   -0.62943E-02   -0.56965E-02  4039   0.377E-01    0.462E-01
RMM:   3    -0.232076093823E+03    0.11847E-02   -0.31540E-03  4042   0.892E-02    0.300E-01
RMM:   4    -0.232077181957E+03   -0.10881E-02   -0.10822E-03  4043   0.495E-02    0.491E-01
RMM:   5    -0.232075649415E+03    0.15325E-02   -0.58725E-04  4038   0.390E-02    0.195E-01
RMM:   6    -0.232075824177E+03   -0.17476E-03   -0.46046E-04  4038   0.329E-02    0.221E-01
RMM:   7    -0.232075568125E+03    0.25605E-03   -0.31287E-04  4038   0.269E-02    0.133E-01
RMM:   8    -0.232075461369E+03    0.10676E-03   -0.14523E-04  4038   0.188E-02    0.435E-02
RMM:   9    -0.232075457465E+03    0.39042E-05   -0.21999E-05  4032   0.758E-03    0.265E-02
RMM:  10    -0.232075454630E+03    0.28346E-05   -0.43816E-06  3093   0.336E-03    0.164E-02
RMM:  11    -0.232075454086E+03    0.54424E-06   -0.28995E-06  2487   0.278E-03
  42 F= -.23207545E+03 E0= -.23196721E+03  d E =-.530347E-02
       N       E                     dE             d eps       ncg     rms          rms(c)
DAV:   1    -0.232068092461E+03    0.73622E-02   -0.54234E+00  4032   0.433E+00    0.511E-01
RMM:   2    -0.232083702847E+03   -0.15610E-01   -0.14143E-01  4038   0.594E-01    0.729E-01
RMM:   3    -0.232080849244E+03    0.28536E-02   -0.78280E-03  4042   0.140E-01    0.474E-01
RMM:   4    -0.232083578702E+03   -0.27295E-02   -0.27389E-03  4042   0.788E-02    0.779E-01
RMM:   5    -0.232079729412E+03    0.38493E-02   -0.14347E-03  4038   0.610E-02    0.311E-01
RMM:   6    -0.232080185988E+03   -0.45658E-03   -0.11782E-03  4037   0.524E-02    0.357E-01
RMM:   7    -0.232079510022E+03    0.67597E-03   -0.78277E-04  4038   0.424E-02    0.213E-01
RMM:   8    -0.232079230879E+03    0.27914E-03   -0.35947E-04  4038   0.296E-02    0.650E-02
RMM:   9    -0.232079226142E+03    0.47370E-05   -0.52445E-05  4038   0.117E-02    0.419E-02
RMM:  10    -0.232079219191E+03    0.69516E-05   -0.11587E-05  4021   0.534E-03    0.257E-02
RMM:  11    -0.232079218433E+03    0.75765E-06   -0.77348E-06  3956   0.424E-03
  43 F= -.23207922E+03 E0= -.23197075E+03  d E =-.906782E-02
       N       E                     dE             d eps       ncg     rms          rms(c)
DAV:   1    -0.232078994265E+03    0.22493E-03   -0.14895E-01  4176   0.717E-01    0.863E-02
RMM:   2    -0.232079419434E+03   -0.42517E-03   -0.39324E-03  4038   0.989E-02    0.113E-01
RMM:   3    -0.232079352276E+03    0.67158E-04   -0.22369E-04  4042   0.236E-02    0.758E-02
RMM:   4    -0.232079388400E+03   -0.36124E-04   -0.73641E-05  4039   0.130E-02    0.907E-02
RMM:   5    -0.232079375350E+03    0.13050E-04   -0.56284E-05  4033   0.105E-02    0.965E-02
RMM:   6    -0.232079322842E+03    0.52508E-04   -0.27663E-05  4032   0.826E-03    0.489E-02
RMM:   7    -0.232079322346E+03    0.49605E-06   -0.21426E-05  4031   0.738E-03    0.403E-02
RMM:   8    -0.232079313606E+03    0.87395E-05   -0.10545E-05  3991   0.519E-03    0.897E-03
RMM:   9    -0.232079314725E+03   -0.11188E-05   -0.10969E-06  2235   0.184E-03    0.678E-03
RMM:  10    -0.232079314951E+03   -0.22582E-06   -0.33511E-07  2163   0.102E-03
  44 F= -.23207931E+03 E0= -.23197080E+03  d E =-.916434E-02
       N       E                     dE             d eps       ncg     rms          rms(c)
DAV:   1    -0.232078933078E+03    0.38165E-03   -0.21831E+00  4032   0.271E+00    0.306E-01
RMM:   2    -0.232086230568E+03   -0.72975E-02   -0.55757E-02  4038   0.377E-01    0.577E-01
RMM:   3    -0.232083965220E+03    0.22653E-02   -0.36553E-03  4042   0.945E-02    0.301E-01
RMM:   4    -0.232085700432E+03   -0.17352E-02   -0.14436E-03  4042   0.544E-02    0.540E-01
RMM:   5    -0.232083347377E+03    0.23531E-02   -0.78611E-04  4038   0.427E-02    0.218E-01
RMM:   6    -0.232083293888E+03    0.53489E-04   -0.33998E-04  4038   0.300E-02    0.147E-01
RMM:   7    -0.232083287775E+03    0.61134E-05   -0.27914E-04  4035   0.270E-02    0.141E-01
RMM:   8    -0.232083184267E+03    0.10351E-03   -0.15794E-04  4038   0.197E-02    0.496E-02
RMM:   9    -0.232083170913E+03    0.13354E-04   -0.30381E-05  4032   0.867E-03    0.244E-02
RMM:  10    -0.232083168361E+03    0.25518E-05   -0.61606E-06  3634   0.392E-03    0.152E-02
RMM:  11    -0.232083167443E+03    0.91811E-06   -0.25363E-06  2414   0.257E-03
  45 F= -.23208317E+03 E0= -.23197434E+03  d E =-.385249E-02
       N       E                     dE             d eps       ncg     rms          rms(c)
DAV:   1    -0.232073258071E+03    0.99103E-02   -0.65031E+00  4032   0.467E+00    0.530E-01
RMM:   2    -0.232095078735E+03   -0.21821E-01   -0.16611E-01  4038   0.651E-01    0.100E+00
RMM:   3    -0.232088306417E+03    0.67723E-02   -0.10984E-02  4042   0.164E-01    0.523E-01
RMM:   4    -0.232093457480E+03   -0.51511E-02   -0.42840E-03  4042   0.938E-02    0.929E-01
RMM:   5    -0.232086522822E+03    0.69347E-02   -0.23895E-03  4038   0.743E-02    0.386E-01
RMM:   6    -0.232086282055E+03    0.24077E-03   -0.10284E-03  4038   0.522E-02    0.254E-01
RMM:   7    -0.232086263210E+03    0.18845E-04   -0.83422E-04  4035   0.466E-02    0.246E-01
RMM:   8    -0.232085947181E+03    0.31603E-03   -0.47399E-04  4038   0.341E-02    0.866E-02
RMM:   9    -0.232085905683E+03    0.41499E-04   -0.90957E-05  4038   0.150E-02    0.434E-02
RMM:  10    -0.232085897254E+03    0.84290E-05   -0.19850E-05  4026   0.699E-03    0.265E-02
RMM:  11    -0.232085893999E+03    0.32550E-05   -0.84634E-06  4011   0.445E-03    0.168E-02
RMM:  12    -0.232085894611E+03   -0.61228E-06   -0.75041E-06  3964   0.410E-03
  46 F= -.23208589E+03 E0= -.23197654E+03  d E =-.657966E-02
       N       E                     dE             d eps       ncg     rms          rms(c)
DAV:   1    -0.232083476281E+03    0.24177E-02   -0.29035E+00  4032   0.316E+00    0.337E-01
RMM:   2    -0.232092501705E+03   -0.90254E-02   -0.75956E-02  4038   0.443E-01    0.530E-01
RMM:   3    -0.232092120895E+03    0.38081E-03   -0.48000E-03  4042   0.107E-01    0.526E-01
RMM:   4    -0.232091846482E+03    0.27441E-03   -0.19156E-03  4042   0.635E-02    0.554E-01
RMM:   5    -0.232089549675E+03    0.22968E-02   -0.78102E-04  4038   0.464E-02    0.153E-01
RMM:   6    -0.232089696956E+03   -0.14728E-03   -0.38737E-04  4038   0.319E-02    0.182E-01
RMM:   7    -0.232089600745E+03    0.96211E-04   -0.27678E-04  4036   0.260E-02    0.122E-01
RMM:   8    -0.232089518333E+03    0.82413E-04   -0.18510E-04  4038   0.212E-02    0.463E-02
RMM:   9    -0.232089508472E+03    0.98603E-05   -0.26196E-05  4033   0.796E-03    0.237E-02
RMM:  10    -0.232089505400E+03    0.30718E-05   -0.52197E-06  3289   0.363E-03    0.152E-02
RMM:  11    -0.232089504857E+03    0.54362E-06   -0.27955E-06  2449   0.275E-03
  47 F= -.23208950E+03 E0= -.23197993E+03  d E =-.361025E-02
       N       E                     dE             d eps       ncg     rms          rms(c)
DAV:   1    -0.232085435249E+03    0.40702E-02   -0.25945E+00  4032   0.299E+00    0.318E-01
RMM:   2    -0.232093438109E+03   -0.80029E-02   -0.67961E-02  4038   0.418E-01    0.494E-01
RMM:   3    -0.232093127510E+03    0.31060E-03   -0.42919E-03  4042   0.101E-01    0.492E-01
RMM:   4    -0.232092960744E+03    0.16677E-03   -0.16990E-03  4043   0.597E-02    0.526E-01
RMM:   5    -0.232090872423E+03    0.20883E-02   -0.70123E-04  4038   0.436E-02    0.147E-01
RMM:   6    -0.232090996795E+03   -0.12437E-03   -0.34174E-04  4038   0.301E-02    0.166E-01
RMM:   7    -0.232090921657E+03    0.75139E-04   -0.24267E-04  4036   0.243E-02    0.117E-01
RMM:   8    -0.232090845821E+03    0.75835E-04   -0.16606E-04  4038   0.201E-02    0.424E-02
RMM:   9    -0.232090838215E+03    0.76064E-05   -0.22716E-05  4032   0.741E-03    0.230E-02
RMM:  10    -0.232090835284E+03    0.29310E-05   -0.46320E-06  3119   0.344E-03    0.143E-02
RMM:  11    -0.232090835005E+03    0.27866E-06   -0.25371E-06  2387   0.264E-03
  48 F= -.23209084E+03 E0= -.23198105E+03  d E =-.494039E-02
       N       E                     dE             d eps       ncg     rms          rms(c)
DAV:   1    -0.232088291168E+03    0.25441E-02   -0.26809E+00  4032   0.293E+00    0.312E-01
RMM:   2    -0.232095174720E+03   -0.68836E-02   -0.65911E-02  4038   0.425E-01    0.369E-01
RMM:   3    -0.232094786898E+03    0.38782E-03   -0.41779E-03  4043   0.101E-01    0.386E-01
RMM:   4    -0.232095174764E+03   -0.38787E-03   -0.11704E-03  4048   0.523E-02    0.440E-01
RMM:   5    -0.232093678164E+03    0.14966E-02   -0.56605E-04  4038   0.372E-02    0.144E-01
RMM:   6    -0.232093684195E+03   -0.60310E-05   -0.33614E-04  4038   0.284E-02    0.123E-01
RMM:   7    -0.232093669645E+03    0.14549E-04   -0.30228E-04  4038   0.266E-02    0.101E-01
RMM:   8    -0.232093601020E+03    0.68626E-04   -0.11628E-04  4038   0.167E-02    0.355E-02
RMM:   9    -0.232093594434E+03    0.65860E-05   -0.18922E-05  4032   0.689E-03    0.220E-02
RMM:  10    -0.232093592411E+03    0.20227E-05   -0.39544E-06  2950   0.318E-03    0.161E-02
RMM:  11    -0.232093590858E+03    0.15529E-05   -0.24304E-06  2395   0.258E-03    0.105E-02
RMM:  12    -0.232093590952E+03   -0.93838E-07   -0.28265E-06  2415   0.272E-03
  49 F= -.23209359E+03 E0= -.23198352E+03  d E =-.275595E-02
       N       E                     dE             d eps       ncg     rms          rms(c)
DAV:   1    -0.232091790551E+03    0.18003E-02   -0.11938E+00  4032   0.196E+00    0.208E-01
RMM:   2    -0.232094851089E+03   -0.30605E-02   -0.29331E-02  4038   0.284E-01    0.245E-01
RMM:   3    -0.232094759109E+03    0.91980E-04   -0.18786E-03  4043   0.674E-02    0.275E-01
RMM:   4    -0.232094863443E+03   -0.10433E-03   -0.54437E-04  4048   0.354E-02    0.297E-01
RMM:   5    -0.232094175033E+03    0.68841E-03   -0.26348E-04  4038   0.255E-02    0.931E-02
RMM:   6    -0.232094184680E+03   -0.96466E-05   -0.15012E-04  4038   0.189E-02    0.825E-02
RMM:   7    -0.232094180945E+03    0.37352E-05   -0.13639E-04  4037   0.180E-02    0.669E-02
RMM:   8    -0.232094149796E+03    0.31149E-04   -0.52547E-05  4028   0.112E-02    0.249E-02
RMM:   9    -0.232094147461E+03    0.23348E-05   -0.84621E-06  3923   0.446E-03    0.176E-02
RMM:  10    -0.232094145769E+03    0.16921E-05   -0.18323E-06  2307   0.228E-03    0.109E-02
RMM:  11    -0.232094145196E+03    0.57324E-06   -0.12241E-06  2164   0.192E-03
  50 F= -.23209415E+03 E0= -.23198387E+03  d E =-.331019E-02
       N       E                     dE             d eps       ncg     rms          rms(c)
DAV:   1    -0.232091010928E+03    0.31348E-02   -0.29041E+00  4032   0.301E+00    0.305E-01
RMM:   2    -0.232097930544E+03   -0.69196E-02   -0.67263E-02  4041   0.436E-01    0.359E-01
RMM:   3    -0.232098392235E+03   -0.46169E-03   -0.41740E-03  4044   0.102E-01    0.477E-01
RMM:   4    -0.232098285507E+03    0.10673E-03   -0.13939E-03  4048   0.562E-02    0.456E-01
RMM:   5    -0.232096601871E+03    0.16836E-02   -0.62982E-04  4038   0.408E-02    0.123E-01
RMM:   6    -0.232096642204E+03   -0.40333E-04   -0.30225E-04  4038   0.271E-02    0.113E-01
RMM:   7    -0.232096610161E+03    0.32043E-04   -0.31710E-04  4035   0.274E-02    0.643E-02
RMM:   8    -0.232096583442E+03    0.26719E-04   -0.87167E-05  4035   0.142E-02    0.359E-02
RMM:   9    -0.232096576804E+03    0.66383E-05   -0.13390E-05  4010   0.568E-03    0.221E-02
RMM:  10    -0.232096574015E+03    0.27886E-05   -0.28920E-06  2516   0.286E-03    0.147E-02
RMM:  11    -0.232096572921E+03    0.10949E-05   -0.28961E-06  2482   0.278E-03    0.128E-02
RMM:  12    -0.232096572757E+03    0.16324E-06   -0.44917E-06  3170   0.325E-03
  51 F= -.23209657E+03 E0= -.23198613E+03  d E =-.242756E-02
       N       E                     dE             d eps       ncg     rms          rms(c)
DAV:   1    -0.232089288885E+03    0.72840E-02   -0.45221E+00  4032   0.376E+00    0.380E-01
RMM:   2    -0.232100048150E+03   -0.10759E-01   -0.10450E-01  4041   0.543E-01    0.447E-01
RMM:   3    -0.232100806614E+03   -0.75846E-03   -0.64869E-03  4044   0.127E-01    0.600E-01
RMM:   4    -0.232100536621E+03    0.26999E-03   -0.21422E-03  4048   0.699E-02    0.561E-01
RMM:   5    -0.232097992612E+03    0.25440E-02   -0.96813E-04  4038   0.506E-02    0.152E-01
RMM:   6    -0.232098040769E+03   -0.48157E-04   -0.46696E-04  4038   0.337E-02    0.140E-01
RMM:   7    -0.232097988104E+03    0.52664E-04   -0.49181E-04  4035   0.341E-02    0.852E-02
RMM:   8    -0.232097951362E+03    0.36742E-04   -0.14103E-04  4035   0.180E-02    0.557E-02
RMM:   9    -0.232097934691E+03    0.16671E-04   -0.24897E-05  4032   0.796E-03    0.335E-02
RMM:  10    -0.232097929289E+03    0.54024E-05   -0.58872E-06  3528   0.400E-03    0.188E-02
RMM:  11    -0.232097927014E+03    0.22750E-05   -0.47671E-06  3143   0.337E-03    0.141E-02
RMM:  12    -0.232097927511E+03   -0.49661E-06   -0.71176E-06  3924   0.396E-03
  52 F= -.23209793E+03 E0= -.23198728E+03  d E =-.378231E-02
       N       E                     dE             d eps       ncg     rms          rms(c)
DAV:   1    -0.232094502719E+03    0.34243E-02   -0.34923E+00  4032   0.327E+00    0.343E-01
RMM:   2    -0.232103032924E+03   -0.85302E-02   -0.79073E-02  4041   0.478E-01    0.439E-01
RMM:   3    -0.232104913402E+03   -0.18805E-02   -0.55927E-03  4042   0.116E-01    0.669E-01
RMM:   4    -0.232102370620E+03    0.25428E-02   -0.18797E-03  4051   0.657E-02    0.421E-01
RMM:   5    -0.232101161282E+03    0.12093E-02   -0.82032E-04  4038   0.469E-02    0.170E-01
RMM:   6    -0.232101157931E+03    0.33507E-05   -0.41259E-04  4038   0.312E-02    0.145E-01
RMM:   7    -0.232101223383E+03   -0.65452E-04   -0.38636E-04  4036   0.300E-02    0.171E-01
RMM:   8    -0.232101054421E+03    0.16896E-03   -0.20086E-04  4038   0.226E-02    0.534E-02
RMM:   9    -0.232101045378E+03    0.90430E-05   -0.41594E-05  4032   0.102E-02    0.269E-02
RMM:  10    -0.232101040777E+03    0.46014E-05   -0.59942E-06  3561   0.386E-03    0.182E-02
RMM:  11    -0.232101038123E+03    0.26543E-05   -0.37402E-06  2810   0.309E-03    0.111E-02
RMM:  12    -0.232101037590E+03    0.53233E-06   -0.66466E-06  3887   0.383E-03
  53 F= -.23210104E+03 E0= -.23199015E+03  d E =-.311008E-02
       N       E                     dE             d eps       ncg     rms          rms(c)
DAV:   1    -0.232096100005E+03    0.49381E-02   -0.36505E+00  4032   0.334E+00    0.351E-01
RMM:   2    -0.232104991662E+03   -0.88917E-02   -0.82622E-02  4041   0.488E-01    0.444E-01
RMM:   3    -0.232107134345E+03   -0.21427E-02   -0.58799E-03  4042   0.119E-01    0.699E-01
RMM:   4    -0.232104247151E+03    0.28872E-02   -0.19624E-03  4051   0.675E-02    0.420E-01
RMM:   5    -0.232103059996E+03    0.11872E-02   -0.84969E-04  4038   0.478E-02    0.172E-01
RMM:   6    -0.232103055223E+03    0.47727E-05   -0.43476E-04  4038   0.320E-02    0.146E-01
RMM:   7    -0.232103125472E+03   -0.70249E-04   -0.40996E-04  4037   0.309E-02    0.175E-01
RMM:   8    -0.232102948014E+03    0.17746E-03   -0.20656E-04  4038   0.229E-02    0.564E-02
RMM:   9    -0.232102937783E+03    0.10231E-04   -0.44584E-05  4032   0.106E-02    0.274E-02
RMM:  10    -0.232102933072E+03    0.47107E-05   -0.65639E-06  3679   0.403E-03    0.186E-02
RMM:  11    -0.232102930313E+03    0.27593E-05   -0.38431E-06  2852   0.312E-03    0.113E-02
RMM:  12    -0.232102929992E+03    0.32124E-06   -0.64802E-06  3857   0.378E-03
  54 F= -.23210293E+03 E0= -.23199178E+03  d E =-.500248E-02
       N       E                     dE             d eps       ncg     rms          rms(c)
DAV:   1    -0.232075180877E+03    0.27749E-01   -0.14603E+01  4032   0.668E+00    0.700E-01
RMM:   2    -0.232110367373E+03   -0.35186E-01   -0.33048E-01  4041   0.978E-01    0.851E-01
RMM:   3    -0.232119352907E+03   -0.89855E-02   -0.23534E-02  4042   0.238E-01    0.139E+00
RMM:   4    -0.232108035544E+03    0.11317E-01   -0.76850E-03  4051   0.133E-01    0.839E-01
RMM:   5    -0.232103259226E+03    0.47763E-02   -0.33936E-03  4038   0.953E-02    0.356E-01
RMM:   6    -0.232103124194E+03    0.13503E-03   -0.16807E-03  4038   0.630E-02    0.296E-01
RMM:   7    -0.232103376365E+03   -0.25217E-03   -0.16311E-03  4036   0.617E-02    0.354E-01
RMM:   8    -0.232102649336E+03    0.72703E-03   -0.88034E-04  4038   0.472E-02    0.116E-01
RMM:   9    -0.232102600433E+03    0.48903E-04   -0.19157E-04  4038   0.217E-02    0.580E-02
RMM:  10    -0.232102578976E+03    0.21457E-04   -0.29764E-05  4031   0.853E-03    0.385E-02
RMM:  11    -0.232102566777E+03    0.12200E-04   -0.16640E-05  4032   0.628E-03    0.221E-02
RMM:  12    -0.232102565490E+03    0.12867E-05   -0.22889E-05  4032   0.688E-03    0.191E-02
RMM:  13    -0.232102564306E+03    0.11838E-05   -0.92433E-06  4000   0.440E-03    0.974E-03
RMM:  14    -0.232102564405E+03   -0.99069E-07   -0.12616E-06  2240   0.190E-03
  55 F= -.23210256E+03 E0= -.23199083E+03  d E =-.463689E-02
       N       E                     dE             d eps       ncg     rms          rms(c)
DAV:   1    -0.232094448707E+03    0.81156E-02   -0.48365E+00  4032   0.385E+00    0.404E-01
RMM:   2    -0.232106552733E+03   -0.12104E-01   -0.10981E-01  4041   0.563E-01    0.547E-01
RMM:   3    -0.232109219598E+03   -0.26669E-02   -0.78076E-03  4043   0.137E-01    0.808E-01
RMM:   4    -0.232105040962E+03    0.41786E-02   -0.26058E-03  4048   0.784E-02    0.461E-01
RMM:   5    -0.232103675187E+03    0.13658E-02   -0.11102E-03  4038   0.549E-02    0.198E-01
RMM:   6    -0.232103661691E+03    0.13495E-04   -0.58113E-04  4038   0.370E-02    0.168E-01
RMM:   7    -0.232103740312E+03   -0.78621E-04   -0.54292E-04  4036   0.355E-02    0.201E-01
RMM:   8    -0.232103510146E+03    0.23017E-03   -0.26445E-04  4038   0.259E-02    0.632E-02
RMM:   9    -0.232103496619E+03    0.13527E-04   -0.57888E-05  4036   0.121E-02    0.325E-02
RMM:  10    -0.232103490097E+03    0.65221E-05   -0.84351E-06  3916   0.455E-03    0.211E-02
RMM:  11    -0.232103486444E+03    0.36527E-05   -0.48518E-06  3260   0.344E-03    0.135E-02
RMM:  12    -0.232103485347E+03    0.10973E-05   -0.85730E-06  4021   0.429E-03    0.103E-02
RMM:  13    -0.232103484653E+03    0.69415E-06   -0.26709E-06  2478   0.254E-03
  56 F= -.23210348E+03 E0= -.23199210E+03  d E =-.555714E-02
       N       E                     dE             d eps       ncg     rms          rms(c)
DAV:   1    -0.232102351562E+03    0.11338E-02   -0.15386E+00  4032   0.219E+00    0.224E-01
RMM:   2    -0.232105811173E+03   -0.34596E-02   -0.35074E-02  4042   0.316E-01    0.219E-01
RMM:   3    -0.232106060684E+03   -0.24951E-03   -0.21096E-03  4042   0.722E-02    0.336E-01
RMM:   4    -0.232105861869E+03    0.19882E-03   -0.55589E-04  4053   0.366E-02    0.270E-01
RMM:   5    -0.232105347862E+03    0.51401E-03   -0.30435E-04  4038   0.277E-02    0.120E-01
RMM:   6    -0.232105323675E+03    0.24187E-04   -0.18481E-04  4038   0.212E-02    0.942E-02
RMM:   7    -0.232105314563E+03    0.91125E-05   -0.16165E-04  4036   0.191E-02    0.808E-02
RMM:   8    -0.232105284809E+03    0.29754E-04   -0.73807E-05  4038   0.133E-02    0.462E-02
RMM:   9    -0.232105273252E+03    0.11556E-04   -0.16016E-05  4026   0.642E-03    0.199E-02
RMM:  10    -0.232105270658E+03    0.25947E-05   -0.27611E-06  2526   0.279E-03    0.106E-02
RMM:  11    -0.232105269777E+03    0.88010E-06   -0.14473E-06  2153   0.203E-03
  57 F= -.23210527E+03 E0= -.23199378E+03  d E =-.178512E-02
       N       E                     dE             d eps       ncg     rms          rms(c)
DAV:   1    -0.232082085953E+03    0.23185E-01   -0.13853E+01  4032   0.656E+00    0.669E-01
RMM:   2    -0.232113009851E+03   -0.30924E-01   -0.31555E-01  4042   0.948E-01    0.610E-01
RMM:   3    -0.232114661743E+03   -0.16519E-02   -0.18636E-02  4042   0.215E-01    0.928E-01
RMM:   4    -0.232112999722E+03    0.16620E-02   -0.44225E-03  4054   0.105E-01    0.734E-01
RMM:   5    -0.232109630084E+03    0.33696E-02   -0.24723E-03  4038   0.776E-02    0.399E-01
RMM:   6    -0.232109044507E+03    0.58558E-03   -0.16531E-03  4038   0.636E-02    0.284E-01
RMM:   7    -0.232108892101E+03    0.15241E-03   -0.14382E-03  4036   0.570E-02    0.239E-01
RMM:   8    -0.232108625982E+03    0.26612E-03   -0.66889E-04  4038   0.400E-02    0.139E-01
RMM:   9    -0.232108514129E+03    0.11185E-03   -0.14444E-04  4038   0.192E-02    0.611E-02
RMM:  10    -0.232108490090E+03    0.24039E-04   -0.27302E-05  4032   0.847E-03    0.318E-02
RMM:  11    -0.232108482001E+03    0.80890E-05   -0.13512E-05  4023   0.562E-03    0.211E-02
RMM:  12    -0.232108481044E+03    0.95734E-06   -0.21669E-05  4026   0.669E-03    0.172E-02
RMM:  13    -0.232108481008E+03    0.35565E-07   -0.96706E-06  3963   0.454E-03
  58 F= -.23210848E+03 E0= -.23199668E+03  d E =-.499636E-02
       N       E                     dE             d eps       ncg     rms          rms(c)
DAV:   1    -0.231999257658E+03    0.10922E+00   -0.55455E+01  4032   0.131E+01    0.133E+00
RMM:   2    -0.232121507203E+03   -0.12225E+00   -0.12644E+00  4042   0.189E+00    0.106E+00
[...]
RMM:   8    -0.232430558082E+03    0.47489E-04   -0.98342E-05  4037   0.154E-02    0.470E-02
RMM:   9    -0.232430545861E+03    0.12221E-04   -0.19733E-05  4032   0.736E-03    0.204E-02
RMM:  10    -0.232430543167E+03    0.26935E-05   -0.53564E-06  3404   0.364E-03    0.139E-02
RMM:  11    -0.232430542301E+03    0.86619E-06   -0.52595E-06  3628   0.347E-03
  94 F= -.23243054E+03 E0= -.23231616E+03  d E =-.520512E-02
       N       E                     dE             d eps       ncg     rms          rms(c)
DAV:   1    -0.232414825560E+03    0.15718E-01   -0.10430E+01  4032   0.522E+00    0.480E-01
RMM:   2    -0.232433593242E+03   -0.18768E-01   -0.18469E-01  4042   0.787E-01    0.571E-01
RMM:   3    -0.232434713788E+03   -0.11205E-02   -0.10984E-02  4050   0.171E-01    0.727E-01
RMM:   4    -0.232433622135E+03    0.10917E-02   -0.36073E-03  4053   0.920E-02    0.637E-01
RMM:   5    -0.232430708085E+03    0.29140E-02   -0.17459E-03  4039   0.671E-02    0.297E-01
RMM:   6    -0.232430793927E+03   -0.85841E-04   -0.11934E-03  4038   0.524E-02    0.288E-01
RMM:   7    -0.232430538337E+03    0.25559E-03   -0.12870E-03  4037   0.539E-02    0.196E-01
RMM:   8    -0.232430334806E+03    0.20353E-03   -0.40925E-04  4037   0.315E-02    0.902E-02
RMM:   9    -0.232430288951E+03    0.45855E-04   -0.75861E-05  4040   0.144E-02    0.405E-02
RMM:  10    -0.232430277428E+03    0.11523E-04   -0.22238E-05  4032   0.736E-03    0.285E-02
RMM:  11    -0.232430273313E+03    0.41145E-05   -0.18198E-05  4014   0.626E-03    0.223E-02
RMM:  12    -0.232430272895E+03    0.41817E-06   -0.19559E-05  4026   0.630E-03    0.152E-02
RMM:  13    -0.232430273075E+03   -0.17973E-06   -0.41981E-06  3066   0.320E-03
  95 F= -.23243027E+03 E0= -.23231588E+03  d E =-.493589E-02
       N       E                     dE             d eps       ncg     rms          rms(c)
DAV:   1    -0.232425149937E+03    0.51230E-02   -0.39164E+00  4032   0.320E+00    0.295E-01
RMM:   2    -0.232432143765E+03   -0.69938E-02   -0.69454E-02  4042   0.482E-01    0.344E-01
RMM:   3    -0.232432143588E+03    0.17734E-06   -0.40662E-03  4048   0.105E-01    0.387E-01
RMM:   4    -0.232432410595E+03   -0.26701E-03   -0.12783E-03  4057   0.546E-02    0.424E-01
RMM:   5    -0.232431088308E+03    0.13223E-02   -0.66788E-04  4040   0.408E-02    0.185E-01
RMM:   6    -0.232431122702E+03   -0.34394E-04   -0.43704E-04  4038   0.319E-02    0.171E-01
RMM:   7    -0.232431048985E+03    0.73717E-04   -0.49697E-04  4037   0.336E-02    0.122E-01
RMM:   8    -0.232430970568E+03    0.78417E-04   -0.15373E-04  4037   0.193E-02    0.556E-02
RMM:   9    -0.232430951887E+03    0.18681E-04   -0.29845E-05  4033   0.901E-03    0.265E-02
RMM:  10    -0.232430947185E+03    0.47019E-05   -0.85024E-06  3932   0.454E-03    0.177E-02
RMM:  11    -0.232430945240E+03    0.19447E-05   -0.72209E-06  3951   0.397E-03    0.129E-02
RMM:  12    -0.232430944581E+03    0.65901E-06   -0.70343E-06  3930   0.380E-03
  96 F= -.23243094E+03 E0= -.23231655E+03  d E =-.560740E-02
       N       E                     dE             d eps       ncg     rms          rms(c)
DAV:   1    -0.232423454887E+03    0.74904E-02   -0.70330E+00  4032   0.428E+00    0.396E-01
RMM:   2    -0.232435947101E+03   -0.12492E-01   -0.12371E-01  4042   0.641E-01    0.444E-01
RMM:   3    -0.232435773870E+03    0.17323E-03   -0.75515E-03  4046   0.140E-01    0.485E-01
RMM:   4    -0.232436160633E+03   -0.38676E-03   -0.20703E-03  4058   0.689E-02    0.531E-01
RMM:   5    -0.232433909361E+03    0.22513E-02   -0.98666E-04  4040   0.481E-02    0.212E-01
RMM:   6    -0.232433973355E+03   -0.63993E-04   -0.79808E-04  4038   0.438E-02    0.192E-01
RMM:   7    -0.232433855697E+03    0.11766E-03   -0.74438E-04  4037   0.412E-02    0.136E-01
RMM:   8    -0.232433772866E+03    0.82831E-04   -0.20174E-04  4037   0.220E-02    0.789E-02
RMM:   9    -0.232433748244E+03    0.24622E-04   -0.45787E-05  4038   0.110E-02    0.393E-02
RMM:  10    -0.232433736686E+03    0.11558E-04   -0.13507E-05  4025   0.589E-03    0.232E-02
RMM:  11    -0.232433732879E+03    0.38072E-05   -0.10667E-05  4012   0.475E-03    0.163E-02
RMM:  12    -0.232433732220E+03    0.65925E-06   -0.11175E-05  4014   0.481E-03    0.127E-02
RMM:  13    -0.232433731691E+03    0.52836E-06   -0.28905E-06  2495   0.267E-03
  97 F= -.23243373E+03 E0= -.23231936E+03  d E =-.278711E-02
       N       E                     dE             d eps       ncg     rms          rms(c)
DAV:   1    -0.232433159565E+03    0.57265E-03   -0.50586E-01  4104   0.115E+00    0.106E-01
RMM:   2    -0.232434045086E+03   -0.88552E-03   -0.88842E-03  4042   0.172E-01    0.116E-01
RMM:   3    -0.232434037600E+03    0.74857E-05   -0.53766E-04  4047   0.373E-02    0.131E-01
RMM:   4    -0.232434055141E+03   -0.17541E-04   -0.14765E-04  4058   0.184E-02    0.141E-01
RMM:   5    -0.232433902717E+03    0.15242E-03   -0.69727E-05  4040   0.128E-02    0.572E-02
RMM:   6    -0.232433911960E+03   -0.92432E-05   -0.57643E-05  4038   0.118E-02    0.530E-02
RMM:   7    -0.232433907508E+03    0.44528E-05   -0.53892E-05  4036   0.111E-02    0.395E-02
RMM:   8    -0.232433901087E+03    0.64201E-05   -0.14930E-05  4030   0.597E-03    0.216E-02
RMM:   9    -0.232433899195E+03    0.18924E-05   -0.33671E-06  2760   0.312E-03    0.970E-03
RMM:  10    -0.232433898581E+03    0.61405E-06   -0.99274E-07  2155   0.174E-03
  98 F= -.23243390E+03 E0= -.23231953E+03  d E =-.295400E-02
       N       E                     dE             d eps       ncg     rms          rms(c)
DAV:   1    -0.232428191845E+03    0.57073E-02   -0.49724E+00  4032   0.362E+00    0.342E-01
RMM:   2    -0.232437739454E+03   -0.95476E-02   -0.90640E-02  4042   0.542E-01    0.433E-01
RMM:   3    -0.232440215490E+03   -0.24760E-02   -0.61031E-03  4045   0.123E-01    0.720E-01
RMM:   4    -0.232436241030E+03    0.39745E-02   -0.19198E-03  4053   0.694E-02    0.290E-01
RMM:   5    -0.232435842307E+03    0.39872E-03   -0.58332E-04  4039   0.390E-02    0.159E-01
RMM:   6    -0.232435853830E+03   -0.11523E-04   -0.52556E-04  4038   0.347E-02    0.154E-01
RMM:   7    -0.232435864707E+03   -0.10878E-04   -0.41862E-04  4038   0.309E-02    0.150E-01
RMM:   8    -0.232435729669E+03    0.13504E-03   -0.17375E-04  4039   0.206E-02    0.499E-02
RMM:   9    -0.232435719967E+03    0.97018E-05   -0.28882E-05  4039   0.882E-03    0.238E-02
RMM:  10    -0.232435715482E+03    0.44853E-05   -0.74318E-06  3875   0.429E-03    0.156E-02
RMM:  11    -0.232435715057E+03    0.42428E-06   -0.79676E-06  4014   0.414E-03
  99 F= -.23243572E+03 E0= -.23232131E+03  d E =-.181648E-02
       N       E                     dE             d eps       ncg     rms          rms(c)
DAV:   1    -0.232435714805E+03    0.67649E-06   -0.57960E-04  4284   0.398E-02    0.104E-02
RMM:   2    -0.232435725372E+03   -0.10567E-04   -0.24646E-05  4041   0.892E-03    0.315E-02
RMM:   3    -0.232435717718E+03    0.76541E-05   -0.62774E-06  3492   0.395E-03    0.161E-02
RMM:   4    -0.232435716612E+03    0.11058E-05   -0.10214E-06  2216   0.171E-03    0.657E-03
RMM:   5    -0.232435716789E+03   -0.17702E-06   -0.37920E-07  2132   0.105E-03
 100 F= -.23243572E+03 E0= -.23232131E+03  d E =-.181821E-02
       N       E                     dE             d eps       ncg     rms          rms(c)
DAV:   1    -0.232433885676E+03    0.18309E-02   -0.21494E+00  4032   0.237E+00    0.224E-01
RMM:   2    -0.232437866610E+03   -0.39809E-02   -0.37911E-02  4043   0.353E-01    0.293E-01
RMM:   3    -0.232438117923E+03   -0.25131E-03   -0.23524E-03  4046   0.770E-02    0.345E-01
RMM:   4    -0.232437760495E+03    0.35743E-03   -0.87715E-04  4054   0.444E-02    0.305E-01
RMM:   5    -0.232437089578E+03    0.67092E-03   -0.38642E-04  4039   0.317E-02    0.137E-01
RMM:   6    -0.232437102221E+03   -0.12644E-04   -0.24156E-04  4038   0.237E-02    0.130E-01
RMM:   7    -0.232437084867E+03    0.17354E-04   -0.25141E-04  4037   0.239E-02    0.956E-02
RMM:   8    -0.232437027693E+03    0.57174E-04   -0.81411E-05  4037   0.141E-02    0.433E-02
RMM:   9    -0.232437021078E+03    0.66150E-05   -0.15688E-05  4032   0.634E-03    0.219E-02
RMM:  10    -0.232437017567E+03    0.35105E-05   -0.38783E-06  2866   0.323E-03    0.133E-02
RMM:  11    -0.232437016101E+03    0.14666E-05   -0.45235E-06  3257   0.334E-03    0.958E-03
RMM:  12    -0.232437015759E+03    0.34158E-06   -0.38824E-06  2734   0.310E-03
 101 F= -.23243702E+03 E0= -.23232242E+03  d E =-.129897E-02
       N       E                     dE             d eps       ncg     rms          rms(c)
DAV:   1    -0.232436851639E+03    0.16446E-03   -0.17726E-01  4056   0.680E-01    0.646E-02
RMM:   2    -0.232437175043E+03   -0.32340E-03   -0.31291E-03  4043   0.101E-01    0.808E-02
RMM:   3    -0.232437194623E+03   -0.19580E-04   -0.19548E-04  4046   0.223E-02    0.964E-02
RMM:   4    -0.232437172519E+03    0.22104E-04   -0.71219E-05  4055   0.125E-02    0.910E-02
RMM:   5    -0.232437112560E+03    0.59959E-04   -0.30870E-05  4038   0.895E-03    0.377E-02
RMM:   6    -0.232437117157E+03   -0.45964E-05   -0.20958E-05  4032   0.697E-03    0.401E-02
RMM:   7    -0.232437115521E+03    0.16359E-05   -0.20897E-05  4032   0.693E-03    0.278E-02
RMM:   8    -0.232437110862E+03    0.46585E-05   -0.74844E-06  3860   0.432E-03    0.121E-02
RMM:   9    -0.232437110288E+03    0.57412E-06   -0.12277E-06  2206   0.189E-03
 102 F= -.23243711E+03 E0= -.23232246E+03  d E =-.139350E-02
       N       E                     dE             d eps       ncg     rms          rms(c)
DAV:   1    -0.232435178261E+03    0.19326E-02   -0.19387E+00  4032   0.227E+00    0.197E-01
RMM:   2    -0.232438678585E+03   -0.35003E-02   -0.34421E-02  4041   0.337E-01    0.245E-01
RMM:   3    -0.232438577209E+03    0.10138E-03   -0.21061E-03  4044   0.733E-02    0.269E-01
RMM:   4    -0.232438543273E+03    0.33937E-04   -0.49624E-04  4060   0.353E-02    0.244E-01
RMM:   5    -0.232438157696E+03    0.38558E-03   -0.27978E-04  4041   0.258E-02    0.128E-01
RMM:   6    -0.232438112580E+03    0.45116E-04   -0.13827E-04  4038   0.181E-02    0.101E-01
RMM:   7    -0.232438101432E+03    0.11148E-04   -0.18417E-04  4032   0.206E-02    0.735E-02
RMM:   8    -0.232438074911E+03    0.26521E-04   -0.81964E-05  4032   0.139E-02    0.335E-02
RMM:   9    -0.232438069676E+03    0.52352E-05   -0.13999E-05  4026   0.586E-03    0.202E-02
RMM:  10    -0.232438066567E+03    0.31089E-05   -0.30611E-06  2562   0.291E-03    0.111E-02
RMM:  11    -0.232438065621E+03    0.94587E-06   -0.21497E-06  2214   0.245E-03
 103 F= -.23243807E+03 E0= -.23232328E+03  d E =-.955333E-03
       N       E                     dE             d eps       ncg     rms          rms(c)
DAV:   1    -0.232437945513E+03    0.12105E-03   -0.11677E-01  4104   0.556E-01    0.487E-02
RMM:   2    -0.232438155006E+03   -0.20949E-03   -0.20892E-03  4042   0.831E-02    0.594E-02
RMM:   3    -0.232438142247E+03    0.12760E-04   -0.12358E-04  4044   0.178E-02    0.577E-02
RMM:   4    -0.232438147663E+03   -0.54162E-05   -0.27395E-05  4060   0.832E-03    0.603E-02
RMM:   5    -0.232438126771E+03    0.20892E-04   -0.15660E-05  4038   0.609E-03    0.335E-02
RMM:   6    -0.232438124890E+03    0.18810E-05   -0.95893E-06  4009   0.478E-03    0.268E-02
RMM:   7    -0.232438124668E+03    0.22288E-06   -0.11381E-05  4026   0.511E-03    0.197E-02
RMM:   8    -0.232438122543E+03    0.21249E-05   -0.50057E-06  3376   0.349E-03    0.682E-03
RMM:   9    -0.232438122495E+03    0.47694E-07   -0.79141E-07  2139   0.155E-03
 104 F= -.23243812E+03 E0= -.23232331E+03  d E =-.101221E-02
       N       E                     dE             d eps       ncg     rms          rms(c)
DAV:   1    -0.232436068239E+03    0.20543E-02   -0.16345E+00  4032   0.214E+00    0.210E-01
RMM:   2    -0.232439273764E+03   -0.32055E-02   -0.32260E-02  4041   0.319E-01    0.215E-01
RMM:   3    -0.232439996606E+03   -0.72284E-03   -0.19817E-03  4044   0.712E-02    0.382E-01
RMM:   4    -0.232439021024E+03    0.97558E-03   -0.59334E-04  4057   0.375E-02    0.186E-01
RMM:   5    -0.232438920732E+03    0.10029E-03   -0.35182E-04  4039   0.296E-02    0.158E-01
RMM:   6    -0.232438825555E+03    0.95177E-04   -0.17582E-04  4038   0.206E-02    0.906E-02
RMM:   7    -0.232438809557E+03    0.15998E-04   -0.17367E-04  4038   0.204E-02    0.576E-02
RMM:   8    -0.232438791528E+03    0.18028E-04   -0.44910E-05  4038   0.105E-02    0.265E-02
RMM:   9    -0.232438788298E+03    0.32303E-05   -0.69466E-06  3782   0.412E-03    0.145E-02
RMM:  10    -0.232438786117E+03    0.21812E-05   -0.21536E-06  2273   0.237E-03    0.907E-03
RMM:  11    -0.232438786064E+03    0.52547E-07   -0.22334E-06  2262   0.250E-03
 105 F= -.23243879E+03 E0= -.23232389E+03  d E =-.663569E-03
       N       E                     dE             d eps       ncg     rms          rms(c)
DAV:   1    -0.232438783060E+03    0.30565E-05   -0.13644E-03  4176   0.622E-02    0.859E-03
RMM:   2    -0.232438788804E+03   -0.57435E-05   -0.29047E-05  4038   0.949E-03    0.218E-02
RMM:   3    -0.232438785246E+03    0.35579E-05   -0.31314E-06  2581   0.295E-03    0.833E-03
RMM:   4    -0.232438785222E+03    0.24280E-07   -0.76016E-07  2124   0.158E-03
 106 F= -.23243879E+03 E0= -.23232388E+03  d E =-.662727E-03
       N       E                     dE             d eps       ncg     rms          rms(c)
DAV:   1    -0.232437764491E+03    0.10208E-02   -0.87455E-01  4032   0.158E+00    0.149E-01
RMM:   2    -0.232439605757E+03   -0.18413E-02   -0.17764E-02  4040   0.234E-01    0.180E-01
RMM:   3    -0.232440128435E+03   -0.52268E-03   -0.11727E-03  4044   0.532E-02    0.320E-01
RMM:   4    -0.232439309166E+03    0.81927E-03   -0.34450E-04  4054   0.292E-02    0.117E-01
RMM:   5    -0.232439263057E+03    0.46109E-04   -0.13384E-04  4042   0.182E-02    0.685E-02
RMM:   6    -0.232439275242E+03   -0.12185E-04   -0.90382E-05  4038   0.146E-02    0.591E-02
RMM:   7    -0.232439275459E+03   -0.21734E-06   -0.78017E-05  4037   0.135E-02    0.453E-02
RMM:   8    -0.232439266123E+03    0.93364E-05   -0.19506E-05  4025   0.694E-03    0.237E-02
RMM:   9    -0.232439262761E+03    0.33618E-05   -0.39069E-06  2813   0.323E-03    0.114E-02
RMM:  10    -0.232439261987E+03    0.77430E-06   -0.10585E-06  2161   0.174E-03
 107 F= -.23243926E+03 E0= -.23232428E+03  d E =-.476765E-03
       N       E                     dE             d eps       ncg     rms          rms(c)
DAV:   1    -0.232439096510E+03    0.16625E-03   -0.11776E-01  4032   0.580E-01    0.563E-02
RMM:   2    -0.232439359075E+03   -0.26256E-03   -0.24247E-03  4040   0.864E-02    0.785E-02
RMM:   3    -0.232439413457E+03   -0.54382E-04   -0.16679E-04  4044   0.200E-02    0.119E-01
RMM:   4    -0.232439305599E+03    0.10786E-03   -0.49387E-05  4048   0.112E-02    0.433E-02
RMM:   5    -0.232439300779E+03    0.48200E-05   -0.18921E-05  4030   0.682E-03    0.259E-02
RMM:   6    -0.232439305093E+03   -0.43143E-05   -0.13469E-05  4032   0.571E-03    0.269E-02
RMM:   7    -0.232439303607E+03    0.14867E-05   -0.11572E-05  4018   0.525E-03    0.141E-02
RMM:   8    -0.232439303050E+03    0.55661E-06   -0.24376E-06  2433   0.254E-03
 108 F= -.23243930E+03 E0= -.23232431E+03  d E =-.517828E-03
       N       E                     dE             d eps       ncg     rms          rms(c)
DAV:   1    -0.232438331797E+03    0.97181E-03   -0.76171E-01  4032   0.148E+00    0.138E-01
RMM:   2    -0.232439777284E+03   -0.14455E-02   -0.15241E-02  4038   0.217E-01    0.993E-02
RMM:   3    -0.232440126760E+03   -0.34948E-03   -0.80468E-04  4044   0.456E-02    0.236E-01
RMM:   4    -0.232439737641E+03    0.38912E-03   -0.24472E-04  4052   0.237E-02    0.127E-01
RMM:   5    -0.232439657419E+03    0.80223E-04   -0.95824E-05  4038   0.159E-02    0.747E-02
RMM:   6    -0.232439664845E+03   -0.74263E-05   -0.85462E-05  4038   0.140E-02    0.620E-02
RMM:   7    -0.232439653906E+03    0.10939E-04   -0.68670E-05  4034   0.125E-02    0.322E-02
RMM:   8    -0.232439652183E+03    0.17230E-05   -0.14431E-05  4026   0.594E-03    0.258E-02
RMM:   9    -0.232439648185E+03    0.39982E-05   -0.28091E-06  2495   0.285E-03    0.990E-03
RMM:  10    -0.232439647735E+03    0.45014E-06   -0.10766E-06  2160   0.185E-03
 109 F= -.23243965E+03 E0= -.23232461E+03  d E =-.344685E-03
       N       E                     dE             d eps       ncg     rms          rms(c)
DAV:   1    -0.232439560652E+03    0.87533E-04   -0.56543E-02  4056   0.404E-01    0.391E-02
RMM:   2    -0.232439668930E+03   -0.10828E-03   -0.11516E-03  4038   0.596E-02    0.281E-02
RMM:   3    -0.232439680857E+03   -0.11928E-04   -0.64239E-05  4044   0.130E-02    0.524E-02
RMM:   4    -0.232439669999E+03    0.10858E-04   -0.16912E-05  4039   0.634E-03    0.406E-02
RMM:   5    -0.232439658886E+03    0.11113E-04   -0.58124E-06  3391   0.387E-03    0.162E-02
RMM:   6    -0.232439662662E+03   -0.37764E-05   -0.67345E-06  3894   0.395E-03    0.197E-02
RMM:   7    -0.232439661256E+03    0.14058E-05   -0.46999E-06  3192   0.340E-03    0.821E-03
RMM:   8    -0.232439661556E+03   -0.29914E-06   -0.11997E-06  2187   0.187E-03
 110 F= -.23243966E+03 E0= -.23232461E+03  d E =-.358505E-03
       N       E                     dE             d eps       ncg     rms          rms(c)
DAV:   1    -0.232439093095E+03    0.56816E-03   -0.44423E-01  4032   0.115E+00    0.114E-01
RMM:   2    -0.232440061472E+03   -0.96838E-03   -0.95068E-03  4038   0.167E-01    0.129E-01
RMM:   3    -0.232440081100E+03   -0.19628E-04   -0.56979E-04  4044   0.379E-02    0.150E-01
RMM:   4    -0.232440107440E+03   -0.26340E-04   -0.19546E-04  4044   0.207E-02    0.168E-01
RMM:   5    -0.232439880071E+03    0.22737E-03   -0.68307E-05  4040   0.126E-02    0.576E-02
RMM:   6    -0.232439906640E+03   -0.26570E-04   -0.50110E-05  4036   0.111E-02    0.617E-02
RMM:   7    -0.232439900287E+03    0.63533E-05   -0.47796E-05  4034   0.108E-02    0.376E-02
RMM:   8    -0.232439894988E+03    0.52994E-05   -0.19605E-05  4026   0.695E-03    0.171E-02
RMM:   9    -0.232439893681E+03    0.13066E-05   -0.30933E-06  2619   0.288E-03    0.963E-03
RMM:  10    -0.232439893112E+03    0.56898E-06   -0.84583E-07  2154   0.165E-03
 111 F= -.23243989E+03 E0= -.23232489E+03  d E =-.231557E-03
       N       E                     dE             d eps       ncg     rms          rms(c)
DAV:   1    -0.232439861420E+03    0.32261E-04   -0.20249E-02  4152   0.246E-01    0.251E-02
RMM:   2    -0.232439904757E+03   -0.43337E-04   -0.44143E-04  4038   0.360E-02    0.255E-02
RMM:   3    -0.232439903130E+03    0.16270E-05   -0.26484E-05  4044   0.827E-03    0.280E-02
RMM:   4    -0.232439898952E+03    0.41786E-05   -0.53241E-06  3401   0.387E-03    0.149E-02
RMM:   5    -0.232439899761E+03   -0.80931E-06   -0.23287E-06  2460   0.253E-03
 112 F= -.23243990E+03 E0= -.23232493E+03  d E =-.238205E-03
       N       E                     dE             d eps       ncg     rms          rms(c)
DAV:   1    -0.232439513466E+03    0.38549E-03   -0.33555E-01  4032   0.986E-01    0.993E-02
RMM:   2    -0.232440581677E+03   -0.10682E-02   -0.67983E-03  4038   0.144E-01    0.244E-01
RMM:   3    -0.232440210049E+03    0.37163E-03   -0.50472E-04  4045   0.351E-02    0.150E-01
RMM:   4    -0.232440093541E+03    0.11651E-03   -0.11832E-04  4041   0.187E-02    0.659E-02
RMM:   5    -0.232440096639E+03   -0.30972E-05   -0.63379E-05  4038   0.124E-02    0.728E-02
RMM:   6    -0.232440089293E+03    0.73456E-05   -0.44361E-05  4036   0.998E-03    0.558E-02
RMM:   7    -0.232440086378E+03    0.29153E-05   -0.48351E-05  4034   0.108E-02    0.338E-02
RMM:   8    -0.232440079673E+03    0.67051E-05   -0.13043E-05  4031   0.571E-03    0.133E-02
RMM:   9    -0.232440078671E+03    0.10021E-05   -0.16814E-06  2299   0.212E-03    0.704E-03
RMM:  10    -0.232440078439E+03    0.23137E-06   -0.62785E-07  2135   0.138E-03
 113 F= -.23244008E+03 E0= -.23232509E+03  d E =-.178678E-03
