unknown system                          
           1
    11.002582    0.000000    0.000000
     5.501291    9.528515    0.000000
     0.000000    0.000000   26.191785
   Au   O    Pd
  24   8  24
Direct configuration=     1
   0.48433232  0.75079588  0.55853671
   0.67378651  0.90595374  0.47327629
   0.75127595  0.50145062  0.56123978
   0.83333333  0.58333333  0.38179910
   0.76012324  0.24959867  0.56267188
   0.92294622  0.41392436  0.47424972
   0.83333333  0.33333333  0.38179910
   0.74953925  0.00074275  0.56302296
   0.08333333  0.58333333  0.38179910
   0.67118162  0.16205168  0.47517596
   0.98864944  0.49724525  0.57748278
   0.33333333  0.83333333  0.38179910
   0.83333333  0.08333333  0.38179910
   0.52517114  0.51072142  0.59680670
   0.42280312  0.65788206  0.47298257
   0.17491699  0.16009971  0.47212500
   0.49726802  0.24449532  0.57035475
   0.58333333  0.33333333  0.38179910
   0.33333333  0.33333333  0.38179910
   0.17268052  0.41394253  0.47881700
   0.48596239  0.00114907  0.56334187
   0.58333333  0.08333333  0.38179910
   0.17375512  0.91268751  0.47882922
   0.16966598  0.66561662  0.48077552
   0.25796331  0.19118598  0.63703324
   0.32098592  0.58272858  0.61931545
   0.09109699  0.58043227  0.61869462
   0.04903117  0.10934152  0.61818801
   0.82478313  0.84776647  0.62304987
   0.27801430  0.84130070  0.63777818
   0.53929337  0.84574669  0.62121361
   0.60496768  0.30504724  0.62278345
   0.33333333  0.08333333  0.38179910
   0.25168648  0.02220056  0.63312123
   0.24706115  0.24894652  0.56721814
   0.42068122  0.41379435  0.48073996
   0.42233015  0.16215762  0.47792124
   0.73861782  0.74321233  0.59368291
   0.23400002  0.76264869  0.57829883
   0.33333333  0.58333333  0.38179910
   0.99356318  0.75693094  0.57641250
   0.42189242  0.91388422  0.46992940
   0.58333333  0.83333333  0.38179910
   0.92463922  0.90985448  0.47561194
   0.08333333  0.83333333  0.38179910
   0.92023587  0.66405997  0.48032635
   0.00842699  0.24647727  0.56156910
   0.66920976  0.41347444  0.47216992
   0.08333333  0.33333333  0.38179910
   0.66960806  0.66347254  0.47142881
   0.00428607  0.00102458  0.56509433
   0.83333333  0.83333333  0.38179910
   0.92275109  0.16094108  0.47283047
   0.25443664  0.49075006  0.57020906
   0.58333333  0.58333333  0.38179910
   0.08333333  0.08333333  0.38179910
Direct configuration=     2
   0.48446070  0.75076146  0.55861045
   0.67372020  0.90608370  0.47327612
   0.75123653  0.50159124  0.56131164
   0.83333333  0.58333333  0.38179910
   0.75999330  0.24957528  0.56281640
   0.92297352  0.41396846  0.47429690
   0.83333333  0.33333333  0.38179910
   0.74936460  0.00077675  0.56302696
   0.08333333  0.58333333  0.38179910
   0.67110040  0.16218221  0.47512482
   0.98883738  0.49712895  0.57737776
   0.33333333  0.83333333  0.38179910
   0.83333333  0.08333333  0.38179910
   0.52519432  0.51101289  0.59693936
   0.42275750  0.65786649  0.47304433
   0.17480212  0.16018862  0.47217715
   0.49715842  0.24447836  0.57044705
   0.58333333  0.33333333  0.38179910
   0.33333333  0.33333333  0.38179910
   0.17280830  0.41387159  0.47876362
   0.48599434  0.00134082  0.56318594
   0.58333333  0.08333333  0.38179910
   0.17362276  0.91286852  0.47877810
   0.16949020  0.66575446  0.48078015
   0.25764535  0.19136184  0.63713965
   0.32070169  0.58278005  0.61922287
   0.09098681  0.58039207  0.61866723
   0.04922131  0.10924464  0.61820319
   0.82476669  0.84776719  0.62301431
   0.27786425  0.84115251  0.63788960
   0.53932688  0.84573218  0.62122264
   0.60480969  0.30500764  0.62282661
   0.33333333  0.08333333  0.38179910
   0.25205903  0.02227167  0.63302217
   0.24692216  0.24882704  0.56730965
   0.42063913  0.41383180  0.48072687
   0.42218837  0.16229956  0.47783876
   0.73876579  0.74286473  0.59367302
   0.23405216  0.76251426  0.57838489
   0.33333333  0.58333333  0.38179910
   0.99367388  0.75683336  0.57640379
   0.42185676  0.91389452  0.46994438
   0.58333333  0.83333333  0.38179910
   0.92447585  0.90996401  0.47558874
   0.08333333  0.83333333  0.38179910
   0.92023463  0.66412618  0.48034550
   0.00823789  0.24663286  0.56157016
   0.66943659  0.41335100  0.47217926
   0.08333333  0.33333333  0.38179910
   0.66967469  0.66346775  0.47151789
   0.00444607  0.00084346  0.56508568
   0.83333333  0.83333333  0.38179910
   0.92269962  0.16095976  0.47287782
   0.25446078  0.49083074  0.57019293
   0.58333333  0.58333333  0.38179910
   0.08333333  0.08333333  0.38179910
Direct configuration=     3
   0.48479472  0.75067189  0.55880231
   0.67354766  0.90642182  0.47327567
   0.75113396  0.50195713  0.56149860
   0.83333333  0.58333333  0.38179910
   0.75965520  0.24951440  0.56319243
   0.92304454  0.41408320  0.47441967
   0.83333333  0.33333333  0.38179910
   0.74891018  0.00086524  0.56303735
   0.08333333  0.58333333  0.38179910
   0.67088907  0.16252184  0.47499177
   0.98932637  0.49682635  0.57710451
   0.33333333  0.83333333  0.38179910
   0.83333333  0.08333333  0.38179910
   0.52525462  0.51177125  0.59728453
   0.42263879  0.65782599  0.47320500
   0.17450322  0.16041997  0.47231283
   0.49687326  0.24443422  0.57068720
   0.58333333  0.33333333  0.38179910
   0.33333333  0.33333333  0.38179910
   0.17314076  0.41368702  0.47862472
   0.48607748  0.00183974  0.56278021
   0.58333333  0.08333333  0.38179910
   0.17327837  0.91333948  0.47864509
   0.16903285  0.66611308  0.48079219
   0.25681807  0.19181940  0.63741653
   0.31996217  0.58291396  0.61898198
   0.09070013  0.58028747  0.61859595
   0.04971603  0.10899257  0.61824270
   0.82472390  0.84776909  0.62292178
   0.27747383  0.84076693  0.63817952
   0.53941409  0.84569441  0.62124615
   0.60439864  0.30490460  0.62293891
   0.33333333  0.08333333  0.38179910
   0.25302834  0.02245669  0.63276442
   0.24656050  0.24851617  0.56754776
   0.42052962  0.41392924  0.48069283
   0.42181947  0.16266888  0.47762415
   0.73915078  0.74196032  0.59364728
   0.23418783  0.76216447  0.57860881
   0.33333333  0.58333333  0.38179910
   0.99396190  0.75657946  0.57638112
   0.42176397  0.91392130  0.46998336
   0.58333333  0.83333333  0.38179910
   0.92405080  0.91024900  0.47552838
   0.08333333  0.83333333  0.38179910
   0.92023143  0.66429846  0.48039532
   0.00774587  0.24703768  0.56157291
   0.67002675  0.41302982  0.47220358
   0.08333333  0.33333333  0.38179910
   0.66984806  0.66345529  0.47174965
   0.00486236  0.00037222  0.56506318
   0.83333333  0.83333333  0.38179910
   0.92256570  0.16100839  0.47300101
   0.25452358  0.49104064  0.57015096
   0.58333333  0.58333333  0.38179910
   0.08333333  0.08333333  0.38179910
Direct configuration=     4
   0.48481950  0.75075465  0.55885285
   0.67349452  0.90650715  0.47326549
   0.75112229  0.50196199  0.56155558
   0.83333333  0.58333333  0.38179910
   0.75957872  0.24950195  0.56329556
   0.92305898  0.41413354  0.47444995
   0.83333333  0.33333333  0.38179910
   0.74884248  0.00085510  0.56303686
   0.08333333  0.58333333  0.38179910
   0.67081680  0.16263356  0.47497838
   0.98947324  0.49673795  0.57701124
   0.33333333  0.83333333  0.38179910
   0.83333333  0.08333333  0.38179910
   0.52528468  0.51189906  0.59742545
   0.42262504  0.65782042  0.47326061
   0.17443156  0.16047198  0.47235047
   0.49673582  0.24447544  0.57075273
   0.58333333  0.33333333  0.38179910
   0.33333333  0.33333333  0.38179910
   0.17320339  0.41367022  0.47859222
   0.48614859  0.00183301  0.56268745
   0.58333333  0.08333333  0.38179910
   0.17318889  0.91343393  0.47860122
   0.16892127  0.66623018  0.48079450
   0.25656455  0.19210216  0.63750617
   0.31985606  0.58288823  0.61895964
   0.09061713  0.58023834  0.61858435
   0.04991299  0.10891153  0.61821993
   0.82470259  0.84773555  0.62287544
   0.27733454  0.84093845  0.63825233
   0.53943543  0.84575638  0.62122502
   0.60422055  0.30495396  0.62298060
   0.33333333  0.08333333  0.38179910
   0.25329075  0.02206445  0.63271066
   0.24647948  0.24848250  0.56760298
   0.42051789  0.41397102  0.48068833
   0.42172573  0.16277234  0.47755516
   0.73924943  0.74178231  0.59365520
   0.23419770  0.76217437  0.57865810
   0.33333333  0.58333333  0.38179910
   0.99396000  0.75659420  0.57636888
   0.42172592  0.91391117  0.46999135
   0.58333333  0.83333333  0.38179910
   0.92392711  0.91034251  0.47551354
   0.08333333  0.83333333  0.38179910
   0.92021798  0.66435041  0.48040739
   0.00758880  0.24705621  0.56160426
   0.67016333  0.41297631  0.47222133
   0.08333333  0.33333333  0.38179910
   0.66987520  0.66347384  0.47181131
   0.00496858  0.00028629  0.56507021
   0.83333333  0.83333333  0.38179910
   0.92249621  0.16104103  0.47304428
   0.25452040  0.49099632  0.57009412
   0.58333333  0.58333333  0.38179910
   0.08333333  0.08333333  0.38179910
Direct configuration=     5
   0.48489383  0.75100290  0.55900449
   0.67333509  0.90676313  0.47323495
   0.75108726  0.50197656  0.56172651
   0.83333333  0.58333333  0.38179910
   0.75934928  0.24946460  0.56360495
   0.92310230  0.41428458  0.47454078
   0.83333333  0.33333333  0.38179910
   0.74863938  0.00082469  0.56303539
   0.08333333  0.58333333  0.38179910
   0.67060001  0.16296873  0.47493822
   0.98991383  0.49647274  0.57673143
   0.33333333  0.83333333  0.38179910
   0.83333333  0.08333333  0.38179910
   0.52537486  0.51228250  0.59784821
   0.42258378  0.65780369  0.47342743
   0.17421656  0.16062803  0.47246342
   0.49632348  0.24459911  0.57094933
   0.58333333  0.33333333  0.38179910
   0.33333333  0.33333333  0.38179910
   0.17339130  0.41361983  0.47849471
   0.48636192  0.00181284  0.56240915
   0.58333333  0.08333333  0.38179910
   0.17292045  0.91371730  0.47846960
   0.16858651  0.66658148  0.48080143
   0.25580399  0.19295047  0.63777507
   0.31953774  0.58281106  0.61889263
   0.09036813  0.58009095  0.61854953
   0.05050386  0.10866839  0.61815160
   0.82463867  0.84763492  0.62273641
   0.27691665  0.84145298  0.63847077
   0.53949946  0.84594228  0.62116165
   0.60368627  0.30510204  0.62310569
   0.33333333  0.08333333  0.38179910
   0.25407799  0.02088775  0.63254941
   0.24623643  0.24838148  0.56776864
   0.42048269  0.41409636  0.48067482
   0.42144450  0.16308272  0.47734817
   0.73954537  0.74124828  0.59367893
   0.23422732  0.76220407  0.57880598
   0.33333333  0.58333333  0.38179910
   0.99395431  0.75663843  0.57633214
   0.42161176  0.91388077  0.47001531
   0.58333333  0.83333333  0.38179910
   0.92355607  0.91062304  0.47546904
   0.08333333  0.83333333  0.38179910
   0.92017764  0.66450628  0.48044362
   0.00711757  0.24711179  0.56169831
   0.67057305  0.41281576  0.47227457
   0.08333333  0.33333333  0.38179910
   0.66995662  0.66352947  0.47199628
   0.00528724  0.00002850  0.56509130
   0.83333333  0.83333333  0.38179910
   0.92228772  0.16113897  0.47317409
   0.25451084  0.49086334  0.56992358
   0.58333333  0.58333333  0.38179910
   0.08333333  0.08333333  0.38179910
Direct configuration=     6
   0.48480336  0.75114401  0.55903078
   0.67327430  0.90681132  0.47320370
   0.75108283  0.50182190  0.56178427
   0.83333333  0.58333333  0.38179910
   0.75930040  0.24944311  0.56369028
   0.92310136  0.41434006  0.47455745
   0.83333333  0.33333333  0.38179910
   0.74864870  0.00083312  0.56301740
   0.08333333  0.58333333  0.38179910
   0.67051331  0.16308295  0.47498598
   0.98999661  0.49641763  0.57662134
   0.33333333  0.83333333  0.38179910
   0.83333333  0.08333333  0.38179910
   0.52538274  0.51231816  0.59804368
   0.42261872  0.65781264  0.47349501
   0.17418372  0.16064653  0.47249334
   0.49614540  0.24466275  0.57099077
   0.58333333  0.33333333  0.38179910
   0.33333333  0.33333333  0.38179910
   0.17336124  0.41369032  0.47847552
   0.48643716  0.00167708  0.56236137
   0.58333333  0.08333333  0.38179910
   0.17285866  0.91372298  0.47842340
   0.16854358  0.66670381  0.48080319
   0.25555373  0.19297048  0.63780665
   0.31961295  0.58267129  0.61893201
   0.09031836  0.58002088  0.61852721
   0.05075166  0.10852839  0.61808848
   0.82461333  0.84756950  0.62268389
   0.27682913  0.84143408  0.63853201
   0.53947532  0.84614917  0.62111903
   0.60342867  0.30527016  0.62316903
   0.33333333  0.08333333  0.38179910
   0.25426239  0.02090639  0.63255085
   0.24625056  0.24834640  0.56782300
   0.42050597  0.41416487  0.48067951
   0.42140633  0.16314828  0.47729623
   0.73961823  0.74118577  0.59370369
   0.23422516  0.76233565  0.57882518
   0.33333333  0.58333333  0.38179910
   0.99387502  0.75673026  0.57631190
   0.42155079  0.91385168  0.47000983
   0.58333333  0.83333333  0.38179910
   0.92345675  0.91072505  0.47546050
   0.08333333  0.83333333  0.38179910
   0.92013720  0.66456418  0.48044499
   0.00699424  0.24702292  0.56176498
   0.67060092  0.41286823  0.47230946
   0.08333333  0.33333333  0.38179910
   0.66994215  0.66357174  0.47203809
   0.00530491  0.00005637  0.56511303
   0.83333333  0.83333333  0.38179910
   0.92218189  0.16120892  0.47322084
   0.25443824  0.49077129  0.56983560
   0.58333333  0.58333333  0.38179910
   0.08333333  0.08333333  0.38179910
Direct configuration=     7
   0.48454751  0.75154303  0.55910513
   0.67310238  0.90694756  0.47311530
   0.75107032  0.50138457  0.56194759
   0.83333333  0.58333333  0.38179910
   0.75916221  0.24938233  0.56393158
   0.92309869  0.41449695  0.47460461
   0.83333333  0.33333333  0.38179910
   0.74867504  0.00085696  0.56296654
   0.08333333  0.58333333  0.38179910
   0.67026815  0.16340594  0.47512103
   0.99023069  0.49626179  0.57631001
   0.33333333  0.83333333  0.38179910
   0.83333333  0.08333333  0.38179910
   0.52540505  0.51241898  0.59859639
   0.42271752  0.65783794  0.47368612
   0.17409085  0.16069886  0.47257795
   0.49564184  0.24484270  0.57110797
   0.58333333  0.33333333  0.38179910
   0.33333333  0.33333333  0.38179910
   0.17327624  0.41388964  0.47842127
   0.48664990  0.00129317  0.56222628
   0.58333333  0.08333333  0.38179910
   0.17268391  0.91373905  0.47829273
   0.16842219  0.66704972  0.48080817
   0.25484605  0.19302706  0.63789594
   0.31982561  0.58227606  0.61904337
   0.09017763  0.57982274  0.61846412
   0.05145235  0.10813252  0.61791000
   0.82454168  0.84738452  0.62253539
   0.27658164  0.84138063  0.63870520
   0.53940706  0.84673420  0.62099849
   0.60270025  0.30574557  0.62334814
   0.33333333  0.08333333  0.38179910
   0.25478382  0.02095912  0.63255490
   0.24629052  0.24824722  0.56797671
   0.42057178  0.41435859  0.48069279
   0.42129839  0.16333366  0.47714935
   0.73982428  0.74100904  0.59377371
   0.23421905  0.76270773  0.57887947
   0.33333333  0.58333333  0.38179910
   0.99365081  0.75698993  0.57625466
   0.42137839  0.91376942  0.46999432
   0.58333333  0.83333333  0.38179910
   0.92317590  0.91101350  0.47543636
   0.08333333  0.83333333  0.38179910
   0.92002284  0.66472789  0.48044885
   0.00664550  0.24677162  0.56195350
   0.67067971  0.41301658  0.47240811
   0.08333333  0.33333333  0.38179910
   0.66990121  0.66369126  0.47215634
   0.00535488  0.00013519  0.56517447
   0.83333333  0.83333333  0.38179910
   0.92188261  0.16140673  0.47335303
   0.25423295  0.49051101  0.56958680
   0.58333333  0.58333333  0.38179910
   0.08333333  0.08333333  0.38179910
Direct configuration=     8
   0.48447498  0.75165615  0.55912621
   0.67305364  0.90698619  0.47309025
   0.75106677  0.50126058  0.56199389
   0.83333333  0.58333333  0.38179910
   0.75912303  0.24936510  0.56399998
   0.92309794  0.41454143  0.47461798
   0.83333333  0.33333333  0.38179910
   0.74868251  0.00086372  0.56295213
   0.08333333  0.58333333  0.38179910
   0.67019865  0.16349751  0.47515932
   0.99029705  0.49621761  0.57622175
   0.33333333  0.83333333  0.38179910
   0.83333333  0.08333333  0.38179910
   0.52541137  0.51244757  0.59875309
   0.42274552  0.65784512  0.47374030
   0.17406453  0.16071370  0.47260193
   0.49549908  0.24489372  0.57114119
   0.58333333  0.33333333  0.38179910
   0.33333333  0.33333333  0.38179910
   0.17325214  0.41394615  0.47840589
   0.48671021  0.00118434  0.56218798
   0.58333333  0.08333333  0.38179910
   0.17263437  0.91374361  0.47825569
   0.16838777  0.66714779  0.48080958
   0.25464543  0.19304311  0.63792126
   0.31988590  0.58216401  0.61907494
   0.09013773  0.57976656  0.61844623
   0.05165099  0.10802029  0.61785940
   0.82452137  0.84733207  0.62249329
   0.27651147  0.84136547  0.63875429
   0.53938770  0.84690006  0.62096432
   0.60249375  0.30588035  0.62339892
   0.33333333  0.08333333  0.38179910
   0.25493165  0.02097407  0.63255605
   0.24630184  0.24821910  0.56802029
   0.42059044  0.41441350  0.48069655
   0.42126778  0.16338622  0.47710771
   0.73988269  0.74095893  0.59379355
   0.23421732  0.76281321  0.57889486
   0.33333333  0.58333333  0.38179910
   0.99358725  0.75706355  0.57623843
   0.42132952  0.91374610  0.46998992
   0.58333333  0.83333333  0.38179910
   0.92309628  0.91109528  0.47542952
   0.08333333  0.83333333  0.38179910
   0.91999042  0.66477430  0.48044994
   0.00654663  0.24670037  0.56200694
   0.67070205  0.41305864  0.47243608
   0.08333333  0.33333333  0.38179910
   0.66988960  0.66372515  0.47218986
   0.00536904  0.00015753  0.56519189
   0.83333333  0.83333333  0.38179910
   0.92179776  0.16146281  0.47339051
   0.25417475  0.49043722  0.56951627
   0.58333333  0.58333333  0.38179910
   0.08333333  0.08333333  0.38179910
Direct configuration=     9
   0.48434560  0.75159871  0.55917733
   0.67295177  0.90704712  0.47302652
   0.75095398  0.50106047  0.56209344
   0.83333333  0.58333333  0.38179910
   0.75893762  0.24932739  0.56413287
   0.92306168  0.41459817  0.47464910
   0.83333333  0.33333333  0.38179910
   0.74864292  0.00100286  0.56290826
   0.08333333  0.58333333  0.38179910
   0.67005140  0.16367756  0.47527643
   0.99025103  0.49622237  0.57603023
   0.33333333  0.83333333  0.38179910
   0.83333333  0.08333333  0.38179910
   0.52538001  0.51267699  0.59907789
   0.42280476  0.65788002  0.47383249
   0.17402733  0.16072390  0.47264655
   0.49535733  0.24487355  0.57117525
   0.58333333  0.33333333  0.38179910
   0.33333333  0.33333333  0.38179910
   0.17316604  0.41409850  0.47838017
   0.48674369  0.00118890  0.56209227
   0.58333333  0.08333333  0.38179910
   0.17252701  0.91374607  0.47818534
   0.16837751  0.66729628  0.48081271
   0.25430325  0.19317128  0.63796394
   0.31992065  0.58192292  0.61907785
   0.09011583  0.57967569  0.61834237
   0.05202335  0.10769127  0.61781994
   0.82449707  0.84732469  0.62246654
   0.27643902  0.84141013  0.63882697
   0.53930970  0.84731492  0.62094101
   0.60207522  0.30613235  0.62352642
   0.33333333  0.08333333  0.38179910
   0.25525385  0.02064280  0.63262382
   0.24635388  0.24810074  0.56804826
   0.42061573  0.41452250  0.48070936
   0.42123218  0.16343188  0.47708001
   0.73990773  0.74076554  0.59380056
   0.23426344  0.76283607  0.57894801
   0.33333333  0.58333333  0.38179910
   0.99363320  0.75705209  0.57620850
   0.42120815  0.91373408  0.46996072
   0.58333333  0.83333333  0.38179910
   0.92295925  0.91125906  0.47541866
   0.08333333  0.83333333  0.38179910
   0.91990363  0.66491192  0.48043010
   0.00647880  0.24671819  0.56205197
   0.67065277  0.41321486  0.47249751
   0.08333333  0.33333333  0.38179910
   0.66986072  0.66377468  0.47223601
   0.00533447  0.00016437  0.56520191
   0.83333333  0.83333333  0.38179910
   0.92162465  0.16161975  0.47345524
   0.25401516  0.49061509  0.56946063
   0.58333333  0.58333333  0.38179910
   0.08333333  0.08333333  0.38179910
Direct configuration=    10
   0.48400628  0.75144806  0.55931138
   0.67268459  0.90720694  0.47285937
   0.75065815  0.50053564  0.56235453
   0.83333333  0.58333333  0.38179910
   0.75845135  0.24922848  0.56448139
   0.92296661  0.41474699  0.47473073
   0.83333333  0.33333333  0.38179910
   0.74853910  0.00136779  0.56279322
   0.08333333  0.58333333  0.38179910
   0.66966521  0.16414978  0.47558359
   0.99013031  0.49623486  0.57552792
   0.33333333  0.83333333  0.38179910
   0.83333333  0.08333333  0.38179910
   0.52529775  0.51327869  0.59992973
   0.42296013  0.65797155  0.47407427
   0.17392976  0.16075067  0.47276356
   0.49498555  0.24482066  0.57126457
   0.58333333  0.33333333  0.38179910
   0.33333333  0.33333333  0.38179910
   0.17294023  0.41449808  0.47831270
   0.48683150  0.00120087  0.56184124
   0.58333333  0.08333333  0.38179910
   0.17224543  0.91375254  0.47800085
   0.16835060  0.66768574  0.48082090
   0.25340583  0.19350745  0.63807589
   0.32001180  0.58129061  0.61908548
   0.09005840  0.57943736  0.61806999
   0.05299992  0.10682835  0.61771645
   0.82443336  0.84730533  0.62239638
   0.27624900  0.84152724  0.63901759
   0.53910513  0.84840297  0.62087989
   0.60097754  0.30679325  0.62386081
   0.33333333  0.08333333  0.38179910
   0.25609889  0.01977396  0.63280153
   0.24649035  0.24779031  0.56812162
   0.42068207  0.41480837  0.48074294
   0.42113880  0.16355164  0.47700734
   0.73997339  0.74025834  0.59381892
   0.23438441  0.76289602  0.57908741
   0.33333333  0.58333333  0.38179910
   0.99375373  0.75702205  0.57613000
   0.42088984  0.91370254  0.46988413
   0.58333333  0.83333333  0.38179910
   0.92259985  0.91168859  0.47539016
   0.08333333  0.83333333  0.38179910
   0.91967600  0.66527286  0.48037804
   0.00630090  0.24676491  0.56217006
   0.67052351  0.41362457  0.47265861
   0.08333333  0.33333333  0.38179910
   0.66978500  0.66390459  0.47235706
   0.00524381  0.00018230  0.56522819
   0.83333333  0.83333333  0.38179910
   0.92117064  0.16203138  0.47362501
   0.25359660  0.49108158  0.56931472
   0.58333333  0.58333333  0.38179910
   0.08333333  0.08333333  0.38179910
Direct configuration=    11
   0.48389988  0.75140082  0.55935342
   0.67260082  0.90725705  0.47280696
   0.75056540  0.50037108  0.56243639
   0.83333333  0.58333333  0.38179910
   0.75829889  0.24919747  0.56459066
   0.92293679  0.41479365  0.47475632
   0.83333333  0.33333333  0.38179910
   0.74850655  0.00148221  0.56275716
   0.08333333  0.58333333  0.38179910
   0.66954413  0.16429784  0.47567990
   0.99009246  0.49623877  0.57537043
   0.33333333  0.83333333  0.38179910
   0.83333333  0.08333333  0.38179910
   0.52527195  0.51346735  0.60019682
   0.42300885  0.65800025  0.47415007
   0.17389917  0.16075906  0.47280025
   0.49486899  0.24480408  0.57129258
   0.58333333  0.33333333  0.38179910
   0.33333333  0.33333333  0.38179910
   0.17286943  0.41462337  0.47829155
   0.48685903  0.00120462  0.56176253
   0.58333333  0.08333333  0.38179910
   0.17215714  0.91375456  0.47794300
   0.16834216  0.66780785  0.48082348
   0.25312445  0.19361285  0.63811099
   0.32004037  0.58109236  0.61908787
   0.09004040  0.57936264  0.61798458
   0.05330612  0.10655780  0.61768400
   0.82441339  0.84729926  0.62237439
   0.27618943  0.84156396  0.63907736
   0.53904099  0.84874411  0.62086072
   0.60063337  0.30700047  0.62396565
   0.33333333  0.08333333  0.38179910
   0.25636384  0.01950155  0.63285725
   0.24653314  0.24769298  0.56814462
   0.42070287  0.41489800  0.48075347
   0.42110952  0.16358918  0.47698455
   0.73999398  0.74009931  0.59382468
   0.23442234  0.76291482  0.57913112
   0.33333333  0.58333333  0.38179910
   0.99379152  0.75701262  0.57610539
   0.42079004  0.91369265  0.46986011
   0.58333333  0.83333333  0.38179910
   0.92248717  0.91182327  0.47538123
   0.08333333  0.83333333  0.38179910
   0.91960463  0.66538603  0.48036172
   0.00624512  0.24677956  0.56220708
   0.67048299  0.41375304  0.47270912
   0.08333333  0.33333333  0.38179910
   0.66976125  0.66394532  0.47239501
   0.00521538  0.00018792  0.56523643
   0.83333333  0.83333333  0.38179910
   0.92102829  0.16216044  0.47367824
   0.25346537  0.49122784  0.56926897
   0.58333333  0.58333333  0.38179910
   0.08333333  0.08333333  0.38179910
Direct configuration=    12
   0.48391804  0.75119960  0.55951158
   0.67245549  0.90739978  0.47271166
   0.75018704  0.50029313  0.56261588
   0.83333333  0.58333333  0.38179910
   0.75789110  0.24930236  0.56484279
   0.92278094  0.41486812  0.47480914
   0.83333333  0.33333333  0.38179910
   0.74852414  0.00136314  0.56279260
   0.08333333  0.58333333  0.38179910
   0.66931142  0.16461487  0.47577692
   0.98983212  0.49639783  0.57506583
   0.33333333  0.83333333  0.38179910
   0.83333333  0.08333333  0.38179910
   0.52538777  0.51390178  0.60070233
   0.42294925  0.65810205  0.47417916
   0.17381200  0.16079898  0.47284981
   0.49478363  0.24490807  0.57134830
   0.58333333  0.33333333  0.38179910
   0.33333333  0.33333333  0.38179910
   0.17283909  0.41478434  0.47826025
   0.48687096  0.00131009  0.56158847
   0.58333333  0.08333333  0.38179910
   0.17190772  0.91394827  0.47786488
   0.16831515  0.66791689  0.48080487
   0.25272356  0.19362782  0.63812561
   0.31976521  0.58101150  0.61910252
   0.08983568  0.57931975  0.61780161
   0.05366018  0.10605567  0.61768320
   0.82436978  0.84738692  0.62228784
   0.27637310  0.84097394  0.63923293
   0.53878719  0.84942902  0.62085100
   0.59999278  0.30728147  0.62416811
   0.33333333  0.08333333  0.38179910
   0.25686532  0.01947918  0.63300679
   0.24647359  0.24748932  0.56814041
   0.42058535  0.41503268  0.48078112
   0.42095429  0.16368897  0.47699938
   0.73996620  0.73987252  0.59380641
   0.23437929  0.76265661  0.57924606
   0.33333333  0.58333333  0.38179910
   0.99381287  0.75701509  0.57607602
   0.42063322  0.91372395  0.46982996
   0.58333333  0.83333333  0.38179910
   0.92231422  0.91203580  0.47535550
   0.08333333  0.83333333  0.38179910
   0.91947738  0.66567219  0.48027883
   0.00633418  0.24687217  0.56222648
   0.67038685  0.41392976  0.47277422
   0.08333333  0.33333333  0.38179910
   0.66977733  0.66394854  0.47246149
   0.00525136  0.00002382  0.56519372
   0.83333333  0.83333333  0.38179910
   0.92081063  0.16241861  0.47374579
   0.25348170  0.49150506  0.56916945
   0.58333333  0.58333333  0.38179910
   0.08333333  0.08333333  0.38179910
Direct configuration=    13
   0.48393363  0.75102674  0.55964745
   0.67233065  0.90752240  0.47262980
   0.74986200  0.50022616  0.56277007
   0.83333333  0.58333333  0.38179910
   0.75754079  0.24939246  0.56505939
   0.92264705  0.41493210  0.47485452
   0.83333333  0.33333333  0.38179910
   0.74853925  0.00126086  0.56282306
   0.08333333  0.58333333  0.38179910
   0.66911151  0.16488723  0.47586027
   0.98960847  0.49653448  0.57480415
   0.33333333  0.83333333  0.38179910
   0.83333333  0.08333333  0.38179910
   0.52548726  0.51427499  0.60113661
   0.42289804  0.65818950  0.47420415
   0.17373711  0.16083326  0.47289238
   0.49471031  0.24499742  0.57139618
   0.58333333  0.33333333  0.38179910
   0.33333333  0.33333333  0.38179910
   0.17281303  0.41492263  0.47823336
   0.48688121  0.00140070  0.56143893
   0.58333333  0.08333333  0.38179910
   0.17169344  0.91411468  0.47779776
   0.16829195  0.66801057  0.48078888
   0.25237916  0.19364068  0.63813817
   0.31952882  0.58094203  0.61911511
   0.08965982  0.57928291  0.61764442
   0.05396435  0.10562431  0.61768251
   0.82433231  0.84746223  0.62221349
   0.27653088  0.84046706  0.63936657
   0.53856915  0.85001740  0.62084265
   0.59944247  0.30752286  0.62434204
   0.33333333  0.08333333  0.38179910
   0.25729613  0.01945996  0.63313525
   0.24642244  0.24731437  0.56813678
   0.42048439  0.41514838  0.48080488
   0.42082093  0.16377469  0.47701212
   0.73994234  0.73967769  0.59379072
   0.23434232  0.76243479  0.57934480
   0.33333333  0.58333333  0.38179910
   0.99383121  0.75701722  0.57605080
   0.42049849  0.91375085  0.46980406
   0.58333333  0.83333333  0.38179910
   0.92216564  0.91221839  0.47533341
   0.08333333  0.83333333  0.38179910
   0.91936806  0.66591802  0.48020762
   0.00641069  0.24695174  0.56224314
   0.67030425  0.41408158  0.47283014
   0.08333333  0.33333333  0.38179910
   0.66979115  0.66395131  0.47251859
   0.00528228 -0.00011716  0.56515702
   0.83333333  0.83333333  0.38179910
   0.92062365  0.16264040  0.47380381
   0.25349573  0.49174321  0.56908395
   0.58333333  0.58333333  0.38179910
   0.08333333  0.08333333  0.38179910
Direct configuration=    14
   0.48400021  0.75102212  0.55983386
   0.67219702  0.90773786  0.47255498
   0.74953167  0.50025221  0.56294914
   0.83333333  0.58333333  0.38179910
   0.75723221  0.24954905  0.56533298
   0.92244035  0.41504581  0.47490801
   0.83333333  0.33333333  0.38179910
   0.74852837  0.00099293  0.56290235
   0.08333333  0.58333333  0.38179910
   0.66893499  0.16515322  0.47588793
   0.98929611  0.49686022  0.57449506
   0.33333333  0.83333333  0.38179910
   0.83333333  0.08333333  0.38179910
   0.52552240  0.51465064  0.60170302
   0.42271131  0.65837224  0.47415207
   0.17360644  0.16095042  0.47290451
   0.49467258  0.24524279  0.57145466
   0.58333333  0.33333333  0.38179910
   0.33333333  0.33333333  0.38179910
   0.17279823  0.41499230  0.47821381
   0.48693020  0.00141233  0.56126948
   0.58333333  0.08333333  0.38179910
   0.17141223  0.91441948  0.47775068
   0.16819246  0.66810491  0.48073465
   0.25210690  0.19388450  0.63813061
   0.31917676  0.58101802  0.61920463
   0.08929393  0.57923639  0.61746291
   0.05418850  0.10522392  0.61765236
   0.82425138  0.84753551  0.62210469
   0.27693674  0.84009549  0.63952012
   0.53819826  0.85076094  0.62083770
   0.59880123  0.30775957  0.62455770
   0.33333333  0.08333333  0.38179910
   0.25771070  0.01862502  0.63330279
   0.24626449  0.24723835  0.56810113
   0.42026359  0.41525722  0.48083019
   0.42058579  0.16395544  0.47705129
   0.73976350  0.73965187  0.59376544
   0.23415984  0.76216492  0.57949078
   0.33333333  0.58333333  0.38179910
   0.99376159  0.75708754  0.57601155
   0.42041890  0.91377119  0.46981244
   0.58333333  0.83333333  0.38179910
   0.92202101  0.91242326  0.47529804
   0.08333333  0.83333333  0.38179910