  48  48   0   0
  0.5349325E+02  0.1100258E-08  0.1100258E-08  0.2449179E-08  0.3500000E-15
  1.000000000000000E-004
  CAR 
 unknown system                          
      6.37421767    -10.00051725  301     -1.09442873      1.00000000
    -10.001  0.0000E+00  0.0000E+00
     -9.946  0.0000E+00  0.0000E+00
     -9.891  0.0000E+00  0.0000E+00
     -9.837  0.0000E+00  0.0000E+00
     -9.782  0.0000E+00  0.0000E+00
     -9.728  0.0000E+00  0.0000E+00
     -9.673  0.0000E+00  0.0000E+00
     -9.618  0.0000E+00  0.0000E+00
     -9.564  0.1627E-16  0.8882E-18
     -9.509  0.6372E-14  0.3487E-15
     -9.455  0.1417E-11  0.7768E-13
     -9.400  0.1761E-09  0.9692E-11
     -9.346  0.1227E-07  0.6794E-09
     -9.291  0.4800E-06  0.2688E-07
     -9.236  0.1058E-04  0.6041E-06
     -9.182  0.1316E-03  0.7786E-05
     -9.127  0.9272E-03  0.5839E-04
     -9.073  0.3711E-02  0.2609E-03
     -9.018  0.8467E-02  0.7231E-03
     -8.963  0.1118E-01  0.1333E-02
     -8.909  0.9406E-02  0.1847E-02
     -8.854  0.7832E-02  0.2274E-02
     -8.800  0.9662E-02  0.2802E-02
     -8.745  0.1061E-01  0.3380E-02
     -8.691  0.7398E-02  0.3784E-02
     -8.636  0.3088E-02  0.3953E-02
     -8.581  0.8421E-03  0.3999E-02
     -8.527  0.6535E-03  0.4034E-02
     -8.472  0.2046E-02  0.4146E-02
     -8.418  0.4759E-02  0.4406E-02
     -8.363  0.7492E-02  0.4815E-02
     -8.308  0.8585E-02  0.5283E-02
     -8.254  0.7579E-02  0.5697E-02
     -8.199  0.6357E-02  0.6044E-02
     -8.145  0.8194E-02  0.6491E-02
     -8.090  0.1322E-01  0.7213E-02
     -8.036  0.1726E-01  0.8155E-02
     -7.981  0.1642E-01  0.9051E-02
     -7.926  0.1100E-01  0.9651E-02
     -7.872  0.5408E-02  0.9947E-02
     -7.817  0.3852E-02  0.1016E-01
     -7.763  0.7046E-02  0.1054E-01
     -7.708  0.1230E-01  0.1121E-01
     -7.653  0.1572E-01  0.1207E-01
     -7.599  0.1581E-01  0.1293E-01
     -7.544  0.1481E-01  0.1374E-01
     -7.490  0.1767E-01  0.1471E-01
     -7.435  0.2683E-01  0.1617E-01
     -7.381  0.3795E-01  0.1824E-01
     -7.326  0.4587E-01  0.2075E-01
     -7.271  0.4967E-01  0.2346E-01
     -7.217  0.5075E-01  0.2623E-01
     -7.162  0.5283E-01  0.2911E-01
     -7.108  0.5562E-01  0.3215E-01
     -7.053  0.5363E-01  0.3507E-01
     -6.998  0.4687E-01  0.3763E-01
     -6.944  0.4140E-01  0.3989E-01
     -6.889  0.4211E-01  0.4219E-01
     -6.835  0.4973E-01  0.4490E-01
     -6.780  0.6234E-01  0.4831E-01
     -6.726  0.7508E-01  0.5241E-01
     -6.671  0.8462E-01  0.5702E-01
     -6.616  0.9021E-01  0.6195E-01
     -6.562  0.9244E-01  0.6699E-01
     -6.507  0.9802E-01  0.7234E-01
     -6.453  0.1124E+00  0.7848E-01
     -6.398  0.1322E+00  0.8570E-01
     -6.343  0.1502E+00  0.9390E-01
     -6.289  0.1585E+00  0.1025E+00
     -6.234  0.1572E+00  0.1111E+00
     -6.180  0.1562E+00  0.1197E+00
     -6.125  0.1579E+00  0.1283E+00
     -6.071  0.1567E+00  0.1368E+00
     -6.016  0.1534E+00  0.1452E+00
     -5.961  0.1509E+00  0.1534E+00
     -5.907  0.1507E+00  0.1617E+00
     -5.852  0.1534E+00  0.1700E+00
     -5.798  0.1532E+00  0.1784E+00
     -5.743  0.1458E+00  0.1863E+00
     -5.689  0.1370E+00  0.1938E+00
     -5.634  0.1332E+00  0.2011E+00
     -5.579  0.1336E+00  0.2084E+00
     -5.525  0.1344E+00  0.2157E+00
     -5.470  0.1346E+00  0.2231E+00
     -5.416  0.1337E+00  0.2304E+00
     -5.361  0.1304E+00  0.2375E+00
     -5.306  0.1304E+00  0.2446E+00
     -5.252  0.1397E+00  0.2522E+00
     -5.197  0.1571E+00  0.2608E+00
     -5.143  0.1730E+00  0.2702E+00
     -5.088  0.1799E+00  0.2801E+00
     -5.034  0.1797E+00  0.2899E+00
     -4.979  0.1767E+00  0.2995E+00
     -4.924  0.1735E+00  0.3090E+00
     -4.870  0.1711E+00  0.3183E+00
     -4.815  0.1681E+00  0.3275E+00
     -4.761  0.1637E+00  0.3364E+00
     -4.706  0.1576E+00  0.3450E+00
     -4.651  0.1510E+00  0.3533E+00
     -4.597  0.1505E+00  0.3615E+00
     -4.542  0.1587E+00  0.3701E+00
     -4.488  0.1671E+00  0.3793E+00
     -4.433  0.1695E+00  0.3885E+00
     -4.379  0.1702E+00  0.3978E+00
     -4.324  0.1717E+00  0.4072E+00
     -4.269  0.1719E+00  0.4166E+00
     -4.215  0.1717E+00  0.4259E+00
     -4.160  0.1729E+00  0.4354E+00
     -4.106  0.1735E+00  0.4448E+00
     -4.051  0.1712E+00  0.4542E+00
     -3.996  0.1695E+00  0.4634E+00
     -3.942  0.1709E+00  0.4728E+00
     -3.887  0.1743E+00  0.4823E+00
     -3.833  0.1811E+00  0.4922E+00
     -3.778  0.1903E+00  0.5026E+00
     -3.724  0.1952E+00  0.5132E+00
     -3.669  0.1938E+00  0.5238E+00
     -3.614  0.1900E+00  0.5342E+00
     -3.560  0.1853E+00  0.5443E+00
     -3.505  0.1800E+00  0.5541E+00
     -3.451  0.1756E+00  0.5637E+00
     -3.396  0.1737E+00  0.5732E+00
     -3.341  0.1752E+00  0.5827E+00
     -3.287  0.1788E+00  0.5925E+00
     -3.232  0.1806E+00  0.6023E+00
     -3.178  0.1798E+00  0.6121E+00
     -3.123  0.1791E+00  0.6219E+00
     -3.069  0.1785E+00  0.6317E+00
     -3.014  0.1784E+00  0.6414E+00
     -2.959  0.1824E+00  0.6514E+00
     -2.905  0.1910E+00  0.6618E+00
     -2.850  0.1988E+00  0.6726E+00
     -2.796  0.2007E+00  0.6836E+00
     -2.741  0.1992E+00  0.6945E+00
     -2.686  0.1975E+00  0.7052E+00
     -2.632  0.1964E+00  0.7160E+00
     -2.577  0.1969E+00  0.7267E+00
     -2.523  0.1984E+00  0.7375E+00
     -2.468  0.1978E+00  0.7483E+00
     -2.414  0.1934E+00  0.7589E+00
     -2.359  0.1868E+00  0.7691E+00
     -2.304  0.1814E+00  0.7790E+00
     -2.250  0.1789E+00  0.7888E+00
     -2.195  0.1785E+00  0.7985E+00
     -2.141  0.1810E+00  0.8084E+00
     -2.086  0.1877E+00  0.8186E+00
     -2.031  0.1954E+00  0.8293E+00
     -1.977  0.2008E+00  0.8403E+00
     -1.922  0.2050E+00  0.8514E+00
     -1.868  0.2108E+00  0.8630E+00
     -1.813  0.2161E+00  0.8747E+00
     -1.759  0.2183E+00  0.8867E+00
     -1.704  0.2222E+00  0.8988E+00
     -1.649  0.2292E+00  0.9113E+00
     -1.595  0.2313E+00  0.9239E+00
     -1.540  0.2248E+00  0.9362E+00
     -1.486  0.2146E+00  0.9479E+00
     -1.431  0.2031E+00  0.9590E+00
     -1.376  0.1906E+00  0.9694E+00
     -1.322  0.1783E+00  0.9791E+00
     -1.267  0.1642E+00  0.9881E+00
     -1.213  0.1441E+00  0.9960E+00
     -1.158  0.1177E+00  0.1002E+01
     -1.104  0.9010E-01  0.1007E+01
     -1.049  0.6918E-01  0.1011E+01
     -0.994  0.5550E-01  0.1014E+01
     -0.940  0.4255E-01  0.1016E+01
     -0.885  0.2936E-01  0.1018E+01
     -0.831  0.2017E-01  0.1019E+01
     -0.776  0.1577E-01  0.1020E+01
     -0.722  0.1645E-01  0.1021E+01
     -0.667  0.2197E-01  0.1022E+01
     -0.612  0.2926E-01  0.1024E+01
     -0.558  0.3709E-01  0.1026E+01
     -0.503  0.4561E-01  0.1028E+01
     -0.449  0.5088E-01  0.1031E+01
     -0.394  0.4959E-01  0.1034E+01
     -0.339  0.4612E-01  0.1036E+01
     -0.285  0.4535E-01  0.1039E+01
     -0.230  0.4329E-01  0.1041E+01
     -0.176  0.3377E-01  0.1043E+01
     -0.121  0.2210E-01  0.1044E+01
     -0.067  0.1732E-01  0.1045E+01
     -0.012  0.1760E-01  0.1046E+01
      0.043  0.1692E-01  0.1047E+01
      0.097  0.1599E-01  0.1048E+01
      0.152  0.1910E-01  0.1049E+01
      0.206  0.2491E-01  0.1050E+01
      0.261  0.2815E-01  0.1052E+01
      0.316  0.2967E-01  0.1053E+01
      0.370  0.3479E-01  0.1055E+01
      0.425  0.4343E-01  0.1058E+01
      0.479  0.4966E-01  0.1060E+01
      0.534  0.5207E-01  0.1063E+01
      0.588  0.5448E-01  0.1066E+01
      0.643  0.5634E-01  0.1069E+01
      0.698  0.5424E-01  0.1072E+01
      0.752  0.4820E-01  0.1075E+01
      0.807  0.4095E-01  0.1077E+01
      0.861  0.3343E-01  0.1079E+01
      0.916  0.2598E-01  0.1080E+01
      0.971  0.2155E-01  0.1081E+01
      1.025  0.2032E-01  0.1083E+01
      1.080  0.1867E-01  0.1084E+01
      1.134  0.1516E-01  0.1084E+01
      1.189  0.1278E-01  0.1085E+01
      1.243  0.1320E-01  0.1086E+01
      1.298  0.1376E-01  0.1087E+01
      1.353  0.1282E-01  0.1087E+01
      1.407  0.1215E-01  0.1088E+01
      1.462  0.1397E-01  0.1089E+01
      1.516  0.1940E-01  0.1090E+01
      1.571  0.2775E-01  0.1091E+01
      1.626  0.3449E-01  0.1093E+01
      1.680  0.3578E-01  0.1095E+01
      1.735  0.3420E-01  0.1097E+01
      1.789  0.3261E-01  0.1099E+01
      1.844  0.3028E-01  0.1100E+01
      1.898  0.2722E-01  0.1102E+01
      1.953  0.2410E-01  0.1103E+01
      2.008  0.2282E-01  0.1104E+01
      2.062  0.2628E-01  0.1106E+01
      2.117  0.3397E-01  0.1108E+01
      2.171  0.4323E-01  0.1110E+01
      2.226  0.4986E-01  0.1113E+01
      2.281  0.4992E-01  0.1116E+01
      2.335  0.4641E-01  0.1118E+01
      2.390  0.4502E-01  0.1121E+01
      2.444  0.4464E-01  0.1123E+01
      2.499  0.4156E-01  0.1125E+01
      2.553  0.3751E-01  0.1127E+01
      2.608  0.3708E-01  0.1129E+01
      2.663  0.4105E-01  0.1132E+01
      2.717  0.4317E-01  0.1134E+01
      2.772  0.3705E-01  0.1136E+01
      2.826  0.2458E-01  0.1137E+01
      2.881  0.1447E-01  0.1138E+01
      2.936  0.1184E-01  0.1139E+01
      2.990  0.1158E-01  0.1139E+01
      3.045  0.8321E-02  0.1140E+01
      3.099  0.5696E-02  0.1140E+01
      3.154  0.8721E-02  0.1141E+01
      3.208  0.1592E-01  0.1141E+01
      3.263  0.2136E-01  0.1143E+01
      3.318  0.2164E-01  0.1144E+01
      3.372  0.1927E-01  0.1145E+01
      3.427  0.1895E-01  0.1146E+01
      3.481  0.2286E-01  0.1147E+01
      3.536  0.2988E-01  0.1149E+01
      3.591  0.3803E-01  0.1151E+01
      3.645  0.4435E-01  0.1153E+01
      3.700  0.4344E-01  0.1156E+01
      3.754  0.3699E-01  0.1158E+01
      3.809  0.3278E-01  0.1159E+01
      3.863  0.3027E-01  0.1161E+01
      3.918  0.2675E-01  0.1163E+01
      3.973  0.2601E-01  0.1164E+01
      4.027  0.2804E-01  0.1166E+01
      4.082  0.2603E-01  0.1167E+01
      4.136  0.2031E-01  0.1168E+01
      4.191  0.1925E-01  0.1169E+01
      4.246  0.2172E-01  0.1170E+01
      4.300  0.1964E-01  0.1171E+01
      4.355  0.1550E-01  0.1172E+01
      4.409  0.1720E-01  0.1173E+01
      4.464  0.2363E-01  0.1174E+01
      4.518  0.3114E-01  0.1176E+01
      4.573  0.4203E-01  0.1178E+01
      4.628  0.5316E-01  0.1181E+01
      4.682  0.5432E-01  0.1184E+01
      4.737  0.4788E-01  0.1187E+01
      4.791  0.4670E-01  0.1189E+01
      4.846  0.5298E-01  0.1192E+01
      4.900  0.5915E-01  0.1196E+01
      4.955  0.6051E-01  0.1199E+01
      5.010  0.6072E-01  0.1202E+01
      5.064  0.6565E-01  0.1206E+01
      5.119  0.7091E-01  0.1210E+01
      5.173  0.7026E-01  0.1213E+01
      5.228  0.6453E-01  0.1217E+01
      5.283  0.5296E-01  0.1220E+01
      5.337  0.3691E-01  0.1222E+01
      5.392  0.2213E-01  0.1223E+01
      5.446  0.1105E-01  0.1224E+01
      5.501  0.4027E-02  0.1224E+01
      5.555  0.9447E-03  0.1224E+01
      5.610  0.1329E-03  0.1224E+01
      5.665  0.1085E-04  0.1224E+01
      5.719  0.5059E-06  0.1224E+01
      5.774  0.1335E-07  0.1224E+01
      5.828  0.1983E-09  0.1224E+01
      5.883  0.1651E-11  0.1224E+01
      5.938  0.7678E-14  0.1224E+01
      5.992  0.2034E-16  0.1224E+01
      6.047  0.0000E+00  0.1224E+01
      6.101  0.0000E+00  0.1224E+01
      6.156  0.0000E+00  0.1224E+01
      6.210  0.0000E+00  0.1224E+01
      6.265  0.0000E+00  0.1224E+01
      6.320  0.0000E+00  0.1224E+01
      6.374  0.0000E+00  0.1224E+01
