unknown system                          
           1
    11.002582    0.000000    0.000000
     5.501291    9.528515    0.000000
     0.000000    0.000000   24.491785
   Au   Pd
  24  24
Direct configuration=     1
   0.08333333  0.08333333  0.40830017
   0.91666667  0.16666667  0.50000000
   0.91666667  0.91666667  0.50000000
   0.00000000  0.75000000  0.59169983
   0.08333333  0.58333333  0.40830017
   0.16666667  0.16666667  0.50000000
   0.91666667  0.41666667  0.50000000
   0.25000000  0.75000000  0.59169983
   0.16666667  0.41666667  0.50000000
   0.25000000  0.25000000  0.59169983
   0.16666667  0.66666667  0.50000000
   0.33333333  0.83333333  0.40830017
   0.08333333  0.33333333  0.40830017
   0.66666667  0.91666667  0.50000000
   0.41666667  0.16666667  0.50000000
   0.58333333  0.33333333  0.40830017
   0.41666667  0.41666667  0.50000000
   0.50000000  0.25000000  0.59169983
   0.50000000  0.50000000  0.59169983
   0.58333333  0.83333333  0.40830017
   0.50000000  0.75000000  0.59169983
   0.66666667  0.41666667  0.50000000
   0.83333333  0.58333333  0.40830017
   0.16666667  0.91666667  0.50000000
   0.58333333  0.58333333  0.40830017
   0.91666667  0.66666667  0.50000000
   0.00000000  0.50000000  0.59169983
   0.50000000  0.00000000  0.59169983
   0.33333333  0.58333333  0.40830017
   0.58333333  0.08333333  0.40830017
   0.33333333  0.08333333  0.40830017
   0.25000000  0.50000000  0.59169983
   0.41666667  0.66666667  0.50000000
   0.08333333  0.83333333  0.40830017
   0.33333333  0.33333333  0.40830017
   0.75000000  0.50000000  0.59169983
   0.75000000  0.25000000  0.59169983
   0.83333333  0.33333333  0.40830017
   0.83333333  0.83333333  0.40830017
   0.66666667  0.66666667  0.50000000
   0.00000000  0.00000000  0.59169983
   0.25000000  0.00000000  0.59169983
   0.75000000  0.00000000  0.59169983
   0.66666667  0.16666667  0.50000000
   0.83333333  0.08333333  0.40830017
   0.41666667  0.91666667  0.50000000
   0.00000000  0.25000000  0.59169983
   0.75000000  0.75000000  0.59169983
Direct configuration=     2
   0.08333333  0.08333333  0.40830017
   0.91496476  0.16693959  0.50044486
   0.91511862  0.91753691  0.49964619
  -0.00094547  0.74974934  0.59389995
   0.08333333  0.58333333  0.40830017
   0.16800740  0.16495386  0.50045076
   0.91511832  0.41821277  0.50082457
   0.24979716  0.75059360  0.59392751
   0.16619950  0.41784629  0.50034576
   0.24926202  0.24992264  0.59423529
   0.16733213  0.66632265  0.49957755
   0.33333333  0.83333333  0.40830017
   0.08333333  0.33333333  0.40830017
   0.66698126  0.91623986  0.50030495
   0.41808534  0.16485465  0.49931117
   0.58333333  0.33333333  0.40830017
   0.41624543  0.41737213  0.49953723
   0.50135485  0.24893270  0.59394102
   0.50067214  0.49969617  0.59388462
   0.58333333  0.83333333  0.40830017
   0.50067195  0.75078075  0.59324795
   0.66696927  0.41746002  0.49993881
   0.83333333  0.58333333  0.40830017
   0.16764522  0.91625331  0.50034275
   0.58333333  0.58333333  0.40830017
   0.91536017  0.66712009  0.50029097
  -0.00078185  0.50046410  0.59288732
   0.50055455 -0.00080273  0.59289413
   0.33333333  0.58333333  0.40830017
   0.58333333  0.08333333  0.40830017
   0.33333333  0.08333333  0.40830017
   0.24930250  0.50010008  0.59321687
   0.41763766  0.66673868  0.49956426
   0.08333333  0.83333333  0.40830017
   0.33333333  0.33333333  0.40830017
   0.75091100  0.49998680  0.59279791
   0.75067485  0.24928421  0.59292768
   0.83333333  0.33333333  0.40830017
   0.83333333  0.83333333  0.40830017
   0.66632028  0.66686407  0.50032619
  -0.00051269  0.00098088  0.59315658
   0.24976779  0.00028586  0.59294479
   0.74985910  0.00029022  0.59288361
   0.66745508  0.16583669  0.49996499
   0.83333333  0.08333333  0.40830017
   0.41698726  0.91634503  0.50024230
  -0.00033870  0.24994069  0.59306556
   0.74991326  0.74976671  0.59262202
Direct configuration=     3
   0.08333333  0.08333333  0.40830017
   0.90985906  0.16775837  0.50177945
   0.91047447  0.92014763  0.49858475
  -0.00378190  0.74899737  0.60050033
   0.08333333  0.58333333  0.40830017
   0.17202959  0.15981542  0.50180303
   0.91047330  0.42285108  0.50329827
   0.24918864  0.75237440  0.60061053
   0.16479802  0.42138515  0.50138302
   0.24704806  0.24969055  0.60184169
   0.16932850  0.66529058  0.49831020
   0.33333333  0.83333333  0.40830017
   0.08333333  0.33333333  0.40830017
   0.66792503  0.91495943  0.50121981
   0.42234138  0.15941860  0.49724467
   0.58333333  0.33333333  0.40830017
   0.41498172  0.41948853  0.49814893
   0.50541942  0.24573080  0.60066459
   0.50268857  0.49878468  0.60043898
   0.58333333  0.83333333  0.40830017
   0.50268782  0.75312300  0.59789231
   0.66787708  0.41984006  0.49975526
   0.83333333  0.58333333  0.40830017
   0.17058088  0.91501322  0.50137101
   0.58333333  0.58333333  0.40830017
   0.91144068  0.66848035  0.50116388
  -0.00312741  0.50185641  0.59644979
   0.50221821 -0.00321090  0.59647703
   0.33333333  0.58333333  0.40830017
   0.58333333  0.08333333  0.40830017
   0.33333333  0.08333333  0.40830017
   0.24720998  0.50040033  0.59776800
   0.42055062  0.66695473  0.49825705
   0.08333333  0.83333333  0.40830017
   0.33333333  0.33333333  0.40830017
   0.75364400  0.49994722  0.59609214
   0.75269941  0.24713685  0.59661121
   0.83333333  0.33333333  0.40830017
   0.83333333  0.83333333  0.40830017
   0.66528110  0.66745629  0.50130475
  -0.00205078  0.00392353  0.59752683
   0.24907115  0.00114343  0.59667968
   0.74943641  0.00116086  0.59643496
   0.66982034  0.16334675  0.49985995
   0.83333333  0.08333333  0.40830017
   0.41794905  0.91538014  0.50096918
  -0.00135479  0.24976274  0.59716275
   0.74965304  0.74906683  0.59538858
Direct configuration=     4
   0.08333333  0.08333333  0.40830017
   0.91073339  0.16792973  0.50291232
   0.91231689  0.91827017  0.49978824
  -0.00401439  0.74955888  0.60266896
   0.08333333  0.58333333  0.40830017
   0.17143951  0.16136654  0.50330353
   0.91217115  0.42161040  0.50444026
   0.24890228  0.75234856  0.60288807
   0.16494668  0.41979619  0.50305853
   0.24726142  0.24971635  0.60441895
   0.16819403  0.66767473  0.49992990
   0.33333333  0.83333333  0.40830017
   0.08333333  0.33333333  0.40830017
   0.66784468  0.91427917  0.50236147
   0.42214559  0.16047635  0.49862769
   0.58333333  0.33333333  0.40830017
   0.41639083  0.41827461  0.49983735
   0.50502107  0.24563956  0.60275360
   0.50298914  0.49871658  0.60257597
   0.58333333  0.83333333  0.40830017
   0.50258818  0.75286302  0.59976465
   0.66629696  0.42042719  0.50102646
   0.83333333  0.58333333  0.40830017
   0.17001788  0.91390310  0.50296695
   0.58333333  0.58333333  0.40830017
   0.91142080  0.66941763  0.50224727
  -0.00316970  0.50178511  0.59808232
   0.50218258 -0.00254060  0.59786379
   0.33333333  0.58333333  0.40830017
   0.58333333  0.08333333  0.40830017
   0.33333333  0.08333333  0.40830017
   0.24741263  0.50023364  0.59930751
   0.42124055  0.66679228  0.49949748
   0.08333333  0.83333333  0.40830017
   0.33333333  0.33333333  0.40830017
   0.75348233  0.49984689  0.59784391
   0.75268262  0.24739979  0.59815449
   0.83333333  0.33333333  0.40830017
   0.83333333  0.83333333  0.40830017
   0.66399974  0.66864635  0.50227256
  -0.00214682  0.00366588  0.59906329
   0.24893288  0.00127998  0.59838681
   0.75007290  0.00062584  0.59787337
   0.66760550  0.16485802  0.50089658
   0.83333333  0.08333333  0.40830017
   0.41915086  0.91407770  0.50207451
  -0.00151934  0.24974564  0.59866278
   0.74970210  0.74916346  0.59678341
Direct configuration=     5
   0.08333333  0.08333333  0.40830017
   0.91335638  0.16844382  0.50631096
   0.91784416  0.91263779  0.50339868
  -0.00471187  0.75124341  0.60917488
   0.08333333  0.58333333  0.40830017
   0.16966924  0.16601987  0.50780500
   0.91726472  0.41788837  0.50786624
   0.24804320  0.75227101  0.60972067
   0.16539268  0.41502928  0.50808504
   0.24790149  0.24979378  0.61215076
   0.16479063  0.67482717  0.50478901
   0.33333333  0.83333333  0.40830017
   0.08333333  0.33333333  0.40830017
   0.66760363  0.91223838  0.50578644
   0.42155821  0.16364962  0.50277676
   0.58333333  0.33333333  0.40830017
   0.42061816  0.41463284  0.50490260
   0.50382600  0.24536584  0.60902064
   0.50389085  0.49851230  0.60898692
   0.58333333  0.83333333  0.40830017
   0.50228928  0.75208305  0.60538167
   0.66155657  0.42218857  0.50484009
   0.83333333  0.58333333  0.40830017
   0.16832891  0.91057273  0.50775476
   0.58333333  0.58333333  0.40830017
   0.91136116  0.67222947  0.50549743
  -0.00329655  0.50157124  0.60297993
   0.50207569 -0.00052970  0.60202405
   0.33333333  0.58333333  0.40830017
   0.58333333  0.08333333  0.40830017
   0.33333333  0.08333333  0.40830017
   0.24802058  0.49973356  0.60392607
   0.42331034  0.66630492  0.50321878
   0.08333333  0.83333333  0.40830017
   0.33333333  0.33333333  0.40830017
   0.75299731  0.49954590  0.60309921
   0.75263225  0.24818860  0.60278435
   0.83333333  0.33333333  0.40830017
   0.83333333  0.83333333  0.40830017
   0.66015564  0.67221656  0.50517598
  -0.00243497  0.00289292  0.60367267
   0.24851807  0.00168963  0.60350821
   0.75198236 -0.00097923  0.60218858
   0.66096099  0.16939186  0.50400646
   0.83333333  0.08333333  0.40830017
   0.42275629  0.91017038  0.50539048
  -0.00201301  0.24969433  0.60316288
   0.74984928  0.74945336  0.60096789
Direct configuration=     6
   0.08333333  0.08333333  0.40830017
   0.91369506  0.16767264  0.50774894
   0.91487203  0.91638525  0.50561535
  -0.00354683  0.75110744  0.61182211
   0.08333333  0.58333333  0.40830017
   0.17098829  0.16368154  0.50996023
   0.91529579  0.41894054  0.50919794
   0.24846992  0.75125542  0.61259031
   0.16739752  0.41630591  0.51034720
   0.24860177  0.24979162  0.61534125
   0.16790530  0.66791664  0.50755594
   0.33333333  0.83333333  0.40830017
   0.08333333  0.33333333  0.40830017
   0.66732795  0.91500778  0.50731629
   0.41909409  0.16443126  0.50538295
   0.58333333  0.33333333  0.40830017
   0.41635577  0.41757808  0.50787456
   0.50268562  0.24640356  0.61147041
   0.50302579  0.49880548  0.61157413
   0.58333333  0.83333333  0.40830017
   0.50112753  0.75152651  0.60786498
   0.66414450  0.42094710  0.50715904
   0.83333333  0.58333333  0.40830017
   0.16918544  0.91450879  0.51009188
   0.58333333  0.58333333  0.40830017
   0.91416131  0.66924619  0.50731347
  -0.00261527  0.50141407  0.60533765
   0.50117084  0.00071160  0.60384696
   0.33333333  0.58333333  0.40830017
   0.58333333  0.08333333  0.40830017
   0.33333333  0.08333333  0.40830017
   0.24887244  0.49986352  0.60572308
   0.42049248  0.66656401  0.50581903
   0.08333333  0.83333333  0.40830017
   0.33333333  0.33333333  0.40830017
   0.75228423  0.49949615  0.60522809
   0.75167776  0.24882632  0.60464244
   0.83333333  0.33333333  0.40830017
   0.83333333  0.83333333  0.40830017
   0.66329697  0.66889968  0.50693289
  -0.00229765  0.00205085  0.60563209
   0.24890727  0.00140059  0.60565046
   0.75221949 -0.00092307  0.60382755
   0.66349241  0.16770499  0.50617301
   0.83333333  0.08333333  0.40830017
   0.41921967  0.91298291  0.50737518
  -0.00165184  0.24969794  0.60544320
   0.74998409  0.74947884  0.60318118
Direct configuration=     7
   0.08333333  0.08333333  0.40830017
   0.91377399  0.16749290  0.50808410
   0.91417929  0.91725870  0.50613200
  -0.00327528  0.75107575  0.61243912
   0.08333333  0.58333333  0.40830017
   0.17129573  0.16313653  0.51046256
   0.91483688  0.41918578  0.50950833
   0.24856938  0.75101870  0.61325916
   0.16786480  0.41660346  0.51087446
   0.24876500  0.24979112  0.61608488
   0.16863127  0.66630595  0.50820085
   0.33333333  0.83333333  0.40830017
   0.08333333  0.33333333  0.40830017
   0.66726370  0.91565327  0.50767286
   0.41851975  0.16461345  0.50599039
   0.58333333  0.33333333  0.40830017
   0.41536229  0.41826455  0.50856726
   0.50241982  0.24664543  0.61204140
   0.50282417  0.49887382  0.61217715
   0.58333333  0.83333333  0.40830017
   0.50085675  0.75139679  0.60844378
   0.66474769  0.42065774  0.50769954
   0.83333333  0.58333333  0.40830017
   0.16938508  0.91542620  0.51063661
   0.58333333  0.58333333  0.40830017
   0.91481396  0.66855085  0.50773675
  -0.00245648  0.50137744  0.60588718
   0.50095994  0.00100092  0.60427184
   0.33333333  0.58333333  0.40830017
   0.58333333  0.08333333  0.40830017
   0.33333333  0.08333333  0.40830017
   0.24907099  0.49989381  0.60614193
   0.41983570  0.66662439  0.50642509
   0.08333333  0.83333333  0.40830017
   0.33333333  0.33333333  0.40830017
   0.75211803  0.49948456  0.60572428
   0.75145529  0.24897495  0.60507553
   0.83333333  0.33333333  0.40830017
   0.83333333  0.83333333  0.40830017
   0.66402915  0.66812659  0.50734239
  -0.00226564  0.00185458  0.60608879
   0.24899799  0.00133322  0.60614977
   0.75227476 -0.00090998  0.60420956
   0.66408243  0.16731181  0.50667799
   0.83333333  0.08333333  0.40830017
   0.41839536  0.91363845  0.50783777
  -0.00156766  0.24969878  0.60597469
   0.75001551  0.74948478  0.60369705
Direct configuration=     8
   0.08333333  0.08333333  0.40830017
   0.91357318  0.16743784  0.50814634
   0.91483492  0.91748256  0.50639291
  -0.00250525  0.75032446  0.61265836
   0.08333333  0.58333333  0.40830017
   0.17055214  0.16389309  0.51064429
   0.91487149  0.41943946  0.50961830
   0.24878063  0.75090870  0.61363199
   0.16681771  0.41667451  0.51088471
   0.24846901  0.24994357  0.61650388
   0.16782481  0.66718211  0.50843886
   0.33333333  0.83333333  0.40830017
   0.08333333  0.33333333  0.40830017
   0.66677416  0.91589814  0.50765381
   0.41835149  0.16448512  0.50635715
   0.58333333  0.33333333  0.40830017
   0.41652396  0.41804438  0.50877036
   0.50256167  0.24727228  0.61225348
   0.50235581  0.49883557  0.61252968
   0.58333333  0.83333333  0.40830017
   0.50067093  0.75169206  0.60865086
   0.66524966  0.41949363  0.50799480
   0.83333333  0.58333333  0.40830017
   0.16926574  0.91482190  0.51070584
   0.58333333  0.58333333  0.40830017
   0.91578595  0.66751785  0.50820768
  -0.00199427  0.50112669  0.60642588
   0.50081930  0.00045304  0.60470431
   0.33333333  0.58333333  0.40830017
   0.58333333  0.08333333  0.40830017
   0.33333333  0.08333333  0.40830017
   0.24913600  0.50008143  0.60708110
   0.41843366  0.66703801  0.50717491
   0.08333333  0.83333333  0.40830017
   0.33333333  0.33333333  0.40830017
   0.75202747  0.49968563  0.60613023
   0.75102426  0.24896887  0.60537770
   0.83333333  0.33333333  0.40830017
   0.83333333  0.83333333  0.40830017
   0.66510366  0.66774688  0.50781227
  -0.00192452  0.00171704  0.60653680
   0.24937502  0.00104202  0.60691520
   0.75137915 -0.00020486  0.60464010
   0.66491763  0.16758977  0.50719696
   0.83333333  0.08333333  0.40830017
   0.41829954  0.91415896  0.50823411
  -0.00120505  0.24982069  0.60647269
   0.74973340  0.74962132  0.60415282
Direct configuration=     9
   0.08333333  0.08333333  0.40830017
   0.91349894  0.16741749  0.50816935
   0.91507730  0.91756532  0.50648936
  -0.00222057  0.75004672  0.61273941
   0.08333333  0.58333333  0.40830017
   0.17027725  0.16417278  0.51071147
   0.91488428  0.41953324  0.50965895
   0.24885873  0.75086804  0.61376982
   0.16643062  0.41670078  0.51088850
   0.24835959  0.24999993  0.61665878
   0.16752668  0.66750602  0.50852685
   0.33333333  0.83333333  0.40830017
   0.08333333  0.33333333  0.40830017
   0.66659319  0.91598866  0.50764677
   0.41828928  0.16443768  0.50649274
   0.58333333  0.33333333  0.40830017
   0.41695342  0.41796298  0.50884545
   0.50261412  0.24750402  0.61233188
   0.50218267  0.49882143  0.61266000
   0.58333333  0.83333333  0.40830017
   0.50060223  0.75180121  0.60872742
   0.66543523  0.41906327  0.50810395
   0.83333333  0.58333333  0.40830017
   0.16922163  0.91459849  0.51073144
   0.58333333  0.58333333  0.40830017
   0.91614528  0.66713596  0.50838177
  -0.00182340  0.50103398  0.60662503
   0.50076731  0.00025049  0.60486418
   0.33333333  0.58333333  0.40830017
   0.58333333  0.08333333  0.40830017
   0.33333333  0.08333333  0.40830017
   0.24916003  0.50015078  0.60742830
   0.41791534  0.66719091  0.50745212
   0.08333333  0.83333333  0.40830017
   0.33333333  0.33333333  0.40830017
   0.75199399  0.49975996  0.60628030
   0.75086491  0.24896662  0.60548941
   0.83333333  0.33333333  0.40830017
   0.83333333  0.83333333  0.40830017
   0.66550090  0.66760651  0.50798598
  -0.00179842  0.00166619  0.60670243
   0.24951441  0.00093436  0.60719817
   0.75104805  0.00005581  0.60479927
   0.66522639  0.16769252  0.50738882
   0.83333333  0.08333333  0.40830017
   0.41826412  0.91435139  0.50838063
  -0.00107100  0.24986575  0.60665679
   0.74962911  0.74967180  0.60432131
Direct configuration=    10
   0.08333333  0.08333333  0.40830017
   0.91403610  0.16742631  0.50817318
   0.91511293  0.91713107  0.50654113
  -0.00222541  0.74989781  0.61266500
   0.08333333  0.58333333  0.40830017
   0.16951576  0.16429954  0.51075345
   0.91469841  0.41931019  0.50974035
   0.24894614  0.75105101  0.61390938
   0.16664924  0.41681124  0.51078649
   0.24841586  0.25003435  0.61674334
   0.16704992  0.66767787  0.50847849
   0.33333333  0.83333333  0.40830017
   0.08333333  0.33333333  0.40830017
   0.66716436  0.91559666  0.50751882
   0.41843090  0.16486628  0.50655738
   0.58333333  0.33333333  0.40830017
   0.41699796  0.41770418  0.50872508
   0.50235040  0.24767168  0.61230378
   0.50211927  0.49902776  0.61281483
   0.58333333  0.83333333  0.40830017
   0.50074274  0.75174643  0.60869603
   0.66531744  0.41946316  0.50811429
   0.83333333  0.58333333  0.40830017
   0.16917507  0.91460163  0.51064297
   0.58333333  0.58333333  0.40830017
   0.91603781  0.66763460  0.50869029
  -0.00161171  0.50084760  0.60695747
   0.50071736  0.00006431  0.60520215
   0.33333333  0.58333333  0.40830017
   0.58333333  0.08333333  0.40830017
   0.33333333  0.08333333  0.40830017
   0.24919438  0.49997465  0.60801568
   0.41811640  0.66716127  0.50786782
   0.08333333  0.83333333  0.40830017
   0.33333333  0.33333333  0.40830017
   0.75199871  0.49979695  0.60645207
   0.75110062  0.24889870  0.60569672
   0.83333333  0.33333333  0.40830017
   0.83333333  0.83333333  0.40830017
   0.66531021  0.66771546  0.50822096
  -0.00161400  0.00173492  0.60693578
   0.24948950  0.00091043  0.60764503
   0.75067734  0.00008278  0.60502731
   0.66531990  0.16750164  0.50758223
   0.83333333  0.08333333  0.40830017
   0.41831552  0.91422617  0.50852930
  -0.00102477  0.24988799  0.60686271
   0.74958611  0.74991050  0.60454624
Direct configuration=    11
   0.08333333  0.08333333  0.40830017
   0.91423208  0.16742953  0.50817458
   0.91512593  0.91697264  0.50656001
  -0.00222718  0.74984348  0.61263785
   0.08333333  0.58333333  0.40830017
   0.16923794  0.16434579  0.51076876
   0.91463060  0.41922882  0.50977005
   0.24897804  0.75111777  0.61396029
   0.16672900  0.41685154  0.51074927
   0.24843639  0.25004691  0.61677420
   0.16687598  0.66774056  0.50846084
   0.33333333  0.83333333  0.40830017
   0.08333333  0.33333333  0.40830017
   0.66737275  0.91545365  0.50747214
   0.41848257  0.16502264  0.50658096
   0.58333333  0.33333333  0.40830017
   0.41701421  0.41760976  0.50868116
   0.50225419  0.24773285  0.61229353
   0.50209614  0.49910304  0.61287132
   0.58333333  0.83333333  0.40830017
   0.50079400  0.75172644  0.60868458
   0.66527447  0.41960905  0.50811806
   0.83333333  0.58333333  0.40830017
   0.16915808  0.91460277  0.51061070
   0.58333333  0.58333333  0.40830017
   0.91599860  0.66781652  0.50880285
  -0.00153448  0.50077959  0.60707876
   0.50069913 -0.00000362  0.60532545
   0.33333333  0.58333333  0.40830017
   0.58333333  0.08333333  0.40830017
   0.33333333  0.08333333  0.40830017
   0.24920691  0.49991039  0.60822998
   0.41818976  0.66715045  0.50801948
   0.08333333  0.83333333  0.40830017
   0.33333333  0.33333333  0.40830017
   0.75200043  0.49981045  0.60651474
   0.75118662  0.24887392  0.60577236
   0.83333333  0.33333333  0.40830017
   0.83333333  0.83333333  0.40830017
   0.66524063  0.66775521  0.50830669
  -0.00154672  0.00175999  0.60702091
   0.24948041  0.00090171  0.60780805
   0.75054209  0.00009261  0.60511050
   0.66535402  0.16743200  0.50765280
   0.83333333  0.08333333  0.40830017
   0.41833427  0.91418049  0.50858354
  -0.00100791  0.24989611  0.60693784
   0.74957043  0.74999758  0.60462830
Direct configuration=    12
   0.08333333  0.08333333  0.40830017
   0.91412979  0.16725679  0.50823210
   0.91493125  0.91722551  0.50659595
  -0.00233519  0.75003253  0.61253461
   0.08333333  0.58333333  0.40830017
   0.16958096  0.16415685  0.51084176
   0.91457709  0.41954686  0.50988651
   0.24886459  0.75124865  0.61401200
   0.16684728  0.41699074  0.51077408
   0.24854705  0.24991804  0.61672754
   0.16731721  0.66731958  0.50842116
   0.33333333  0.83333333  0.40830017
   0.08333333  0.33333333  0.40830017
   0.66734225  0.91541686  0.50744040
   0.41854045  0.16477849  0.50658153
   0.58333333  0.33333333  0.40830017
   0.41661369  0.41796633  0.50856717
   0.50209445  0.24770341  0.61221742
   0.50220411  0.49913223  0.61295526
   0.58333333  0.83333333  0.40830017
   0.50098165  0.75164865  0.60867798
   0.66508421  0.41990373  0.50807724
   0.83333333  0.58333333  0.40830017
   0.16922922  0.91460633  0.51059390
   0.58333333  0.58333333  0.40830017
   0.91570068  0.66781277  0.50901665
  -0.00149774  0.50064725  0.60720803
   0.50063707  0.00007091  0.60551325
   0.33333333  0.58333333  0.40830017
   0.58333333  0.08333333  0.40830017
   0.33333333  0.08333333  0.40830017
   0.24918105  0.49984504  0.60850884
   0.41843508  0.66698692  0.50822647
   0.08333333  0.83333333  0.40830017
   0.33333333  0.33333333  0.40830017
   0.75215751  0.49975161  0.60661791
   0.75145644  0.24882659  0.60587082
   0.83333333  0.33333333  0.40830017
   0.83333333  0.83333333  0.40830017
   0.66501876  0.66794909  0.50841693
  -0.00157251  0.00179231  0.60709170
   0.24934110  0.00104721  0.60800688
   0.75054571 -0.00004912  0.60523140
   0.66560561  0.16720528  0.50772651
   0.83333333  0.08333333  0.40830017
   0.41824585  0.91442736  0.50867132
  -0.00104311  0.24989445  0.60705459
   0.74960695  0.75013374  0.60476868
Direct configuration=    13
   0.08333333  0.08333333  0.40830017
   0.91410237  0.16721050  0.50824751
   0.91487907  0.91729329  0.50660559
  -0.00236414  0.75008319  0.61250694
   0.08333333  0.58333333  0.40830017
   0.16967289  0.16410622  0.51086132
   0.91456275  0.41963209  0.50991772
   0.24883418  0.75128373  0.61402586
   0.16687898  0.41702804  0.51078072
   0.24857671  0.24988350  0.61671504
   0.16743546  0.66720675  0.50841052
   0.33333333  0.83333333  0.40830017
   0.08333333  0.33333333  0.40830017
   0.66733408  0.91540700  0.50743189
   0.41855596  0.16471305  0.50658168
   0.58333333  0.33333333  0.40830017
   0.41650636  0.41806189  0.50853662
   0.50205164  0.24769552  0.61219702
   0.50223304  0.49914005  0.61297776
   0.58333333  0.83333333  0.40830017
   0.50103194  0.75162780  0.60867621
   0.66503323  0.41998270  0.50806630
   0.83333333  0.58333333  0.40830017
   0.16924828  0.91460728  0.51058940
   0.58333333  0.58333333  0.40830017
   0.91562083  0.66781177  0.50907395
  -0.00148789  0.50061179  0.60724268
   0.50062044  0.00009088  0.60556358
   0.33333333  0.58333333  0.40830017
   0.58333333  0.08333333  0.40830017
   0.33333333  0.08333333  0.40830017
   0.24917412  0.49982752  0.60858357
   0.41850083  0.66694309  0.50828195
   0.08333333  0.83333333  0.40830017
   0.33333333  0.33333333  0.40830017
   0.75219961  0.49973583  0.60664556
   0.75152875  0.24881391  0.60589720
   0.83333333  0.33333333  0.40830017
   0.83333333  0.83333333  0.40830017
   0.66495930  0.66800105  0.50844648
  -0.00157943  0.00180097  0.60711067
   0.24930376  0.00108621  0.60806016
   0.75054668 -0.00008710  0.60526380
   0.66567303  0.16714451  0.50774627
   0.83333333  0.08333333  0.40830017
   0.41822216  0.91449352  0.50869485
  -0.00105254  0.24989401  0.60708588
   0.74961674  0.75017023  0.60480631
Direct configuration=    14
   0.08333333  0.08333333  0.40830017
   0.91394891  0.16740595  0.50831036
   0.91503900  0.91716632  0.50661921
  -0.00231849  0.75018393  0.61240691
   0.08333333  0.58333333  0.40830017
   0.16981650  0.16420627  0.51094331
   0.91469015  0.41963352  0.51000889
   0.24874245  0.75132338  0.61404169
   0.16679953  0.41700946  0.51088080
   0.24858688  0.24979690  0.61664495
   0.16751302  0.66731728  0.50841021
   0.33333333  0.83333333  0.40830017
   0.08333333  0.33333333  0.40830017
   0.66712862  0.91549484  0.50748811
   0.41867274  0.16455620  0.50656369
   0.58333333  0.33333333  0.40830017
   0.41659933  0.41798842  0.50848870
   0.50213326  0.24769688  0.61208823
   0.50233006  0.49899676  0.61303043
   0.58333333  0.83333333  0.40830017
   0.50106627  0.75168132  0.60871388
   0.66510121  0.41984639  0.50804661
   0.83333333  0.58333333  0.40830017
   0.16934616  0.91447099  0.51062768
   0.58333333  0.58333333  0.40830017
   0.91555736  0.66777333  0.50918039
  -0.00143856  0.50056889  0.60729641
   0.50061879  0.00012503  0.60566841
   0.33333333  0.58333333  0.40830017
   0.58333333  0.08333333  0.40830017
   0.33333333  0.08333333  0.40830017
   0.24911777  0.49989248  0.60871501
   0.41850773  0.66707300  0.50837956
   0.08333333  0.83333333  0.40830017
   0.33333333  0.33333333  0.40830017
   0.75236452  0.49967777  0.60672014
   0.75152376  0.24884052  0.60594324
   0.83333333  0.33333333  0.40830017
   0.83333333  0.83333333  0.40830017
   0.66481511  0.66819218  0.50849424
  -0.00163591  0.00179330  0.60711416
   0.24921736  0.00112745  0.60814432
   0.75056065 -0.00010496  0.60534706
   0.66547943  0.16734300  0.50778183
   0.83333333  0.08333333  0.40830017
   0.41816912  0.91458689  0.50876262
  -0.00105316  0.24987027  0.60713420
   0.74963877  0.75021908  0.60491504
Direct configuration=    15
   0.08333333  0.08333333  0.40830017
   0.91391013  0.16745534  0.50832624
   0.91507941  0.91713424  0.50662265
  -0.00230696  0.75020938  0.61238164
   0.08333333  0.58333333  0.40830017
   0.16985279  0.16423156  0.51096402
   0.91472234  0.41963388  0.51003193
   0.24871927  0.75133339  0.61404569
   0.16677946  0.41700476  0.51090608
   0.24858945  0.24977501  0.61662724
   0.16753261  0.66734521  0.50841013
   0.33333333  0.83333333  0.40830017
   0.08333333  0.33333333  0.40830017
   0.66707670  0.91551704  0.50750231
   0.41870225  0.16451656  0.50655914
   0.58333333  0.33333333  0.40830017
   0.41662283  0.41796985  0.50847659
   0.50215388  0.24769722  0.61206074
   0.50235457  0.49896055  0.61304374
   0.58333333  0.83333333  0.40830017
   0.50107495  0.75169484  0.60872339
   0.66511839  0.41981195  0.50804163
   0.83333333  0.58333333  0.40830017
   0.16937089  0.91443655  0.51063736
   0.58333333  0.58333333  0.40830017
   0.91554133  0.66776362  0.50920729
  -0.00142609  0.50055805  0.60730998
   0.50061837  0.00013366  0.60569490
   0.33333333  0.58333333  0.40830017
   0.58333333  0.08333333  0.40830017
   0.33333333  0.08333333  0.40830017
   0.24910353  0.49990889  0.60874822
   0.41850947  0.66710583  0.50840423
   0.08333333  0.83333333  0.40830017
   0.33333333  0.33333333  0.40830017
   0.75240620  0.49966309  0.60673899
   0.75152250  0.24884724  0.60595487
   0.83333333  0.33333333  0.40830017
   0.83333333  0.83333333  0.40830017
   0.66477867  0.66824048  0.50850631
  -0.00165018  0.00179137  0.60711504
   0.24919553  0.00113787  0.60816558
   0.75056419 -0.00010947  0.60536810
   0.66543051  0.16739316  0.50779082
   0.83333333  0.08333333  0.40830017
   0.41815572  0.91461049  0.50877974
  -0.00105331  0.24986427  0.60714641
   0.74964434  0.75023143  0.60494252
Direct configuration=    16
   0.08333333  0.08333333  0.40830017
   0.91398545  0.16752815  0.50836728
   0.91503919  0.91712603  0.50662196
  -0.00226159  0.75020863  0.61229538
   0.08333333  0.58333333  0.40830017
   0.16980196  0.16423094  0.51103165
   0.91469422  0.41960295  0.51008919
   0.24878669  0.75128636  0.61406351
   0.16682113  0.41706677  0.51101423
   0.24862505  0.24975390  0.61658355
   0.16752999  0.66731661  0.50842435
   0.33333333  0.83333333  0.40830017
   0.08333333  0.33333333  0.40830017
   0.66712882  0.91557588  0.50758789
   0.41872055  0.16457572  0.50652614
   0.58333333  0.33333333  0.40830017
   0.41663826  0.41794263  0.50846473
   0.50223550  0.24772151  0.61194275
   0.50237891  0.49892092  0.61308028
   0.58333333  0.83333333  0.40830017
   0.50103110  0.75173054  0.60879395
   0.66522090  0.41981072  0.50804678
   0.83333333  0.58333333  0.40830017
   0.16934416  0.91462288  0.51068931
   0.58333333  0.58333333  0.40830017
   0.91553150  0.66781241  0.50925250
  -0.00137610  0.50059366  0.60737596
   0.50062542  0.00014813  0.60577240
   0.33333333  0.58333333  0.40830017
   0.58333333  0.08333333  0.40830017
   0.33333333  0.08333333  0.40830017
   0.24912878  0.49996209  0.60879821
   0.41856075  0.66712309  0.50844550
   0.08333333  0.83333333  0.40830017
   0.33333333  0.33333333  0.40830017
   0.75248077  0.49965712  0.60680042
   0.75146515  0.24887837  0.60599469
   0.83333333  0.33333333  0.40830017
   0.83333333  0.83333333  0.40830017
   0.66479853  0.66819004  0.50854465
  -0.00171776  0.00183378  0.60710042
   0.24916416  0.00109077  0.60821614
   0.75056435 -0.00005083  0.60541827
   0.66532523  0.16745776  0.50781733
   0.83333333  0.08333333  0.40830017
   0.41806142  0.91461023  0.50883791
  -0.00104601  0.24982478  0.60718710
   0.74967442  0.75023342  0.60504483
