  56  56   0   0
  0.4903395E+02  0.1100258E-08  0.1100258E-08  0.2619179E-08  0.3500000E-15
  1.000000000000000E-004
  CAR 
 unknown system                          
      6.35894970    -21.25000390  301     -1.47331592      1.00000000
    -21.250  0.0000E+00  0.0000E+00
    -21.158  0.0000E+00  0.0000E+00
    -21.066  0.0000E+00  0.0000E+00
    -20.974  0.0000E+00  0.0000E+00
    -20.882  0.0000E+00  0.0000E+00
    -20.790  0.0000E+00  0.0000E+00
    -20.698  0.0000E+00  0.0000E+00
    -20.606  0.0000E+00  0.0000E+00
    -20.514  0.4472E-14  0.4116E-15
    -20.422  0.3291E-10  0.3029E-11
    -20.330  0.4662E-07  0.4293E-08
    -20.238  0.1309E-04  0.1209E-05
    -20.146  0.7675E-03  0.7185E-04
    -20.054  0.1026E-01  0.1016E-02
    -19.962  0.3500E-01  0.4237E-02
    -19.870  0.3649E-01  0.7595E-02
    -19.778  0.2896E-01  0.1026E-01
    -19.685  0.3629E-01  0.1360E-01
    -19.593  0.4207E-01  0.1747E-01
    -19.501  0.4705E-01  0.2180E-01
    -19.409  0.2372E-01  0.2399E-01
    -19.317  0.1845E-01  0.2568E-01
    -19.225  0.3349E-01  0.2876E-01
    -19.133  0.2697E-01  0.3125E-01
    -19.041  0.7611E-02  0.3195E-01
    -18.949  0.5605E-03  0.3200E-01
    -18.857  0.9037E-05  0.3200E-01
    -18.765  0.2950E-07  0.3200E-01
    -18.673  0.1879E-10  0.3200E-01
    -18.581  0.2288E-14  0.3200E-01
    -18.489  0.0000E+00  0.3200E-01
    -18.397  0.0000E+00  0.3200E-01
    -18.305  0.0000E+00  0.3200E-01
    -18.213  0.0000E+00  0.3200E-01
    -18.121  0.0000E+00  0.3200E-01
    -18.029  0.0000E+00  0.3200E-01
    -17.937  0.0000E+00  0.3200E-01
    -17.845  0.0000E+00  0.3200E-01
    -17.753  0.0000E+00  0.3200E-01
    -17.661  0.0000E+00  0.3200E-01
    -17.569  0.0000E+00  0.3200E-01
    -17.477  0.0000E+00  0.3200E-01
    -17.385  0.0000E+00  0.3200E-01
    -17.293  0.0000E+00  0.3200E-01
    -17.201  0.0000E+00  0.3200E-01
    -17.109  0.0000E+00  0.3200E-01
    -17.017  0.0000E+00  0.3200E-01
    -16.925  0.0000E+00  0.3200E-01
    -16.833  0.0000E+00  0.3200E-01
    -16.741  0.0000E+00  0.3200E-01
    -16.649  0.0000E+00  0.3200E-01
    -16.556  0.0000E+00  0.3200E-01
    -16.464  0.0000E+00  0.3200E-01
    -16.372  0.0000E+00  0.3200E-01
    -16.280  0.0000E+00  0.3200E-01
    -16.188  0.0000E+00  0.3200E-01
    -16.096  0.0000E+00  0.3200E-01
    -16.004  0.0000E+00  0.3200E-01
    -15.912  0.0000E+00  0.3200E-01
    -15.820  0.0000E+00  0.3200E-01
    -15.728  0.0000E+00  0.3200E-01
    -15.636  0.0000E+00  0.3200E-01
    -15.544  0.0000E+00  0.3200E-01
    -15.452  0.0000E+00  0.3200E-01
    -15.360  0.0000E+00  0.3200E-01
    -15.268  0.0000E+00  0.3200E-01
    -15.176  0.0000E+00  0.3200E-01
    -15.084  0.0000E+00  0.3200E-01
    -14.992  0.0000E+00  0.3200E-01
    -14.900  0.0000E+00  0.3200E-01
    -14.808  0.0000E+00  0.3200E-01
    -14.716  0.0000E+00  0.3200E-01
    -14.624  0.0000E+00  0.3200E-01
    -14.532  0.0000E+00  0.3200E-01
    -14.440  0.0000E+00  0.3200E-01
    -14.348  0.0000E+00  0.3200E-01
    -14.256  0.0000E+00  0.3200E-01
    -14.164  0.0000E+00  0.3200E-01
    -14.072  0.0000E+00  0.3200E-01
    -13.980  0.0000E+00  0.3200E-01
    -13.888  0.0000E+00  0.3200E-01
    -13.796  0.0000E+00  0.3200E-01
    -13.704  0.0000E+00  0.3200E-01
    -13.612  0.0000E+00  0.3200E-01
    -13.519  0.0000E+00  0.3200E-01
    -13.427  0.0000E+00  0.3200E-01
    -13.335  0.0000E+00  0.3200E-01
    -13.243  0.0000E+00  0.3200E-01
    -13.151  0.0000E+00  0.3200E-01
    -13.059  0.0000E+00  0.3200E-01
    -12.967  0.0000E+00  0.3200E-01
    -12.875  0.0000E+00  0.3200E-01
    -12.783  0.0000E+00  0.3200E-01
    -12.691  0.0000E+00  0.3200E-01
    -12.599  0.0000E+00  0.3200E-01
    -12.507  0.0000E+00  0.3200E-01
    -12.415  0.0000E+00  0.3200E-01
    -12.323  0.0000E+00  0.3200E-01
    -12.231  0.0000E+00  0.3200E-01
    -12.139  0.0000E+00  0.3200E-01
    -12.047  0.0000E+00  0.3200E-01
    -11.955  0.0000E+00  0.3200E-01
    -11.863  0.0000E+00  0.3200E-01
    -11.771  0.0000E+00  0.3200E-01
    -11.679  0.0000E+00  0.3200E-01
    -11.587  0.0000E+00  0.3200E-01
    -11.495  0.0000E+00  0.3200E-01
    -11.403  0.0000E+00  0.3200E-01
    -11.311  0.0000E+00  0.3200E-01
    -11.219  0.0000E+00  0.3200E-01
    -11.127  0.0000E+00  0.3200E-01
    -11.035  0.0000E+00  0.3200E-01
    -10.943  0.0000E+00  0.3200E-01
    -10.851  0.0000E+00  0.3200E-01
    -10.759  0.0000E+00  0.3200E-01
    -10.667  0.0000E+00  0.3200E-01
    -10.575  0.0000E+00  0.3200E-01
    -10.483  0.0000E+00  0.3200E-01
    -10.390  0.0000E+00  0.3200E-01
    -10.298  0.0000E+00  0.3200E-01
    -10.206  0.0000E+00  0.3200E-01
    -10.114  0.0000E+00  0.3200E-01
    -10.022  0.0000E+00  0.3200E-01
     -9.930  0.0000E+00  0.3200E-01
     -9.838  0.0000E+00  0.3200E-01
     -9.746  0.4504E-16  0.3200E-01
     -9.654  0.5767E-12  0.3200E-01
     -9.562  0.1433E-08  0.3200E-01
     -9.470  0.7111E-06  0.3200E-01
     -9.378  0.7279E-04  0.3201E-01
     -9.286  0.1607E-02  0.3215E-01
     -9.194  0.8265E-02  0.3292E-01
     -9.102  0.1261E-01  0.3408E-01
     -9.010  0.1162E-01  0.3515E-01
     -8.918  0.7527E-02  0.3584E-01
     -8.826  0.3465E-02  0.3616E-01
     -8.734  0.5302E-02  0.3665E-01
     -8.642  0.9275E-02  0.3750E-01
     -8.550  0.1225E-01  0.3863E-01
     -8.458  0.1072E-01  0.3961E-01
     -8.366  0.1202E-01  0.4072E-01
     -8.274  0.1907E-01  0.4247E-01
     -8.182  0.1580E-01  0.4393E-01
     -8.090  0.2096E-01  0.4586E-01
     -7.998  0.4562E-01  0.5006E-01
     -7.906  0.5650E-01  0.5526E-01
     -7.814  0.6266E-01  0.6102E-01
     -7.722  0.6574E-01  0.6707E-01
     -7.630  0.6348E-01  0.7291E-01
     -7.538  0.6573E-01  0.7896E-01
     -7.446  0.7843E-01  0.8618E-01
     -7.353  0.9887E-01  0.9528E-01
     -7.261  0.1151E+00  0.1059E+00
     -7.169  0.1271E+00  0.1176E+00
     -7.077  0.1370E+00  0.1302E+00
     -6.985  0.1275E+00  0.1419E+00
     -6.893  0.1252E+00  0.1534E+00
     -6.801  0.1369E+00  0.1660E+00
     -6.709  0.1407E+00  0.1790E+00
     -6.617  0.1488E+00  0.1927E+00
     -6.525  0.1594E+00  0.2074E+00
     -6.433  0.1576E+00  0.2219E+00
     -6.341  0.1606E+00  0.2366E+00
     -6.249  0.1618E+00  0.2515E+00
     -6.157  0.1660E+00  0.2668E+00
     -6.065  0.1608E+00  0.2816E+00
     -5.973  0.1574E+00  0.2961E+00
     -5.881  0.1593E+00  0.3107E+00
     -5.789  0.1574E+00  0.3252E+00
     -5.697  0.1623E+00  0.3402E+00
     -5.605  0.1670E+00  0.3555E+00
     -5.513  0.1716E+00  0.3713E+00
     -5.421  0.1743E+00  0.3874E+00
     -5.329  0.1749E+00  0.4035E+00
     -5.237  0.1783E+00  0.4199E+00
     -5.145  0.1782E+00  0.4363E+00
     -5.053  0.1799E+00  0.4528E+00
     -4.961  0.1850E+00  0.4699E+00
     -4.869  0.1888E+00  0.4872E+00
     -4.777  0.1877E+00  0.5045E+00
     -4.685  0.1901E+00  0.5220E+00
     -4.593  0.1901E+00  0.5395E+00
     -4.501  0.1832E+00  0.5564E+00
     -4.409  0.1806E+00  0.5730E+00
     -4.317  0.1806E+00  0.5896E+00
     -4.224  0.1906E+00  0.6071E+00
     -4.132  0.2002E+00  0.6256E+00
     -4.040  0.2003E+00  0.6440E+00
     -3.948  0.2005E+00  0.6625E+00
     -3.856  0.2080E+00  0.6816E+00
     -3.764  0.2089E+00  0.7008E+00
     -3.672  0.2032E+00  0.7195E+00
     -3.580  0.2000E+00  0.7379E+00
     -3.488  0.1940E+00  0.7558E+00
     -3.396  0.1873E+00  0.7730E+00
     -3.304  0.1859E+00  0.7901E+00
     -3.212  0.1888E+00  0.8075E+00
     -3.120  0.1876E+00  0.8248E+00
     -3.028  0.1868E+00  0.8420E+00
     -2.936  0.1753E+00  0.8581E+00
     -2.844  0.1693E+00  0.8737E+00
     -2.752  0.1765E+00  0.8899E+00
     -2.660  0.1867E+00  0.9071E+00
     -2.568  0.1835E+00  0.9240E+00
     -2.476  0.1828E+00  0.9408E+00
     -2.384  0.1794E+00  0.9573E+00
     -2.292  0.1706E+00  0.9730E+00
     -2.200  0.1741E+00  0.9891E+00
     -2.108  0.1776E+00  0.1005E+01
     -2.016  0.1847E+00  0.1022E+01
     -1.924  0.1837E+00  0.1039E+01
     -1.832  0.1675E+00  0.1055E+01
     -1.740  0.1461E+00  0.1068E+01
     -1.648  0.1392E+00  0.1081E+01
     -1.556  0.1390E+00  0.1094E+01
     -1.464  0.1229E+00  0.1105E+01
     -1.372  0.9197E-01  0.1114E+01
     -1.280  0.6800E-01  0.1120E+01
     -1.187  0.5415E-01  0.1125E+01
     -1.095  0.4152E-01  0.1129E+01
     -1.003  0.4187E-01  0.1132E+01
     -0.911  0.4892E-01  0.1137E+01
     -0.819  0.4611E-01  0.1141E+01
     -0.727  0.3948E-01  0.1145E+01
     -0.635  0.3733E-01  0.1148E+01
     -0.543  0.4322E-01  0.1152E+01
     -0.451  0.4134E-01  0.1156E+01
     -0.359  0.3416E-01  0.1159E+01
     -0.267  0.3287E-01  0.1162E+01
     -0.175  0.2611E-01  0.1165E+01
     -0.083  0.2294E-01  0.1167E+01
      0.009  0.1878E-01  0.1168E+01
      0.101  0.1723E-01  0.1170E+01
      0.193  0.2641E-01  0.1172E+01
      0.285  0.3820E-01  0.1176E+01
      0.377  0.3877E-01  0.1180E+01
      0.469  0.3847E-01  0.1183E+01
      0.561  0.3745E-01  0.1187E+01
      0.653  0.3100E-01  0.1189E+01
      0.745  0.2944E-01  0.1192E+01
      0.837  0.2997E-01  0.1195E+01
      0.929  0.3035E-01  0.1198E+01
      1.021  0.2995E-01  0.1200E+01
      1.113  0.2578E-01  0.1203E+01
      1.205  0.2097E-01  0.1205E+01
      1.297  0.2595E-01  0.1207E+01
      1.389  0.3772E-01  0.1211E+01
      1.481  0.3591E-01  0.1214E+01
      1.573  0.3228E-01  0.1217E+01
      1.665  0.3043E-01  0.1220E+01
      1.757  0.2968E-01  0.1222E+01
      1.849  0.3212E-01  0.1225E+01
      1.942  0.3287E-01  0.1228E+01
      2.034  0.3261E-01  0.1231E+01
      2.126  0.3175E-01  0.1234E+01
      2.218  0.3257E-01  0.1237E+01
      2.310  0.2644E-01  0.1240E+01
      2.402  0.2187E-01  0.1242E+01
      2.494  0.2195E-01  0.1244E+01
      2.586  0.2563E-01  0.1246E+01
      2.678  0.2716E-01  0.1249E+01
      2.770  0.2462E-01  0.1251E+01
      2.862  0.2683E-01  0.1253E+01
      2.954  0.3018E-01  0.1256E+01
      3.046  0.2844E-01  0.1259E+01
      3.138  0.2742E-01  0.1261E+01
      3.230  0.3178E-01  0.1264E+01
      3.322  0.3519E-01  0.1267E+01
      3.414  0.3640E-01  0.1271E+01
      3.506  0.3273E-01  0.1274E+01
      3.598  0.3292E-01  0.1277E+01
      3.690  0.3620E-01  0.1280E+01
      3.782  0.3812E-01  0.1284E+01
      3.874  0.3302E-01  0.1287E+01
      3.966  0.2957E-01  0.1289E+01
      4.058  0.3739E-01  0.1293E+01
      4.150  0.4095E-01  0.1297E+01
      4.242  0.3398E-01  0.1300E+01
      4.334  0.3337E-01  0.1303E+01
      4.426  0.3602E-01  0.1306E+01
      4.518  0.3841E-01  0.1310E+01
      4.610  0.4586E-01  0.1314E+01
      4.702  0.5674E-01  0.1319E+01
      4.794  0.6173E-01  0.1325E+01
      4.886  0.5899E-01  0.1330E+01
      4.979  0.5422E-01  0.1335E+01
      5.071  0.5503E-01  0.1340E+01
      5.163  0.3300E-01  0.1343E+01
      5.255  0.6960E-02  0.1344E+01
      5.347  0.4026E-03  0.1344E+01
      5.439  0.5527E-05  0.1344E+01
      5.531  0.1647E-07  0.1344E+01
      5.623  0.1008E-10  0.1344E+01
      5.715  0.1226E-14  0.1344E+01
      5.807  0.0000E+00  0.1344E+01
      5.899  0.0000E+00  0.1344E+01
      5.991  0.0000E+00  0.1344E+01
      6.083  0.0000E+00  0.1344E+01
      6.175  0.0000E+00  0.1344E+01
      6.267  0.0000E+00  0.1344E+01
      6.359  0.0000E+00  0.1344E+01
