unknown system                          
           1
    11.002582    0.000000    0.000000
     5.501291    9.528515    0.000000
     0.000000    0.000000   26.191785
   Au   O    Pd
  24   8  24
Direct configuration=     1
   0.33333333  0.08333333  0.38179910
   0.91666667  0.41666667  0.46754708
   0.83333333  0.83333333  0.38179910
   0.91666667  0.91666667  0.46754708
   0.08333333  0.33333333  0.38179910
   0.08333333  0.58333333  0.38179910
   0.75000000  0.50000000  0.55329505
   0.58333333  0.33333333  0.38179910
   0.00000000  0.00000000  0.55329505
   0.41666667  0.41666667  0.46754708
   0.75000000  0.25000000  0.55329505
   0.00000000  0.75000000  0.55329505
   0.50000000  0.75000000  0.55329505
   0.50000000  0.50000000  0.55329505
   0.33333333  0.33333333  0.38179910
   0.16666667  0.41666667  0.46754708
   0.25000000  0.25000000  0.55329505
   0.33333333  0.58333333  0.38179910
   0.16666667  0.66666667  0.46754708
   0.25000000  0.50000000  0.55329505
   0.66666667  0.16666667  0.46754708
   0.83333333  0.08333333  0.38179910
   0.25000000  0.75000000  0.55329505
   0.66666667  0.41666667  0.46754708
   0.58333333  0.58333333  0.61820090
   0.83333333  0.83333333  0.61820090
   0.83333333  0.58333333  0.61820090
   0.58333333  0.83333333  0.61820090
   0.83333333  0.08333333  0.61820090
   0.33333333  0.33333333  0.61820090
   0.33333333  0.58333333  0.61820090
   0.08333333  0.08333333  0.61820090
   0.08333333  0.83333333  0.38179910
   0.58333333  0.58333333  0.38179910
   0.25000000  0.00000000  0.55329505
   0.00000000  0.25000000  0.55329505
   0.33333333  0.83333333  0.38179910
   0.16666667  0.91666667  0.46754708
   0.75000000  0.75000000  0.55329505
   0.58333333  0.08333333  0.38179910
   0.41666667  0.16666667  0.46754708
   0.50000000  0.00000000  0.55329505
   0.91666667  0.16666667  0.46754708
   0.50000000  0.25000000  0.55329505
   0.16666667  0.16666667  0.46754708
   0.08333333  0.08333333  0.38179910
   0.41666667  0.66666667  0.46754708
   0.41666667  0.91666667  0.46754708
   0.66666667  0.91666667  0.46754708
   0.66666667  0.66666667  0.46754708
   0.83333333  0.58333333  0.38179910
   0.83333333  0.33333333  0.38179910
   0.75000000  0.00000000  0.55329505
   0.58333333  0.83333333  0.38179910
   0.91666667  0.66666667  0.46754708
   0.00000000  0.50000000  0.55329505
Direct configuration=     2
   0.33333333  0.08333333  0.38179910
   0.91622069  0.41674493  0.46785693
   0.83333333  0.83333333  0.38179910
   0.91673504  0.91713090  0.46754841
   0.08333333  0.33333333  0.38179910
   0.08333333  0.58333333  0.38179910
   0.75212479  0.49907821  0.55643186
   0.58333333  0.33333333  0.38179910
   0.00109011  0.00059231  0.55609994
   0.41746872  0.41602626  0.46799084
   0.75058927  0.24939248  0.55591628
  -0.00118943  0.74907365  0.55583916
   0.49838238  0.75303198  0.55573877
   0.50073272  0.49860378  0.55650860
   0.33333333  0.33333333  0.38179910
   0.16554921  0.41644685  0.46839907
   0.25057382  0.24837304  0.55568426
   0.33333333  0.58333333  0.38179910
   0.16581277  0.66836013  0.46763283
   0.24861940  0.49987878  0.55664787
   0.66580996  0.16466369  0.46818194
   0.83333333  0.08333333  0.38179910
   0.24978779  0.75176727  0.55562125
   0.66720480  0.41792396  0.46753132
   0.58329840  0.58289562  0.61615814
   0.83299207  0.83410699  0.61474681
   0.83568021  0.58222041  0.61478693
   0.58173826  0.83647781  0.61460406
   0.83151501  0.08364576  0.61519623
   0.33455974  0.33118814  0.61503722
   0.33284351  0.58474702  0.61587580
   0.08529663  0.08428848  0.61449930
   0.08333333  0.83333333  0.38179910
   0.58333333  0.58333333  0.38179910
   0.24861159  0.00154543  0.55521307
   0.00203446  0.24761964  0.55556881
   0.33333333  0.83333333  0.38179910
   0.16732902  0.91750613  0.46759219
   0.75019427  0.75055165  0.55709854
   0.58333333  0.08333333  0.38179910
   0.41826316  0.16393617  0.46809737
   0.50089322 -0.00125814  0.55506124
   0.91851151  0.16628734  0.46710601
   0.49910500  0.24863566  0.55562560
   0.16703055  0.16511953  0.46798641
   0.08333333  0.08333333  0.38179910
   0.41735724  0.66882370  0.46713922
   0.41693539  0.91612542  0.46799746
   0.66605441  0.91581821  0.46809160
   0.66630292  0.66850784  0.46705828
   0.83333333  0.58333333  0.38179910
   0.83333333  0.33333333  0.38179910
   0.74890242 -0.00033418  0.55690645
   0.58333333  0.83333333  0.38179910
   0.91402030  0.66731573  0.46777871
  -0.00187146  0.50070634  0.55564368
Direct configuration=     3
   0.33333333  0.08333333  0.38179910
   0.91554786  0.41686301  0.46832441
   0.83333333  0.83333333  0.38179910
   0.91683819  0.91783128  0.46755043
   0.08333333  0.33333333  0.38179910
   0.08333333  0.58333333  0.38179910
   0.75533046  0.49768750  0.56116435
   0.58333333  0.33333333  0.38179910
   0.00273476  0.00148593  0.56033167
   0.41867877  0.41506009  0.46866034
   0.75147829  0.24847593  0.55987092
  -0.00298393  0.74767608  0.55967745
   0.49594188  0.75760632  0.55942560
   0.50183818  0.49649730  0.56135686
   0.33333333  0.33333333  0.38179910
   0.16386331  0.41611521  0.46968448
   0.25143953  0.24591845  0.55928885
   0.33333333  0.58333333  0.38179910
   0.16452449  0.67091506  0.46776222
   0.24653650  0.49969591  0.56170625
   0.66451745  0.16164179  0.46913974
   0.83333333  0.08333333  0.38179910
   0.24946763  0.75443356  0.55913078
   0.66801667  0.41982082  0.46750756
   0.58324570  0.58223525  0.61307624
   0.83247722  0.83527420  0.60953564
   0.83922093  0.58054135  0.60963629
   0.57933179  0.84122187  0.60917752
   0.82877172  0.08411712  0.61066310
   0.33641001  0.32795169  0.61026418
   0.33210451  0.58687985  0.61236794
   0.08825864  0.08572950  0.60891471
   0.08333333  0.83333333  0.38179910
   0.58333333  0.58333333  0.38179910
   0.24651690  0.00387701  0.55810678
   0.00510384  0.24402840  0.55899923
   0.33333333  0.83333333  0.38179910
   0.16832831  0.91877264  0.46766026
   0.75048736  0.75138392  0.56283685
   0.58333333  0.08333333  0.38179910
   0.42067179  0.15981668  0.46892760
   0.50224081 -0.00315629  0.55772587
   0.92129482  0.16571506  0.46644058
   0.49775472  0.24657729  0.55914168
   0.16757954  0.16278538  0.46864924
   0.08333333  0.08333333  0.38179910
   0.41839910  0.67207802  0.46652390
   0.41734081  0.91530885  0.46867696
   0.66513070  0.91453816  0.46891312
   0.66575414  0.67128562  0.46632084
   0.83333333  0.58333333  0.38179910
   0.83333333  0.33333333  0.38179910
   0.74724650 -0.00083835  0.56235495
   0.58333333  0.83333333  0.38179910
   0.91002773  0.66829496  0.46812819
  -0.00469492  0.50177198  0.55918706
Direct configuration=     4
   0.33333333  0.08333333  0.38179910
   0.91561321  0.41685155  0.46827901
   0.83333333  0.83333333  0.38179910
   0.91682817  0.91776326  0.46755024
   0.08333333  0.33333333  0.38179910
   0.08333333  0.58333333  0.38179910
   0.75501911  0.49782257  0.56070471
   0.58333333  0.33333333  0.38179910
   0.00257503  0.00139913  0.55992067
   0.41856125  0.41515393  0.46859532
   0.75139195  0.24856495  0.55948683
  -0.00280964  0.74781181  0.55930466
   0.49617891  0.75716203  0.55906751
   0.50173081  0.49670189  0.56088598
   0.33333333  0.33333333  0.38179910
   0.16402705  0.41614742  0.46955964
   0.25135545  0.24615685  0.55893875
   0.33333333  0.58333333  0.38179910
   0.16464961  0.67066691  0.46774965
   0.24673880  0.49971367  0.56121496
   0.66464298  0.16193530  0.46904672
   0.83333333  0.08333333  0.38179910
   0.24949872  0.75417459  0.55878992
   0.66793782  0.41963659  0.46750986
   0.58325082  0.58229939  0.61337557
   0.83252722  0.83516084  0.61004177
   0.83887704  0.58070443  0.61013655
   0.57956552  0.84076110  0.60970457
   0.82903817  0.08407134  0.61110338
   0.33623030  0.32826603  0.61072776
   0.33217629  0.58667270  0.61270864
   0.08797096  0.08558954  0.60945712
   0.08333333  0.83333333  0.38179910
   0.58333333  0.58333333  0.38179910
   0.24672035  0.00365055  0.55782573
   0.00480572  0.24437720  0.55866605
   0.33333333  0.83333333  0.38179910
   0.16823126  0.91864963  0.46765365
   0.75045889  0.75130308  0.56227952
   0.58333333  0.08333333  0.38179910
   0.42043786  0.16021679  0.46884696
   0.50210993 -0.00297193  0.55746707
   0.92102449  0.16577064  0.46650521
   0.49788587  0.24677721  0.55880018
   0.16752622  0.16301209  0.46858486
   0.08333333  0.08333333  0.38179910
   0.41829791  0.67176195  0.46658366
   0.41730143  0.91538816  0.46861096
   0.66522041  0.91466248  0.46883333
   0.66580744  0.67101583  0.46639246
   0.83333333  0.58333333  0.38179910
   0.83333333  0.33333333  0.38179910
   0.74740733 -0.00078938  0.56182576
   0.58333333  0.83333333  0.38179910
   0.91041551  0.66819985  0.46809424
  -0.00442069  0.50166848  0.55884291
Direct configuration=     5
   0.33333333  0.08333333  0.38179910
   0.91508715  0.41697684  0.46981404
   0.83333333  0.83333333  0.38179910
   0.91668444  0.91824401  0.46947693
   0.08333333  0.33333333  0.38179910
   0.08333333  0.58333333  0.38179910
   0.75580246  0.49152897  0.56198067
   0.58333333  0.33333333  0.38179910
   0.00469273 -0.00525348  0.56015024
   0.41830804  0.41592618  0.47074591
   0.74853325  0.25385103  0.56014246
   0.00440508  0.74392914  0.55961368
   0.49098163  0.75841376  0.55931792
   0.50560546  0.49125360  0.56215413
   0.33333333  0.33333333  0.38179910
   0.16400824  0.41636615  0.47176340
   0.24917504  0.24316892  0.55995898
   0.33333333  0.58333333  0.38179910
   0.16446990  0.67074625  0.46979759
   0.23933827  0.50427873  0.56187471
   0.66504728  0.16107179  0.47101616
   0.83333333  0.08333333  0.38179910
   0.24711232  0.75807621  0.55968813
   0.66789782  0.41989195  0.46955198
   0.58333798  0.58206170  0.61268468
   0.83059711  0.83770547  0.60914503
   0.84369995  0.57878611  0.60882724
   0.57721693  0.84710255  0.60819211
   0.82583113  0.08484326  0.61022823
   0.33963177  0.32384583  0.61009328
   0.33085772  0.58898195  0.61234189
   0.09219496  0.08752375  0.60815644
   0.08333333  0.83333333  0.38179910
   0.58333333  0.58333333  0.38179910
   0.24983515  0.00251750  0.55874260
   0.00355454  0.24841196  0.55983348
   0.33333333  0.83333333  0.38179910
   0.16866833  0.91869394  0.46870654
   0.74961225  0.75162398  0.56411210
   0.58333333  0.08333333  0.38179910
   0.42009974  0.15888722  0.47026164
   0.50090439 -0.00013322  0.55831286
   0.92106639  0.16562336  0.46738776
   0.50098050  0.24396967  0.56005684
   0.16831723  0.16277117  0.46969752
   0.08333333  0.08333333  0.38179910
   0.41888235  0.67248189  0.46791738
   0.41726039  0.91539050  0.46974331
   0.66544325  0.91354959  0.47001541
   0.66528025  0.67210823  0.46744865
   0.83333333  0.58333333  0.38179910
   0.83333333  0.33333333  0.38179910
   0.74323662  0.00160564  0.56399523
   0.58333333  0.83333333  0.38179910
   0.90942676  0.66866010  0.46936868
  -0.00050125  0.49879814  0.55992535
Direct configuration=     6
   0.33333333  0.08333333  0.38179910
   0.91484923  0.41703351  0.47050827
   0.83333333  0.83333333  0.38179910
   0.91661944  0.91846144  0.47034830
   0.08333333  0.33333333  0.38179910
   0.08333333  0.58333333  0.38179910
   0.75615674  0.48868261  0.56255774
   0.58333333  0.33333333  0.38179910
   0.00565049 -0.00826219  0.56025407
   0.41819352  0.41627544  0.47171854
   0.74724037  0.25624171  0.56043898
   0.00766802  0.74217316  0.55975344
   0.48863110  0.75897987  0.55943117
   0.50735781  0.48878955  0.56272767
   0.33333333  0.33333333  0.38179910
   0.16399974  0.41646508  0.47276007
   0.24818892  0.24181759  0.56042040
   0.33333333  0.58333333  0.38179910
   0.16438862  0.67078214  0.47072380
   0.23599130  0.50634334  0.56217310
   0.66523013  0.16068126  0.47190686
   0.83333333  0.08333333  0.38179910
   0.24603304  0.75984076  0.56009435
   0.66787972  0.42000743  0.47047556
   0.58337740  0.58195421  0.61237221
   0.82972419  0.83885631  0.60873947
   0.84588116  0.57791853  0.60823509
   0.57615476  0.84997053  0.60750808
   0.82438072  0.08519237  0.60983243
   0.34117013  0.32184675  0.60980633
   0.33026138  0.59002634  0.61217602
   0.09410532  0.08839851  0.60756819
   0.08333333  0.83333333  0.38179910
   0.58333333  0.58333333  0.38179910
   0.25124385  0.00200507  0.55915727
   0.00298868  0.25023673  0.56036146
   0.33333333  0.83333333  0.38179910
   0.16886600  0.91871398  0.46918273
   0.74922935  0.75176911  0.56494091
   0.58333333  0.08333333  0.38179910
   0.41994682  0.15828591  0.47090145
   0.50035917  0.00115062  0.55869538
   0.92108534  0.16555675  0.46778691
   0.50238008  0.24269993  0.56062518
   0.16867498  0.16266222  0.47020073
   0.08333333  0.08333333  0.38179910
   0.41914667  0.67280750  0.46852057
   0.41724183  0.91539156  0.47025543
   0.66554403  0.91304627  0.47055001
   0.66504183  0.67260228  0.46792632
   0.83333333  0.58333333  0.38179910
   0.83333333  0.33333333  0.38179910
   0.74135037  0.00268881  0.56497640
   0.58333333  0.83333333  0.38179910
   0.90897959  0.66886826  0.46994506
   0.00127136  0.49750000  0.56041490
Direct configuration=     7
   0.33333333  0.08333333  0.38179910
   0.91473981  0.41726233  0.47146971
   0.83333333  0.83333333  0.38179910
   0.91589577  0.91849807  0.47168644
   0.08333333  0.33333333  0.38179910
   0.08333333  0.58333333  0.38179910
   0.75826724  0.48739430  0.56336974
   0.58333333  0.33333333  0.38179910
   0.00377832 -0.00776762  0.56021256
   0.41795281  0.41666064  0.47342110
   0.74988842  0.25309245  0.56089174
   0.00599334  0.74349653  0.56026872
   0.48741210  0.75747106  0.55902410
   0.50316381  0.48745058  0.56377795
   0.33333333  0.33333333  0.38179910
   0.16449416  0.41640948  0.47386906
   0.24775482  0.24110399  0.56123725
   0.33333333  0.58333333  0.38179910
   0.16520426  0.67018556  0.47138169
   0.23785828  0.50350951  0.56313514
   0.66537156  0.16076928  0.47313755
   0.83333333  0.08333333  0.38179910
   0.24766422  0.75960366  0.56083837
   0.66714380  0.41989346  0.47131336
   0.58294173  0.58318228  0.61288518
   0.83092409  0.83887313  0.60973714
   0.84884310  0.57619278  0.60876923
   0.57397741  0.85428622  0.60841987
   0.82309001  0.08769609  0.61026507
   0.34338029  0.31927374  0.60996275
   0.32969395  0.59110355  0.61208700
   0.09627713  0.09017954  0.60784973
   0.08333333  0.83333333  0.38179910
   0.58333333  0.58333333  0.38179910
   0.25374483  0.00070431  0.55919074
   0.00116576  0.25190035  0.56083106
   0.33333333  0.83333333  0.38179910
   0.16904842  0.91865501  0.46988877
   0.74942693  0.75016540  0.56461469
   0.58333333  0.08333333  0.38179910
   0.41919871  0.15887152  0.47193688
   0.49794459  0.00574221  0.55831144
   0.92071390  0.16549938  0.46890766
   0.50307920  0.24263519  0.56118919
   0.16858112  0.16315010  0.47086925
   0.08333333  0.08333333  0.38179910
   0.41910014  0.67201142  0.46972559
   0.41719223  0.91591876  0.47097487
   0.66577332  0.91291614  0.47144229
   0.66488865  0.67229025  0.46925592
   0.83333333  0.58333333  0.38179910
   0.83333333  0.33333333  0.38179910
   0.73706962  0.00486493  0.56504889
   0.58333333  0.83333333  0.38179910
   0.90933541  0.66876312  0.47113352
   0.00434017  0.49491529  0.56055543
Direct configuration=     8
   0.33333333  0.08333333  0.38179910
   0.91470587  0.41733332  0.47176796
   0.83333333  0.83333333  0.38179910
   0.91567127  0.91850944  0.47210154
   0.08333333  0.33333333  0.38179910
   0.08333333  0.58333333  0.38179910
   0.75892195  0.48699464  0.56362164
   0.58333333  0.33333333  0.38179910
   0.00319755 -0.00761420  0.56019968
   0.41787814  0.41678013  0.47394926
   0.75070988  0.25211551  0.56103219
   0.00547383  0.74390706  0.56042857
   0.48703395  0.75700301  0.55889782
   0.50186277  0.48703522  0.56410376
   0.33333333  0.33333333  0.38179910
   0.16464754  0.41639224  0.47421309
   0.24762015  0.24088263  0.56149064
   0.33333333  0.58333333  0.38179910
   0.16545729  0.67000050  0.47158577
   0.23843744  0.50263043  0.56343358
   0.66541544  0.16079659  0.47351932
   0.83333333  0.08333333  0.38179910
   0.24817024  0.75953011  0.56106918
   0.66691550  0.41985811  0.47157325
   0.58280658  0.58356324  0.61304431
   0.83129631  0.83887835  0.61004663
   0.84976193  0.57565742  0.60893493
   0.57330197  0.85562500  0.60870272
   0.82268962  0.08847278  0.61039928
   0.34406591  0.31847556  0.61001127
   0.32951793  0.59143771  0.61205939
   0.09695085  0.09073204  0.60793706
   0.08333333  0.83333333  0.38179910
   0.58333333  0.58333333  0.38179910
   0.25452067  0.00030080  0.55920112
   0.00060026  0.25241642  0.56097673
   0.33333333  0.83333333  0.38179910
   0.16910500  0.91863671  0.47010779
   0.74948823  0.74966791  0.56451349
   0.58333333  0.08333333  0.38179910
   0.41896664  0.15905319  0.47225808
   0.49719555  0.00716659  0.55819234
   0.92059867  0.16548158  0.46925533
   0.50329608  0.24261510  0.56136416
   0.16855200  0.16330145  0.47107663
   0.08333333  0.08333333  0.38179910
   0.41908571  0.67176447  0.47009940
   0.41717684  0.91608230  0.47119805
   0.66584444  0.91287577  0.47171908
   0.66484114  0.67219345  0.46966839
   0.83333333  0.58333333  0.38179910
   0.83333333  0.33333333  0.38179910
   0.73574168  0.00553999  0.56507137
   0.58333333  0.83333333  0.38179910
   0.90944579  0.66873051  0.47150220
   0.00529216  0.49411348  0.56059902
Direct configuration=     9
   0.33333333  0.08333333  0.38179910
   0.91456682  0.41749009  0.47207580
   0.83333333  0.83333333  0.38179910
   0.91504776  0.91800698  0.47266012
   0.08333333  0.33333333  0.38179910
   0.08333333  0.58333333  0.38179910
   0.75755149  0.48809222  0.56480213
   0.58333333  0.33333333  0.38179910
   0.00294267 -0.00571541  0.56049485
   0.41759849  0.41656366  0.47473448
   0.75150588  0.25223249  0.56117381
   0.00370241  0.74459186  0.56128381
   0.49108593  0.75514864  0.55916854
   0.50270391  0.48507744  0.56555319
   0.33333333  0.33333333  0.38179910
   0.16524302  0.41616079  0.47449845
   0.24677782  0.24100271  0.56241647
   0.33333333  0.58333333  0.38179910
   0.16587435  0.66973650  0.47192531
   0.23953490  0.50089492  0.56440649
   0.66491752  0.16143246  0.47390084
   0.83333333  0.08333333  0.38179910
   0.24663675  0.76032322  0.56168599
   0.66635210  0.41951514  0.47223421
   0.58235241  0.58448218  0.61307900
   0.83164717  0.83884054  0.61060858
   0.85253434  0.57429842  0.60976476
   0.57109636  0.85958650  0.60880988
   0.82172805  0.08932605  0.61150804
   0.34597630  0.31604225  0.61112676
   0.32822791  0.59239787  0.61310060
   0.09887263  0.09209564  0.60823345
   0.08333333  0.83333333  0.38179910
   0.58333333  0.58333333  0.38179910
   0.25431075  0.00012532  0.55939293
   0.00080737  0.25084485  0.56163620
   0.33333333  0.83333333  0.38179910
   0.16905907  0.91850153  0.47060079
   0.74841492  0.74976062  0.56474468
   0.58333333  0.08333333  0.38179910
   0.41822700  0.16058979  0.47266457
   0.49665647  0.00704089  0.55846540
   0.92028743  0.16555687  0.47003610
   0.50345721  0.24348443  0.56188248
   0.16789618  0.16398281  0.47142089
   0.08333333  0.08333333  0.38179910
   0.41879607  0.67064214  0.47074197
   0.41733516  0.91637151  0.47147115
   0.66591316  0.91301503  0.47228830
   0.66490818  0.67146037  0.47083026
   0.83333333  0.58333333  0.38179910
   0.83333333  0.33333333  0.38179910
   0.73490201  0.00466146  0.56581917
   0.58333333  0.83333333  0.38179910
   0.91020558  0.66837641  0.47229756
   0.00639781  0.49336310  0.56102109
Direct configuration=    10
   0.33333333  0.08333333  0.38179910
   0.91444764  0.41762446  0.47233964
   0.83333333  0.83333333  0.38179910
   0.91451336  0.91757634  0.47313886
   0.08333333  0.33333333  0.38179910
   0.08333333  0.58333333  0.38179910
   0.75637691  0.48903292  0.56581389
   0.58333333  0.33333333  0.38179910
   0.00272422 -0.00408802  0.56074784
   0.41735880  0.41637813  0.47540748
   0.75218810  0.25233275  0.56129518
   0.00218418  0.74517879  0.56201681
   0.49455877  0.75355931  0.55940057
   0.50342483  0.48339949  0.56679545
   0.33333333  0.33333333  0.38179910
   0.16575340  0.41596242  0.47474302
   0.24605587  0.24110562  0.56320998
   0.33333333  0.58333333  0.38179910
   0.16623180  0.66951023  0.47221631
   0.24047551  0.49940746  0.56524033
   0.66449077  0.16197745  0.47422783
   0.83333333  0.08333333  0.38179910
   0.24532243  0.76100298  0.56221465
   0.66586922  0.41922120  0.47280070
   0.58196315  0.58526977  0.61310874
   0.83194788  0.83880814  0.61109021
   0.85491049  0.57313366  0.61047598
   0.56920599  0.86298179  0.60890172
   0.82090392  0.09005737  0.61245832
   0.34761365  0.31395673  0.61208282
   0.32712227  0.59322079  0.61399299
   0.10051974  0.09326435  0.60848748
   0.08333333  0.83333333  0.38179910
   0.58333333  0.58333333  0.38179910
   0.25413084 -0.00002508  0.55955734
   0.00098488  0.24949790  0.56220142
   0.33333333  0.83333333  0.38179910
   0.16901971  0.91838566  0.47102333
   0.74749502  0.74984009  0.56494282
   0.58333333  0.08333333  0.38179910
   0.41759308  0.16190676  0.47301297
   0.49619444  0.00693315  0.55869942
   0.92002068  0.16562140  0.47070527
   0.50359531  0.24422951  0.56232672
   0.16733410  0.16456679  0.47171595
   0.08333333  0.08333333  0.38179910
   0.41854783  0.66968023  0.47129270
   0.41747085  0.91661938  0.47170522
   0.66597205  0.91313438  0.47277616
   0.66496565  0.67083207  0.47182608
   0.83333333  0.58333333  0.38179910
   0.83333333  0.33333333  0.38179910
   0.73418235  0.00390849  0.56646008
   0.58333333  0.83333333  0.38179910
   0.91085677  0.66807293  0.47297925
   0.00734544  0.49271996  0.56138282
Direct configuration=    11
   0.33333333  0.08333333  0.38179910
   0.91395432  0.41775953  0.47261070
   0.83333333  0.83333333  0.38179910
   0.91417738  0.91720287  0.47337795
   0.08333333  0.33333333  0.38179910
   0.08333333  0.58333333  0.38179910
   0.75764982  0.48885690  0.56695767
   0.58333333  0.33333333  0.38179910
   0.00185202 -0.00259406  0.56130069
   0.41699498  0.41633012  0.47576291
   0.75240931  0.25211493  0.56176502
   0.00306857  0.74423122  0.56285383
   0.49550143  0.75363996  0.55933410
   0.50427096  0.48285582  0.56890148
   0.33333333  0.33333333  0.38179910
   0.16599550  0.41582117  0.47480930
   0.24592190  0.24116577  0.56429051
   0.33333333  0.58333333  0.38179910
   0.16595134  0.66960952  0.47269064
   0.24013565  0.49997456  0.56632126
   0.66407621  0.16224610  0.47430564
   0.83333333  0.08333333  0.38179910
   0.24477080  0.76099723  0.56300315
   0.66573400  0.41902934  0.47325503
   0.58083657  0.58634396  0.61387035
   0.83120731  0.83846309  0.61180570
   0.85727396  0.57232705  0.61132885
   0.56795491  0.86557306  0.60970547
   0.81959106  0.09030619  0.61334513
   0.34956666  0.31110666  0.61369222
   0.32571580  0.59430133  0.61529903
   0.10302541  0.09345207  0.60972647
   0.08333333  0.83333333  0.38179910
   0.58333333  0.58333333  0.38179910
   0.25503405 -0.00152403  0.55961998
   0.00027925  0.25019157  0.56254465
   0.33333333  0.83333333  0.38179910
   0.16884957  0.91822809  0.47131227
   0.74753484  0.74995463  0.56584838
   0.58333333  0.08333333  0.38179910
   0.41698918  0.16310245  0.47322038
   0.49479069  0.00789253  0.55858312
   0.91977730  0.16553943  0.47100162
   0.50397176  0.24366420  0.56295262
   0.16670434  0.16504234  0.47190717
   0.08333333  0.08333333  0.38179910
   0.41828229  0.66902773  0.47180397
   0.41764001  0.91645115  0.47184831
   0.66573435  0.91338744  0.47304643
   0.66534595  0.67006937  0.47250124
   0.83333333  0.58333333  0.38179910
   0.83333333  0.33333333  0.38179910
   0.73502522  0.00407568  0.56775952
   0.58333333  0.83333333  0.38179910
   0.91146067  0.66755385  0.47345213
   0.00657005  0.49271599  0.56198796
Direct configuration=    12
   0.33333333  0.08333333  0.38179910
   0.91275876  0.41808689  0.47326762
   0.83333333  0.83333333  0.38179910
   0.91336311  0.91629776  0.47395740
   0.08333333  0.33333333  0.38179910
   0.08333333  0.58333333  0.38179910
   0.76073471  0.48843029  0.56972963
   0.58333333  0.33333333  0.38179910
  -0.00026176  0.00102654  0.56264052
   0.41611325  0.41621375  0.47662428
   0.75294541  0.25158705  0.56290370
   0.00521189  0.74193479  0.56488237
   0.49778595  0.75383542  0.55917302
   0.50632154  0.48153823  0.57400545
   0.33333333  0.33333333  0.38179910
   0.16658224  0.41547885  0.47496992
   0.24559723  0.24131152  0.56690918
   0.33333333  0.58333333  0.38179910
   0.16527164  0.66985017  0.47384016
   0.23931200  0.50134894  0.56894090
   0.66307152  0.16289717  0.47449422
   0.83333333  0.08333333  0.38179910
   0.24343392  0.76098330  0.56491407
   0.66540630  0.41856438  0.47435608
   0.57810629  0.58894724  0.61571612
   0.82941254  0.83762688  0.61353970
   0.86300184  0.57037222  0.61339579
   0.56492291  0.87185300  0.61165337
   0.81640935  0.09090921  0.61549432
   0.35429979  0.30419951  0.61759258
   0.32230720  0.59692001  0.61846422
   0.10909789  0.09390701  0.61272916
   0.08333333  0.83333333  0.38179910
   0.58333333  0.58333333  0.38179910
   0.25722298 -0.00515673  0.55977180
  -0.00143085  0.25187266  0.56337646
   0.33333333  0.83333333  0.38179910
   0.16843725  0.91784622  0.47201251
   0.74763135  0.75023224  0.56804302
   0.58333333  0.08333333  0.38179910
   0.41552562  0.16600019  0.47372305
   0.49138872  0.01021758  0.55830128
   0.91918746  0.16534078  0.47171982
   0.50488409  0.24229416  0.56446949
   0.16517812  0.16619484  0.47237060
   0.08333333  0.08333333  0.38179910
   0.41763876  0.66744641  0.47304301
   0.41804998  0.91604344  0.47219510
   0.66515828  0.91400071  0.47370140
   0.66626761  0.66822097  0.47413751
   0.83333333  0.58333333  0.38179910
   0.83333333  0.33333333  0.38179910
   0.73706793  0.00448085  0.57090870
   0.58333333  0.83333333  0.38179910
   0.91292422  0.66629586  0.47459814
   0.00469088  0.49270636  0.56345450
Direct configuration=    13
   0.33333333  0.08333333  0.38179910
   0.91310380  0.41799242  0.47307803
   0.83333333  0.83333333  0.38179910
   0.91359810  0.91655897  0.47379017
   0.08333333  0.33333333  0.38179910
   0.08333333  0.58333333  0.38179910
   0.75984443  0.48855341  0.56892966
   0.58333333  0.33333333  0.38179910
   0.00034827 -0.00001835  0.56225385
   0.41636771  0.41624733  0.47637569
   0.75279070  0.25173940  0.56257508
   0.00459334  0.74259753  0.56429695
   0.49712665  0.75377901  0.55921950
   0.50572975  0.48191848  0.57253247
   0.33333333  0.33333333  0.38179910
   0.16641291  0.41557765  0.47492357
   0.24569093  0.24126946  0.56615344
   0.33333333  0.58333333  0.38179910
   0.16546780  0.66978072  0.47350842
   0.23954970  0.50095230  0.56818489
   0.66336147  0.16270927  0.47443979
   0.83333333  0.08333333  0.38179910
   0.24381973  0.76098732  0.56436259
   0.66550087  0.41869856  0.47403832
   0.57889423  0.58819595  0.61518344
   0.82993050  0.83786821  0.61303927
   0.86134880  0.57093637  0.61279928
   0.56579793  0.87004064  0.61109122
   0.81732758  0.09073518  0.61487407
   0.35293383  0.30619288  0.61646695
   0.32329091  0.59616427  0.61755076
   0.10734540  0.09377571  0.61186260
   0.08333333  0.83333333  0.38179910
   0.58333333  0.58333333  0.38179910
   0.25659127 -0.00410835  0.55972799
  -0.00093732  0.25138750  0.56313640
   0.33333333  0.83333333  0.38179910
   0.16855624  0.91795643  0.47181042
   0.74760350  0.75015212  0.56740966
   0.58333333  0.08333333  0.38179910
   0.41594799  0.16516391  0.47357798
   0.49237051  0.00954658  0.55838262
   0.91935768  0.16539811  0.47151255
   0.50462079  0.24268954  0.56403173
   0.16561858  0.16586223  0.47223685
   0.08333333  0.08333333  0.38179910
   0.41782448  0.66790277  0.47268543
   0.41793167  0.91616110  0.47209502
   0.66532453  0.91382372  0.47351238
   0.66600163  0.66875441  0.47366529
   0.83333333  0.58333333  0.38179910
   0.83333333  0.33333333  0.38179910
   0.73647841  0.00436392  0.56999986
   0.58333333  0.83333333  0.38179910
   0.91250185  0.66665891  0.47426741
   0.00523320  0.49270914  0.56303126
Direct configuration=    14
   0.33333333  0.08333333  0.38179910
   0.91283503  0.41785843  0.47326238
   0.83333333  0.83333333  0.38179910
   0.91348719  0.91657320  0.47404458
   0.08333333  0.33333333  0.38179910
   0.08333333  0.58333333  0.38179910
   0.76007914  0.48810650  0.57027424
   0.58333333  0.33333333  0.38179910
   0.00056558  0.00012546  0.56298393
   0.41622730  0.41681066  0.47688545
   0.75183568  0.25227170  0.56310989
   0.00543023  0.74236513  0.56514725
   0.49597911  0.75440118  0.55915908
   0.50540589  0.48129819  0.57510275
   0.33333333  0.33333333  0.38179910
   0.16585429  0.41577705  0.47537373
   0.24548771  0.24205681  0.56733503
   0.33333333  0.58333333  0.38179910
   0.16496776  0.66993565  0.47400507
   0.24013475  0.50006227  0.56950076
   0.66337499  0.16250579  0.47456280
   0.83333333  0.08333333  0.38179910
   0.24435613  0.76080470  0.56521917
   0.66536615  0.41871870  0.47451068
   0.57814103  0.58998900  0.61646220
   0.82935755  0.83669577  0.61400403
   0.86210691  0.57151584  0.61437283
   0.56497911  0.87211525  0.61183922
   0.81641851  0.09135745  0.61609282
   0.35501411  0.30323218  0.61772986
   0.32240893  0.59700571  0.61893292
   0.10999228  0.09392065  0.61255929
   0.08333333  0.83333333  0.38179910
   0.58333333  0.58333333  0.38179910
   0.25541676 -0.00376993  0.56018228
   0.00094730  0.25023906  0.56383755
   0.33333333  0.83333333  0.38179910
   0.16813726  0.91783586  0.47201454
   0.74734772  0.75151730  0.56893673
   0.58333333  0.08333333  0.38179910
   0.41545998  0.16537710  0.47366282
   0.49270732  0.00941751  0.55837435
   0.91916371  0.16503805  0.47140898
   0.50377351  0.24281146  0.56485030
   0.16544138  0.16581572  0.47249120