  48  48   0   0
  0.5349325E+02  0.1100258E-08  0.1100258E-08  0.2449179E-08  0.3500000E-15
  1.000000000000000E-004
  CAR 
 unknown system                          
      6.39653571     -9.80216037  301     -1.09132313      1.00000000
     -9.802  0.0000E+00  0.0000E+00
     -9.748  0.0000E+00  0.0000E+00
     -9.694  0.0000E+00  0.0000E+00
     -9.640  0.0000E+00  0.0000E+00
     -9.586  0.0000E+00  0.0000E+00
     -9.532  0.0000E+00  0.0000E+00
     -9.478  0.0000E+00  0.0000E+00
     -9.424  0.0000E+00  0.0000E+00
     -9.370  0.7539E-17  0.4071E-18
     -9.316  0.2901E-14  0.1571E-15
     -9.262  0.6499E-12  0.3525E-13
     -9.208  0.8266E-10  0.4498E-11
     -9.154  0.5984E-08  0.3276E-09
     -9.100  0.2472E-06  0.1368E-07
     -9.046  0.5843E-05  0.3292E-06
     -8.992  0.7921E-04  0.4606E-05
     -8.938  0.6178E-03  0.3796E-04
     -8.884  0.2784E-02  0.1883E-03
     -8.830  0.7318E-02  0.5834E-03
     -8.776  0.1164E-01  0.1212E-02
     -8.722  0.1274E-01  0.1900E-02
     -8.668  0.1251E-01  0.2576E-02
     -8.614  0.1199E-01  0.3223E-02
     -8.560  0.8813E-02  0.3699E-02
     -8.506  0.4158E-02  0.3924E-02
     -8.452  0.1191E-02  0.3988E-02
     -8.398  0.2060E-03  0.3999E-02
     -8.344  0.5226E-04  0.4002E-02
     -8.290  0.2431E-03  0.4015E-02
     -8.236  0.1076E-02  0.4073E-02
     -8.182  0.2909E-02  0.4230E-02
     -8.128  0.5317E-02  0.4517E-02
     -8.074  0.7821E-02  0.4939E-02
     -8.020  0.1039E-01  0.5500E-02
     -7.966  0.1274E-01  0.6188E-02
     -7.912  0.1538E-01  0.7019E-02
     -7.858  0.1898E-01  0.8044E-02
     -7.804  0.2313E-01  0.9293E-02
     -7.750  0.2553E-01  0.1067E-01
     -7.696  0.2460E-01  0.1200E-01
     -7.642  0.2255E-01  0.1322E-01
     -7.588  0.2045E-01  0.1432E-01
     -7.534  0.1626E-01  0.1520E-01
     -7.480  0.1041E-01  0.1576E-01
     -7.426  0.7421E-02  0.1616E-01
     -7.372  0.1117E-01  0.1677E-01
     -7.318  0.2028E-01  0.1786E-01
     -7.264  0.2943E-01  0.1945E-01
     -7.210  0.3513E-01  0.2135E-01
     -7.156  0.3863E-01  0.2343E-01
     -7.102  0.4201E-01  0.2570E-01
     -7.048  0.4531E-01  0.2815E-01
     -6.994  0.5108E-01  0.3090E-01
     -6.940  0.6118E-01  0.3421E-01
     -6.886  0.7010E-01  0.3799E-01
     -6.832  0.7228E-01  0.4190E-01
     -6.778  0.7111E-01  0.4574E-01
     -6.724  0.7283E-01  0.4967E-01
     -6.670  0.7706E-01  0.5383E-01
     -6.616  0.8121E-01  0.5821E-01
     -6.562  0.8757E-01  0.6294E-01
     -6.508  0.9929E-01  0.6830E-01
     -6.454  0.1147E+00  0.7449E-01
     -6.400  0.1283E+00  0.8142E-01
     -6.346  0.1355E+00  0.8874E-01
     -6.292  0.1363E+00  0.9610E-01
     -6.238  0.1350E+00  0.1034E+00
     -6.184  0.1344E+00  0.1106E+00
     -6.130  0.1361E+00  0.1180E+00
     -6.076  0.1411E+00  0.1256E+00
     -6.022  0.1476E+00  0.1336E+00
     -5.968  0.1527E+00  0.1418E+00
     -5.914  0.1565E+00  0.1503E+00
     -5.860  0.1586E+00  0.1588E+00
     -5.806  0.1575E+00  0.1673E+00
     -5.752  0.1530E+00  0.1756E+00
     -5.698  0.1459E+00  0.1835E+00
     -5.644  0.1384E+00  0.1910E+00
     -5.590  0.1339E+00  0.1982E+00
     -5.537  0.1353E+00  0.2055E+00
     -5.483  0.1424E+00  0.2132E+00
     -5.429  0.1529E+00  0.2214E+00
     -5.375  0.1626E+00  0.2302E+00
     -5.321  0.1662E+00  0.2392E+00
     -5.267  0.1647E+00  0.2481E+00
     -5.213  0.1631E+00  0.2569E+00
     -5.159  0.1630E+00  0.2657E+00
     -5.105  0.1632E+00  0.2745E+00
     -5.051  0.1636E+00  0.2833E+00
     -4.997  0.1636E+00  0.2922E+00
     -4.943  0.1635E+00  0.3010E+00
     -4.889  0.1673E+00  0.3100E+00
     -4.835  0.1753E+00  0.3195E+00
     -4.781  0.1821E+00  0.3293E+00
     -4.727  0.1828E+00  0.3392E+00
     -4.673  0.1772E+00  0.3488E+00
     -4.619  0.1701E+00  0.3579E+00
     -4.565  0.1658E+00  0.3669E+00
     -4.511  0.1668E+00  0.3759E+00
     -4.457  0.1732E+00  0.3853E+00
     -4.403  0.1787E+00  0.3949E+00
     -4.349  0.1765E+00  0.4044E+00
     -4.295  0.1701E+00  0.4136E+00
     -4.241  0.1689E+00  0.4227E+00
     -4.187  0.1743E+00  0.4321E+00
     -4.133  0.1797E+00  0.4418E+00
     -4.079  0.1817E+00  0.4517E+00
     -4.025  0.1820E+00  0.4615E+00
     -3.971  0.1814E+00  0.4713E+00
     -3.917  0.1803E+00  0.4810E+00
     -3.863  0.1811E+00  0.4908E+00
     -3.809  0.1840E+00  0.5007E+00
     -3.755  0.1871E+00  0.5108E+00
     -3.701  0.1897E+00  0.5211E+00
     -3.647  0.1934E+00  0.5315E+00
     -3.593  0.1981E+00  0.5422E+00
     -3.539  0.2006E+00  0.5531E+00
     -3.485  0.2006E+00  0.5639E+00
     -3.431  0.2001E+00  0.5747E+00
     -3.377  0.2001E+00  0.5855E+00
     -3.323  0.2013E+00  0.5964E+00
     -3.269  0.2025E+00  0.6073E+00
     -3.215  0.2024E+00  0.6182E+00
     -3.161  0.2010E+00  0.6291E+00
     -3.107  0.1979E+00  0.6398E+00
     -3.053  0.1931E+00  0.6502E+00
     -2.999  0.1904E+00  0.6605E+00
     -2.945  0.1903E+00  0.6708E+00
     -2.891  0.1877E+00  0.6809E+00
     -2.837  0.1828E+00  0.6908E+00
     -2.783  0.1805E+00  0.7005E+00
     -2.729  0.1796E+00  0.7102E+00
     -2.675  0.1767E+00  0.7198E+00
     -2.621  0.1738E+00  0.7291E+00
     -2.567  0.1727E+00  0.7385E+00
     -2.513  0.1712E+00  0.7477E+00
     -2.459  0.1714E+00  0.7570E+00
     -2.405  0.1767E+00  0.7665E+00
     -2.351  0.1839E+00  0.7764E+00
     -2.297  0.1874E+00  0.7865E+00
     -2.243  0.1864E+00  0.7966E+00
     -2.189  0.1855E+00  0.8066E+00
     -2.135  0.1874E+00  0.8168E+00
     -2.081  0.1909E+00  0.8271E+00
     -2.027  0.1940E+00  0.8375E+00
     -1.973  0.1947E+00  0.8480E+00
     -1.919  0.1910E+00  0.8584E+00
     -1.865  0.1849E+00  0.8683E+00
     -1.811  0.1808E+00  0.8781E+00
     -1.757  0.1812E+00  0.8879E+00
     -1.703  0.1867E+00  0.8980E+00
     -1.649  0.1946E+00  0.9085E+00
     -1.595  0.2015E+00  0.9194E+00
     -1.541  0.2064E+00  0.9305E+00
     -1.487  0.2084E+00  0.9418E+00
     -1.433  0.2047E+00  0.9528E+00
     -1.379  0.1956E+00  0.9634E+00
     -1.325  0.1838E+00  0.9733E+00
     -1.271  0.1722E+00  0.9826E+00
     -1.217  0.1614E+00  0.9913E+00
     -1.163  0.1472E+00  0.9993E+00
     -1.109  0.1264E+00  0.1006E+01
     -1.055  0.1005E+00  0.1012E+01
     -1.001  0.7268E-01  0.1015E+01
     -0.947  0.4703E-01  0.1018E+01
     -0.893  0.2832E-01  0.1019E+01
     -0.839  0.1821E-01  0.1020E+01
     -0.785  0.1527E-01  0.1021E+01
     -0.731  0.1694E-01  0.1022E+01
     -0.677  0.2017E-01  0.1023E+01
     -0.623  0.2381E-01  0.1025E+01
     -0.569  0.2960E-01  0.1026E+01
     -0.515  0.3814E-01  0.1028E+01
     -0.461  0.4484E-01  0.1031E+01
     -0.407  0.4295E-01  0.1033E+01
     -0.353  0.3439E-01  0.1035E+01
     -0.299  0.2988E-01  0.1036E+01
     -0.245  0.3489E-01  0.1038E+01
     -0.191  0.4190E-01  0.1041E+01
     -0.137  0.4062E-01  0.1043E+01
     -0.083  0.3175E-01  0.1045E+01
     -0.029  0.2392E-01  0.1046E+01
      0.025  0.2260E-01  0.1047E+01
      0.079  0.2594E-01  0.1048E+01
      0.133  0.3053E-01  0.1050E+01
      0.187  0.3582E-01  0.1052E+01
      0.241  0.3890E-01  0.1054E+01
      0.295  0.3817E-01  0.1056E+01
      0.349  0.3747E-01  0.1058E+01
      0.403  0.3881E-01  0.1060E+01
      0.457  0.3945E-01  0.1062E+01
      0.511  0.3822E-01  0.1064E+01
      0.565  0.3887E-01  0.1067E+01
      0.619  0.4125E-01  0.1069E+01
      0.673  0.4030E-01  0.1071E+01
      0.727  0.3689E-01  0.1073E+01
      0.781  0.3558E-01  0.1075E+01
      0.835  0.3399E-01  0.1077E+01
      0.889  0.2854E-01  0.1078E+01
      0.943  0.2170E-01  0.1079E+01
      0.997  0.1711E-01  0.1080E+01
      1.051  0.1691E-01  0.1081E+01
      1.105  0.1992E-01  0.1082E+01
      1.159  0.2244E-01  0.1084E+01
      1.213  0.2220E-01  0.1085E+01
      1.267  0.1868E-01  0.1086E+01
      1.321  0.1367E-01  0.1087E+01
      1.375  0.1112E-01  0.1087E+01
      1.429  0.1437E-01  0.1088E+01
      1.483  0.2314E-01  0.1089E+01
      1.537  0.3177E-01  0.1091E+01
      1.591  0.3441E-01  0.1093E+01
      1.645  0.3287E-01  0.1094E+01
      1.699  0.3312E-01  0.1096E+01
      1.753  0.3678E-01  0.1098E+01
      1.807  0.3986E-01  0.1100E+01
      1.861  0.3543E-01  0.1102E+01
      1.915  0.2365E-01  0.1104E+01
      1.969  0.1576E-01  0.1104E+01
      2.023  0.1757E-01  0.1105E+01
      2.077  0.2293E-01  0.1107E+01
      2.131  0.2604E-01  0.1108E+01
      2.185  0.2859E-01  0.1110E+01
      2.239  0.3375E-01  0.1111E+01
      2.293  0.4005E-01  0.1114E+01
      2.347  0.4449E-01  0.1116E+01
      2.401  0.4566E-01  0.1118E+01
      2.455  0.4302E-01  0.1121E+01
      2.509  0.3896E-01  0.1123E+01
      2.563  0.3868E-01  0.1125E+01
      2.617  0.4320E-01  0.1127E+01
      2.671  0.4704E-01  0.1130E+01
      2.725  0.4722E-01  0.1132E+01
      2.779  0.4360E-01  0.1135E+01
      2.833  0.3486E-01  0.1137E+01
      2.887  0.2406E-01  0.1138E+01
      2.941  0.1697E-01  0.1139E+01
      2.995  0.1298E-01  0.1140E+01
      3.049  0.1094E-01  0.1140E+01
      3.103  0.1485E-01  0.1141E+01
      3.157  0.2396E-01  0.1142E+01
      3.211  0.2906E-01  0.1144E+01
      3.265  0.2432E-01  0.1145E+01
      3.319  0.1541E-01  0.1146E+01
      3.373  0.1100E-01  0.1147E+01
      3.427  0.1203E-01  0.1147E+01
      3.481  0.1570E-01  0.1148E+01
      3.535  0.2277E-01  0.1149E+01
      3.589  0.3203E-01  0.1151E+01
      3.643  0.3681E-01  0.1153E+01
      3.697  0.3658E-01  0.1155E+01
      3.751  0.3652E-01  0.1157E+01
      3.805  0.3477E-01  0.1159E+01
      3.859  0.2922E-01  0.1160E+01
      3.913  0.2525E-01  0.1162E+01
      3.967  0.2605E-01  0.1163E+01
      4.021  0.2840E-01  0.1165E+01
      4.075  0.2814E-01  0.1166E+01
      4.129  0.2552E-01  0.1168E+01
      4.183  0.2333E-01  0.1169E+01
      4.237  0.2155E-01  0.1170E+01
      4.291  0.1920E-01  0.1171E+01
      4.345  0.1754E-01  0.1172E+01
      4.399  0.1974E-01  0.1173E+01
      4.453  0.2573E-01  0.1174E+01
      4.507  0.3345E-01  0.1176E+01
      4.561  0.4443E-01  0.1179E+01
      4.615  0.5569E-01  0.1182E+01
      4.669  0.5737E-01  0.1185E+01
      4.723  0.4876E-01  0.1187E+01
      4.777  0.4144E-01  0.1190E+01
      4.831  0.4221E-01  0.1192E+01
      4.885  0.4733E-01  0.1194E+01
      4.939  0.5269E-01  0.1197E+01
      4.993  0.5933E-01  0.1201E+01
      5.047  0.6728E-01  0.1204E+01
      5.101  0.7059E-01  0.1208E+01
      5.155  0.6665E-01  0.1212E+01
      5.209  0.6178E-01  0.1215E+01
      5.263  0.5684E-01  0.1218E+01
      5.317  0.4680E-01  0.1220E+01
      5.371  0.3312E-01  0.1222E+01
      5.425  0.1974E-01  0.1223E+01
      5.479  0.8995E-02  0.1224E+01
      5.533  0.2789E-02  0.1224E+01
      5.587  0.5463E-03  0.1224E+01
      5.641  0.6504E-04  0.1224E+01
      5.695  0.4610E-05  0.1224E+01
      5.749  0.1920E-06  0.1224E+01
      5.803  0.4649E-08  0.1224E+01
      5.857  0.6494E-10  0.1224E+01
      5.911  0.5197E-12  0.1224E+01
      5.965  0.2373E-14  0.1224E+01
      6.019  0.5483E-17  0.1224E+01
      6.073  0.0000E+00  0.1224E+01
      6.127  0.0000E+00  0.1224E+01
      6.181  0.0000E+00  0.1224E+01
      6.235  0.0000E+00  0.1224E+01
      6.289  0.0000E+00  0.1224E+01
      6.343  0.0000E+00  0.1224E+01
      6.397  0.0000E+00  0.1224E+01
