       N       E                     dE             d eps       ncg     rms          rms(c)
DAV:   1     0.319979559401E+04    0.31998E+04   -0.18980E+05  3672   0.112E+03
DAV:   2     0.119711676956E+02   -0.31878E+04   -0.29341E+04  4428   0.263E+02
DAV:   3    -0.201464193838E+03   -0.21344E+03   -0.19861E+03  4140   0.649E+01
DAV:   4    -0.207100347887E+03   -0.56362E+01   -0.55795E+01  4236   0.107E+01
DAV:   5    -0.207281650566E+03   -0.18130E+00   -0.18075E+00  4404   0.195E+00    0.622E+01
RMM:   6    -0.200803648621E+03    0.64780E+01   -0.98233E+01  3678   0.154E+01    0.544E+01
RMM:   7    -0.200572072291E+03    0.23158E+00   -0.54518E+01  3680   0.125E+01    0.377E+01
RMM:   8    -0.209963735754E+03   -0.93917E+01   -0.58594E+01  3677   0.119E+01    0.346E+01
RMM:   9    -0.204863955804E+03    0.50998E+01   -0.33196E+01  3677   0.876E+00    0.282E+01
RMM:  10    -0.193093490136E+03    0.11770E+02   -0.15604E+01  3680   0.621E+00    0.147E+01
RMM:  11    -0.190058030757E+03    0.30355E+01   -0.61102E+00  3680   0.386E+00    0.980E+00
RMM:  12    -0.189201169157E+03    0.85686E+00   -0.20972E+00  3680   0.229E+00    0.594E+00
RMM:  13    -0.189156010968E+03    0.45158E-01   -0.65824E-01  3679   0.127E+00    0.585E+00
RMM:  14    -0.189128656449E+03    0.27355E-01   -0.40802E-01  3680   0.101E+00    0.561E+00
RMM:  15    -0.189069129756E+03    0.59527E-01   -0.41115E-01  3679   0.100E+00    0.372E+00
RMM:  16    -0.188940104719E+03    0.12903E+00   -0.11615E-01  3679   0.531E-01    0.215E+00
RMM:  17    -0.188914719103E+03    0.25386E-01   -0.73363E-02  3678   0.418E-01    0.173E+00
RMM:  18    -0.188892352774E+03    0.22366E-01   -0.19656E-02  3679   0.220E-01    0.966E-01
RMM:  19    -0.188886983506E+03    0.53693E-02   -0.92645E-03  3678   0.150E-01    0.667E-01
RMM:  20    -0.188883872071E+03    0.31114E-02   -0.67629E-03  3678   0.121E-01    0.437E-01
RMM:  21    -0.188882415149E+03    0.14569E-02   -0.19061E-03  3681   0.647E-02    0.267E-01
RMM:  22    -0.188882184935E+03    0.23021E-03   -0.85679E-04  3679   0.447E-02    0.189E-01
RMM:  23    -0.188882239592E+03   -0.54657E-04   -0.47990E-04  3680   0.340E-02    0.126E-01
RMM:  24    -0.188882515163E+03   -0.27557E-03   -0.32151E-04  3679   0.272E-02    0.943E-02
RMM:  25    -0.188882726347E+03   -0.21118E-03   -0.96116E-05  3678   0.151E-02    0.547E-02
RMM:  26    -0.188883119666E+03   -0.39332E-03   -0.64822E-05  3672   0.122E-02    0.345E-02
RMM:  27    -0.188883585079E+03   -0.46541E-03   -0.34624E-05  3672   0.864E-03    0.285E-02
RMM:  28    -0.188883994286E+03   -0.40921E-03   -0.24468E-05  3638   0.710E-03    0.249E-02
RMM:  29    -0.188884602696E+03   -0.60841E-03   -0.28985E-05  3650   0.737E-03    0.159E-02
RMM:  30    -0.188885221177E+03   -0.61848E-03   -0.46727E-05  3671   0.923E-03    0.222E-02
RMM:  31    -0.188885489003E+03   -0.26783E-03   -0.20605E-05  3197   0.560E-03    0.104E-02
RMM:  32    -0.188885587072E+03   -0.98069E-04   -0.57149E-06  2698   0.292E-03    0.719E-03
RMM:  33    -0.188885651628E+03   -0.64556E-04   -0.20732E-06  2344   0.192E-03    0.438E-03
RMM:  34    -0.188885691803E+03   -0.40175E-04   -0.83605E-07  2150   0.128E-03    0.264E-03
RMM:  35    -0.188885731046E+03   -0.39243E-04   -0.68337E-07  2147   0.114E-03    0.183E-03
RMM:  36    -0.188885754922E+03   -0.23877E-04   -0.45692E-07  2114   0.917E-04    0.154E-03
RMM:  37    -0.188885762962E+03   -0.80393E-05   -0.16618E-07  1300   0.546E-04    0.106E-03
RMM:  38    -0.188885770517E+03   -0.75556E-05   -0.17289E-07  1851   0.630E-04    0.794E-04
RMM:  39    -0.188885771617E+03   -0.10994E-05   -0.43284E-08   909   0.353E-04    0.588E-04
RMM:  40    -0.188885772054E+03   -0.43759E-06   -0.15727E-08   622   0.326E-04
   1 F= -.18888577E+03 E0= -.18874725E+03  d E =-.188886E+03
       N       E                     dE             d eps       ncg     rms          rms(c)
DAV:   1    -0.189459132966E+03   -0.57336E+00   -0.19693E+02  3672   0.215E+01    0.237E+00
RMM:   2    -0.189668818248E+03   -0.20969E+00   -0.20971E+00  3681   0.311E+00    0.177E+00
RMM:   3    -0.189792164604E+03   -0.12335E+00   -0.21324E-01  3707   0.784E-01    0.333E+00
RMM:   4    -0.189669550745E+03    0.12261E+00   -0.93696E-02  3688   0.481E-01    0.164E+00
RMM:   5    -0.189653020511E+03    0.16530E-01   -0.47127E-02  3680   0.347E-01    0.912E-01
RMM:   6    -0.189656415304E+03   -0.33948E-02   -0.21259E-02  3686   0.231E-01    0.109E+00
RMM:   7    -0.189646264602E+03    0.10151E-01   -0.97878E-03  3680   0.159E-01    0.419E-01
RMM:   8    -0.189644736580E+03    0.15280E-02   -0.27338E-03  3680   0.814E-02    0.236E-01
RMM:   9    -0.189644125729E+03    0.61085E-03   -0.11526E-03  3682   0.535E-02    0.105E-01
RMM:  10    -0.189644068931E+03    0.56798E-04   -0.48139E-04  3684   0.337E-02    0.971E-02
RMM:  11    -0.189643984013E+03    0.84918E-04   -0.13235E-04  3686   0.183E-02    0.450E-02
RMM:  12    -0.189643982781E+03    0.12322E-05   -0.30602E-05  3681   0.888E-03    0.358E-02
RMM:  13    -0.189643973735E+03    0.90463E-05   -0.13995E-05  3630   0.611E-03    0.169E-02
RMM:  14    -0.189643972591E+03    0.11435E-05   -0.58559E-06  2949   0.391E-03    0.973E-03
RMM:  15    -0.189643972560E+03    0.31192E-07   -0.19241E-06  2162   0.238E-03
   2 F= -.18964397E+03 E0= -.18950578E+03  d E =-.758201E+00
       N       E                     dE             d eps       ncg     rms          rms(c)
DAV:   1    -0.188879092274E+03    0.76488E+00   -0.16883E+03  3672   0.638E+01    0.576E+00
RMM:   2    -0.190603765160E+03   -0.17247E+01   -0.17635E+01  3680   0.903E+00    0.384E+00
RMM:   3    -0.190897817888E+03   -0.29405E+00   -0.12783E+00  3708   0.197E+00    0.627E+00
RMM:   4    -0.190513575390E+03    0.38424E+00   -0.38381E-01  3687   0.104E+00    0.306E+00
RMM:   5    -0.190610727591E+03   -0.97152E-01   -0.23926E-01  3684   0.749E-01    0.383E+00
RMM:   6    -0.190519759810E+03    0.90968E-01   -0.20954E-01  3682   0.694E-01    0.260E+00
RMM:   7    -0.190453616375E+03    0.66143E-01   -0.79926E-02  3681   0.449E-01    0.123E+00
RMM:   8    -0.190440812552E+03    0.12804E-01   -0.25260E-02  3683   0.247E-01    0.795E-01
RMM:   9    -0.190434451134E+03    0.63614E-02   -0.10005E-02  3680   0.157E-01    0.380E-01
RMM:  10    -0.190433683621E+03    0.76751E-03   -0.38034E-03  3681   0.951E-02    0.305E-01
RMM:  11    -0.190432868081E+03    0.81554E-03   -0.13021E-03  3685   0.561E-02    0.150E-01
RMM:  12    -0.190432853455E+03    0.14626E-04   -0.41572E-04  3684   0.326E-02    0.123E-01
RMM:  13    -0.190432741531E+03    0.11192E-03   -0.19421E-04  3679   0.226E-02    0.574E-02
RMM:  14    -0.190432734912E+03    0.66191E-05   -0.69849E-05  3680   0.133E-02    0.385E-02
RMM:  15    -0.190432726262E+03    0.86507E-05   -0.20786E-05  3672   0.745E-03    0.154E-02
RMM:  16    -0.190432729109E+03   -0.28471E-05   -0.56575E-06  2965   0.386E-03    0.109E-02
RMM:  17    -0.190432731658E+03   -0.25496E-05   -0.23048E-06  2275   0.263E-03    0.445E-03
RMM:  18    -0.190432735299E+03   -0.36407E-05   -0.82474E-07  2051   0.165E-03    0.405E-03
RMM:  19    -0.190432737479E+03   -0.21800E-05   -0.29715E-07  2001   0.101E-03    0.253E-03
RMM:  20    -0.190432739595E+03   -0.21157E-05   -0.54761E-08  1067   0.474E-04    0.143E-03
RMM:  21    -0.190432741330E+03   -0.17354E-05   -0.17544E-08   681   0.412E-04    0.112E-03
RMM:  22    -0.190432744645E+03   -0.33146E-05   -0.96536E-08  1545   0.504E-04    0.121E-03
RMM:  23    -0.190432747110E+03   -0.24655E-05   -0.45951E-08   951   0.395E-04    0.107E-03
RMM:  24    -0.190432749012E+03   -0.19015E-05   -0.68075E-08   945   0.382E-04    0.912E-04
RMM:  25    -0.190432750588E+03   -0.15767E-05   -0.42437E-08   727   0.386E-04    0.727E-04
RMM:  26    -0.190432752030E+03   -0.14412E-05   -0.11353E-07  1290   0.457E-04    0.490E-04
RMM:  27    -0.190432752502E+03   -0.47254E-06   -0.17494E-08   612   0.334E-04
   3 F= -.19043275E+03 E0= -.19029811E+03  d E =-.154698E+01
       N       E                     dE             d eps       ncg     rms          rms(c)
DAV:   1    -0.190786767524E+03   -0.35402E+00   -0.35849E+02  3672   0.292E+01    0.212E+00
RMM:   2    -0.191183079773E+03   -0.39631E+00   -0.37013E+00  3682   0.418E+00    0.231E+00
RMM:   3    -0.191257090966E+03   -0.74011E-01   -0.27477E-01  3718   0.904E-01    0.338E+00
RMM:   4    -0.191139674696E+03    0.11742E+00   -0.53613E-02  3682   0.396E-01    0.153E+00
RMM:   5    -0.191129987593E+03    0.96871E-02   -0.28438E-02  3681   0.275E-01    0.114E+00
RMM:   6    -0.191133816216E+03   -0.38286E-02   -0.48011E-02  3685   0.344E-01    0.128E+00
RMM:   7    -0.191121549132E+03    0.12267E-01   -0.20055E-02  3683   0.225E-01    0.682E-01
RMM:   8    -0.191117492978E+03    0.40562E-02   -0.48748E-03  3683   0.109E-01    0.375E-01
RMM:   9    -0.191116193128E+03    0.12998E-02   -0.18713E-03  3682   0.698E-02    0.168E-01
RMM:  10    -0.191116022407E+03    0.17072E-03   -0.63596E-04  3683   0.397E-02    0.136E-01
RMM:  11    -0.191115845531E+03    0.17688E-03   -0.24095E-04  3683   0.244E-02    0.763E-02
RMM:  12    -0.191115822573E+03    0.22959E-04   -0.14715E-04  3683   0.188E-02    0.640E-02
RMM:  13    -0.191115791632E+03    0.30941E-04   -0.89584E-05  3683   0.148E-02    0.283E-02
RMM:  14    -0.191115790187E+03    0.14448E-05   -0.18880E-05  3675   0.694E-03    0.163E-02
RMM:  15    -0.191115789059E+03    0.11278E-05   -0.31882E-06  2561   0.302E-03    0.791E-03
RMM:  16    -0.191115789111E+03   -0.51863E-07   -0.11512E-06  2024   0.193E-03
   4 F= -.19111579E+03 E0= -.19098113E+03  d E =-.683037E+00
       N       E                     dE             d eps       ncg     rms          rms(c)
DAV:   1    -0.189165868139E+03    0.19499E+01   -0.33746E+03  3672   0.919E+01    0.558E+00
RMM:   2    -0.192428675883E+03   -0.32628E+01   -0.32606E+01  3683   0.125E+01    0.500E+00
RMM:   3    -0.192960704086E+03   -0.53203E+00   -0.19576E+00  3710   0.241E+00    0.766E+00
RMM:   4    -0.192265946865E+03    0.69476E+00   -0.34371E-01  3683   0.993E-01    0.417E+00
RMM:   5    -0.192198510061E+03    0.67437E-01   -0.16073E-01  3684   0.641E-01    0.343E+00
RMM:   6    -0.192207730580E+03   -0.92205E-02   -0.38187E-01  3681   0.958E-01    0.365E+00
RMM:   7    -0.192154679871E+03    0.53051E-01   -0.21993E-01  3684   0.742E-01    0.290E+00
RMM:   8    -0.192079521977E+03    0.75158E-01   -0.70549E-02  3684   0.423E-01    0.129E+00
RMM:   9    -0.192065549366E+03    0.13973E-01   -0.21511E-02  3681   0.232E-01    0.660E-01
RMM:  10    -0.192062527669E+03    0.30217E-02   -0.74503E-03  3683   0.137E-01    0.513E-01
RMM:  11    -0.192060800656E+03    0.17270E-02   -0.38162E-03  3682   0.974E-02    0.386E-01
RMM:  12    -0.192059519526E+03    0.12811E-02   -0.28580E-03  3683   0.830E-02    0.212E-01
RMM:  13    -0.192059356218E+03    0.16331E-03   -0.15762E-03  3682   0.620E-02    0.153E-01
RMM:  14    -0.192059183414E+03    0.17280E-03   -0.48554E-04  3684   0.352E-02    0.656E-02
RMM:  15    -0.192059146286E+03    0.37128E-04   -0.72909E-05  3685   0.139E-02    0.318E-02
RMM:  16    -0.192059140113E+03    0.61723E-05   -0.24025E-05  3672   0.795E-03    0.207E-02
RMM:  17    -0.192059140717E+03   -0.60348E-06   -0.11265E-05  3662   0.530E-03    0.113E-02
RMM:  18    -0.192059148010E+03   -0.72928E-05   -0.39811E-06  2720   0.318E-03    0.552E-03
RMM:  19    -0.192059151068E+03   -0.30587E-05   -0.93412E-07  2057   0.180E-03    0.306E-03
RMM:  20    -0.192059156816E+03   -0.57475E-05   -0.31930E-07  2079   0.934E-04    0.222E-03
RMM:  21    -0.192059160187E+03   -0.33712E-05   -0.14533E-07  1540   0.634E-04    0.136E-03
RMM:  22    -0.192059164270E+03   -0.40827E-05   -0.11539E-07  1583   0.525E-04    0.905E-04
RMM:  23    -0.192059168037E+03   -0.37667E-05   -0.11922E-07  1433   0.464E-04    0.115E-03
RMM:  24    -0.192059172242E+03   -0.42057E-05   -0.14399E-07  1174   0.478E-04    0.951E-04
RMM:  25    -0.192059174965E+03   -0.27225E-05   -0.18266E-07  1621   0.524E-04    0.775E-04
RMM:  26    -0.192059176108E+03   -0.11435E-05   -0.83534E-08  1054   0.389E-04    0.345E-04
RMM:  27    -0.192059176616E+03   -0.50735E-06   -0.42920E-08   724   0.334E-04
   5 F= -.19205918E+03 E0= -.19192480E+03  d E =-.162642E+01
       N       E                     dE             d eps       ncg     rms          rms(c)
DAV:   1    -0.192012060397E+03    0.47116E-01   -0.68466E+01  3708   0.127E+01    0.756E-01
RMM:   2    -0.192090924307E+03   -0.78864E-01   -0.72680E-01  3683   0.185E+00    0.107E+00
RMM:   3    -0.192096037116E+03   -0.51128E-02   -0.49942E-02  3726   0.391E-01    0.127E+00
RMM:   4    -0.192080964908E+03    0.15072E-01   -0.74519E-03  3682   0.151E-01    0.585E-01
RMM:   5    -0.192079341303E+03    0.16236E-02   -0.29889E-03  3682   0.909E-02    0.437E-01
RMM:   6    -0.192078713813E+03    0.62749E-03   -0.89209E-03  3683   0.148E-01    0.414E-01
RMM:   7    -0.192077607828E+03    0.11060E-02   -0.43004E-03  3684   0.103E-01    0.252E-01
RMM:   8    -0.192077146826E+03    0.46100E-03   -0.87928E-04  3689   0.466E-02    0.163E-01
RMM:   9    -0.192076913765E+03    0.23306E-03   -0.31691E-04  3681   0.288E-02    0.777E-02
RMM:  10    -0.192076865373E+03    0.48392E-04   -0.12275E-04  3681   0.174E-02    0.542E-02
RMM:  11    -0.192076836242E+03    0.29130E-04   -0.49485E-05  3683   0.110E-02    0.291E-02
RMM:  12    -0.192076832297E+03    0.39455E-05   -0.41010E-05  3681   0.976E-03    0.227E-02
RMM:  13    -0.192076828734E+03    0.35632E-05   -0.18495E-05  3674   0.663E-03    0.103E-02
RMM:  14    -0.192076828727E+03    0.63083E-08   -0.25442E-06  2264   0.276E-03
   6 F= -.19207683E+03 E0= -.19194250E+03  d E =-.164408E+01
       N       E                     dE             d eps       ncg     rms          rms(c)
DAV:   1    -0.192053912228E+03    0.22917E-01   -0.26834E+02  3672   0.254E+01    0.191E+00
RMM:   2    -0.192359878349E+03   -0.30597E+00   -0.29830E+00  3685   0.369E+00    0.189E+00
RMM:   3    -0.192464133734E+03   -0.10426E+00   -0.22797E-01  3706   0.795E-01    0.346E+00
RMM:   4    -0.192339665394E+03    0.12447E+00   -0.49653E-02  3686   0.372E-01    0.147E+00
RMM:   5    -0.192327371797E+03    0.12294E-01   -0.19421E-02  3681   0.227E-01    0.906E-01
RMM:   6    -0.192328623389E+03   -0.12516E-02   -0.33610E-02  3684   0.285E-01    0.916E-01
RMM:   7    -0.192322638300E+03    0.59851E-02   -0.14950E-02  3683   0.193E-01    0.564E-01
RMM:   8    -0.192320107058E+03    0.25312E-02   -0.33939E-03  3684   0.921E-02    0.316E-01
RMM:   9    -0.192319120101E+03    0.98696E-03   -0.13296E-03  3681   0.587E-02    0.133E-01
RMM:  10    -0.192318993226E+03    0.12688E-03   -0.40757E-04  3682   0.316E-02    0.951E-02
RMM:  11    -0.192318900904E+03    0.92322E-04   -0.16262E-04  3684   0.199E-02    0.535E-02
RMM:  12    -0.192318890938E+03    0.99664E-05   -0.78812E-05  3682   0.136E-02    0.430E-02
RMM:  13    -0.192318877981E+03    0.12957E-04   -0.52468E-05  3680   0.113E-02    0.235E-02
RMM:  14    -0.192318876558E+03    0.14229E-05   -0.12694E-05  3662   0.565E-03    0.136E-02
RMM:  15    -0.192318875477E+03    0.10812E-05   -0.26104E-06  2389   0.275E-03    0.614E-03
RMM:  16    -0.192318875509E+03   -0.31665E-07   -0.84974E-07  2010   0.164E-03
   7 F= -.19231888E+03 E0= -.19218534E+03  d E =-.242047E+00
       N       E                     dE             d eps       ncg     rms          rms(c)
DAV:   1    -0.192307921521E+03    0.10954E-01   -0.23737E+01  3720   0.753E+00    0.543E-01
RMM:   2    -0.192335204069E+03   -0.27283E-01   -0.26626E-01  3685   0.110E+00    0.575E-01
RMM:   3    -0.192343354470E+03   -0.81504E-02   -0.19941E-02  3709   0.236E-01    0.105E+00
RMM:   4    -0.192332604688E+03    0.10750E-01   -0.40130E-03  3686   0.107E-01    0.366E-01
RMM:   5    -0.192332237746E+03    0.36694E-03   -0.16159E-03  3681   0.658E-02    0.281E-01
RMM:   6    -0.192332292223E+03   -0.54477E-04   -0.30385E-03  3683   0.865E-02    0.258E-01
RMM:   7    -0.192331741036E+03    0.55119E-03   -0.13465E-03  3683   0.579E-02    0.124E-01
RMM:   8    -0.192331644381E+03    0.96656E-04   -0.26173E-04  3686   0.256E-02    0.883E-02
RMM:   9    -0.192331563761E+03    0.80619E-04   -0.10330E-04  3681   0.163E-02    0.387E-02
RMM:  10    -0.192331551798E+03    0.11963E-04   -0.33542E-05  3678   0.907E-03    0.258E-02
RMM:  11    -0.192331544518E+03    0.72800E-05   -0.13599E-05  3668   0.570E-03    0.134E-02
RMM:  12    -0.192331544202E+03    0.31584E-06   -0.70903E-06  3596   0.405E-03
   8 F= -.19233154E+03 E0= -.19219830E+03  d E =-.254715E+00
       N       E                     dE             d eps       ncg     rms          rms(c)
DAV:   1    -0.192326025905E+03    0.55186E-02   -0.34386E+01  3672   0.903E+00    0.615E-01
RMM:   2    -0.192369894265E+03   -0.43868E-01   -0.41293E-01  3685   0.134E+00    0.825E-01
RMM:   3    -0.192375632412E+03   -0.57381E-02   -0.30452E-02  3709   0.287E-01    0.109E+00
RMM:   4    -0.192364265151E+03    0.11367E-01   -0.53618E-03  3687   0.124E-01    0.423E-01
RMM:   5    -0.192363334403E+03    0.93075E-03   -0.16119E-03  3682   0.668E-02    0.283E-01
RMM:   6    -0.192363644660E+03   -0.31026E-03   -0.39052E-03  3681   0.966E-02    0.328E-01
RMM:   7    -0.192362790737E+03    0.85392E-03   -0.29351E-03  3682   0.841E-02    0.155E-01
RMM:   8    -0.192362667077E+03    0.12366E-03   -0.47395E-04  3685   0.344E-02    0.116E-01
RMM:   9    -0.192362520593E+03    0.14648E-03   -0.16494E-04  3680   0.204E-02    0.556E-02
RMM:  10    -0.192362492783E+03    0.27810E-04   -0.46603E-05  3680   0.107E-02    0.320E-02
RMM:  11    -0.192362481370E+03    0.11413E-04   -0.23548E-05  3674   0.720E-03    0.178E-02
RMM:  12    -0.192362479495E+03    0.18752E-05   -0.17270E-05  3670   0.618E-03    0.141E-02
RMM:  13    -0.192362478627E+03    0.86831E-06   -0.93609E-06  3639   0.461E-03
   9 F= -.19236248E+03 E0= -.19222957E+03  d E =-.309344E-01
       N       E                     dE             d eps       ncg     rms          rms(c)
DAV:   1    -0.192361554632E+03    0.92486E-03   -0.18072E+00  3744   0.207E+00    0.139E-01
RMM:   2    -0.192363917640E+03   -0.23630E-02   -0.21817E-02  3684   0.308E-01    0.209E-01
RMM:   3    -0.192364038397E+03   -0.12076E-03   -0.16198E-03  3709   0.662E-02    0.236E-01
RMM:   4    -0.192363517847E+03    0.52055E-03   -0.26811E-04  3687   0.279E-02    0.929E-02
RMM:   5    -0.192363491003E+03    0.26844E-04   -0.85815E-05  3683   0.155E-02    0.661E-02
RMM:   6    -0.192363525872E+03   -0.34870E-04   -0.20554E-04  3681   0.222E-02    0.792E-02
RMM:   7    -0.192363478586E+03    0.47286E-04   -0.16421E-04  3682   0.199E-02    0.323E-02
RMM:   8    -0.192363475372E+03    0.32139E-05   -0.24001E-05  3667   0.776E-03    0.264E-02
RMM:   9    -0.192363467692E+03    0.76798E-05   -0.84115E-06  3558   0.462E-03    0.122E-02
RMM:  10    -0.192363466450E+03    0.12427E-05   -0.21752E-06  2164   0.245E-03    0.753E-03
RMM:  11    -0.192363465945E+03    0.50497E-06   -0.14520E-06  1954   0.206E-03
  10 F= -.19236347E+03 E0= -.19223064E+03  d E =-.319217E-01
       N       E                     dE             d eps       ncg     rms          rms(c)
DAV:   1    -0.192363346081E+03    0.12037E-03   -0.10243E+01  3684   0.490E+00    0.342E-01
RMM:   2    -0.192378012791E+03   -0.14667E-01   -0.12659E-01  3685   0.735E-01    0.595E-01
RMM:   3    -0.192376981026E+03    0.10318E-02   -0.95928E-03  3710   0.162E-01    0.479E-01
RMM:   4    -0.192375103753E+03    0.18773E-02   -0.17632E-03  3689   0.700E-02    0.265E-01
RMM:   5    -0.192374626777E+03    0.47698E-03   -0.66808E-04  3681   0.428E-02    0.165E-01
RMM:   6    -0.192374825400E+03   -0.19862E-03   -0.12782E-03  3681   0.548E-02    0.212E-01
RMM:   7    -0.192374491964E+03    0.33344E-03   -0.12144E-03  3683   0.538E-02    0.101E-01
RMM:   8    -0.192374433852E+03    0.58112E-04   -0.18410E-04  3683   0.214E-02    0.654E-02
RMM:   9    -0.192374384649E+03    0.49203E-04   -0.52126E-05  3678   0.114E-02    0.326E-02
RMM:  10    -0.192374374750E+03    0.98986E-05   -0.17942E-05  3663   0.656E-03    0.210E-02
RMM:  11    -0.192374369672E+03    0.50783E-05   -0.12443E-05  3655   0.524E-03    0.128E-02
RMM:  12    -0.192374368422E+03    0.12497E-05   -0.68307E-06  3177   0.392E-03    0.873E-03
RMM:  13    -0.192374368077E+03    0.34526E-06   -0.36389E-06  2586   0.304E-03
  11 F= -.19237437E+03 E0= -.19224170E+03  d E =-.109021E-01
       N       E                     dE             d eps       ncg     rms          rms(c)
DAV:   1    -0.192370579830E+03    0.37886E-02   -0.51551E+00  3684   0.347E+00    0.241E-01
RMM:   2    -0.192378053716E+03   -0.74739E-02   -0.63803E-02  3685   0.522E-01    0.434E-01
RMM:   3    -0.192377337910E+03    0.71581E-03   -0.48355E-03  3709   0.115E-01    0.332E-01
RMM:   4    -0.192376463270E+03    0.87464E-03   -0.86702E-04  3689   0.492E-02    0.186E-01
RMM:   5    -0.192376238749E+03    0.22452E-03   -0.33034E-04  3681   0.301E-02    0.118E-01
RMM:   6    -0.192376340565E+03   -0.10182E-03   -0.63715E-04  3681   0.387E-02    0.149E-01
RMM:   7    -0.192376176903E+03    0.16366E-03   -0.62788E-04  3683   0.387E-02    0.687E-02
RMM:   8    -0.192376152077E+03    0.24826E-04   -0.90263E-05  3682   0.150E-02    0.464E-02
RMM:   9    -0.192376127192E+03    0.24886E-04   -0.25659E-05  3672   0.801E-03    0.231E-02
RMM:  10    -0.192376122316E+03    0.48760E-05   -0.91852E-06  3545   0.469E-03    0.151E-02
RMM:  11    -0.192376119823E+03    0.24933E-05   -0.63211E-06  3210   0.379E-03    0.916E-03
RMM:  12    -0.192376119261E+03    0.56203E-06   -0.35403E-06  2582   0.299E-03
  12 F= -.19237612E+03 E0= -.19224357E+03  d E =-.126533E-01
       N       E                     dE             d eps       ncg     rms          rms(c)
DAV:   1    -0.192372858099E+03    0.32617E-02   -0.74535E+00  3684   0.420E+00    0.276E-01
RMM:   2    -0.192382947899E+03   -0.10090E-01   -0.89075E-02  3684   0.625E-01    0.475E-01
RMM:   3    -0.192382535985E+03    0.41191E-03   -0.66758E-03  3708   0.137E-01    0.412E-01
RMM:   4    -0.192381247863E+03    0.12881E-02   -0.12166E-03  3688   0.578E-02    0.241E-01
RMM:   5    -0.192380813434E+03    0.43443E-03   -0.42002E-04  3681   0.340E-02    0.133E-01
RMM:   6    -0.192380912146E+03   -0.98712E-04   -0.82716E-04  3682   0.445E-02    0.163E-01
RMM:   7    -0.192380739222E+03    0.17292E-03   -0.89694E-04  3684   0.462E-02    0.851E-02
RMM:   8    -0.192380694792E+03    0.44430E-04   -0.14327E-04  3681   0.189E-02    0.537E-02
RMM:   9    -0.192380663151E+03    0.31640E-04   -0.33420E-05  3674   0.933E-03    0.278E-02
RMM:  10    -0.192380656132E+03    0.70195E-05   -0.12684E-05  3645   0.560E-03    0.181E-02
RMM:  11    -0.192380652856E+03    0.32758E-05   -0.94092E-06  3645   0.462E-03    0.118E-02
RMM:  12    -0.192380651720E+03    0.11357E-05   -0.49561E-06  2861   0.340E-03    0.723E-03
RMM:  13    -0.192380651511E+03    0.20953E-06   -0.27957E-06  2117   0.284E-03
  13 F= -.19238065E+03 E0= -.19224856E+03  d E =-.453225E-02
       N       E                     dE             d eps       ncg     rms          rms(c)
DAV:   1    -0.192380300185E+03    0.35154E-03   -0.45053E-01  3744   0.103E+00    0.680E-02
RMM:   2    -0.192380926998E+03   -0.62681E-03   -0.54101E-03  3684   0.154E-01    0.126E-01
RMM:   3    -0.192380865119E+03    0.61879E-04   -0.41052E-04  3708   0.339E-02    0.982E-02
RMM:   4    -0.192380795642E+03    0.69477E-04   -0.72805E-05  3689   0.142E-02    0.586E-02
RMM:   5    -0.192380773129E+03    0.22513E-04   -0.24826E-05  3681   0.829E-03    0.332E-02
RMM:   6    -0.192380782808E+03   -0.96794E-05   -0.50007E-05  3674   0.110E-02    0.406E-02
RMM:   7    -0.192380773290E+03    0.95184E-05   -0.57128E-05  3685   0.117E-02    0.207E-02
RMM:   8    -0.192380770674E+03    0.26155E-05   -0.85610E-06  3194   0.466E-03    0.130E-02
RMM:   9    -0.192380768782E+03    0.18928E-05   -0.19387E-06  2106   0.240E-03    0.676E-03
RMM:  10    -0.192380768454E+03    0.32787E-06   -0.87074E-07  1953   0.168E-03
  14 F= -.19238077E+03 E0= -.19224879E+03  d E =-.464919E-02
       N       E                     dE             d eps       ncg     rms          rms(c)
DAV:   1    -0.192379924198E+03    0.84458E-03   -0.29460E+00  3672   0.265E+00    0.163E-01
RMM:   2    -0.192383471294E+03   -0.35471E-02   -0.33587E-02  3682   0.389E-01    0.242E-01
RMM:   3    -0.192383674161E+03   -0.20287E-03   -0.23671E-03  3703   0.815E-02    0.275E-01
RMM:   4    -0.192383036133E+03    0.63803E-03   -0.39529E-04  3688   0.332E-02    0.131E-01
RMM:   5    -0.192382942871E+03    0.93262E-04   -0.15593E-04  3681   0.206E-02    0.876E-02
RMM:   6    -0.192382967540E+03   -0.24669E-04   -0.31566E-04  3681   0.276E-02    0.996E-02
RMM:   7    -0.192382897758E+03    0.69782E-04   -0.30215E-04  3685   0.271E-02    0.410E-02
RMM:   8    -0.192382892895E+03    0.48630E-05   -0.45321E-05  3680   0.107E-02    0.310E-02
RMM:   9    -0.192382883051E+03    0.98439E-05   -0.10837E-05  3653   0.535E-03    0.173E-02
RMM:  10    -0.192382879974E+03    0.30768E-05   -0.45758E-06  2829   0.344E-03    0.108E-02
RMM:  11    -0.192382878673E+03    0.13004E-05   -0.47385E-06  3059   0.345E-03    0.771E-03
RMM:  12    -0.192382878072E+03    0.60116E-06   -0.21863E-06  2003   0.250E-03
  15 F= -.19238288E+03 E0= -.19225116E+03  d E =-.210962E-02
       N       E                     dE             d eps       ncg     rms          rms(c)
DAV:   1    -0.192382743374E+03    0.13530E-03   -0.20128E-01  3732   0.693E-01    0.427E-02
RMM:   2    -0.192382989687E+03   -0.24631E-03   -0.22997E-03  3682   0.102E-01    0.682E-02
RMM:   3    -0.192382991159E+03   -0.14726E-05   -0.16321E-04  3704   0.214E-02    0.696E-02
RMM:   4    -0.192382951271E+03    0.39888E-04   -0.26584E-05  3688   0.863E-03    0.342E-02
RMM:   5    -0.192382946109E+03    0.51620E-05   -0.10677E-05  3646   0.541E-03    0.233E-02
RMM:   6    -0.192382949539E+03   -0.34295E-05   -0.22087E-05  3672   0.732E-03    0.269E-02
RMM:   7    -0.192382944933E+03    0.46058E-05   -0.21877E-05  3678   0.730E-03    0.109E-02
RMM:   8    -0.192382944398E+03    0.53558E-06   -0.30560E-06  2527   0.288E-03
  16 F= -.19238294E+03 E0= -.19225130E+03  d E =-.217594E-02
       N       E                     dE             d eps       ncg     rms          rms(c)
DAV:   1    -0.192382354742E+03    0.59019E-03   -0.13384E+00  3672   0.179E+00    0.109E-01
RMM:   2    -0.192383821483E+03   -0.14667E-02   -0.14728E-02  3682   0.259E-01    0.122E-01
RMM:   3    -0.192384125655E+03   -0.30417E-03   -0.98908E-04  3703   0.529E-02    0.209E-01
RMM:   4    -0.192383693152E+03    0.43250E-03   -0.16898E-04  3687   0.218E-02    0.678E-02
RMM:   5    -0.192383696563E+03   -0.34106E-05   -0.75686E-05  3682   0.142E-02    0.624E-02
RMM:   6    -0.192383695972E+03    0.59103E-06   -0.17490E-04  3682   0.206E-02    0.591E-02
RMM:   7    -0.192383670039E+03    0.25932E-04   -0.84264E-05  3683   0.144E-02    0.227E-02
RMM:   8    -0.192383669850E+03    0.18919E-06   -0.13110E-05  3632   0.582E-03    0.187E-02
RMM:   9    -0.192383665793E+03    0.40572E-05   -0.40947E-06  2746   0.331E-03    0.959E-03
RMM:  10    -0.192383664821E+03    0.97221E-06   -0.21041E-06  2019   0.248E-03
  17 F= -.19238366E+03 E0= -.19225200E+03  d E =-.720423E-03
       N       E                     dE             d eps       ncg     rms          rms(c)
DAV:   1    -0.192383661938E+03    0.38549E-05   -0.24143E-03  3888   0.756E-02    0.650E-03
RMM:   2    -0.192383666044E+03   -0.41066E-05   -0.32091E-05  3675   0.118E-02    0.129E-02
RMM:   3    -0.192383665108E+03    0.93598E-06   -0.28285E-06  2374   0.297E-03
  18 F= -.19238367E+03 E0= -.19225199E+03  d E =-.720711E-03
       N       E                     dE             d eps       ncg     rms          rms(c)
DAV:   1    -0.192383591827E+03    0.74217E-04   -0.36619E-01  3672   0.929E-01    0.513E-02
RMM:   2    -0.192383955731E+03   -0.36390E-03   -0.38142E-03  3683   0.134E-01    0.421E-02
RMM:   3    -0.192383971322E+03   -0.15590E-04   -0.20271E-04  3713   0.255E-02    0.518E-02
RMM:   4    -0.192383959079E+03    0.12243E-04   -0.36885E-05  3683   0.102E-02    0.454E-02
RMM:   5    -0.192383952296E+03    0.67829E-05   -0.19669E-05  3674   0.694E-03    0.410E-02
RMM:   6    -0.192383946199E+03    0.60966E-05   -0.47232E-05  3683   0.108E-02    0.311E-02
RMM:   7    -0.192383939101E+03    0.70982E-05   -0.26281E-05  3677   0.812E-03    0.124E-02
RMM:   8    -0.192383939110E+03   -0.91532E-08   -0.34987E-06  2628   0.309E-03
  19 F= -.19238394E+03 E0= -.19225227E+03  d E =-.274002E-03
