 vasp.5.4.1 24Jun15 (build Mar 14 2019 10:18:33) complex                        
  
 executed on INTEL-19.0.2+OPENMPI date 2022.07.15  17:49:12
 running on   36 total cores
 distrk:  each k-point on   36 cores,    1 groups
 distr:  one band on NCORES_PER_BAND=   6 cores,    6 groups


--------------------------------------------------------------------------------------------------------


 INCAR:
 POTCAR:    PAW_PBE Au 04Oct2007                  
 POTCAR:    PAW_PBE Pd 04Jan2005                  
 POTCAR:    PAW_PBE Au 04Oct2007                  
  local pseudopotential read in
  partial core-charges read in
  partial kinetic energy density read in
  atomic valenz-charges read in
  non local Contribution for L=           2  read in
    real space projection operators read in
  non local Contribution for L=           2  read in
    real space projection operators read in
  non local Contribution for L=           0  read in
    real space projection operators read in
  non local Contribution for L=           0  read in
    real space projection operators read in
  non local Contribution for L=           1  read in
    real space projection operators read in
  non local Contribution for L=           1  read in
    real space projection operators read in
    PAW grid and wavefunctions read in
 
   number of l-projection  operators is LMAX  =           6
   number of lm-projection operators is LMMAX =          18
 
 POTCAR:    PAW_PBE Pd 04Jan2005                  
  local pseudopotential read in
  partial core-charges read in
  partial kinetic energy density read in
  atomic valenz-charges read in
  non local Contribution for L=           2  read in
    real space projection operators read in
  non local Contribution for L=           2  read in
    real space projection operators read in
  non local Contribution for L=           0  read in
    real space projection operators read in
  non local Contribution for L=           0  read in
    real space projection operators read in
  non local Contribution for L=           1  read in
    real space projection operators read in
  non local Contribution for L=           1  read in
    real space projection operators read in
    PAW grid and wavefunctions read in
 
   number of l-projection  operators is LMAX  =           6
   number of lm-projection operators is LMMAX =          18
 
 Optimization of the real space projectors (new method)

 maximal supplied QI-value         = 15.12
 optimisation between [QCUT,QGAM] = [ 10.13, 20.41] = [ 28.73,116.64] Ry 
 Optimized for a Real-space Cutoff    1.51 Angstroem

   l    n(q)    QCUT    max X(q) W(low)/X(q) W(high)/X(q)  e(spline) 
   2      8    10.129    60.898    0.46E-03    0.46E-03    0.14E-06
   2      8    10.129    58.894    0.47E-03    0.47E-03    0.14E-06
   0      9    10.129   109.617    0.16E-03    0.11E-03    0.54E-07
   0      9    10.129    75.026    0.15E-03    0.11E-03    0.52E-07
   1      9    10.129    16.344    0.96E-04    0.15E-03    0.14E-06
   1      9    10.129    10.160    0.81E-04    0.12E-03    0.11E-06
 Optimization of the real space projectors (new method)

 maximal supplied QI-value         = 14.36
 optimisation between [QCUT,QGAM] = [ 10.20, 20.39] = [ 29.12,116.47] Ry 
 Optimized for a Real-space Cutoff    1.51 Angstroem

   l    n(q)    QCUT    max X(q) W(low)/X(q) W(high)/X(q)  e(spline) 
   2      8    10.197    59.108    0.26E-03    0.14E-03    0.96E-07
   2      8    10.197    58.101    0.27E-03    0.14E-03    0.98E-07
   0      9    10.197   102.235    0.54E-04    0.60E-05    0.72E-07
   0      9    10.197    58.388    0.52E-04    0.60E-05    0.68E-07
   1      9    10.197    22.191    0.18E-03    0.25E-03    0.79E-07
   1      9    10.197    15.590    0.15E-03    0.21E-03    0.69E-07
  PAW_PBE Au 04Oct2007                  :
 energy of atom  1       EATOM= -926.0867
 kinetic energy error for atom=    0.0062 (will be added to EATOM!!)
  PAW_PBE Pd 04Jan2005                  :
 energy of atom  2       EATOM= -809.7530
 kinetic energy error for atom=    0.0091 (will be added to EATOM!!)
 
 
 POSCAR: Au Pd                                   
  positions in cartesian coordinates
  No initial velocities read in
 exchange correlation table for  LEXCH =        8
   RHO(1)=    0.500       N(1)  =     2000
   RHO(2)=  100.500       N(2)  =     4000

 VTST: version 3.2, (02/03/18)

 CHAIN: initializing optimizer
 
 OPT: Using VASP Conjugate-Gradient optimizer
 CHAIN: Read ICHAIN            0
 
 POSCAR: Au Pd                                   
  positions in cartesian coordinates
  No initial velocities read in
 


--------------------------------------------------------------------------------------------------------


 ion  position               nearest neighbor table
   1  0.250  0.750  0.592-  42 2.75  35 2.75  31 2.75   8 2.75  19 2.75  44 2.75   5 2.75  39 2.75
                            45 2.75
   2  0.833  0.833  0.408-  22 2.75  25 2.75  29 2.75  40 2.75  47 2.75  20 2.75   7 2.75  23 2.75
                            14 2.75
   3  0.750  0.500  0.592-  30 2.75  18 2.75  17 2.75   5 2.75  28 2.75  16 2.75   8 2.75  37 2.75
                            33 2.75
   4  0.667  0.167  0.500-  40 2.75  26 2.75  10 2.75  14 2.75  33 2.75  38 2.75  22 2.75  32 2.75
                            13 2.75  11 2.75  25 2.75  28 2.75
   5  0.500  0.750  0.592-   6 2.75  30 2.75   8 2.75  12 2.75  19 2.75   3 2.75   1 2.75  16 2.75
                            35 2.75
   6  0.417  0.917  0.500-  43 2.75   5 2.75  19 2.75  30 2.75  35 2.75  41 2.75  13 2.75  42 2.75
                            14 2.75  24 2.75  12 2.75   7 2.75
   7  0.583  0.833  0.408-  14 2.75   9 2.75  24 2.75  29 2.75  40 2.75   2 2.75  43 2.75  30 2.75
                             6 2.75
   8  0.500  0.500  0.592-  35 2.75  33 2.75  10 2.75  28 2.75   1 2.75   5 2.75   3 2.75  44 2.75
                            38 2.75
   9  0.583  0.583  0.408-  30 2.75  11 2.75   7 2.75  34 2.75  43 2.75  29 2.75  15 2.75  33 2.75
                            35 2.75
  10  0.500  0.250  0.592-  38 2.75   4 2.75  12 2.75  26 2.75   8 2.75  44 2.75  28 2.75  46 2.75
                            13 2.75
  11  0.583  0.333  0.408-  33 2.75  15 2.75  25 2.75   9 2.75  40 2.75  36 2.75  34 2.75   4 2.75
                            38 2.75
  12  0.500  0.000  0.592-  13 2.75  14 2.75   5 2.75  10 2.75  16 2.75  46 2.75  26 2.75  19 2.75
                             6 2.75
  13  0.417  0.167  0.500-  24 2.75  12 2.75  46 2.75   6 2.75  27 2.75  38 2.75  14 2.75  41 2.75
                             4 2.75  36 2.75  10 2.75  40 2.75
  14  0.667  0.917  0.500-   7 2.75  16 2.75  12 2.75  13 2.75   4 2.75  23 2.75  30 2.75   6 2.75
                            22 2.75  40 2.75   2 2.75  26 2.75
  15  0.333  0.583  0.408-  35 2.75  20 2.75  11 2.75  36 2.75  43 2.75   9 2.75  47 2.75  38 2.75
                            45 2.75
  16  0.750  0.750  0.592-  14 2.75  23 2.75   3 2.75  12 2.75  26 2.75  37 2.75   5 2.75  39 2.75
                            30 2.75
  17  0.000  0.250  0.592-  18 2.75  41 2.75  19 2.75  31 2.75  37 2.75   3 2.75  28 2.75  46 2.75
                            32 2.75
  18  0.917  0.417  0.500-  34 2.75  17 2.75   3 2.75  30 2.75  32 2.75  23 2.75  41 2.75  27 2.75
                            33 2.75  29 2.75  37 2.75  21 2.75
  19  0.250  0.000  0.592-  41 2.75   6 2.75   1 2.75  17 2.75   5 2.75  46 2.75  12 2.75  31 2.75
                            42 2.75
  20  0.083  0.833  0.408-  42 2.75  25 2.75  15 2.75  47 2.75  48 2.75   2 2.75  43 2.75  45 2.75
                            22 2.75
  21  0.083  0.333  0.408-  27 2.75  24 2.75  29 2.75  47 2.75  48 2.75  34 2.75  36 2.75  41 2.75
                            18 2.75
  22  0.917  0.917  0.500-   2 2.75  39 2.75  26 2.75   4 2.75  32 2.75  23 2.75  45 2.75  42 2.75
                            14 2.75  25 2.75  20 2.75  31 2.75
  23  0.917  0.667  0.500-  29 2.75  37 2.75  16 2.75  22 2.75  27 2.75  14 2.75  18 2.75  30 2.75
                            45 2.75   2 2.75  39 2.75  47 2.75
  24  0.333  0.083  0.408-  13 2.75   7 2.75  21 2.75  36 2.75  43 2.75  40 2.75  48 2.75   6 2.75
                            41 2.75
  25  0.833  0.083  0.408-  32 2.75  11 2.75  20 2.75   2 2.75  34 2.75  40 2.75  48 2.75  22 2.75
                             4 2.75
  26  0.750  0.000  0.592-   4 2.75  22 2.75  16 2.75  10 2.75  28 2.75  39 2.75  31 2.75  12 2.75
                            14 2.75
  27  0.167  0.417  0.500-  21 2.75  46 2.75  37 2.75  13 2.75  41 2.75  45 2.75  23 2.75  38 2.75
                            18 2.75  47 2.75  44 2.75  36 2.75
  28  0.750  0.250  0.592-  33 2.75  32 2.75  26 2.75  31 2.75   3 2.75   8 2.75  10 2.75  17 2.75
                             4 2.75
  29  0.833  0.583  0.408-  23 2.75   7 2.75  21 2.75   2 2.75  34 2.75   9 2.75  47 2.75  18 2.75
                            30 2.75
  30  0.667  0.667  0.500-   9 2.75   3 2.75   5 2.75   6 2.75  14 2.75  18 2.75  33 2.75  23 2.75
                            35 2.75   7 2.75  16 2.75  29 2.75
  31  0.000  0.000  0.592-  32 2.75  42 2.75  28 2.75   1 2.75  39 2.75  17 2.75  19 2.75  26 2.75
                            22 2.75
  32  0.917  0.167  0.500-  25 2.75  31 2.75  28 2.75  22 2.75  18 2.75  33 2.75  42 2.75  41 2.75
                             4 2.75  34 2.75  17 2.75  48 2.75
  33  0.667  0.417  0.500-  11 2.75  28 2.75   8 2.75   4 2.75  30 2.75  32 2.75  35 2.75  18 2.75
                            38 2.75   9 2.75   3 2.75  34 2.75
  34  0.833  0.333  0.408-  18 2.75   9 2.75  25 2.75  29 2.75  48 2.75  21 2.75  11 2.75  32 2.75
                            33 2.75
  35  0.417  0.667  0.500-  15 2.75   8 2.75   1 2.75   6 2.75  33 2.75  38 2.75  42 2.75  30 2.75
                            45 2.75  43 2.75   9 2.75   5 2.75
  36  0.333  0.333  0.408-  38 2.75  24 2.75  15 2.75  40 2.75  47 2.75  11 2.75  21 2.75  13 2.75
                            27 2.75
  37  0.000  0.500  0.592-  23 2.75  27 2.75  16 2.75  17 2.75  39 2.75  46 2.75  44 2.75   3 2.75
                            18 2.75
  38  0.417  0.417  0.500-  36 2.75  10 2.75  44 2.75  35 2.75   4 2.75  13 2.75  45 2.75  27 2.75
                            33 2.75  15 2.75   8 2.75  11 2.75
  39  0.000  0.750  0.592-  22 2.75  45 2.75  31 2.75  37 2.75  44 2.75  26 2.75   1 2.75  16 2.75
                            23 2.75
  40  0.583  0.083  0.408-   4 2.75   2 2.75   7 2.75  11 2.75  36 2.75  25 2.75  24 2.75  14 2.75
                            13 2.75
  41  0.167  0.167  0.500-  48 2.75  19 2.75  17 2.75   6 2.75  27 2.75  42 2.75  18 2.75  13 2.75
                            32 2.75  21 2.75  46 2.75  24 2.75
  42  0.167  0.917  0.500-  20 2.75   1 2.75  31 2.75  32 2.75  35 2.75  41 2.75  45 2.75  22 2.75
                             6 2.75  48 2.75  19 2.75  43 2.75
  43  0.333  0.833  0.408-   6 2.75   9 2.75  15 2.75  24 2.75  48 2.75   7 2.75  20 2.75  35 2.75
                            42 2.75
  44  0.250  0.500  0.592-  45 2.75  38 2.75   1 2.75  39 2.75  10 2.75  46 2.75   8 2.75  37 2.75
                            27 2.75
  45  0.167  0.667  0.500-  47 2.75  44 2.75  39 2.75  22 2.75  42 2.75  27 2.75  38 2.75  35 2.75
                            23 2.75  20 2.75   1 2.75  15 2.75
  46  0.250  0.250  0.592-  27 2.75  13 2.75  19 2.75  12 2.75  37 2.75  44 2.75  10 2.75  17 2.75
                            41 2.75
  47  0.083  0.583  0.408-  45 2.75  20 2.75  21 2.75  36 2.75   2 2.75  15 2.75  29 2.75  27 2.75
                            23 2.75
  48  0.083  0.083  0.408-  41 2.75  21 2.75  34 2.75  20 2.75  43 2.75  25 2.75  24 2.75  42 2.75
                            32 2.75
 
  LATTYP: Found a hexagonal cell.
 ALAT       =    11.0025815153
 C/A-ratio  =     2.2260035120
  
  Lattice vectors:
  
 A1 = (   5.5012907576,  -9.5285150994,   0.0000000000)
 A2 = ( -11.0025815153,   0.0000000000,   0.0000000000)
 A3 = (   0.0000000000,   0.0000000000, -24.4917850943)


Analysis of symmetry for initial positions (statically):
=====================================================================
 Subroutine PRICEL returns:
 Original cell was already a primitive cell.
 

 Routine SETGRP: Setting up the symmetry group for a 
 hexagonal supercell.


 Subroutine GETGRP returns: Found  1 space group operations
 (whereof  1 operations were pure point group operations)
 out of a pool of 24 trial point group operations.


The static configuration has the point symmetry C_1 .


Analysis of symmetry for dynamics (positions and initial velocities):
=====================================================================
 Subroutine PRICEL returns:
 Original cell was already a primitive cell.
 

 Routine SETGRP: Setting up the symmetry group for a 
 hexagonal supercell.


 Subroutine GETGRP returns: Found  1 space group operations
 (whereof  1 operations were pure point group operations)
 out of a pool of 24 trial point group operations.


The dynamic configuration has the point symmetry C_1 .
 
 
 KPOINTS: Automatic mesh                          

Automatic generation of k-mesh.
Space group operators:
 irot       det(A)        alpha          n_x          n_y          n_z        tau_x        tau_y        tau_z
    1     1.000000     0.000000     1.000000     0.000000     0.000000     0.000000     0.000000     0.000000
 
 Subroutine IBZKPT returns following result:
 ===========================================
 
 Found      6 irreducible k-points:
 
 Following reciprocal coordinates:
            Coordinates               Weight
  0.250000  0.250000  0.000000     16.000000
  0.000000  0.250000  0.000000     16.000000
 -0.250000  0.000000  0.000000     16.000000
 -0.250000  0.250000  0.000000     16.000000
  0.500000 -0.250000  0.000000     16.000000
 -0.250000  0.500000  0.000000     16.000000
 
 Following cartesian coordinates:
            Coordinates               Weight
  0.022722  0.013119  0.000000     16.000000
  0.000000  0.026237  0.000000     16.000000
 -0.022722  0.013119  0.000000     16.000000
 -0.022722  0.039356  0.000000     16.000000
  0.045444 -0.052474  0.000000     16.000000
 -0.022722  0.065593  0.000000     16.000000
 


--------------------------------------------------------------------------------------------------------




 Dimension of arrays:
   k-points           NKPTS =      6   k-points in BZ     NKDIM =      6   number of bands    NBANDS=    306
   number of dos      NEDOS =    301   number of ions     NIONS =     48
   non local maximal  LDIM  =      6   non local SUM 2l+1 LMDIM =     18
   total plane-waves  NPLWV = 349920
   max r-space proj   IRMAX =   2009   max aug-charges    IRDMAX=   8532
   dimension x,y,z NGX =    54 NGY =   54 NGZ =  120
   dimension x,y,z NGXF=   108 NGYF=  108 NGZF=  240
   support grid    NGXF=   108 NGYF=  108 NGZF=  240
   ions per type =              24  24
 NGX,Y,Z   is equivalent  to a cutoff of   8.16,  8.16,  8.15 a.u.
 NGXF,Y,Z  is equivalent  to a cutoff of  16.32, 16.32, 16.29 a.u.


 I would recommend the setting:
   dimension x,y,z NGX =    54 NGY =   54 NGZ =  120
 SYSTEM =  unknown system                          
 POSCAR =  Au Pd                                   

 Startparameter for this run:
   NWRITE =      1    write-flag & timer
   PREC   = normal    normal or accurate (medium, high low for compatibility)
   ISTART =      0    job   : 0-new  1-cont  2-samecut
   ICHARG =      2    charge: 1-file 2-atom 10-const
   ISPIN  =      1    spin polarized calculation?
   LNONCOLLINEAR =      F non collinear calculations
   LSORBIT =      F    spin-orbit coupling
   INIWAV =      1    electr: 0-lowe 1-rand  2-diag
   LASPH  =      F    aspherical Exc in radial PAW
   METAGGA=      F    non-selfconsistent MetaGGA calc.

 Electronic Relaxation 1
   ENCUT  =  400.0 eV  29.40 Ry    5.42 a.u.  17.94 17.94 39.94*2*pi/ulx,y,z
   ENINI  =  400.0     initial cutoff
   ENAUG  =  416.2 eV  augmentation charge cutoff
   NELM   =    500;   NELMIN=  2; NELMDL= -5     # of ELM steps 
   EDIFF  = 0.1E-05   stopping-criterion for ELM
   LREAL  =      T    real-space projection
   NLSPLINE    = F    spline interpolate recip. space projectors
   LCOMPAT=      F    compatible to vasp.4.4
   GGA_COMPAT  = T    GGA compatible to vasp.4.4-vasp.4.6
   LMAXPAW     = -100 max onsite density
   LMAXMIX     =    2 max onsite mixed and CHGCAR
   VOSKOWN=      1    Vosko Wilk Nusair interpolation
   ROPT   =   -0.00050  -0.00050
 Ionic relaxation
   EDIFFG = -.2E-01   stopping-criterion for IOM
   NSW    =    500    number of steps for IOM
   NBLOCK =      1;   KBLOCK =    500    inner block; outer block 
   IBRION =      2    ionic relax: 0-MD 1-quasi-New 2-CG
   NFREE  =      2    steps in history (QN), initial steepest desc. (CG)
   ISIF   =      0    stress and relaxation
   IWAVPR =     11    prediction:  0-non 1-charg 2-wave 3-comb
   ISYM   =      2    0-nonsym 1-usesym 2-fastsym
   LCORR  =      T    Harris-Foulkes like correction to forces

   POTIM  = 0.3500    time-step for ionic-motion
   TEIN   =    0.0    initial temperature
   TEBEG  =    0.0;   TEEND  =   0.0 temperature during run
   SMASS  =  -3.00    Nose mass-parameter (am)
   estimated Nose-frequenzy (Omega)   =  0.10E-29 period in steps =****** mass=  -0.277E-26a.u.
   SCALEE = 1.0000    scale energy and forces
   NPACO  =    256;   APACO  = 16.0  distance and # of slots for P.C.
   PSTRESS=    0.0 pullay stress

  Mass of Ions in am
   POMASS = 196.97106.42
  Ionic Valenz
   ZVAL   =  11.00 10.00
  Atomic Wigner-Seitz radii
   RWIGS  =  -1.00 -1.00
  virtual crystal weights 
   VCA    =   1.00  1.00
   NELECT =     504.0000    total number of electrons
   NUPDOWN=      -1.0000    fix difference up-down

 DOS related values:
   EMIN   =  10.00;   EMAX   =-10.00  energy-range for DOS
   EFERMI =   0.00
   ISMEAR =     0;   SIGMA  =   0.10  broadening in eV -4-tet -1-fermi 0-gaus

 Electronic relaxation 2 (details)
   IALGO  =     68    algorithm
   LDIAG  =      T    sub-space diagonalisation (order eigenvalues)
   LSUBROT=      F    optimize rotation matrix (better conditioning)
   TURBO    =      0    0=normal 1=particle mesh
   IRESTART =      0    0=no restart 2=restart with 2 vectors
   NREBOOT  =      0    no. of reboots
   NMIN     =      0    reboot dimension
   EREF     =   0.00    reference energy to select bands
   IMIX   =      4    mixing-type and parameters
     AMIX     =   0.40;   BMIX     =  1.00
     AMIX_MAG =   1.60;   BMIX_MAG =  1.00
     AMIN     =   0.10
     WC   =   100.;   INIMIX=   1;  MIXPRE=   1;  MAXMIX= -45

 Intra band minimization:
   WEIMIN = 0.0010     energy-eigenvalue tresh-hold
   EBREAK =  0.82E-09  absolut break condition
   DEPER  =   0.30     relativ break condition  

   TIME   =   0.40     timestep for ELM

  volume/ion in A,a.u.               =      53.49       360.99
  Fermi-wavevector in a.u.,A,eV,Ry     =   0.951418  1.797920 12.315955  0.905197
  Thomas-Fermi vector in A             =   2.079887
 
 Write flags
   LWAVE  =      F    write WAVECAR
   LCHARG =      F    write CHGCAR
   LVTOT  =      F    write LOCPOT, total local potential
   LVHAR  =      F    write LOCPOT, Hartree potential only
   LELF   =      F    write electronic localiz. function (ELF)
   LORBIT =      0    0 simple, 1 ext, 2 COOP (PROOUT)


 Dipole corrections
   LMONO  =      F    monopole corrections only (constant potential shift)
   LDIPOL =      T    correct potential (dipole corrections)
   IDIPOL =      3    1-x, 2-y, 3-z, 4-all directions 
   EPSILON=  1.0000000 bulk dielectric constant

 Exchange correlation treatment:
   GGA     =    PE    GGA type
   LEXCH   =     8    internal setting for exchange type
   VOSKOWN=      1    Vosko Wilk Nusair interpolation
   LHFCALC =     F    Hartree Fock is set to
   LHFONE  =     F    Hartree Fock one center treatment
   AEXX    =    0.0000 exact exchange contribution

 Linear response parameters
   LEPSILON=     F    determine dielectric tensor
   LRPA    =     F    only Hartree local field effects (RPA)
   LNABLA  =     F    use nabla operator in PAW spheres
   LVEL    =     F    velocity operator in full k-point grid
   LINTERFAST=   F  fast interpolation
   KINTER  =     0    interpolate to denser k-point grid
   CSHIFT  =0.1000    complex shift for real part using Kramers Kronig
   OMEGAMAX=  -1.0    maximum frequency
   DEG_THRESHOLD= 0.2000000E-02 threshold for treating states as degnerate
   RTIME   =    0.100 relaxation time in fs

 Orbital magnetization related:
   ORBITALMAG=     F  switch on orbital magnetization
   LCHIMAG   =     F  perturbation theory with respect to B field
   DQ        =  0.001000  dq finite difference perturbation B field



--------------------------------------------------------------------------------------------------------


 conjugate gradient relaxation of ions
 charge density and potential will be updated during run
 non-spin polarized calculation
 RMM-DIIS sequential band-by-band and
  variant of blocked Davidson during initial phase
 perform sub-space diagonalisation
    before iterative eigenvector-optimisation
 modified Broyden-mixing scheme, WC =      100.0
 initial mixing is a Kerker type mixing with AMIX =  0.4000 and BMIX =      1.0000
 Hartree-type preconditioning will be used
 using additional bands           54
 real space projection scheme for non local part
 use partial core corrections
 calculate Harris-corrections to forces 
   (improved forces if not selfconsistent)
 use gradient corrections 
 use of overlap-Matrix (Vanderbilt PP)
 Gauss-broadening in eV      SIGMA  =   0.10


--------------------------------------------------------------------------------------------------------


  energy-cutoff  :      400.00
  volume of cell :     2567.68
      direct lattice vectors                 reciprocal lattice vectors
    11.002581515  0.000000000  0.000000000     0.090887761 -0.052474073  0.000000000
     5.501290758  9.528515099  0.000000000     0.000000000  0.104948147  0.000000000
     0.000000000  0.000000000 24.491785094     0.000000000  0.000000000  0.040830017

  length of vectors
    11.002581515 11.002581515 24.491785094     0.104948147  0.104948147  0.040830017


 
 k-points in units of 2pi/SCALE and weight: Automatic mesh                          
   0.02272194  0.01311852  0.00000000       0.167
   0.00000000  0.02623704  0.00000000       0.167
  -0.02272194  0.01311852  0.00000000       0.167
  -0.02272194  0.03935555  0.00000000       0.167
   0.04544388 -0.05247407  0.00000000       0.167
  -0.02272194  0.06559259  0.00000000       0.167
 
 k-points in reciprocal lattice and weights: Automatic mesh                          
   0.25000000  0.25000000  0.00000000       0.167
   0.00000000  0.25000000  0.00000000       0.167
  -0.25000000  0.00000000  0.00000000       0.167
  -0.25000000  0.25000000  0.00000000       0.167
   0.50000000 -0.25000000  0.00000000       0.167
  -0.25000000  0.50000000  0.00000000       0.167
 
 position of ions in fractional coordinates (direct lattice) 
   0.25000000  0.75000000  0.59169983
   0.83333333  0.83333333  0.40830017
   0.75000000  0.50000000  0.59169983
   0.66666667  0.16666667  0.50000000
   0.50000000  0.75000000  0.59169983
   0.41666667  0.91666667  0.50000000
   0.58333333  0.83333333  0.40830017
   0.50000000  0.50000000  0.59169983
   0.58333333  0.58333333  0.40830017
   0.50000000  0.25000000  0.59169983
   0.58333333  0.33333333  0.40830017
   0.50000000  0.00000000  0.59169983
   0.41666667  0.16666667  0.50000000
   0.66666667  0.91666667  0.50000000
   0.33333333  0.58333333  0.40830017
   0.75000000  0.75000000  0.59169983
   0.00000000  0.25000000  0.59169983
   0.91666667  0.41666667  0.50000000
   0.25000000  0.00000000  0.59169983
   0.08333333  0.83333333  0.40830017
   0.08333333  0.33333333  0.40830017
   0.91666667  0.91666667  0.50000000
   0.91666667  0.66666667  0.50000000
   0.33333333  0.08333333  0.40830017
   0.83333333  0.08333333  0.40830017
   0.75000000  0.00000000  0.59169983
   0.16666667  0.41666667  0.50000000
   0.75000000  0.25000000  0.59169983
   0.83333333  0.58333333  0.40830017
   0.66666667  0.66666667  0.50000000
   0.00000000  0.00000000  0.59169983
   0.91666667  0.16666667  0.50000000
   0.66666667  0.41666667  0.50000000
   0.83333333  0.33333333  0.40830017
   0.41666667  0.66666667  0.50000000
   0.33333333  0.33333333  0.40830017
   0.00000000  0.50000000  0.59169983
   0.41666667  0.41666667  0.50000000
   0.00000000  0.75000000  0.59169983
   0.58333333  0.08333333  0.40830017
   0.16666667  0.16666667  0.50000000
   0.16666667  0.91666667  0.50000000
   0.33333333  0.83333333  0.40830017
   0.25000000  0.50000000  0.59169983
   0.16666667  0.66666667  0.50000000
   0.25000000  0.25000000  0.59169983
   0.08333333  0.58333333  0.40830017
   0.08333333  0.08333333  0.40830017
 
 position of ions in cartesian coordinates  (Angst):
   6.87661345  7.14638632 14.49178509
  13.75322689  7.94042925 10.00000000
  11.00258152  4.76425755 14.49178509
   8.25193614  1.58808585 12.24589255
   9.62725883  7.14638632 14.49178509
   9.62725883  8.73447217 12.24589255
  11.00258152  7.94042925 10.00000000
   8.25193614  4.76425755 14.49178509
   9.62725883  5.55830047 10.00000000
   6.87661345  2.38212877 14.49178509
   8.25193614  3.17617170 10.00000000
   5.50129076  0.00000000 14.49178509
   5.50129076  1.58808585 12.24589255
  12.37790420  8.73447217 12.24589255
   6.87661345  5.55830047 10.00000000
  12.37790420  7.14638632 14.49178509
   1.37532269  2.38212877 14.49178509
  12.37790420  3.97021462 12.24589255
   2.75064538  0.00000000 14.49178509
   5.50129076  7.94042925 10.00000000
   2.75064538  3.17617170 10.00000000
  15.12854958  8.73447217 12.24589255
  13.75322689  6.35234340 12.24589255
   4.12596807  0.79404292 10.00000000
   9.62725883  0.79404292 10.00000000
   8.25193614  0.00000000 14.49178509
   4.12596807  3.97021462 12.24589255
   9.62725883  2.38212877 14.49178509
  12.37790420  5.55830047 10.00000000
  11.00258152  6.35234340 12.24589255
   0.00000000  0.00000000 14.49178509
  11.00258152  1.58808585 12.24589255
   9.62725883  3.97021462 12.24589255
  11.00258152  3.17617170 10.00000000
   8.25193614  6.35234340 12.24589255
   5.50129076  3.17617170 10.00000000
   2.75064538  4.76425755 14.49178509
   6.87661345  3.97021462 12.24589255
   4.12596807  7.14638632 14.49178509
   6.87661345  0.79404292 10.00000000
   2.75064538  1.58808585 12.24589255
   6.87661345  8.73447217 12.24589255
   8.25193614  7.94042925 10.00000000
   5.50129076  4.76425755 14.49178509
   5.50129076  6.35234340 12.24589255
   4.12596807  2.38212877 14.49178509
   4.12596807  5.55830047 10.00000000
   1.37532269  0.79404292 10.00000000
 


--------------------------------------------------------------------------------------------------------


 k-point  1 :   0.2500 0.2500 0.0000  plane waves:   46635
 k-point  2 :   0.0000 0.2500 0.0000  plane waves:   46635
 k-point  3 :  -0.2500 0.0000 0.0000  plane waves:   46635
 k-point  4 :  -0.2500 0.2500 0.0000  plane waves:   46644
 k-point  5 :   0.5000-0.2500 0.0000  plane waves:   46644
 k-point  6 :  -0.2500 0.5000 0.0000  plane waves:   46644

 maximum and minimum number of plane-waves per node :      7818     7732

 maximum number of plane-waves:     46644
 maximum index in each direction: 
   IXMAX=   18   IYMAX=   18   IZMAX=   39
   IXMIN=  -18   IYMIN=  -18   IZMIN=  -39

 WARNING: aliasing errors must be expected set NGX to  74 to avoid them
 WARNING: aliasing errors must be expected set NGY to  74 to avoid them
 WARNING: aliasing errors must be expected set NGZ to 158 to avoid them
 aliasing errors are usually negligible using standard VASP settings
 and one can safely disregard these warnings

 real space projection operators:
  total allocation   :      12803.06 KBytes
  max/ min on nodes  :       2145.66       2127.94


 parallel 3D FFT for wavefunctions:
    minimum data exchange during FFTs selected (reduces bandwidth)
 parallel 3D FFT for charge:
    minimum data exchange during FFTs selected (reduces bandwidth)


 total amount of memory used by VASP on root node    84353. kBytes
========================================================================

   base      :      30000. kBytes
   nonlr-proj:       4285. kBytes
   fftplans  :       4447. kBytes
   grid      :       6721. kBytes
   one-center:        124. kBytes
   wavefun   :      38776. kBytes
 
     INWAV:  cpu time    0.0000: real time    0.0000
 Broyden mixing: mesh for mixing (old mesh)
   NGX = 35   NGY = 35   NGZ = 79
  (NGX  =108   NGY  =108   NGZ  =240)
  gives a total of  96775 points

 initial charge density was supplied:
 charge density of overlapping atoms calculated
 number of electron     504.0000000 magnetization 
 keeping initial charge density in first step


--------------------------------------------------------------------------------------------------------


 Maximum index for non-local projection operator          355
 Maximum index for augmentation-charges          437 (set IRDMAX)


--------------------------------------------------------------------------------------------------------


 First call to EWALD:  gamma=   0.129
 Maximum number of real-space cells 4x 4x 2
 Maximum number of reciprocal cells 2x 2x 5

 FEWALD executed in parallel
    FEWALD:  cpu time    0.0021: real time    0.0023


----------------------------------------- Iteration    1(   1)  ---------------------------------------


    POTLOK:  cpu time    0.0455: real time    0.0458
    SETDIJ:  cpu time    0.0057: real time    0.0057
     EDDAV:  cpu time    7.1442: real time    7.1632
       DOS:  cpu time    0.0013: real time    0.0013
    --------------------------------------------
      LOOP:  cpu time    7.1996: real time    7.2232

 eigenvalue-minimisations  :  3672
 total energy-change (2. order) : 0.3201471E+04  (-0.1898344E+05)
 number of electron     504.0000000 magnetization 
 augmentation part      504.0000000 magnetization 

 DIPCOR: dipole corrections for dipol
 direction  3 min pos     1,
 dipolmoment           0.000000      0.000000     -0.000001 electrons x Angstroem
 Tr[quadrupol]    -10320.196405

 energy correction for charged system         0.000000 eV
 dipol+quadrupol energy correction           -0.000000 eV
 added-field ion interaction          0.000000 eV  (added to PSCEN)


 Free energy of the ion-electron system (eV)
  ---------------------------------------------------
  alpha Z        PSCENC =       805.86936440
  Ewald energy   TEWEN  =    199928.57823034
  -Hartree energ DENC   =   -242341.87891544
  -exchange      EXHF   =         0.00000000
  -V(xc)+E(xc)   XCENC  =      -327.69261727
  PAW double counting   =     40340.05962942   -38292.62782345
  entropy T*S    EENTRO =        -0.12965396
  eigenvalues    EBANDS =      1429.50692190
  atomic energy  EATOM  =     41659.78587232
  Solvation  Ediel_sol  =         0.00000000
  ---------------------------------------------------
  free energy    TOTEN  =      3201.47100827 eV

  energy without entropy =     3201.60066223  energy(sigma->0) =     3201.53583525


--------------------------------------------------------------------------------------------------------




----------------------------------------- Iteration    1(   2)  ---------------------------------------


     EDDAV:  cpu time    8.5647: real time    8.6567
       DOS:  cpu time    0.0014: real time    0.0014
    --------------------------------------------
      LOOP:  cpu time    8.5669: real time    8.6612

 eigenvalue-minimisations  :  4380
 total energy-change (2. order) :-0.3187694E+04  (-0.2932081E+04)
 number of electron     504.0000000 magnetization 
 augmentation part      504.0000000 magnetization 

 DIPCOR: dipole corrections for dipol
 direction  3 min pos     1,
 dipolmoment           0.000000      0.000000     -0.000001 electrons x Angstroem
 Tr[quadrupol]    -10320.196405

 energy correction for charged system         0.000000 eV
 dipol+quadrupol energy correction           -0.000000 eV
 added-field ion interaction          0.000000 eV  (added to PSCEN)


 Free energy of the ion-electron system (eV)
  ---------------------------------------------------
  alpha Z        PSCENC =       805.86936440
  Ewald energy   TEWEN  =    199928.57823034
  -Hartree energ DENC   =   -242341.87891544
  -exchange      EXHF   =         0.00000000
  -V(xc)+E(xc)   XCENC  =      -327.69261727
  PAW double counting   =     40340.05962942   -38292.62782345
  entropy T*S    EENTRO =        -0.12044853
  eigenvalues    EBANDS =     -1758.19656656
  atomic energy  EATOM  =     41659.78587232
  Solvation  Ediel_sol  =         0.00000000
  ---------------------------------------------------
  free energy    TOTEN  =        13.77672523 eV

  energy without entropy =       13.89717377  energy(sigma->0) =       13.83694950


--------------------------------------------------------------------------------------------------------




----------------------------------------- Iteration    1(   3)  ---------------------------------------


     EDDAV:  cpu time    8.1969: real time    8.2554
       DOS:  cpu time    0.0015: real time    0.0015
    --------------------------------------------
      LOOP:  cpu time    8.1992: real time    8.2593

 eigenvalue-minimisations  :  4140
 total energy-change (2. order) :-0.2150273E+03  (-0.2001731E+03)
 number of electron     504.0000000 magnetization 
 augmentation part      504.0000000 magnetization 

 DIPCOR: dipole corrections for dipol
 direction  3 min pos     1,
 dipolmoment           0.000000      0.000000     -0.000001 electrons x Angstroem
 Tr[quadrupol]    -10320.196405

 energy correction for charged system         0.000000 eV
 dipol+quadrupol energy correction           -0.000000 eV
 added-field ion interaction          0.000000 eV  (added to PSCEN)


 Free energy of the ion-electron system (eV)
  ---------------------------------------------------
  alpha Z        PSCENC =       805.86936440
  Ewald energy   TEWEN  =    199928.57823034
  -Hartree energ DENC   =   -242341.87891544
  -exchange      EXHF   =         0.00000000
  -V(xc)+E(xc)   XCENC  =      -327.69261727
  PAW double counting   =     40340.05962942   -38292.62782345
  entropy T*S    EENTRO =        -0.18642657
  eigenvalues    EBANDS =     -1973.15788737
  atomic energy  EATOM  =     41659.78587232
  Solvation  Ediel_sol  =         0.00000000
  ---------------------------------------------------
  free energy    TOTEN  =      -201.25057361 eV

  energy without entropy =     -201.06414704  energy(sigma->0) =     -201.15736033


--------------------------------------------------------------------------------------------------------




----------------------------------------- Iteration    1(   4)  ---------------------------------------


     EDDAV:  cpu time    8.3763: real time    8.3996
       DOS:  cpu time    0.0015: real time    0.0015
    --------------------------------------------
      LOOP:  cpu time    8.3784: real time    8.4049

 eigenvalue-minimisations  :  4236
 total energy-change (2. order) :-0.5736166E+01  (-0.5672481E+01)
 number of electron     504.0000000 magnetization 
 augmentation part      504.0000000 magnetization 

 DIPCOR: dipole corrections for dipol
 direction  3 min pos     1,
 dipolmoment           0.000000      0.000000     -0.000001 electrons x Angstroem
 Tr[quadrupol]    -10320.196405

 energy correction for charged system         0.000000 eV
 dipol+quadrupol energy correction           -0.000000 eV
 added-field ion interaction          0.000000 eV  (added to PSCEN)


 Free energy of the ion-electron system (eV)
  ---------------------------------------------------
  alpha Z        PSCENC =       805.86936440
  Ewald energy   TEWEN  =    199928.57823034
  -Hartree energ DENC   =   -242341.87891544
  -exchange      EXHF   =         0.00000000
  -V(xc)+E(xc)   XCENC  =      -327.69261727
  PAW double counting   =     40340.05962942   -38292.62782345
  entropy T*S    EENTRO =        -0.19640437
  eigenvalues    EBANDS =     -1978.88407507
  atomic energy  EATOM  =     41659.78587232
  Solvation  Ediel_sol  =         0.00000000
  ---------------------------------------------------
  free energy    TOTEN  =      -206.98673911 eV

  energy without entropy =     -206.79033475  energy(sigma->0) =     -206.88853693


--------------------------------------------------------------------------------------------------------




----------------------------------------- Iteration    1(   5)  ---------------------------------------


     EDDAV:  cpu time    8.6540: real time    8.6814
       DOS:  cpu time    0.0015: real time    0.0015
    CHARGE:  cpu time    0.2187: real time    0.2198
    MIXING:  cpu time    0.0020: real time    0.0021
    --------------------------------------------
      LOOP:  cpu time    8.8769: real time    8.9087

 eigenvalue-minimisations  :  4428
 total energy-change (2. order) :-0.1872092E+00  (-0.1865265E+00)
 number of electron     503.9998404 magnetization 
 augmentation part      191.2489088 magnetization 

 DIPCOR: dipole corrections for dipol
 direction  3 min pos     1,
 dipolmoment           0.000000      0.000000     -0.000001 electrons x Angstroem
 Tr[quadrupol]    -10320.196405

 energy correction for charged system         0.000000 eV
 dipol+quadrupol energy correction           -0.000000 eV
 added-field ion interaction          0.000000 eV  (added to PSCEN)


 Broyden mixing:
  rms(total) = 0.62196E+01    rms(broyden)= 0.62196E+01
  rms(prec ) = 0.63475E+01
  weight for this iteration     100.00

 Free energy of the ion-electron system (eV)
  ---------------------------------------------------
  alpha Z        PSCENC =       805.86936440
  Ewald energy   TEWEN  =    199928.57823034
  -Hartree energ DENC   =   -242341.87891544
  -exchange      EXHF   =         0.00000000
  -V(xc)+E(xc)   XCENC  =      -327.69261727
  PAW double counting   =     40340.05962942   -38292.62782345
  entropy T*S    EENTRO =        -0.19661419
  eigenvalues    EBANDS =     -1979.07107440
  atomic energy  EATOM  =     41659.78587232
  Solvation  Ediel_sol  =         0.00000000
  ---------------------------------------------------
  free energy    TOTEN  =      -207.17394827 eV

  energy without entropy =     -206.97733407  energy(sigma->0) =     -207.07564117


--------------------------------------------------------------------------------------------------------




----------------------------------------- Iteration    1(   6)  ---------------------------------------


    POTLOK:  cpu time    0.0411: real time    0.0412
    SETDIJ:  cpu time    0.0055: real time    0.0056
    EDDIAG:  cpu time    1.2857: real time    1.2996
  RMM-DIIS:  cpu time    3.4256: real time    3.4345
    ORTHCH:  cpu time    0.3552: real time    0.3560
       DOS:  cpu time    0.0014: real time    0.0014
    CHARGE:  cpu time    0.2193: real time    0.2198
    MIXING:  cpu time    0.0020: real time    0.0020
    --------------------------------------------
      LOOP:  cpu time    5.3364: real time    5.3629

 eigenvalue-minimisations  :  3678
 total energy-change (2. order) : 0.6517912E+01  (-0.9626846E+01)
 number of electron     503.9998419 magnetization 
 augmentation part      191.7564331 magnetization 

 DIPCOR: dipole corrections for dipol
 direction  3 min pos     1,
 dipolmoment           0.000000      0.000000     -0.344002 electrons x Angstroem
 Tr[quadrupol]    -10322.279828

 energy correction for charged system         0.000000 eV
 dipol+quadrupol energy correction           -0.004170 eV
 added-field ion interaction          0.054448 eV  (added to PSCEN)


 Broyden mixing:
  rms(total) = 0.53933E+01    rms(broyden)= 0.53932E+01
  rms(prec ) = 0.55770E+01
  weight for this iteration     100.00

 eigenvalues of (default mixing * dielectric matrix)
  average eigenvalue GAMMA=   0.7517
  0.7517

 Free energy of the ion-electron system (eV)
  ---------------------------------------------------
  alpha Z        PSCENC =       805.91964245
  Ewald energy   TEWEN  =    199928.57823034
  -Hartree energ DENC   =   -242114.71447115
  -exchange      EXHF   =         0.00000000
  -V(xc)+E(xc)   XCENC  =      -340.41952314
  PAW double counting   =     43906.98265239   -41919.01655019
  entropy T*S    EENTRO =        -0.27419130
  eigenvalues    EBANDS =     -2127.49769753
  atomic energy  EATOM  =     41659.78587232
  Solvation  Ediel_sol  =         0.00000000
  ---------------------------------------------------
  free energy    TOTEN  =      -200.65603580 eV

  energy without entropy =     -200.38184450  energy(sigma->0) =     -200.51894015


--------------------------------------------------------------------------------------------------------




----------------------------------------- Iteration    1(   7)  ---------------------------------------


    POTLOK:  cpu time    0.0409: real time    0.0418
    SETDIJ:  cpu time    0.0052: real time    0.0052
    EDDIAG:  cpu time    1.2888: real time    1.2948
  RMM-DIIS:  cpu time    3.4021: real time    3.4103
    ORTHCH:  cpu time    0.3523: real time    0.3532
       DOS:  cpu time    0.0014: real time    0.0014
    CHARGE:  cpu time    0.2159: real time    0.2165
    MIXING:  cpu time    0.0020: real time    0.0020
    --------------------------------------------
      LOOP:  cpu time    5.3092: real time    5.3289

 eigenvalue-minimisations  :  3684
 total energy-change (2. order) :-0.2017068E+00  (-0.5470957E+01)
 number of electron     503.9998364 magnetization 
 augmentation part      197.0738478 magnetization 

 DIPCOR: dipole corrections for dipol
 direction  3 min pos     1,
 dipolmoment           0.000000      0.000000      0.359998 electrons x Angstroem
 Tr[quadrupol]    -10319.690015

 energy correction for charged system         0.000000 eV
 dipol+quadrupol energy correction           -0.004567 eV
 added-field ion interaction         -0.056980 eV  (added to PSCEN)


 Broyden mixing:
  rms(total) = 0.38036E+01    rms(broyden)= 0.38034E+01
  rms(prec ) = 0.40820E+01
  weight for this iteration     100.00

 eigenvalues of (default mixing * dielectric matrix)
  average eigenvalue GAMMA=   1.0710
  1.7347  0.4072

 Free energy of the ion-electron system (eV)
  ---------------------------------------------------
  alpha Z        PSCENC =       805.80781771
  Ewald energy   TEWEN  =    199928.57823034
  -Hartree energ DENC   =   -241920.46699618
  -exchange      EXHF   =         0.00000000
  -V(xc)+E(xc)   XCENC  =      -342.56103466
  PAW double counting   =     45382.54707757   -43421.00477605
  entropy T*S    EENTRO =        -0.18676758
  eigenvalues    EBANDS =     -2293.35716605
  atomic energy  EATOM  =     41659.78587232
  Solvation  Ediel_sol  =         0.00000000
  ---------------------------------------------------
  free energy    TOTEN  =      -200.85774259 eV

  energy without entropy =     -200.67097500  energy(sigma->0) =     -200.76435879


--------------------------------------------------------------------------------------------------------




----------------------------------------- Iteration    1(   8)  ---------------------------------------


    POTLOK:  cpu time    0.0404: real time    0.0411
    SETDIJ:  cpu time    0.0054: real time    0.0054
    EDDIAG:  cpu time    1.2736: real time    1.3196
  RMM-DIIS:  cpu time    3.4163: real time    3.4620
    ORTHCH:  cpu time    0.3515: real time    0.3523
       DOS:  cpu time    0.0014: real time    0.0014
    CHARGE:  cpu time    0.2196: real time    0.2202
    MIXING:  cpu time    0.0020: real time    0.0020
    --------------------------------------------
      LOOP:  cpu time    5.3110: real time    5.4075

 eigenvalue-minimisations  :  3678
 total energy-change (2. order) :-0.1037284E+02  (-0.6487685E+01)
 number of electron     503.9998360 magnetization 
 augmentation part      196.9394988 magnetization 

 DIPCOR: dipole corrections for dipol
 direction  3 min pos     1,
 dipolmoment           0.000000      0.000000     -1.317957 electrons x Angstroem
 Tr[quadrupol]    -10322.732946

 energy correction for charged system         0.000000 eV
 dipol+quadrupol energy correction           -0.061208 eV
 added-field ion interaction          0.208604 eV  (added to PSCEN)


 Broyden mixing:
  rms(total) = 0.34277E+01    rms(broyden)= 0.34274E+01
  rms(prec ) = 0.40500E+01
  weight for this iteration     100.00

 eigenvalues of (default mixing * dielectric matrix)
  average eigenvalue GAMMA=   0.9913
  2.1699  0.4532  0.3508

 Free energy of the ion-electron system (eV)
  ---------------------------------------------------
  alpha Z        PSCENC =       806.01676092
  Ewald energy   TEWEN  =    199928.57823034
  -Hartree energ DENC   =   -241962.45491235
  -exchange      EXHF   =         0.00000000
  -V(xc)+E(xc)   XCENC  =      -344.75255028
  PAW double counting   =     47724.07579854   -45793.27959913
  entropy T*S    EENTRO =        -0.25122108
  eigenvalues    EBANDS =     -2228.94895922
  atomic energy  EATOM  =     41659.78587232
  Solvation  Ediel_sol  =         0.00000000
  ---------------------------------------------------
  free energy    TOTEN  =      -211.23057994 eV

  energy without entropy =     -210.97935886  energy(sigma->0) =     -211.10496940


--------------------------------------------------------------------------------------------------------




----------------------------------------- Iteration    1(   9)  ---------------------------------------


    POTLOK:  cpu time    0.0402: real time    0.0411
    SETDIJ:  cpu time    0.0060: real time    0.0061
    EDDIAG:  cpu time    1.2776: real time    1.2818
  RMM-DIIS:  cpu time    3.4579: real time    3.4680
    ORTHCH:  cpu time    0.3514: real time    0.3522
       DOS:  cpu time    0.0014: real time    0.0014
    CHARGE:  cpu time    0.2215: real time    0.2221
    MIXING:  cpu time    0.0021: real time    0.0021
    --------------------------------------------
      LOOP:  cpu time    5.3588: real time    5.3779

 eigenvalue-minimisations  :  3678
 total energy-change (2. order) : 0.8098769E+01  (-0.2915856E+01)
 number of electron     503.9998349 magnetization 
 augmentation part      197.6392312 magnetization 

 DIPCOR: dipole corrections for dipol
 direction  3 min pos     1,
 dipolmoment           0.000000      0.000000      1.006777 electrons x Angstroem
 Tr[quadrupol]    -10323.551194

 energy correction for charged system         0.000000 eV
 dipol+quadrupol energy correction           -0.035717 eV
 added-field ion interaction         -0.159351 eV  (added to PSCEN)


 Broyden mixing:
  rms(total) = 0.26904E+01    rms(broyden)= 0.26900E+01
  rms(prec ) = 0.31944E+01
  weight for this iteration     100.00

 eigenvalues of (default mixing * dielectric matrix)
  average eigenvalue GAMMA=   0.8569
  2.2612  0.4797  0.3433  0.3433

 Free energy of the ion-electron system (eV)
  ---------------------------------------------------
  alpha Z        PSCENC =       805.67429665
  Ewald energy   TEWEN  =    199928.57823034
  -Hartree energ DENC   =   -241974.81781407
  -exchange      EXHF   =         0.00000000
  -V(xc)+E(xc)   XCENC  =      -345.67535113
  PAW double counting   =     48810.04622772   -46893.62594646
  entropy T*S    EENTRO =        -0.22234351
  eigenvalues    EBANDS =     -2192.87498277
  atomic energy  EATOM  =     41659.78587232
  Solvation  Ediel_sol  =         0.00000000
  ---------------------------------------------------
  free energy    TOTEN  =      -203.13181092 eV

  energy without entropy =     -202.90946740  energy(sigma->0) =     -203.02063916


--------------------------------------------------------------------------------------------------------




----------------------------------------- Iteration    1(  10)  ---------------------------------------


    POTLOK:  cpu time    0.0401: real time    0.0404
    SETDIJ:  cpu time    0.0059: real time    0.0060
    EDDIAG:  cpu time    1.2743: real time    1.2784
  RMM-DIIS:  cpu time    3.4752: real time    3.4844
    ORTHCH:  cpu time    0.3520: real time    0.3529
       DOS:  cpu time    0.0014: real time    0.0014
    CHARGE:  cpu time    0.2165: real time    0.2170
    MIXING:  cpu time    0.0021: real time    0.0021
    --------------------------------------------
      LOOP:  cpu time    5.3682: real time    5.3851

 eigenvalue-minimisations  :  3678
 total energy-change (2. order) : 0.1042468E+02  (-0.1468511E+01)
 number of electron     503.9998344 magnetization 
 augmentation part      198.5380776 magnetization 

 DIPCOR: dipole corrections for dipol
 direction  3 min pos     1,
 dipolmoment           0.000000      0.000000     -0.306224 electrons x Angstroem
 Tr[quadrupol]    -10322.914793

 energy correction for charged system         0.000000 eV
 dipol+quadrupol energy correction           -0.003304 eV
 added-field ion interaction          0.048469 eV  (added to PSCEN)


 Broyden mixing:
  rms(total) = 0.13193E+01    rms(broyden)= 0.13189E+01
  rms(prec ) = 0.15286E+01
  weight for this iteration     100.00

 eigenvalues of (default mixing * dielectric matrix)
  average eigenvalue GAMMA=   0.7987
  2.2518  0.5560  0.5560  0.3861  0.2435

 Free energy of the ion-electron system (eV)
  ---------------------------------------------------
  alpha Z        PSCENC =       805.91452871
  Ewald energy   TEWEN  =    199928.57823034
  -Hartree energ DENC   =   -241963.07359920
  -exchange      EXHF   =         0.00000000
  -V(xc)+E(xc)   XCENC  =      -345.50351120
  PAW double counting   =     49104.82079769   -47191.23057990
  entropy T*S    EENTRO =        -0.22695258
  eigenvalues    EBANDS =     -2191.77191396
  atomic energy  EATOM  =     41659.78587232
  Solvation  Ediel_sol  =         0.00000000
  ---------------------------------------------------
  free energy    TOTEN  =      -192.70712778 eV

  energy without entropy =     -192.48017521  energy(sigma->0) =     -192.59365150


--------------------------------------------------------------------------------------------------------




----------------------------------------- Iteration    1(  11)  ---------------------------------------


    POTLOK:  cpu time    0.0398: real time    0.0399
    SETDIJ:  cpu time    0.0049: real time    0.0051
    EDDIAG:  cpu time    1.2766: real time    1.2806
  RMM-DIIS:  cpu time    3.4576: real time    3.4698
    ORTHCH:  cpu time    0.3511: real time    0.3519
       DOS:  cpu time    0.0014: real time    0.0014
    CHARGE:  cpu time    0.2166: real time    0.2172
    MIXING:  cpu time    0.0023: real time    0.0023
    --------------------------------------------
      LOOP:  cpu time    5.3511: real time    5.3711

 eigenvalue-minimisations  :  3678
 total energy-change (2. order) : 0.2704251E+01  (-0.5977028E+00)
 number of electron     503.9998355 magnetization 
 augmentation part      197.7846265 magnetization 

 DIPCOR: dipole corrections for dipol
 direction  3 min pos     1,
 dipolmoment           0.000000      0.000000     -0.094375 electrons x Angstroem
 Tr[quadrupol]    -10322.995878

 energy correction for charged system         0.000000 eV
 dipol+quadrupol energy correction           -0.000314 eV
 added-field ion interaction          0.014938 eV  (added to PSCEN)


 Broyden mixing:
  rms(total) = 0.84773E+00    rms(broyden)= 0.84757E+00
  rms(prec ) = 0.94236E+00
  weight for this iteration     100.00

 eigenvalues of (default mixing * dielectric matrix)
  average eigenvalue GAMMA=   0.7460
  2.2593  0.6043  0.5100  0.5100  0.3147  0.2777

 Free energy of the ion-electron system (eV)
  ---------------------------------------------------
  alpha Z        PSCENC =       805.88398796
  Ewald energy   TEWEN  =    199928.57823034
  -Hartree energ DENC   =   -241990.96779103
  -exchange      EXHF   =         0.00000000
  -V(xc)+E(xc)   XCENC  =      -344.78031423
  PAW double counting   =     49190.35269821   -47274.39087320
  entropy T*S    EENTRO =        -0.22813660
  eigenvalues    EBANDS =     -2164.23655018
  atomic energy  EATOM  =     41659.78587232
  Solvation  Ediel_sol  =         0.00000000
  ---------------------------------------------------
  free energy    TOTEN  =      -190.00287640 eV

  energy without entropy =     -189.77473980  energy(sigma->0) =     -189.88880810


--------------------------------------------------------------------------------------------------------




----------------------------------------- Iteration    1(  12)  ---------------------------------------


    POTLOK:  cpu time    0.0396: real time    0.0397
    SETDIJ:  cpu time    0.0052: real time    0.0052
    EDDIAG:  cpu time    1.2808: real time    1.2874
  RMM-DIIS:  cpu time    3.4067: real time    3.4149
    ORTHCH:  cpu time    0.3511: real time    0.3520
       DOS:  cpu time    0.0014: real time    0.0014
    CHARGE:  cpu time    0.2168: real time    0.2173
    MIXING:  cpu time    0.0025: real time    0.0025
    --------------------------------------------
      LOOP:  cpu time    5.3046: real time    5.3226

 eigenvalue-minimisations  :  3679
 total energy-change (2. order) : 0.6748365E+00  (-0.2047999E+00)
 number of electron     503.9998358 magnetization 
 augmentation part      197.3064593 magnetization 

 DIPCOR: dipole corrections for dipol
 direction  3 min pos     1,
 dipolmoment           0.000000      0.000000     -0.050421 electrons x Angstroem
 Tr[quadrupol]    -10323.511018

 energy correction for charged system         0.000000 eV
 dipol+quadrupol energy correction           -0.000090 eV
 added-field ion interaction          0.007981 eV  (added to PSCEN)


 Broyden mixing:
  rms(total) = 0.63943E+00    rms(broyden)= 0.63929E+00
  rms(prec ) = 0.70483E+00
  weight for this iteration     100.00

 eigenvalues of (default mixing * dielectric matrix)
  average eigenvalue GAMMA=   0.7356
  2.2616  0.8140  0.6016  0.6016  0.3096  0.2803  0.2803

 Free energy of the ion-electron system (eV)
  ---------------------------------------------------
  alpha Z        PSCENC =       805.87725522
  Ewald energy   TEWEN  =    199928.57823034
  -Hartree energ DENC   =   -242023.01099519
  -exchange      EXHF   =         0.00000000
  -V(xc)+E(xc)   XCENC  =      -344.39512996
  PAW double counting   =     49246.75358726   -47329.26438688
  entropy T*S    EENTRO =        -0.26186281
  eigenvalues    EBANDS =     -2133.39061026
  atomic energy  EATOM  =     41659.78587232
  Solvation  Ediel_sol  =         0.00000000
  ---------------------------------------------------
  free energy    TOTEN  =      -189.32803995 eV

  energy without entropy =     -189.06617714  energy(sigma->0) =     -189.19710855


--------------------------------------------------------------------------------------------------------




----------------------------------------- Iteration    1(  13)  ---------------------------------------


    POTLOK:  cpu time    0.0421: real time    0.0422
    SETDIJ:  cpu time    0.0049: real time    0.0053
    EDDIAG:  cpu time    1.2769: real time    1.2809
  RMM-DIIS:  cpu time    3.4098: real time    3.4223
    ORTHCH:  cpu time    0.3502: real time    0.3510
       DOS:  cpu time    0.0014: real time    0.0014
    CHARGE:  cpu time    0.2196: real time    0.2202
    MIXING:  cpu time    0.0027: real time    0.0027
    --------------------------------------------
      LOOP:  cpu time    5.3082: real time    5.3300

 eigenvalue-minimisations  :  3678
 total energy-change (2. order) :-0.5734677E-01  (-0.6734045E-01)
 number of electron     503.9998360 magnetization 
 augmentation part      197.1717380 magnetization 

 DIPCOR: dipole corrections for dipol
 direction  3 min pos     1,
 dipolmoment           0.000000      0.000000     -0.047589 electrons x Angstroem
 Tr[quadrupol]    -10323.756275

 energy correction for charged system         0.000000 eV
 dipol+quadrupol energy correction           -0.000080 eV
 added-field ion interaction          0.007532 eV  (added to PSCEN)


 Broyden mixing:
  rms(total) = 0.62071E+00    rms(broyden)= 0.62057E+00
  rms(prec ) = 0.69950E+00
  weight for this iteration     100.00

 eigenvalues of (default mixing * dielectric matrix)
  average eigenvalue GAMMA=   0.7127
  2.2497  0.8734  0.7181  0.7181  0.3343  0.3343  0.2669  0.2073

 Free energy of the ion-electron system (eV)
  ---------------------------------------------------
  alpha Z        PSCENC =       805.87681683
  Ewald energy   TEWEN  =    199928.57823034
  -Hartree energ DENC   =   -242036.92306681
  -exchange      EXHF   =         0.00000000
  -V(xc)+E(xc)   XCENC  =      -344.23145330
  PAW double counting   =     49273.94489686   -47355.72808576
  entropy T*S    EENTRO =        -0.23317668
  eigenvalues    EBANDS =     -2120.45542053
  atomic energy  EATOM  =     41659.78587232
  Solvation  Ediel_sol  =         0.00000000
  ---------------------------------------------------
  free energy    TOTEN  =      -189.38538672 eV

  energy without entropy =     -189.15221004  energy(sigma->0) =     -189.26879838


--------------------------------------------------------------------------------------------------------




----------------------------------------- Iteration    1(  14)  ---------------------------------------


    POTLOK:  cpu time    0.0402: real time    0.0403
    SETDIJ:  cpu time    0.0053: real time    0.0053
    EDDIAG:  cpu time    1.2730: real time    1.2761
  RMM-DIIS:  cpu time    3.3977: real time    3.4061
    ORTHCH:  cpu time    0.3477: real time    0.3485
       DOS:  cpu time    0.0014: real time    0.0014
    CHARGE:  cpu time    0.2174: real time    0.2179
    MIXING:  cpu time    0.0029: real time    0.0029
    --------------------------------------------
      LOOP:  cpu time    5.2863: real time    5.3020

 eigenvalue-minimisations  :  3678
 total energy-change (2. order) : 0.2302443E+00  (-0.2805843E-01)
 number of electron     503.9998360 magnetization 
 augmentation part      197.1775452 magnetization 

 DIPCOR: dipole corrections for dipol
 direction  3 min pos     1,
 dipolmoment           0.000000      0.000000      0.024281 electrons x Angstroem
 Tr[quadrupol]    -10323.893796

 energy correction for charged system         0.000000 eV
 dipol+quadrupol energy correction           -0.000021 eV
 added-field ion interaction         -0.003843 eV  (added to PSCEN)


 Broyden mixing:
  rms(total) = 0.40485E+00    rms(broyden)= 0.40477E+00
  rms(prec ) = 0.44076E+00
  weight for this iteration     100.00

 eigenvalues of (default mixing * dielectric matrix)
  average eigenvalue GAMMA=   0.7258
  2.2315  0.9863  0.9863  0.7392  0.4219  0.4219  0.2906  0.2634  0.1914

 Free energy of the ion-electron system (eV)
  ---------------------------------------------------
  alpha Z        PSCENC =       805.86550041
  Ewald energy   TEWEN  =    199928.57823034
  -Hartree energ DENC   =   -242044.84395137
  -exchange      EXHF   =         0.00000000
  -V(xc)+E(xc)   XCENC  =      -344.10312986
  PAW double counting   =     49282.73567790   -47363.84247584
  entropy T*S    EENTRO =        -0.26096209
  eigenvalues    EBANDS =     -2113.06990421
  atomic energy  EATOM  =     41659.78587232
  Solvation  Ediel_sol  =         0.00000000
  ---------------------------------------------------
  free energy    TOTEN  =      -189.15514241 eV

  energy without entropy =     -188.89418033  energy(sigma->0) =     -189.02466137


--------------------------------------------------------------------------------------------------------




----------------------------------------- Iteration    1(  15)  ---------------------------------------


    POTLOK:  cpu time    0.0401: real time    0.0402
    SETDIJ:  cpu time    0.0052: real time    0.0052
    EDDIAG:  cpu time    1.2713: real time    1.2744
  RMM-DIIS:  cpu time    3.3928: real time    3.4861
    ORTHCH:  cpu time    0.3454: real time    0.3462
       DOS:  cpu time    0.0015: real time    0.0015
    CHARGE:  cpu time    0.2159: real time    0.2165
    MIXING:  cpu time    0.0029: real time    0.0029
    --------------------------------------------
      LOOP:  cpu time    5.2757: real time    5.3759

 eigenvalue-minimisations  :  3678
 total energy-change (2. order) :-0.2201299E-01  (-0.2581984E-01)
 number of electron     503.9998360 magnetization 
 augmentation part      197.1634306 magnetization 

 DIPCOR: dipole corrections for dipol
 direction  3 min pos     1,
 dipolmoment           0.000000      0.000000     -0.007091 electrons x Angstroem
 Tr[quadrupol]    -10324.097671

 energy correction for charged system         0.000000 eV
 dipol+quadrupol energy correction           -0.000002 eV
 added-field ion interaction          0.001122 eV  (added to PSCEN)


 Broyden mixing:
  rms(total) = 0.37496E+00    rms(broyden)= 0.37489E+00
  rms(prec ) = 0.42067E+00
  weight for this iteration     100.00

 eigenvalues of (default mixing * dielectric matrix)
  average eigenvalue GAMMA=   0.7526
  2.1473  1.3965  1.3965  0.5857  0.5857  0.4286  0.2898  0.2898  0.2266  0.1795

 Free energy of the ion-electron system (eV)
  ---------------------------------------------------
  alpha Z        PSCENC =       805.87048483
  Ewald energy   TEWEN  =    199928.57823034
  -Hartree energ DENC   =   -242055.24795974
  -exchange      EXHF   =         0.00000000
  -V(xc)+E(xc)   XCENC  =      -343.97144938
  PAW double counting   =     49289.92248076   -47370.12174746
  entropy T*S    EENTRO =        -0.26844703
  eigenvalues    EBANDS =     -2103.72462003
  atomic energy  EATOM  =     41659.78587232
  Solvation  Ediel_sol  =         0.00000000
  ---------------------------------------------------
  free energy    TOTEN  =      -189.17715540 eV

  energy without entropy =     -188.90870837  energy(sigma->0) =     -189.04293189


--------------------------------------------------------------------------------------------------------




----------------------------------------- Iteration    1(  16)  ---------------------------------------


    POTLOK:  cpu time    0.0401: real time    0.0402
    SETDIJ:  cpu time    0.0052: real time    0.0052
    EDDIAG:  cpu time    1.2731: real time    1.2761
  RMM-DIIS:  cpu time    3.4491: real time    3.4575
    ORTHCH:  cpu time    0.3450: real time    0.3459
       DOS:  cpu time    0.0015: real time    0.0015
    CHARGE:  cpu time    0.2153: real time    0.2158
    MIXING:  cpu time    0.0029: real time    0.0030
    --------------------------------------------
      LOOP:  cpu time    5.3329: real time    5.3475

 eigenvalue-minimisations  :  3678
 total energy-change (2. order) : 0.9229143E-01  (-0.1142797E-01)
 number of electron     503.9998362 magnetization 
 augmentation part      197.1007175 magnetization 

 DIPCOR: dipole corrections for dipol
 direction  3 min pos     1,
 dipolmoment           0.000000      0.000000     -0.037186 electrons x Angstroem
 Tr[quadrupol]    -10324.379553

 energy correction for charged system         0.000000 eV
 dipol+quadrupol energy correction           -0.000049 eV
 added-field ion interaction          0.005886 eV  (added to PSCEN)


 Broyden mixing:
  rms(total) = 0.21775E+00    rms(broyden)= 0.21770E+00
  rms(prec ) = 0.25216E+00
  weight for this iteration     100.00

 eigenvalues of (default mixing * dielectric matrix)
  average eigenvalue GAMMA=   0.7469
  2.0413  1.6128  1.6128  0.6020  0.6020  0.4033  0.3294  0.3294  0.2497  0.2497
  0.1831

 Free energy of the ion-electron system (eV)
  ---------------------------------------------------
  alpha Z        PSCENC =       805.87520133
  Ewald energy   TEWEN  =    199928.57823034
  -Hartree energ DENC   =   -242070.46587731
  -exchange      EXHF   =         0.00000000
  -V(xc)+E(xc)   XCENC  =      -343.75539323
  PAW double counting   =     49298.55710592   -47377.37138844
  entropy T*S    EENTRO =        -0.25905592
  eigenvalues    EBANDS =     -2090.02955900
  atomic energy  EATOM  =     41659.78587232
  Solvation  Ediel_sol  =         0.00000000
  ---------------------------------------------------
  free energy    TOTEN  =      -189.08486398 eV

  energy without entropy =     -188.82580806  energy(sigma->0) =     -188.95533602


--------------------------------------------------------------------------------------------------------




----------------------------------------- Iteration    1(  17)  ---------------------------------------


    POTLOK:  cpu time    0.0401: real time    0.0402
    SETDIJ:  cpu time    0.0051: real time    0.0051
    EDDIAG:  cpu time    1.2698: real time    1.2728
  RMM-DIIS:  cpu time    3.4581: real time    3.4719
    ORTHCH:  cpu time    0.3451: real time    0.3459
       DOS:  cpu time    0.0014: real time    0.0014
    CHARGE:  cpu time    0.2183: real time    0.2189
    MIXING:  cpu time    0.0030: real time    0.0030
    --------------------------------------------
      LOOP:  cpu time    5.3416: real time    5.3620

 eigenvalue-minimisations  :  3678
 total energy-change (2. order) : 0.4182584E-01  (-0.6430590E-02)
 number of electron     503.9998362 magnetization 
 augmentation part      197.0756221 magnetization 

 DIPCOR: dipole corrections for dipol
 direction  3 min pos     1,
 dipolmoment           0.000000      0.000000     -0.029920 electrons x Angstroem
 Tr[quadrupol]    -10324.565753

 energy correction for charged system         0.000000 eV
 dipol+quadrupol energy correction           -0.000032 eV
 added-field ion interaction          0.004736 eV  (added to PSCEN)


 Broyden mixing:
  rms(total) = 0.13101E+00    rms(broyden)= 0.13098E+00
  rms(prec ) = 0.14953E+00
  weight for this iteration     100.00

 eigenvalues of (default mixing * dielectric matrix)
  average eigenvalue GAMMA=   0.7649
  2.0784  2.0784  1.4284  0.6254  0.6254  0.6264  0.3564  0.3564  0.3446  0.2486
  0.2298  0.1811

 Free energy of the ion-electron system (eV)
  ---------------------------------------------------
  alpha Z        PSCENC =       805.87406844
  Ewald energy   TEWEN  =    199928.57823034
  -Hartree energ DENC   =   -242078.53782435
  -exchange      EXHF   =         0.00000000
  -V(xc)+E(xc)   XCENC  =      -343.68724243
  PAW double counting   =     49307.99179020   -47386.34874508
  entropy T*S    EENTRO =        -0.26999557
  eigenvalues    EBANDS =     -2082.42919200
  atomic energy  EATOM  =     41659.78587232
  Solvation  Ediel_sol  =         0.00000000
  ---------------------------------------------------
  free energy    TOTEN  =      -189.04303814 eV

  energy without entropy =     -188.77304257  energy(sigma->0) =     -188.90804036


--------------------------------------------------------------------------------------------------------




----------------------------------------- Iteration    1(  18)  ---------------------------------------


    POTLOK:  cpu time    0.0400: real time    0.0401
    SETDIJ:  cpu time    0.0051: real time    0.0051
    EDDIAG:  cpu time    1.2696: real time    1.2727
  RMM-DIIS:  cpu time    3.4311: real time    3.4395
    ORTHCH:  cpu time    0.3449: real time    0.3459
       DOS:  cpu time    0.0014: real time    0.0014
    CHARGE:  cpu time    0.2233: real time    0.2255
    MIXING:  cpu time    0.0032: real time    0.0032
    --------------------------------------------
      LOOP:  cpu time    5.3193: real time    5.3361

 eigenvalue-minimisations  :  3679
 total energy-change (2. order) : 0.9800599E-02  (-0.2020107E-02)
 number of electron     503.9998361 magnetization 
 augmentation part      197.0927793 magnetization 

 DIPCOR: dipole corrections for dipol
 direction  3 min pos     1,
 dipolmoment           0.000000      0.000000     -0.020012 electrons x Angstroem
 Tr[quadrupol]    -10324.722608

 energy correction for charged system         0.000000 eV
 dipol+quadrupol energy correction           -0.000014 eV
 added-field ion interaction          0.003168 eV  (added to PSCEN)


 Broyden mixing:
  rms(total) = 0.82657E-01    rms(broyden)= 0.82635E-01
  rms(prec ) = 0.91827E-01
  weight for this iteration     100.00

 eigenvalues of (default mixing * dielectric matrix)
  average eigenvalue GAMMA=   0.7438
  2.1761  1.9959  1.4826  0.6660  0.6660  0.6113  0.4065  0.4065  0.3020  0.3020
  0.2367  0.2367  0.1817

 Free energy of the ion-electron system (eV)
  ---------------------------------------------------
  alpha Z        PSCENC =       805.87251770
  Ewald energy   TEWEN  =    199928.57823034
  -Hartree energ DENC   =   -242084.37939665
  -exchange      EXHF   =         0.00000000
  -V(xc)+E(xc)   XCENC  =      -343.66761819
  PAW double counting   =     49319.51385489   -47397.75724524
  entropy T*S    EENTRO =        -0.27032094
  eigenvalues    EBANDS =     -2076.70913177
  atomic energy  EATOM  =     41659.78587232
  Solvation  Ediel_sol  =         0.00000000
  ---------------------------------------------------
  free energy    TOTEN  =      -189.03323754 eV

  energy without entropy =     -188.76291660  energy(sigma->0) =     -188.89807707


--------------------------------------------------------------------------------------------------------




----------------------------------------- Iteration    1(  19)  ---------------------------------------


    POTLOK:  cpu time    0.0401: real time    0.0405
    SETDIJ:  cpu time    0.0053: real time    0.0061
    EDDIAG:  cpu time    1.2690: real time    1.2732
  RMM-DIIS:  cpu time    3.4351: real time    3.4434
    ORTHCH:  cpu time    0.3463: real time    0.3472
       DOS:  cpu time    0.0014: real time    0.0014
    CHARGE:  cpu time    0.2147: real time    0.2158
    MIXING:  cpu time    0.0034: real time    0.0034
    --------------------------------------------
      LOOP:  cpu time    5.3159: real time    5.3347

 eigenvalue-minimisations  :  3679
 total energy-change (2. order) : 0.3815295E-02  (-0.6940066E-03)
 number of electron     503.9998361 magnetization 
 augmentation part      197.0858316 magnetization 

 DIPCOR: dipole corrections for dipol
 direction  3 min pos     1,
 dipolmoment           0.000000      0.000000     -0.016878 electrons x Angstroem
 Tr[quadrupol]    -10324.793373

 energy correction for charged system         0.000000 eV
 dipol+quadrupol energy correction           -0.000010 eV
 added-field ion interaction          0.002671 eV  (added to PSCEN)


 Broyden mixing:
  rms(total) = 0.55615E-01    rms(broyden)= 0.55603E-01
  rms(prec ) = 0.62597E-01
  weight for this iteration     100.00

 eigenvalues of (default mixing * dielectric matrix)
  average eigenvalue GAMMA=   0.7580
  2.2252  2.2252  1.3315  0.8359  0.8359  0.5995  0.5995  0.4109  0.3237  0.3237
  0.1812  0.2474  0.2362  0.2362

 Free energy of the ion-electron system (eV)
  ---------------------------------------------------
  alpha Z        PSCENC =       805.87202569
  Ewald energy   TEWEN  =    199928.57823034
  -Hartree energ DENC   =   -242087.21684490
  -exchange      EXHF   =         0.00000000
  -V(xc)+E(xc)   XCENC  =      -343.65892396
  PAW double counting   =     49323.00848681   -47401.23444932
  entropy T*S    EENTRO =        -0.26890895
  eigenvalues    EBANDS =     -2073.89491028
  atomic energy  EATOM  =     41659.78587232
  Solvation  Ediel_sol  =         0.00000000
  ---------------------------------------------------
  free energy    TOTEN  =      -189.02942225 eV

  energy without entropy =     -188.76051330  energy(sigma->0) =     -188.89496777


--------------------------------------------------------------------------------------------------------




----------------------------------------- Iteration    1(  20)  ---------------------------------------


    POTLOK:  cpu time    0.0400: real time    0.0401
    SETDIJ:  cpu time    0.0047: real time    0.0052
    EDDIAG:  cpu time    1.2708: real time    1.2749
  RMM-DIIS:  cpu time    3.4580: real time    3.4670
    ORTHCH:  cpu time    0.3469: real time    0.3477
       DOS:  cpu time    0.0015: real time    0.0015
    CHARGE:  cpu time    0.2153: real time    0.2159
    MIXING:  cpu time    0.0036: real time    0.0036
    --------------------------------------------
      LOOP:  cpu time    5.3414: real time    5.3597

 eigenvalue-minimisations  :  3678
 total energy-change (2. order) : 0.2610863E-02  (-0.4116435E-03)
 number of electron     503.9998362 magnetization 
 augmentation part      197.0556270 magnetization 

 DIPCOR: dipole corrections for dipol
 direction  3 min pos     1,
 dipolmoment           0.000000      0.000000     -0.013668 electrons x Angstroem
 Tr[quadrupol]    -10324.893468

 energy correction for charged system         0.000000 eV
 dipol+quadrupol energy correction           -0.000007 eV
 added-field ion interaction          0.002163 eV  (added to PSCEN)


 Broyden mixing:
  rms(total) = 0.36186E-01    rms(broyden)= 0.36177E-01
  rms(prec ) = 0.40065E-01
  weight for this iteration     100.00

 eigenvalues of (default mixing * dielectric matrix)
  average eigenvalue GAMMA=   0.7529
  2.2556  2.2556  1.2740  1.0055  1.0055  0.6185  0.6185  0.4007  0.3323  0.3323
  0.3088  0.1812  0.2488  0.2283  0.2283

 Free energy of the ion-electron system (eV)
  ---------------------------------------------------
  alpha Z        PSCENC =       805.87152103
  Ewald energy   TEWEN  =    199928.57823034
  -Hartree energ DENC   =   -242092.06598383
  -exchange      EXHF   =         0.00000000
  -V(xc)+E(xc)   XCENC  =      -343.61975777
  PAW double counting   =     49325.35478857   -47403.43784107
  entropy T*S    EENTRO =        -0.26982019
  eigenvalues    EBANDS =     -2069.22382078
  atomic energy  EATOM  =     41659.78587232
  Solvation  Ediel_sol  =         0.00000000
  ---------------------------------------------------
  free energy    TOTEN  =      -189.02681138 eV

  energy without entropy =     -188.75699120  energy(sigma->0) =     -188.89190129


--------------------------------------------------------------------------------------------------------




----------------------------------------- Iteration    1(  21)  ---------------------------------------


    POTLOK:  cpu time    0.0420: real time    0.0435
    SETDIJ:  cpu time    0.0051: real time    0.0051
    EDDIAG:  cpu time    1.2697: real time    1.2745
  RMM-DIIS:  cpu time    3.4544: real time    3.4647
    ORTHCH:  cpu time    0.3442: real time    0.3457
       DOS:  cpu time    0.0014: real time    0.0015
    CHARGE:  cpu time    0.2181: real time    0.2186
    MIXING:  cpu time    0.0038: real time    0.0038
    --------------------------------------------
      LOOP:  cpu time    5.3394: real time    5.3612

 eigenvalue-minimisations  :  3678
 total energy-change (2. order) : 0.9845793E-03  (-0.1721825E-03)
 number of electron     503.9998362 magnetization 
 augmentation part      197.0440738 magnetization 

 DIPCOR: dipole corrections for dipol
 direction  3 min pos     1,
 dipolmoment           0.000000      0.000000     -0.015299 electrons x Angstroem
 Tr[quadrupol]    -10324.991574

 energy correction for charged system         0.000000 eV
 dipol+quadrupol energy correction           -0.000008 eV
 added-field ion interaction          0.002421 eV  (added to PSCEN)


 Broyden mixing:
  rms(total) = 0.21769E-01    rms(broyden)= 0.21765E-01
  rms(prec ) = 0.23932E-01
  weight for this iteration     100.00

 eigenvalues of (default mixing * dielectric matrix)
  average eigenvalue GAMMA=   0.7626
  2.3971  1.8491  1.8491  1.3158  0.7088  0.6120  0.6120  0.6261  0.3757  0.3757
  0.3061  0.3061  0.1812  0.2400  0.2295  0.2180

 Free energy of the ion-electron system (eV)
  ---------------------------------------------------
  alpha Z        PSCENC =       805.87177748
  Ewald energy   TEWEN  =    199928.57823034
  -Hartree energ DENC   =   -242096.03925887
  -exchange      EXHF   =         0.00000000
  -V(xc)+E(xc)   XCENC  =      -343.60420044
  PAW double counting   =     49327.66511765   -47405.73807299
  entropy T*S    EENTRO =        -0.26976257
  eigenvalues    EBANDS =     -2065.27552973
  atomic energy  EATOM  =     41659.78587232
  Solvation  Ediel_sol  =         0.00000000
  ---------------------------------------------------
  free energy    TOTEN  =      -189.02582680 eV

  energy without entropy =     -188.75606423  energy(sigma->0) =     -188.89094552


--------------------------------------------------------------------------------------------------------




----------------------------------------- Iteration    1(  22)  ---------------------------------------


    POTLOK:  cpu time    0.0407: real time    0.0409
    SETDIJ:  cpu time    0.0053: real time    0.0053
    EDDIAG:  cpu time    1.2696: real time    1.2737
  RMM-DIIS:  cpu time    3.4303: real time    3.4386
    ORTHCH:  cpu time    0.3447: real time    0.3456
       DOS:  cpu time    0.0015: real time    0.0015
    CHARGE:  cpu time    0.2160: real time    0.2165
    MIXING:  cpu time    0.0040: real time    0.0040
    --------------------------------------------
      LOOP:  cpu time    5.3128: real time    5.3301

 eigenvalue-minimisations  :  3682
 total energy-change (2. order) : 0.6418316E-04  (-0.6042437E-04)
 number of electron     503.9998362 magnetization 
 augmentation part      197.0464037 magnetization 

 DIPCOR: dipole corrections for dipol
 direction  3 min pos     1,
 dipolmoment           0.000000      0.000000     -0.017894 electrons x Angstroem
 Tr[quadrupol]    -10325.082535

 energy correction for charged system         0.000000 eV
 dipol+quadrupol energy correction           -0.000011 eV
 added-field ion interaction          0.002832 eV  (added to PSCEN)


 Broyden mixing:
  rms(total) = 0.15578E-01    rms(broyden)= 0.15576E-01
  rms(prec ) = 0.17841E-01
  weight for this iteration     100.00

 eigenvalues of (default mixing * dielectric matrix)
  average eigenvalue GAMMA=   0.7930
  2.3866  2.1615  2.1615  1.3503  0.7293  0.7293  0.6279  0.6279  0.4514  0.4514
  0.3280  0.3280  0.2730  0.1812  0.2441  0.2321  0.2167

 Free energy of the ion-electron system (eV)
  ---------------------------------------------------
  alpha Z        PSCENC =       805.87218520
  Ewald energy   TEWEN  =    199928.57823034
  -Hartree energ DENC   =   -242099.51057945
  -exchange      EXHF   =         0.00000000
  -V(xc)+E(xc)   XCENC  =      -343.59901193
  PAW double counting   =     49328.61908697   -47406.75654527
  entropy T*S    EENTRO =        -0.26970674
  eigenvalues    EBANDS =     -2061.74529405
  atomic energy  EATOM  =     41659.78587232
  Solvation  Ediel_sol  =         0.00000000
  ---------------------------------------------------
  free energy    TOTEN  =      -189.02576262 eV

  energy without entropy =     -188.75605588  energy(sigma->0) =     -188.89090925


--------------------------------------------------------------------------------------------------------




----------------------------------------- Iteration    1(  23)  ---------------------------------------


    POTLOK:  cpu time    0.0405: real time    0.0406
    SETDIJ:  cpu time    0.0055: real time    0.0055
    EDDIAG:  cpu time    1.2515: real time    1.3184
  RMM-DIIS:  cpu time    3.4742: real time    3.4944
    ORTHCH:  cpu time    0.3465: real time    0.3473
       DOS:  cpu time    0.0014: real time    0.0014
    CHARGE:  cpu time    0.2161: real time    0.2166
    MIXING:  cpu time    0.0039: real time    0.0039
    --------------------------------------------
      LOOP:  cpu time    5.3404: real time    5.4306

 eigenvalue-minimisations  :  3678
 total energy-change (2. order) :-0.1707523E-03  (-0.4809496E-04)
 number of electron     503.9998362 magnetization 
 augmentation part      197.0484415 magnetization 

 DIPCOR: dipole corrections for dipol
 direction  3 min pos     1,
 dipolmoment           0.000000      0.000000     -0.017706 electrons x Angstroem
 Tr[quadrupol]    -10325.157418

 energy correction for charged system         0.000000 eV
 dipol+quadrupol energy correction           -0.000011 eV
[...]
    275       1.7608      0.00000
    276       1.8373      0.00000
    277       2.1481      0.00000
    278       2.2125      0.00000
    279       2.3047      0.00000
    280       2.3605      0.00000
    281       2.5231      0.00000
    282       2.5867      0.00000
    283       2.7056      0.00000
    284       2.9706      0.00000
    285       3.1140      0.00000
    286       3.2289      0.00000
    287       3.5156      0.00000
    288       3.6143      0.00000
    289       3.7232      0.00000
    290       3.9988      0.00000
    291       4.1308      0.00000
    292       4.1952      0.00000
    293       4.4599      0.00000
    294       4.5437      0.00000
    295       4.6087      0.00000
    296       4.6291      0.00000
    297       4.6823      0.00000
    298       4.7663      0.00000
    299       4.8438      0.00000
    300       4.8900      0.00000
    301       4.9695      0.00000
    302       5.0435      0.00000
    303       5.0736      0.00000
    304       5.1029      0.00000
    305       5.2079      0.00000
    306       5.2519      0.00000


--------------------------------------------------------------------------------------------------------


 soft charge-density along one line, spin component           1
         0         1         2         3         4         5         6         7         8         9
 total charge-density along one line
 
 pseudopotential strength for first ion, spin component:           1
 -8.019  -0.005  -0.000  -0.004  -0.000  -8.167  -0.005  -0.000
 -0.005  -7.947  -0.000  -0.000  -0.001  -0.005  -8.095  -0.000
 -0.000  -0.000  -7.943   0.000   0.002  -0.000  -0.000  -8.092
 -0.004  -0.000   0.000  -7.950  -0.005  -0.004  -0.000   0.000
 -0.000  -0.001   0.002  -0.005  -8.022  -0.000  -0.001   0.002
 -8.167  -0.005  -0.000  -0.004  -0.000  -8.298  -0.005  -0.000
 -0.005  -8.095  -0.000  -0.000  -0.001  -0.005  -8.228  -0.000
 -0.000  -0.000  -8.092   0.000   0.002  -0.000  -0.000  -8.225
 -0.004  -0.000   0.000  -8.099  -0.005  -0.004  -0.000   0.000
 -0.000  -0.001   0.002  -0.005  -8.169  -0.000  -0.001   0.002
  0.000   0.001  -0.024   0.003   0.001   0.000   0.001  -0.024
  0.000   0.001  -0.034   0.004   0.001   0.000   0.001  -0.034
  0.006   0.007   0.000   0.000   0.000   0.006   0.007   0.000
  0.000  -0.000   0.010   0.005   0.000   0.000  -0.000   0.009
 -0.000   0.000  -0.003   0.007   0.005  -0.000   0.000  -0.003
  0.007   0.008   0.000   0.000   0.000   0.007   0.007   0.000
  0.000  -0.000   0.011   0.006  -0.000   0.000  -0.000   0.010
 -0.000   0.000  -0.004   0.008   0.006  -0.000   0.000  -0.004
 total augmentation occupancy for first ion, spin component:           1
  4.421  -0.014   0.010  -0.017  -0.023  -2.575  -0.020  -0.013  -0.034   0.017   0.000  -0.005  -0.060  -0.003   0.027   0.009
 -0.014   4.069   0.007   0.010  -0.002  -0.019  -1.823  -0.001  -0.011  -0.028  -0.032   0.008   0.154  -0.001  -0.002   0.000
  0.010   0.007   4.347   0.046   0.012  -0.013  -0.001  -2.254  -0.019  -0.003   0.980  -0.154   0.002   0.213   0.036   0.000
 -0.017   0.010   0.046   4.039  -0.025  -0.033  -0.011  -0.019  -1.802  -0.000  -0.101   0.018  -0.005   0.018   0.153  -0.000
 -0.023  -0.002   0.012  -0.025   4.318   0.017  -0.029  -0.003  -0.000  -2.505  -0.020   0.000   0.028   0.003   0.007  -0.001
 -2.575  -0.019  -0.013  -0.033   0.017   2.619   0.046   0.016   0.072  -0.012  -0.002   0.005   0.047   0.002  -0.024  -0.004
 -0.020  -1.823  -0.001  -0.011  -0.029   0.046   1.546  -0.005   0.012   0.053   0.028  -0.007  -0.147   0.002   0.002   0.005
 -0.013  -0.001  -2.254  -0.019  -0.003   0.016  -0.005   2.102  -0.001  -0.005  -0.913   0.169  -0.002  -0.227  -0.027   0.000
 -0.034  -0.011  -0.019  -1.802  -0.000   0.072   0.012  -0.001   1.532   0.019   0.090  -0.018   0.004  -0.017  -0.144   0.000
  0.017  -0.028  -0.003  -0.000  -2.505  -0.012   0.053  -0.005   0.019   2.574   0.016   0.001  -0.027  -0.001  -0.013   0.001
  0.000  -0.032   0.980  -0.101  -0.020  -0.002   0.028  -0.913   0.090   0.016   2.419  -0.497   0.002  -0.121   0.009  -0.000
 -0.005   0.008  -0.154   0.018   0.000   0.005  -0.007   0.169  -0.018   0.001  -0.497   0.141   0.000   0.048  -0.024   0.000
 -0.060   0.154   0.002  -0.005   0.028   0.047  -0.147  -0.002   0.004  -0.027   0.002   0.000   0.190   0.002  -0.001  -0.006
 -0.003  -0.001   0.213   0.018   0.003   0.002   0.002  -0.227  -0.017  -0.001  -0.121   0.048   0.002   0.094   0.005  -0.000
  0.027  -0.002   0.036   0.153   0.007  -0.024   0.002  -0.027  -0.144  -0.013   0.009  -0.024  -0.001   0.005   0.191   0.000
  0.009   0.000   0.000  -0.000  -0.001  -0.004   0.005   0.000   0.000   0.001  -0.000   0.000  -0.006  -0.000   0.000   0.000
 -0.000  -0.000   0.005   0.006  -0.000   0.000   0.000   0.004  -0.001  -0.000   0.008  -0.002  -0.000  -0.003  -0.000   0.000
 -0.001  -0.000  -0.005   0.000   0.006   0.001   0.000   0.002   0.005  -0.001  -0.001   0.001   0.000  -0.000  -0.006  -0.000


------------------------ aborting loop because EDIFF is reached ----------------------------------------


    CHARGE:  cpu time    0.2142: real time    0.2147
    FORLOC:  cpu time    0.0158: real time    0.0159
    FORNL :  cpu time    1.3205: real time    1.3237
    FORCOR:  cpu time    0.0556: real time    0.0558
    FORHAR:  cpu time    0.0240: real time    0.0241
    MIXING:  cpu time    0.0030: real time    0.0030
    OFIELD:  cpu time    0.0000: real time    0.0000

 VOLUME and BASIS-vectors are now :
 -----------------------------------------------------------------------------
  energy-cutoff  :      400.00
  volume of cell :     2567.68
      direct lattice vectors                 reciprocal lattice vectors
    11.002581515  0.000000000  0.000000000     0.090887761 -0.052474073  0.000000000
     5.501290758  9.528515099  0.000000000     0.000000000  0.104948147  0.000000000
     0.000000000  0.000000000 24.491785094     0.000000000  0.000000000  0.040830017

  length of vectors
    11.002581515 11.002581515 24.491785094     0.104948147  0.104948147  0.040830017


 FORCES acting on ions
    electron-ion (+dipol)            ewald-force                    non-local-force                 convergence-correction
 -----------------------------------------------------------------------------------------------
   0.193E+02 0.658E+01 -.222E+04   -.203E+02 -.651E+01 0.222E+04   0.102E+01 -.700E-01 0.626E+00   -.205E-02 -.659E-02 0.632E-02
   0.158E+00 -.237E+01 0.233E+04   -.153E+00 0.241E+01 -.233E+04   -.635E-02 -.450E-01 0.141E+00   -.274E-02 -.309E-02 0.985E-03
   -.439E+01 0.875E+01 -.224E+04   0.444E+01 -.899E+01 0.224E+04   -.528E-01 0.241E+00 0.115E+00   0.334E-02 0.238E-02 0.391E-02
   0.900E+01 -.645E+01 -.426E+01   -.828E+01 0.696E+01 0.433E+01   -.699E+00 -.505E+00 -.725E-01   -.825E-02 -.103E-02 0.454E-02
   0.672E+01 0.601E+01 -.222E+04   -.651E+01 -.619E+01 0.222E+04   -.217E+00 0.172E+00 0.285E+00   0.191E-02 -.421E-03 0.299E-02
   -.948E+01 -.359E+01 0.134E+01   0.850E+01 0.295E+01 -.190E+01   0.970E+00 0.647E+00 0.571E+00   0.611E-02 -.381E-03 0.319E-02
   0.638E+01 0.507E+01 0.226E+04   -.624E+01 -.527E+01 -.226E+04   -.135E+00 0.206E+00 0.130E+00   0.256E-02 0.134E-03 -.171E-02
   0.976E+01 0.335E+01 -.220E+04   -.999E+01 -.382E+01 0.220E+04   0.233E+00 0.470E+00 0.832E+00   -.447E-02 -.713E-04 0.512E-02
   -.267E+00 0.319E+01 0.220E+04   0.932E+00 -.313E+01 -.220E+04   -.667E+00 -.573E-01 -.603E+00   0.127E-02 0.254E-02 -.323E-02
   0.504E+00 -.112E+02 -.228E+04   -.504E+00 0.112E+02 0.228E+04   0.262E-02 -.162E-01 -.186E+00   -.525E-02 0.347E-02 0.473E-02
   -.506E+01 0.254E+01 0.225E+04   0.495E+01 -.337E+01 -.225E+04   0.115E+00 0.833E+00 -.381E+00   -.526E-02 -.659E-03 -.143E-02
   -.326E+01 -.810E+01 -.231E+04   0.344E+01 0.863E+01 0.231E+04   -.190E+00 -.529E+00 -.311E+00   0.227E-03 0.242E-02 0.277E-02
   0.188E+01 0.138E+02 0.522E+00   -.256E+01 -.127E+02 -.108E+01   0.668E+00 -.110E+01 0.551E+00   0.999E-03 0.141E-02 0.648E-02
   0.115E+02 0.102E+02 -.550E+01   -.118E+02 -.102E+02 0.554E+01   0.252E+00 0.696E-01 -.335E-01   -.428E-03 -.108E-02 0.326E-02
   -.473E+01 -.408E+00 0.222E+04   0.399E+01 0.519E+00 -.222E+04   0.748E+00 -.107E+00 -.664E+00   -.384E-02 -.107E-02 0.990E-03
   -.213E+02 0.617E+01 -.227E+04   0.221E+02 -.622E+01 0.227E+04   -.766E+00 0.482E-01 -.703E-02   0.205E-02 -.209E-02 0.280E-02
   -.378E+01 -.192E+01 -.225E+04   0.369E+01 0.173E+01 0.225E+04   0.859E-01 0.181E+00 0.238E+00   0.640E-02 0.596E-02 0.833E-02
   0.196E+01 0.222E+01 0.873E+01   -.232E+01 -.241E+01 -.936E+01   0.335E+00 0.180E+00 0.616E+00   0.621E-02 0.812E-02 0.760E-02
   0.992E+01 -.831E+01 -.224E+04   -.102E+02 0.882E+01 0.224E+04   0.301E+00 -.505E+00 0.227E-02   0.518E-02 0.236E-02 0.695E-02
   -.130E+02 -.665E+01 0.225E+04   0.134E+02 0.701E+01 -.225E+04   -.387E+00 -.347E+00 -.315E+00   -.329E-02 -.704E-02 -.319E-03
   0.101E+02 0.194E+00 0.228E+04   -.100E+02 0.178E+00 -.228E+04   -.831E-01 -.387E+00 -.219E+00   0.409E-02 0.635E-02 -.115E-03
   0.451E+01 0.792E+01 0.363E+02   -.349E+01 -.763E+01 -.352E+02   -.101E+01 -.285E+00 -.113E+01   -.697E-02 -.815E-02 0.573E-02
   0.901E+01 -.127E+02 0.227E+02   -.861E+01 0.119E+02 -.227E+02   -.391E+00 0.766E+00 0.244E-01   0.121E-02 -.245E-02 0.745E-02
   0.593E+01 0.895E+00 0.229E+04   -.610E+01 -.915E+00 -.230E+04   0.173E+00 0.217E-01 0.154E+00   0.540E-02 -.405E-03 -.211E-02
   -.648E+01 -.113E+02 0.200E+04   0.678E+01 0.115E+02 -.200E+04   -.296E+00 -.204E+00 -.136E+01   -.664E-02 -.252E-02 -.256E-02
   -.184E+02 0.169E+01 -.198E+04   0.188E+02 -.168E+01 0.198E+04   -.418E+00 -.107E-01 0.110E+01   -.302E-02 -.155E-02 0.431E-02
   0.213E+01 0.438E+01 0.427E+02   -.152E+01 -.430E+01 -.423E+02   -.611E+00 -.780E-01 -.469E+00   0.186E-02 0.366E-02 0.913E-02
   -.275E+01 0.895E+01 -.198E+04   0.288E+01 -.939E+01 0.198E+04   -.119E+00 0.442E+00 0.175E+01   -.286E-02 0.223E-02 0.747E-02
   0.679E+01 0.797E+01 0.198E+04   -.670E+01 -.802E+01 -.198E+04   -.900E-01 0.531E-01 -.148E+01   0.342E-02 0.257E-02 0.538E-03
   0.337E+01 -.749E+01 -.184E+02   -.374E+01 0.723E+01 0.178E+02   0.363E+00 0.272E+00 0.512E+00   0.361E-02 0.117E-02 0.468E-02
   0.121E+02 0.229E+01 -.198E+04   -.123E+02 -.216E+01 0.198E+04   0.217E+00 -.134E+00 0.182E+01   -.205E-02 -.218E-02 0.870E-02
   -.442E+01 -.219E+01 -.118E+02   0.460E+01 0.211E+01 0.114E+02   -.183E+00 0.737E-01 0.417E+00   -.194E-02 0.288E-02 0.643E-02
   0.322E+01 -.789E+01 0.188E+01   -.317E+01 0.785E+01 -.190E+01   -.548E-01 0.320E-01 0.249E-01   -.166E-02 0.402E-02 0.576E-02
   0.280E+01 0.288E+01 0.198E+04   -.273E+01 -.327E+01 -.198E+04   -.708E-01 0.380E+00 -.191E+01   0.784E-03 0.562E-02 -.257E-02
   -.298E+01 0.472E+00 -.687E+01   0.292E+01 -.455E+00 0.648E+01   0.670E-01 -.215E-01 0.393E+00   -.471E-03 -.217E-02 0.484E-02
   -.510E+01 -.153E+01 0.200E+04   0.505E+01 0.179E+01 -.199E+04   0.612E-01 -.261E+00 -.171E+01   -.300E-03 0.120E-02 0.146E-02
   -.168E+02 0.141E+01 -.198E+04   0.176E+02 -.161E+01 0.197E+04   -.759E+00 0.203E+00 0.156E+01   0.531E-02 -.277E-03 0.346E-02
   -.854E+01 -.937E+00 0.102E+02   0.802E+01 0.149E+01 -.102E+02   0.537E+00 -.546E+00 0.599E-02   -.560E-02 0.641E-03 0.706E-02
   -.628E+01 0.500E+01 -.198E+04   0.634E+01 -.508E+01 0.197E+04   -.681E-01 0.912E-01 0.163E+01   -.144E-02 -.741E-02 0.329E-02
   -.450E+01 -.690E+01 0.198E+04   0.463E+01 0.722E+01 -.198E+04   -.130E+00 -.319E+00 -.121E+01   -.141E-02 -.110E-02 0.299E-03
   -.578E+01 0.352E+01 0.127E+02   0.541E+01 -.366E+01 -.127E+02   0.365E+00 0.115E+00 -.439E-01   0.860E-02 0.500E-02 0.743E-02
   -.687E+01 0.376E+01 -.156E+02   0.693E+01 -.348E+01 0.151E+02   -.652E-01 -.267E+00 0.465E+00   0.128E-02 -.646E-02 0.471E-02
   0.567E+01 0.379E+00 0.197E+04   -.605E+01 -.113E+00 -.196E+04   0.374E+00 -.263E+00 -.178E+01   0.266E-02 -.244E-02 -.208E-02
   0.114E+02 -.397E+01 -.194E+04   -.120E+02 0.392E+01 0.194E+04   0.549E+00 0.463E-01 0.188E+01   -.405E-02 -.199E-02 0.406E-02
   -.702E+01 -.253E+01 0.188E+02   0.713E+01 0.200E+01 -.183E+02   -.109E+00 0.529E+00 -.503E+00   -.468E-02 -.619E-02 0.638E-02
   0.513E+01 -.183E+02 -.195E+04   -.524E+01 0.188E+02 0.195E+04   0.103E+00 -.517E+00 0.178E+01   0.233E-02 0.588E-02 0.492E-02
   -.295E+01 0.378E+01 0.199E+04   0.292E+01 -.429E+01 -.199E+04   0.348E-01 0.510E+00 -.160E+01   -.109E-02 -.116E-03 0.222E-02
   0.463E+01 0.142E+01 0.195E+04   -.484E+01 -.137E+01 -.195E+04   0.205E+00 -.374E-01 -.189E+01   0.295E-02 -.115E-02 -.444E-02
 -----------------------------------------------------------------------------------------------
   -.190E+00 0.839E-02 0.670E-01   0.556E-12 0.575E-12 0.000E+00   0.202E+00 -.261E-01 -.233E+00   0.107E-04 -.105E-03 0.161E+00
 
 
 POSITION                                       TOTAL-FORCE (eV/Angst)
 -----------------------------------------------------------------------------------
      6.83191      7.14021     14.71145        -0.005676     -0.008732      0.002221
     13.76482      7.94460      9.60561        -0.004316     -0.004293      0.002126
     11.01216      4.74580     14.75544        -0.003219     -0.003090      0.010518
      8.27231      1.62445     12.25379         0.008248      0.004645      0.000477
      9.62796      7.14391     14.76516        -0.002153     -0.009496      0.014990
      9.60010      8.72934     12.23884         0.002959      0.001453      0.011075
     11.00791      7.93888      9.71249         0.009891     -0.001819      0.007850
      8.23300      4.74422     14.69285        -0.005154      0.002254      0.007134
      9.64772      5.55106      9.80972        -0.001091      0.004724      0.004811
      6.86992      2.38206     14.80182        -0.002925      0.001171     -0.002285
      8.25563      3.15425      9.75945        -0.006276      0.002044     -0.006177
      5.50891      0.01684     14.89210        -0.003929      0.004138     -0.008573
      5.47944      1.61986     12.23920        -0.005435     -0.000568      0.000498
     12.37055      8.73411     12.25621        -0.002595     -0.003487      0.002563
      6.86473      5.55625      9.78671         0.004905      0.003227     -0.011045
     12.41231      7.13719     14.80148         0.000325     -0.001950     -0.004956
      1.36905      2.36996     14.74674         0.002801     -0.001802      0.001510
     12.37380      3.95924     12.23270        -0.010632     -0.000767     -0.001803
      2.73117      0.01047     14.77254        -0.004834      0.008795      0.005026
      5.51731      7.95575      9.74401         0.005725      0.003337     -0.011595
      2.75046      3.19000      9.71185        -0.002152     -0.007967     -0.003750
     15.16130      8.74083     12.22435        -0.001507      0.002859      0.003225
     13.76864      6.34289     12.22757         0.007007      0.004925     -0.006697
      4.11630      0.80075      9.67295         0.000181      0.001727      0.013747
      9.64415      0.80213      9.84950         0.001807     -0.000017      0.000855
      8.26519     -0.00498     14.63539        -0.007197     -0.008431      0.005695
      4.13359      3.97108     12.19762         0.005273      0.004773     -0.008578
      9.62424      2.36126     14.62929         0.002232      0.001531     -0.000167
     12.38555      5.55990      9.86120         0.003360      0.008538     -0.011861
     10.98817      6.34789     12.26667         0.001225      0.007710      0.004784
     -0.02764     -0.00446     14.62399        -0.000120     -0.001223      0.002906
     11.02110      1.59675     12.26175        -0.002508      0.000079     -0.005816
      9.62397      3.99081     12.24838         0.000004     -0.003690      0.010467
     11.01230      3.15371      9.87769         0.000479     -0.003887     -0.006446
      8.24663      6.34398     12.25913         0.007008     -0.006216      0.004907
      5.49891      3.17637      9.84068         0.008650      0.003143     -0.010887
      2.78103      4.75047     14.61273        -0.007999     -0.002973      0.000649
      6.86899      3.98958     12.23600         0.004852      0.005267      0.002852
      4.12157      7.13913     14.59791        -0.007728     -0.000278      0.001580
      6.88004      0.79616      9.85660         0.002157      0.003519     -0.004078
      2.73444      1.58737     12.23414        -0.001058     -0.014795      0.000056
      6.87873      8.73374     12.26834         0.002374      0.011531     -0.006233
      8.24562      7.95183      9.87424         0.001826      0.001079      0.007772
      5.46614      4.75241     14.56423         0.011433     -0.000171     -0.001619
      5.53146      6.34586     12.23239        -0.005456     -0.002814     -0.002715
      4.12172      2.39521     14.60021        -0.002063     -0.012701      0.001941
      4.12328      5.55385      9.84496        -0.000036      0.002968     -0.010304
      1.36862      0.80437      9.91480         0.001338      0.005727     -0.006651
 -----------------------------------------------------------------------------------
    total drift:                                0.012082     -0.017830     -0.005399


--------------------------------------------------------------------------------------------------------



  FREE ENERGIE OF THE ION-ELECTRON SYSTEM (eV)
  ---------------------------------------------------
  free  energy   TOTEN  =      -192.60340266 eV

  energy  without entropy=     -192.35554101  energy(sigma->0) =     -192.47947183
 
 d Force = 0.7333070E-03[ 0.513E-03, 0.953E-03]  d Energy = 0.7534050E-03-0.201E-04
 d Force =-0.4568394E+01[-0.450E+01,-0.463E+01]  d Ewald  =-0.4568395E+01 0.539E-06


--------------------------------------------------------------------------------------------------------


    POTLOK:  cpu time    0.0469: real time    0.0470


--------------------------------------------------------------------------------------------------------


 stress matrix after NEB project (eV)
      0.00000      0.00000      0.00000
      0.00000      0.00000      0.00000
      0.00000      0.00000      0.00000
  FORCES: max atom, RMS     0.017875    0.009988
  FORCE total and by dimension    0.069201    0.014990
  Stress total and by dimension    0.000000    0.000000
 Conjugate gradient step on ions:
 trial-energy change:   -0.000753  1 .order   -0.000733   -0.000953   -0.000513
  (g-gl).g = 0.328E-03      g.g   = 0.309E-03  gl.gl    = 0.372E-03
 g(Force)  = 0.309E-03   g(Stress)= 0.000E+00 ortho     = 0.467E-04
 gamma     =   0.88158
 trial     =   2.72468
 opt step  =   4.85970  (harmonic =   5.90333) maximal distance =0.00788394
 next E    =  -192.603613   (d E  =  -0.00096)


--------------------------------------------------------------------------------------------------------


  
 reached required accuracy - stopping structural energy minimisation
     LOOP+:  cpu time   63.3303: real time   63.7231
    4ORBIT:  cpu time    0.0000: real time    0.0000

 total amount of memory used by VASP on root node    84353. kBytes
========================================================================

   base      :      30000. kBytes
   nonlr-proj:       4285. kBytes
   fftplans  :       4447. kBytes
   grid      :       6721. kBytes
   one-center:        124. kBytes
   wavefun   :      38776. kBytes
 
  
  
 General timing and accounting informations for this job:
 ========================================================
  
                  Total CPU time used (sec):     1521.311
                            User time (sec):     1452.135
                          System time (sec):       69.176
                         Elapsed time (sec):     1530.394
  
                   Maximum memory used (kb):      823720.
                   Average memory used (kb):           0.
  
                          Minor page faults:       706934
                          Major page faults:            0
                 Voluntary context switches:        10521
