unknown system                          
           1
    11.002582    0.000000    0.000000
     5.501291    9.528515    0.000000
     0.000000    0.000000   24.491785
   Au   Pd
  24  24
Direct configuration=     1
   0.25000000  0.75000000  0.59169983
   0.83333333  0.83333333  0.40830017
   0.75000000  0.50000000  0.59169983
   0.66666667  0.16666667  0.50000000
   0.50000000  0.75000000  0.59169983
   0.41666667  0.91666667  0.50000000
   0.58333333  0.83333333  0.40830017
   0.50000000  0.50000000  0.59169983
   0.58333333  0.58333333  0.40830017
   0.50000000  0.25000000  0.59169983
   0.58333333  0.33333333  0.40830017
   0.50000000  0.00000000  0.59169983
   0.41666667  0.16666667  0.50000000
   0.66666667  0.91666667  0.50000000
   0.33333333  0.58333333  0.40830017
   0.75000000  0.75000000  0.59169983
   0.00000000  0.25000000  0.59169983
   0.91666667  0.41666667  0.50000000
   0.25000000  0.00000000  0.59169983
   0.08333333  0.83333333  0.40830017
   0.08333333  0.33333333  0.40830017
   0.91666667  0.91666667  0.50000000
   0.91666667  0.66666667  0.50000000
   0.33333333  0.08333333  0.40830017
   0.83333333  0.08333333  0.40830017
   0.75000000  0.00000000  0.59169983
   0.16666667  0.41666667  0.50000000
   0.75000000  0.25000000  0.59169983
   0.83333333  0.58333333  0.40830017
   0.66666667  0.66666667  0.50000000
   0.00000000  0.00000000  0.59169983
   0.91666667  0.16666667  0.50000000
   0.66666667  0.41666667  0.50000000
   0.83333333  0.33333333  0.40830017
   0.41666667  0.66666667  0.50000000
   0.33333333  0.33333333  0.40830017
   0.00000000  0.50000000  0.59169983
   0.41666667  0.41666667  0.50000000
   0.00000000  0.75000000  0.59169983
   0.58333333  0.08333333  0.40830017
   0.16666667  0.16666667  0.50000000
   0.16666667  0.91666667  0.50000000
   0.33333333  0.83333333  0.40830017
   0.25000000  0.50000000  0.59169983
   0.16666667  0.66666667  0.50000000
   0.25000000  0.25000000  0.59169983
   0.08333333  0.58333333  0.40830017
   0.08333333  0.08333333  0.40830017
Direct configuration=     2
   0.24850326  0.74991170  0.59322392
   0.83341491  0.83321200  0.40574341
   0.75026049  0.49945742  0.59355997
   0.66787464  0.16749434  0.49998054
   0.50027903  0.74937729  0.59364134
   0.41521063  0.91551791  0.49953978
   0.58355753  0.83271103  0.40607967
   0.49993884  0.49923020  0.59322705
   0.58409299  0.58328091  0.40678199
   0.49974369  0.25061863  0.59387346
   0.58378610  0.33251015  0.40651332
   0.49995920  0.00085358  0.59430604
   0.41440154  0.16945440  0.49966362
   0.66691023  0.91689639  0.49997559
   0.33251290  0.58338276  0.40682716
   0.75129936  0.74970501  0.59394683
   0.00025038  0.24942440  0.59347279
   0.91641376  0.41637925  0.49957811
   0.24855353  0.00101844  0.59359506
   0.08391758  0.83376988  0.40649342
   0.08309786  0.33373066  0.40645269
   0.91807342  0.91750656  0.50071791
   0.91877626  0.66460240  0.50008347
   0.33268055  0.08368501  0.40614449
   0.83358954  0.08406277  0.40712116
   0.75091001 -0.00009968  0.59308152
   0.16755793  0.41695528  0.50025080
   0.75055315  0.24926692  0.59266105
   0.83345407  0.58301483  0.40708199
   0.66663855  0.66567392  0.49970318
  -0.00060998  0.00005761  0.59256909
   0.91699752  0.16649002  0.49971573
   0.66684895  0.41646803  0.49993653
   0.83389907  0.33245566  0.40739047
   0.41638419  0.66651744  0.49980137
   0.33295123  0.33370326  0.40732453
   0.00144573  0.49988842  0.59284122
   0.41522570  0.41776142  0.50004205
   0.00037889  0.74984445  0.59280476
   0.58326879  0.08382816  0.40683470
   0.16587944  0.16673312  0.49994563
   0.16624331  0.91716764  0.49976574
   0.33259148  0.83377719  0.40731976
   0.24905750  0.50000505  0.59242458
   0.16750656  0.66552694  0.50036047
   0.24930629  0.25116039  0.59269062
   0.08370578  0.58254525  0.40731962
   0.08270765  0.08346557  0.40759180
Direct configuration=     3
   0.24401304  0.74964679  0.59779620
   0.83365962  0.83284801  0.39807313
   0.75104195  0.49782969  0.59914041
   0.67149857  0.16997738  0.49992215
   0.50111610  0.74750915  0.59946588
   0.41084251  0.91207163  0.49815912
   0.58423010  0.83084414  0.39941818
   0.49975535  0.49692081  0.59780870
   0.58637195  0.58312363  0.40222745
   0.49897475  0.25247452  0.60039436
   0.58514440  0.33004061  0.40115276
   0.49983679  0.00341434  0.60212466
   0.40760615  0.17781761  0.49865449
   0.66764094  0.91758556  0.49990234
   0.33005162  0.58353105  0.40240815
   0.75519745  0.74882004  0.60068783
   0.00100152  0.24769759  0.59879167
   0.91565504  0.41551699  0.49831243
   0.24421410  0.00407375  0.59928074
   0.08567032  0.83507951  0.40107319
   0.08239144  0.33492265  0.40091025
   0.92229367  0.92002624  0.50287166
   0.92510502  0.65840960  0.50033389
   0.33072219  0.08474005  0.39967743
   0.83435817  0.08625106  0.40358412
   0.75364003 -0.00039873  0.59722660
   0.17023171  0.41782113  0.50100320
   0.75221260  0.24706770  0.59554469
   0.83381626  0.58205931  0.40342744
   0.66655421  0.66269569  0.49881271
  -0.00243990  0.00023046  0.59517687
   0.91799009  0.16596007  0.49886292
   0.66739581  0.41587212  0.49974612
   0.83559627  0.32982264  0.40466136
   0.41553676  0.66606975  0.49920548
   0.33180493  0.33481305  0.40439759
   0.00578293  0.49955367  0.59626540
   0.41090282  0.42104567  0.50016820
   0.00151555  0.74937781  0.59611956
   0.58307517  0.08531265  0.40243830
   0.16351775  0.16693248  0.49978251
   0.16497324  0.91867054  0.49906297
   0.33036592  0.83510878  0.40437852
   0.24622999  0.50002020  0.59459883
   0.17002624  0.66210776  0.50144187
   0.24722514  0.25464157  0.59566300
   0.08482311  0.58018102  0.40437799
   0.08083060  0.08386229  0.40546668
Direct configuration=     4
   0.24542666  0.75003277  0.59884322
   0.83462006  0.83313175  0.39694901
   0.75234030  0.49750077  0.60020952
   0.66832288  0.17020508  0.49999187
   0.50019284  0.74897759  0.60039337
   0.41319278  0.91412790  0.49872638
   0.58373650  0.83254501  0.39819281
   0.49928877  0.49768669  0.59871864
   0.58556009  0.58188698  0.40104370
   0.49945811  0.25122772  0.60162075
   0.58415593  0.33143122  0.39999452
   0.49945654  0.00311751  0.60313134
   0.41130588  0.17264642  0.49898474
   0.66673906  0.91747846  0.49991391
   0.33126987  0.58313211  0.40125835
   0.75476410  0.74890408  0.60174116
  -0.00047075  0.24958734  0.59989531
   0.91673956  0.41452772  0.49880431
   0.24658627  0.00219025  0.60042492
   0.08369300  0.83486553  0.40000823
   0.08257368  0.33463046  0.39960462
   0.92167874  0.91674136  0.50180656
   0.92185970  0.66223321  0.50013951
   0.33132219  0.08434092  0.39827214
   0.83476038  0.08444908  0.40268340
   0.75250828 -0.00019371  0.59806012
   0.16788689  0.41740223  0.50051529
   0.75223704  0.24717345  0.59634716
   0.83439447  0.58221749  0.40254302
   0.66634154  0.66443358  0.49928608
  -0.00208908  0.00063457  0.59652308
   0.91875984  0.16753470  0.49920225
   0.66582257  0.41722679  0.49978187
   0.83543301  0.33013819  0.40363665
   0.41583241  0.66443969  0.49950418
   0.33203475  0.33467600  0.40321026
   0.00457180  0.49909482  0.59718375
   0.41397884  0.42052135  0.50009992
   0.00044536  0.74953172  0.59705636
   0.58308642  0.08442979  0.40198968
   0.16394173  0.16722676  0.49976199
   0.16557314  0.91749526  0.49945177
   0.33102230  0.83462340  0.40312703
   0.24698801  0.49977984  0.59577679
   0.16962172  0.66458495  0.50100264
   0.24804303  0.25347918  0.59641993
   0.08388806  0.58138197  0.40360742
   0.08110473  0.08457006  0.40456049
Direct configuration=     5
   0.24612051  0.75022222  0.59935713
   0.83509147  0.83327102  0.39639725
   0.75297758  0.49733933  0.60073428
   0.66676416  0.17031684  0.50002609
   0.49973967  0.74969834  0.60084860
   0.41434637  0.91513717  0.49900481
   0.58349423  0.83337985  0.39759137
   0.49905976  0.49806260  0.59916527
   0.58516160  0.58127999  0.40046268
   0.49969536  0.25061575  0.60222269
   0.58367076  0.33211377  0.39942602
   0.49926990  0.00297182  0.60362544
   0.41312181  0.17010826  0.49914683
   0.66629639  0.91742589  0.49991959
   0.33186783  0.58293630  0.40069399
   0.75455139  0.74894533  0.60225816
  -0.00119339  0.25051488  0.60043700
   0.91727187  0.41404216  0.49904573
   0.24775060  0.00126577  0.60098652
   0.08272247  0.83476050  0.39948551
   0.08266313  0.33448705  0.39896377
   0.92137691  0.91512905  0.50128378
   0.92026681  0.66410995  0.50004410
   0.33161668  0.08414501  0.39758239
   0.83495780  0.08356462  0.40224129
   0.75195278 -0.00009308  0.59846924
   0.16673599  0.41719662  0.50027580
   0.75224904  0.24722536  0.59674103
   0.83467827  0.58229514  0.40210892
   0.66623715  0.66528659  0.49951843
  -0.00191688  0.00083291  0.59718384
   0.91913766  0.16830757  0.49936880
   0.66505038  0.41789170  0.49979941
   0.83535287  0.33029307  0.40313369
   0.41597752  0.66363962  0.49965079
   0.33214755  0.33460873  0.40262748
   0.00397735  0.49886960  0.59763450
   0.41548865  0.42026399  0.50006641
  -0.00007992  0.74960727  0.59751616
   0.58309194  0.08399646  0.40176949
   0.16414983  0.16737120  0.49975193
   0.16586759  0.91691839  0.49964261
   0.33134447  0.83438516  0.40251277
   0.24736006  0.49966187  0.59635496
   0.16942317  0.66580082  0.50078706
   0.24844447  0.25290864  0.59679146
   0.08342911  0.58197143  0.40322920
   0.08123928  0.08491746  0.40411571
Direct configuration=     6
   0.24631180  0.75031695  0.59979568
   0.83452206  0.83334640  0.39583572
   0.75196925  0.49845669  0.60113240
   0.66717559  0.16966429  0.50003569
   0.50039705  0.74961658  0.60113555
   0.41471789  0.91526627  0.49913009
   0.58376615  0.83304204  0.39716455
   0.49950206  0.49829367  0.59958781
   0.58526336  0.58193558  0.40008984
   0.49980218  0.25036365  0.60270608
   0.58402477  0.33137089  0.39895958
   0.49951598  0.00236004  0.60413374
   0.41323203  0.16980924  0.49930894
   0.66647830  0.91686540  0.49999059
   0.33147959  0.58337562  0.40019910
   0.75353523  0.74917455  0.60266591
  -0.00011135  0.24977509  0.60099705
   0.91666605  0.41552171  0.49917187
   0.24777322  0.00156683  0.60141008
   0.08318308  0.83448939  0.39902657
   0.08284929  0.33444679  0.39836127
   0.91978896  0.91634929  0.50089971
   0.91873309  0.66499641  0.49998283
   0.33174927  0.08407109  0.39695278
   0.83437484  0.08368938  0.40219745
   0.75163986 -0.00002563  0.59852523
   0.16729294  0.41669325  0.49995031
   0.75162252  0.24749570  0.59688387
   0.83412530  0.58279027  0.40200282
   0.66606019  0.66576428  0.49967997
  -0.00184634  0.00073930  0.59748659
   0.91833593  0.16734609  0.49965329
   0.66523602  0.41831024  0.49985364
   0.83497051  0.33067268  0.40274758
   0.41635924  0.66476903  0.49978343
   0.33237947  0.33416250  0.40238972
   0.00358435  0.49892635  0.59783828
   0.41532185  0.41901219  0.50006174
   0.00000809  0.74956186  0.59777787
   0.58323397  0.08396715  0.40170811
   0.16549597  0.16658118  0.49977777
   0.16667750  0.91664757  0.49983652
   0.33172792  0.83415611  0.40228343
   0.24752856  0.49956483  0.59653037
   0.16966781  0.66568020  0.50058618
   0.24878476  0.25218364  0.59690248
   0.08336781  0.58228212  0.40302525
   0.08172603  0.08455526  0.40384470
Direct configuration=     7
   0.24639006  0.75035570  0.59997508
   0.83428914  0.83337724  0.39560601
   0.75155677  0.49891377  0.60129526
   0.66734390  0.16939734  0.50003961
   0.50066597  0.74958313  0.60125293
   0.41486988  0.91531908  0.49918133
   0.58387738  0.83290385  0.39698995
   0.49968300  0.49838820  0.59976066
   0.58530498  0.58220376  0.39993733
   0.49984588  0.25026052  0.60290382
   0.58416958  0.33106699  0.39876878
   0.49961665  0.00210977  0.60434168
   0.41327712  0.16968692  0.49937525
   0.66655272  0.91663612  0.50001963
   0.33132078  0.58355534  0.39999665
   0.75311955  0.74926832  0.60283271
   0.00033129  0.24947246  0.60122615
   0.91641823  0.41612695  0.49922346
   0.24778247  0.00168998  0.60158335
   0.08337150  0.83437849  0.39883883
   0.08292544  0.33443032  0.39811481
   0.91913937  0.91684845  0.50074260
   0.91810569  0.66535903  0.49995776
   0.33180351  0.08404085  0.39669522
   0.83413636  0.08374041  0.40217951
   0.75151185  0.00000196  0.59854813
   0.16752077  0.41648733  0.49981716
   0.75136623  0.24760629  0.59694230
   0.83389909  0.58299281  0.40195941
   0.66598779  0.66595969  0.49974606
  -0.00181749  0.00070101  0.59761043
   0.91800796  0.16695278  0.49976966
   0.66531196  0.41848145  0.49987583
   0.83481410  0.33082797  0.40258964
   0.41651538  0.66523105  0.49983769
   0.33247434  0.33397996  0.40229245
   0.00342358  0.49894956  0.59792164
   0.41525361  0.41850012  0.50005982
   0.00004409  0.74954328  0.59788492
   0.58329207  0.08395516  0.40168300
   0.16604663  0.16625800  0.49978835
   0.16700881  0.91653678  0.49991585
   0.33188478  0.83406241  0.40218961
   0.24759748  0.49952513  0.59660212
   0.16976788  0.66563086  0.50050401
   0.24892397  0.25188706  0.59694789
   0.08334273  0.58240922  0.40294182
   0.08192515  0.08440709  0.40373384
Direct configuration=     8
   0.24639205  0.75024735  0.60018622
   0.83400992  0.83338152  0.39508927
   0.75163796  0.49859152  0.60154009
   0.66724943  0.16968958  0.50006861
   0.50044906  0.74971418  0.60148827
   0.41486169  0.91521725  0.49912063
   0.58382566  0.83285291  0.39673399
   0.49963909  0.49833310  0.59990472
   0.58527058  0.58240127  0.39983293
   0.49969923  0.25041225  0.60321459
   0.58421950  0.33104643  0.39857657
   0.49976791  0.00203631  0.60481933
   0.41321473  0.16995054  0.49944183
   0.66626622  0.91666410  0.50006215
   0.33156747  0.58335628  0.39981709
   0.75318723  0.74949035  0.60314455
   0.00027154  0.24940561  0.60145363
   0.91657667  0.41576623  0.49924578
   0.24773863  0.00166507  0.60188083
   0.08357422  0.83467463  0.39862705
   0.08266227  0.33457955  0.39782761
   0.91943262  0.91712741  0.50065291
   0.91866108  0.66516845  0.50001518
   0.33204205  0.08383415  0.39628505
   0.83413129  0.08391059  0.40219224
   0.75163289 -0.00018769  0.59847510
   0.16762200  0.41670675  0.49961804
   0.75123655  0.24791104  0.59694912
   0.83380597  0.58303602  0.40198873
   0.66557800  0.66602714  0.49977083
  -0.00191226  0.00041558  0.59758789
   0.91808008  0.16690769  0.49990713
   0.66549086  0.41847693  0.49984139
   0.83485176  0.33093882  0.40258358
   0.41674614  0.66555860  0.49988449
   0.33270222  0.33373315  0.40223674
   0.00338004  0.49903798  0.59785700
   0.41496284  0.41825800  0.50006523
   0.00008392  0.74950785  0.59775783
   0.58320606  0.08387592  0.40173684
   0.16565679  0.16621244  0.49970802
   0.16688892  0.91662164  0.50002551
   0.33210405  0.83411109  0.40222290
   0.24761098  0.49944179  0.59645253
   0.16962329  0.66540645  0.50047811
   0.24908652  0.25187200  0.59691097
   0.08327102  0.58240688  0.40292380
   0.08194327  0.08420728  0.40379709
Direct configuration=     9
   0.24639401  0.75014031  0.60039482
   0.83373406  0.83338575  0.39457874
   0.75171818  0.49827314  0.60178199
   0.66715609  0.16997831  0.50009727
   0.50023475  0.74984365  0.60172078
   0.41485360  0.91511663  0.49906067
   0.58377456  0.83280258  0.39648110
   0.49959570  0.49827866  0.60004705
   0.58523659  0.58259640  0.39972978
   0.49955434  0.25056215  0.60352163
   0.58426881  0.33102611  0.39838668
   0.49991736  0.00196373  0.60529123
   0.41315308  0.17021098  0.49950762
   0.66598315  0.91669175  0.50010415
   0.33181120  0.58315962  0.39963969
   0.75325410  0.74970971  0.60345264
   0.00021250  0.24933957  0.60167837
   0.91673321  0.41540984  0.49926784
   0.24769531  0.00164045  0.60217474
   0.08377450  0.83496720  0.39841783
   0.08240227  0.33472698  0.39754386
   0.91972235  0.91740302  0.50056430
   0.91920979  0.66498015  0.50007190
   0.33227772  0.08362994  0.39587981
   0.83412629  0.08407872  0.40220481
   0.75175247 -0.00037507  0.59840295
   0.16772201  0.41692353  0.49942132
   0.75110842  0.24821213  0.59695586
   0.83371397  0.58307871  0.40201769
   0.66517313  0.66609379  0.49979531
  -0.00200588  0.00013357  0.59756561
   0.91815132  0.16686314  0.50004294
   0.66566760  0.41847246  0.49980736
   0.83488896  0.33104835  0.40257761
   0.41697413  0.66588222  0.49993073
   0.33292737  0.33348930  0.40218169
   0.00333701  0.49912534  0.59779314
   0.41467557  0.41801880  0.50007056
   0.00012327  0.74947285  0.59763226
   0.58312109  0.08379764  0.40179003
   0.16527164  0.16616743  0.49962866
   0.16677046  0.91670549  0.50013386
   0.33232069  0.83415920  0.40225578
   0.24762432  0.49935944  0.59630475
   0.16948044  0.66518475  0.50045252
   0.24924713  0.25185713  0.59687449
   0.08320017  0.58240458  0.40290599
   0.08196117  0.08400988  0.40385958
Direct configuration=    10
   0.24636282  0.74990405  0.60055428
   0.83388231  0.83343301  0.39394727
   0.75190243  0.49823594  0.60202670
   0.66695021  0.17031259  0.50014022
   0.50017767  0.74984440  0.60200502
   0.41437791  0.91576705  0.49901547
   0.58377975  0.83287955  0.39618717
   0.49931534  0.49834629  0.60009632
   0.58519514  0.58240834  0.39967665
   0.49963502  0.25051325  0.60389818
   0.58433279  0.33116399  0.39826611
   0.49990080  0.00207944  0.60595181
   0.41288397  0.17001632  0.49958207
   0.66615209  0.91661624  0.50015165
   0.33202210  0.58298848  0.39958637
   0.75350692  0.74945645  0.60377407
   0.00017037  0.24924968  0.60187094
   0.91694800  0.41516423  0.49930697
   0.24759526  0.00166879  0.60247311
   0.08377949  0.83495649  0.39823823
   0.08245088  0.33458307  0.39725326
   0.91985421  0.91717865  0.50036005
   0.91912777  0.66512246  0.50008208
   0.33206249  0.08381791  0.39545675
   0.83417988  0.08412132  0.40224209
   0.75173073 -0.00027140  0.59822706
   0.16752017  0.41680566  0.49917529
   0.75111025  0.24817923  0.59696571
   0.83378505  0.58310066  0.40217026
   0.66555467  0.66582942  0.49988051
  -0.00209338 -0.00001116  0.59752838
   0.91826857  0.16725201  0.50018256
   0.66542236  0.41851892  0.49973647
   0.83497350  0.33106417  0.40268459
   0.41680804  0.66542075  0.49999267
   0.33295382  0.33333765  0.40210566
   0.00332904  0.49907399  0.59763189
   0.41474620  0.41858779  0.50004224
   0.00020436  0.74941950  0.59739714
   0.58314751  0.08367320  0.40192428
   0.16509418  0.16625958  0.49952660
   0.16682421  0.91652965  0.50029804
   0.33240531  0.83415935  0.40235591
   0.24757919  0.49931887  0.59605729
   0.16982459  0.66527215  0.50037368
   0.24916549  0.25188627  0.59672748
   0.08312330  0.58260549  0.40285636
   0.08197722  0.08416026  0.40401711
Direct configuration=    11
   0.24634221  0.74974796  0.60065963
   0.83398024  0.83346423  0.39353007
   0.75202416  0.49821136  0.60218837
   0.66681419  0.17053343  0.50016860
   0.50013995  0.74984489  0.60219280
   0.41406364  0.91619676  0.49898561
   0.58378318  0.83293041  0.39599298
   0.49913012  0.49839098  0.60012888
   0.58516775  0.58228410  0.39964154
   0.49968832  0.25048094  0.60414696
   0.58437506  0.33125508  0.39818646
   0.49988986  0.00215588  0.60638822
   0.41270618  0.16988771  0.49963125
   0.66626369  0.91656635  0.50018303
   0.33216144  0.58287542  0.39955114
   0.75367396  0.74928913  0.60398642
   0.00014254  0.24919028  0.60199815
   0.91708990  0.41500197  0.49933282
   0.24752916  0.00168752  0.60267023
   0.08378279  0.83494942  0.39811957
   0.08248299  0.33448799  0.39706128
   0.91994132  0.91703043  0.50022512
   0.91907359  0.66521647  0.50008881
   0.33192029  0.08394210  0.39517725
   0.83421529  0.08414947  0.40226673
   0.75171637 -0.00020291  0.59811085
   0.16738683  0.41672779  0.49901275
   0.75111146  0.24815749  0.59697221
   0.83383202  0.58311516  0.40227106
   0.66580674  0.66565476  0.49993680
  -0.00215118 -0.00010677  0.59750377
   0.91834603  0.16750892  0.50027480
   0.66526034  0.41854961  0.49968963
   0.83502935  0.33107463  0.40275528
   0.41669832  0.66511588  0.50003359
   0.33297130  0.33323747  0.40205544
   0.00332377  0.49904007  0.59752535
   0.41479286  0.41896369  0.50002352
   0.00025792  0.74938426  0.59724181
   0.58316496  0.08359099  0.40201297
   0.16497695  0.16632046  0.49945917
   0.16685973  0.91641347  0.50040650
   0.33246121  0.83415945  0.40242206
   0.24754937  0.49929206  0.59589380
   0.17005195  0.66532989  0.50032158
   0.24911155  0.25190552  0.59663036
   0.08307252  0.58273822  0.40282357
   0.08198782  0.08425962  0.40412119
Direct configuration=    12
   0.24631088  0.74983184  0.60073974
   0.83413967  0.83352155  0.39310545
   0.75180362  0.49840321  0.60227652
   0.66666346  0.17042922  0.50017681
   0.50029777  0.74987324  0.60231605
   0.41433528  0.91588704  0.49905114
   0.58388150  0.83291009  0.39591884
   0.49931771  0.49832218  0.60010803
   0.58531426  0.58236242  0.39968737
   0.49974350  0.25031915  0.60433876
   0.58449008  0.33096632  0.39816730
   0.49987040  0.00204883  0.60686887
   0.41278262  0.16997326  0.49968088
   0.66631422  0.91651266  0.50021110
   0.33191573  0.58300393  0.39955463
   0.75353865  0.74923144  0.60415907
   0.00021270  0.24905493  0.60209821
   0.91693461  0.41539369  0.49938188
   0.24757094  0.00159565  0.60282685
   0.08385268  0.83476905  0.39806857
   0.08257443  0.33457620  0.39686691
   0.91966426  0.91706498  0.49994564
   0.91874315  0.66538025  0.49997467
   0.33187079  0.08401548  0.39491739
   0.83423826  0.08407205  0.40233866
   0.75151706 -0.00013746  0.59793047
   0.16734776  0.41657288  0.49879700
   0.75107300  0.24810690  0.59699384
   0.83386154  0.58326622  0.40244076
   0.66574166  0.66586532  0.50007180
  -0.00207857 -0.00005822  0.59745493
   0.91819448  0.16745833  0.50036545
   0.66522147  0.41871962  0.49971143
   0.83509512  0.33101303  0.40286896
   0.41673284  0.66530892  0.50010514
   0.33292593  0.33333561  0.40205043
   0.00346099  0.49881141  0.59736463
   0.41493716  0.41878152  0.49995492
   0.00017370  0.74940703  0.59702918
   0.58325841  0.08360789  0.40217630
   0.16515937  0.16634574  0.49944852
   0.16702366  0.91630333  0.50056482
   0.33233460  0.83410511  0.40256151
   0.24747159  0.49911118  0.59565884
   0.17007168  0.66557892  0.50015714
   0.24896707  0.25182706  0.59646476
   0.08311360  0.58281675  0.40276313
   0.08201468  0.08433422  0.40428668
Direct configuration=    13
   0.24629375  0.74987771  0.60078355
   0.83422686  0.83355289  0.39287324
   0.75168301  0.49850813  0.60232473
   0.66658103  0.17037224  0.50018130
   0.50038408  0.74988875  0.60238346
   0.41448383  0.91571767  0.49908697
   0.58393527  0.83289897  0.39587829
   0.49942029  0.49828455  0.60009663
   0.58539439  0.58240525  0.39971243
   0.49977367  0.25023067  0.60444365
   0.58455298  0.33080841  0.39815682
   0.49985976  0.00199029  0.60713172
   0.41282442  0.17002004  0.49970802
   0.66634186  0.91648330  0.50022646
   0.33178136  0.58307420  0.39955654
   0.75346466  0.74919989  0.60425348
   0.00025107  0.24898091  0.60215293
   0.91684969  0.41560791  0.49940871
   0.24759379  0.00154542  0.60291250
   0.08389090  0.83467041  0.39804068
   0.08262443  0.33462444  0.39676062
   0.91951274  0.91708388  0.49979280
   0.91856245  0.66546981  0.49991225
   0.33184372  0.08405560  0.39477528
   0.83425082  0.08402971  0.40237801
   0.75140807 -0.00010167  0.59783182
   0.16732640  0.41648817  0.49867902
   0.75105197  0.24807923  0.59700567
   0.83387769  0.58334883  0.40253356
   0.66570607  0.66598046  0.50014563
  -0.00203886 -0.00003166  0.59742822
   0.91811160  0.16743065  0.50041503
   0.66520021  0.41881260  0.49972335
   0.83513109  0.33097935  0.40293114
   0.41675172  0.66541449  0.50014427
   0.33290113  0.33338928  0.40204769
   0.00353603  0.49868636  0.59727674
   0.41501607  0.41868190  0.49991740
   0.00012764  0.74941949  0.59691290
   0.58330951  0.08361714  0.40226562
   0.16525912  0.16635957  0.49944269
   0.16711332  0.91624310  0.50065140
   0.33226537  0.83407540  0.40263778
   0.24742906  0.49901227  0.59553035
   0.17008246  0.66571510  0.50006721
   0.24888806  0.25178415  0.59637419
   0.08313606  0.58285970  0.40273008
   0.08202937  0.08437502  0.40437718
Direct configuration=    14
   0.24639686  0.74971938  0.60079816
   0.83414872  0.83360855  0.39258760
   0.75177732  0.49832097  0.60234571
   0.66656727  0.17039729  0.50021953
   0.50027563  0.74999949  0.60245363
   0.41480437  0.91569083  0.49918354
   0.58391426  0.83306915  0.39594825
   0.49939134  0.49819573  0.60002843
   0.58542049  0.58238149  0.39984314
   0.49958943  0.25025064  0.60450921
   0.58449606  0.33090880  0.39820567
   0.49973985  0.00192471  0.60745518
   0.41305419  0.16979808  0.49974124
   0.66598569  0.91653280  0.50025019
   0.33202555  0.58296452  0.39957409
   0.75353350  0.74926838  0.60434007
   0.00005889  0.24907414  0.60217301
   0.91669907  0.41555605  0.49946608
   0.24781434  0.00141269  0.60299525
   0.08384031  0.83485096  0.39802526
   0.08252781  0.33482033  0.39663733
   0.91949862  0.91712044  0.49959522
   0.91865270  0.66559616  0.49978533
   0.33204293  0.08388553  0.39468471
   0.83442195  0.08392902  0.40239026
   0.75142632 -0.00028431  0.59770502
   0.16725763  0.41669391  0.49848263
   0.75102503  0.24811493  0.59702657
   0.83395516  0.58348703  0.40261214
   0.66541978  0.66626308  0.50030343
  -0.00212748 -0.00006070  0.59733039
   0.91800621  0.16741288  0.50048261
   0.66529844  0.41886157  0.49978628
   0.83522409  0.33093523  0.40306296
   0.41691726  0.66548722  0.50022997
   0.33296624  0.33343733  0.40203420
   0.00348774  0.49862081  0.59713486
   0.41502993  0.41853733  0.49985631
  -0.00004681  0.74948679  0.59668411
   0.58331959  0.08348800  0.40237066
   0.16540278  0.16624401  0.49944919
   0.16697967  0.91647645  0.50076045
   0.33217916  0.83419306  0.40276178
   0.24757751  0.49891868  0.59527832
   0.16984512  0.66579396  0.49994486
   0.24901815  0.25150243  0.59626137
   0.08309209  0.58279934  0.40264239
   0.08206927  0.08431482  0.40456340
Direct configuration=    15
   0.24640706  0.74970372  0.60079961
   0.83414099  0.83361406  0.39255935
   0.75178665  0.49830246  0.60234779
   0.66656591  0.17039977  0.50022331
   0.50026490  0.75001044  0.60246057
   0.41483607  0.91568817  0.49919309
   0.58391218  0.83308598  0.39595517
   0.49938848  0.49818695  0.60002169
   0.58542307  0.58237914  0.39985607
   0.49957121  0.25025261  0.60451569
   0.58449042  0.33091873  0.39821050
   0.49972799  0.00191822  0.60748718
   0.41307691  0.16977613  0.49974452
   0.66595046  0.91653770  0.50025254
   0.33204970  0.58295368  0.39957583
   0.75354031  0.74927515  0.60434863
   0.00003988  0.24908336  0.60217499
   0.91668417  0.41555093  0.49947175
   0.24783616  0.00139957  0.60300343
   0.08383531  0.83486882  0.39802373
   0.08251826  0.33483970  0.39662514
   0.91949722  0.91712406  0.49957568
   0.91866162  0.66560866  0.49977278
   0.33206264  0.08386871  0.39467575
   0.83443887  0.08391906  0.40239147
   0.75142812 -0.00030237  0.59769248
   0.16725083  0.41671425  0.49846320
   0.75102236  0.24811846  0.59702864
   0.83396282  0.58350070  0.40261991
   0.66539146  0.66629104  0.50031904
  -0.00213625 -0.00006358  0.59732072
   0.91799578  0.16741112  0.50048929
   0.66530816  0.41886642  0.49979250
   0.83523329  0.33093086  0.40307600
   0.41693363  0.66549442  0.50023845
   0.33297268  0.33344209  0.40203286
   0.00348296  0.49861433  0.59712083
   0.41503130  0.41852303  0.49985027
  -0.00006406  0.74949345  0.59666148
   0.58332058  0.08347522  0.40238105
   0.16541699  0.16623258  0.49944983
   0.16696645  0.91649953  0.50077123
   0.33217063  0.83420470  0.40277404
   0.24759220  0.49890942  0.59525340
   0.16982164  0.66580176  0.49993276
   0.24903102  0.25147457  0.59625021
   0.08308774  0.58279337  0.40263371
   0.08207321  0.08430886  0.40458182
Direct configuration=    16
   0.24639154  0.74952974  0.60075984
   0.83405227  0.83363786  0.39239597
   0.75178374  0.49828152  0.60235893
   0.66664889  0.17046846  0.50026783
   0.50028502  0.74987728  0.60254422
   0.41460680  0.91593855  0.49929996
   0.58391118  0.83306682  0.39608457
   0.49931486  0.49812361  0.59994829
   0.58546876  0.58246233  0.40002022
   0.49946811  0.25019245  0.60449856
   0.58458318  0.33095545  0.39829356
   0.49977799  0.00193701  0.60769996
   0.41298898  0.16980765  0.49976133
   0.66599608  0.91650018  0.50029804
   0.33222918  0.58299676  0.39960396
   0.75360048  0.74925417  0.60436974
   0.00009592  0.24895939  0.60215327
   0.91674663  0.41541842  0.49949619
   0.24771460  0.00141639  0.60303680
   0.08391038  0.83489784  0.39799455
   0.08254947  0.33468370  0.39658037
   0.91940721  0.91722113  0.49944646
   0.91858366  0.66569157  0.49965666
   0.33204887  0.08390552  0.39470039
   0.83442106  0.08400542  0.40234602
   0.75143253 -0.00039487  0.59761337
   0.16727415  0.41675879  0.49833871
   0.75089862  0.24809030  0.59706991
   0.83387299  0.58361379  0.40264912
   0.66544113  0.66624191  0.50046360
  -0.00215495 -0.00017788  0.59722939
   0.91796247  0.16747445  0.50054738
   0.66530400  0.41881079  0.49987447
   0.83531362  0.33090374  0.40317717
   0.41686751  0.66550748  0.50032540
   0.33307596  0.33330946  0.40199115
   0.00344511  0.49863596  0.59698430
   0.41499103  0.41857945  0.49979768
  -0.00005596  0.74946055  0.59646024
   0.58334223  0.08346414  0.40241120
   0.16543072  0.16625276  0.49945658
   0.16694476  0.91666285  0.50084592
   0.33216666  0.83431727  0.40288921
   0.24764907  0.49892816  0.59503849
   0.16985063  0.66578650  0.49983756
   0.24910231  0.25133181  0.59618654
   0.08308863  0.58285707  0.40247800
   0.08217193  0.08435631  0.40471889
Direct configuration=    17
   0.24638354  0.74944006  0.60073934
   0.83400654  0.83365013  0.39231177
   0.75178224  0.49827073  0.60236467
   0.66669167  0.17050386  0.50029078