       N       E                     dE             d eps       ncg     rms          rms(c)
DAV:   1     0.320031310946E+04    0.32003E+04   -0.18983E+05  3672   0.112E+03
DAV:   2     0.128874867915E+02   -0.31874E+04   -0.29294E+04  4380   0.263E+02
DAV:   3    -0.202233573089E+03   -0.21512E+03   -0.19969E+03  4116   0.651E+01
DAV:   4    -0.208051819143E+03   -0.58182E+01   -0.57567E+01  4176   0.109E+01
DAV:   5    -0.208251797848E+03   -0.19998E+00   -0.19917E+00  4464   0.201E+00    0.619E+01
RMM:   6    -0.207535503289E+03    0.71629E+00   -0.10365E+02  3672   0.158E+01    0.571E+01
RMM:   7    -0.215245927675E+03   -0.77104E+01   -0.63453E+01  3678   0.127E+01    0.502E+01
RMM:   8    -0.218903047016E+03   -0.36571E+01   -0.89066E+01  3672   0.141E+01    0.422E+01
RMM:   9    -0.211153833808E+03    0.77492E+01   -0.42701E+01  3678   0.104E+01    0.340E+01
RMM:  10    -0.198870356038E+03    0.12283E+02   -0.20775E+01  3682   0.757E+00    0.207E+01
RMM:  11    -0.194429970238E+03    0.44404E+01   -0.14104E+01  3679   0.602E+00    0.139E+01
RMM:  12    -0.190798963864E+03    0.36310E+01   -0.52797E+00  3680   0.356E+00    0.100E+01
RMM:  13    -0.190329134882E+03    0.46983E+00   -0.15317E+00  3680   0.194E+00    0.687E+00
RMM:  14    -0.190326097158E+03    0.30377E-02   -0.64594E-01  3680   0.116E+00    0.801E+00
RMM:  15    -0.190322560580E+03    0.35366E-02   -0.61639E-01  3679   0.123E+00    0.633E+00
RMM:  16    -0.190144057709E+03    0.17850E+00   -0.47761E-01  3680   0.107E+00    0.487E+00
RMM:  17    -0.189954344460E+03    0.18971E+00   -0.28970E-01  3678   0.827E-01    0.328E+00
RMM:  18    -0.189871178193E+03    0.83166E-01   -0.10698E-01  3679   0.500E-01    0.198E+00
RMM:  19    -0.189819231993E+03    0.51946E-01   -0.43853E-02  3680   0.308E-01    0.901E-01
RMM:  20    -0.189813684595E+03    0.55474E-02   -0.10232E-02  3681   0.146E-01    0.685E-01
RMM:  21    -0.189811740446E+03    0.19441E-02   -0.36354E-03  3682   0.928E-02    0.540E-01
RMM:  22    -0.189809888053E+03    0.18524E-02   -0.36073E-03  3679   0.888E-02    0.434E-01
RMM:  23    -0.189808093715E+03    0.17943E-02   -0.25252E-03  3681   0.744E-02    0.224E-01
RMM:  24    -0.189807836577E+03    0.25714E-03   -0.10566E-03  3679   0.485E-02    0.147E-01
RMM:  25    -0.189807875305E+03   -0.38727E-04   -0.30270E-04  3681   0.272E-02    0.723E-02
RMM:  26    -0.189808069049E+03   -0.19374E-03   -0.12491E-04  3680   0.169E-02    0.632E-02
RMM:  27    -0.189808452581E+03   -0.38353E-03   -0.76425E-05  3678   0.123E-02    0.426E-02
RMM:  28    -0.189808819284E+03   -0.36670E-03   -0.51364E-05  3677   0.103E-02    0.338E-02
RMM:  29    -0.189809234049E+03   -0.41477E-03   -0.30984E-05  3672   0.783E-03    0.271E-02
RMM:  30    -0.189809718251E+03   -0.48420E-03   -0.27226E-05  3669   0.725E-03    0.205E-02
RMM:  31    -0.189810319396E+03   -0.60115E-03   -0.34887E-05  3672   0.789E-03    0.237E-02
RMM:  32    -0.189810777651E+03   -0.45825E-03   -0.29938E-05  3542   0.747E-03    0.142E-02
RMM:  33    -0.189810955566E+03   -0.17792E-03   -0.11634E-05  2965   0.433E-03    0.971E-03
RMM:  34    -0.189811089252E+03   -0.13369E-03   -0.50858E-06  2632   0.296E-03    0.559E-03
RMM:  35    -0.189811165326E+03   -0.76074E-04   -0.19818E-06  2320   0.195E-03    0.336E-03
RMM:  36    -0.189811250305E+03   -0.84980E-04   -0.17628E-06  2314   0.183E-03    0.202E-03
RMM:  37    -0.189811289568E+03   -0.39263E-04   -0.81651E-07  2158   0.121E-03    0.220E-03
RMM:  38    -0.189811312212E+03   -0.22644E-04   -0.47853E-07  2133   0.952E-04    0.180E-03
RMM:  39    -0.189811323103E+03   -0.10891E-04   -0.22524E-07  1549   0.627E-04    0.154E-03
RMM:  40    -0.189811329862E+03   -0.67589E-05   -0.16659E-07  1728   0.612E-04    0.771E-04
RMM:  41    -0.189811331827E+03   -0.19658E-05   -0.54728E-08  1037   0.357E-04    0.600E-04
RMM:  42    -0.189811332628E+03   -0.80051E-06   -0.23439E-08   683   0.310E-04
   1 F= -.18981133E+03 E0= -.18966993E+03  d E =-.189811E+03
       N       E                     dE             d eps       ncg     rms          rms(c)
DAV:   1    -0.190299023841E+03   -0.48769E+00   -0.16253E+02  3708   0.195E+01    0.205E+00
RMM:   2    -0.190483038375E+03   -0.18401E+00   -0.17517E+00  3681   0.285E+00    0.185E+00
RMM:   3    -0.190543288747E+03   -0.60250E-01   -0.17181E-01  3712   0.714E-01    0.286E+00
RMM:   4    -0.190466348669E+03    0.76940E-01   -0.58498E-02  3687   0.396E-01    0.122E+00
RMM:   5    -0.190467406872E+03   -0.10582E-02   -0.39689E-02  3681   0.315E-01    0.116E+00
RMM:   6    -0.190460836710E+03    0.65702E-02   -0.21293E-02  3684   0.232E-01    0.899E-01
RMM:   7    -0.190454518923E+03    0.63178E-02   -0.86714E-03  3681   0.150E-01    0.346E-01
RMM:   8    -0.190453079945E+03    0.14390E-02   -0.18306E-03  3683   0.641E-02    0.201E-01
RMM:   9    -0.190452705269E+03    0.37468E-03   -0.84465E-04  3680   0.461E-02    0.115E-01
RMM:  10    -0.190452576800E+03    0.12847E-03   -0.42507E-04  3682   0.320E-02    0.741E-02
RMM:  11    -0.190452535995E+03    0.40805E-04   -0.96777E-05  3687   0.155E-02    0.438E-02
RMM:  12    -0.190452531004E+03    0.49909E-05   -0.25125E-05  3680   0.807E-03    0.332E-02
RMM:  13    -0.190452523246E+03    0.77575E-05   -0.12239E-05  3627   0.574E-03    0.144E-02
RMM:  14    -0.190452522661E+03    0.58493E-06   -0.47293E-06  2809   0.351E-03
   2 F= -.19045252E+03 E0= -.19031081E+03  d E =-.641190E+00
       N       E                     dE             d eps       ncg     rms          rms(c)
DAV:   1    -0.189867723458E+03    0.58480E+00   -0.15120E+03  3672   0.603E+01    0.530E+00
RMM:   2    -0.191486080644E+03   -0.16184E+01   -0.15856E+01  3681   0.857E+00    0.453E+00
RMM:   3    -0.191899349227E+03   -0.41327E+00   -0.13125E+00  3709   0.197E+00    0.704E+00
RMM:   4    -0.191345062155E+03    0.55429E+00   -0.34982E-01  3686   0.986E-01    0.285E+00
RMM:   5    -0.191373332718E+03   -0.28271E-01   -0.23004E-01  3681   0.748E-01    0.315E+00
RMM:   6    -0.191349720331E+03    0.23612E-01   -0.18610E-01  3684   0.668E-01    0.278E+00
RMM:   7    -0.191284358337E+03    0.65362E-01   -0.78822E-02  3680   0.447E-01    0.119E+00
RMM:   8    -0.191271771447E+03    0.12587E-01   -0.24839E-02  3681   0.236E-01    0.776E-01
RMM:   9    -0.191264974648E+03    0.67968E-02   -0.90459E-03  3680   0.153E-01    0.301E-01
RMM:  10    -0.191264470671E+03    0.50398E-03   -0.30767E-03  3681   0.843E-02    0.274E-01
RMM:  11    -0.191263881839E+03    0.58883E-03   -0.10595E-03  3686   0.504E-02    0.163E-01
RMM:  12    -0.191263755890E+03    0.12595E-03   -0.38811E-04  3685   0.315E-02    0.909E-02
RMM:  13    -0.191263711170E+03    0.44721E-04   -0.17143E-04  3677   0.210E-02    0.453E-02
RMM:  14    -0.191263708929E+03    0.22405E-05   -0.47852E-05  3676   0.110E-02    0.323E-02
RMM:  15    -0.191263702669E+03    0.62602E-05   -0.14811E-05  3655   0.626E-03    0.161E-02
RMM:  16    -0.191263703846E+03   -0.11769E-05   -0.51243E-06  2896   0.367E-03    0.106E-02
RMM:  17    -0.191263706702E+03   -0.28565E-05   -0.27034E-06  2264   0.280E-03    0.587E-03
RMM:  18    -0.191263709326E+03   -0.26231E-05   -0.10622E-06  2043   0.192E-03    0.388E-03
RMM:  19    -0.191263711829E+03   -0.25032E-05   -0.35572E-07  2005   0.111E-03    0.199E-03
RMM:  20    -0.191263713487E+03   -0.16582E-05   -0.90205E-08  1492   0.570E-04    0.124E-03
RMM:  21    -0.191263715847E+03   -0.23602E-05   -0.30032E-08   869   0.426E-04    0.901E-04
RMM:  22    -0.191263718384E+03   -0.25372E-05   -0.58790E-08  1268   0.474E-04    0.120E-03
RMM:  23    -0.191263720977E+03   -0.25924E-05   -0.66135E-08  1208   0.433E-04    0.116E-03
RMM:  24    -0.191263724582E+03   -0.36058E-05   -0.12940E-07  1374   0.473E-04    0.826E-04
RMM:  25    -0.191263725930E+03   -0.13474E-05   -0.25343E-08   649   0.376E-04    0.602E-04
RMM:  26    -0.191263726950E+03   -0.10203E-05   -0.82680E-08  1145   0.432E-04    0.413E-04
RMM:  27    -0.191263727482E+03   -0.53187E-06   -0.36244E-08   723   0.344E-04
   3 F= -.19126373E+03 E0= -.19112272E+03  d E =-.145239E+01
       N       E                     dE             d eps       ncg     rms          rms(c)
DAV:   1    -0.191591754887E+03   -0.32803E+00   -0.32089E+02  3672   0.277E+01    0.207E+00
RMM:   2    -0.191966654567E+03   -0.37490E+00   -0.34494E+00  3681   0.400E+00    0.248E+00
RMM:   3    -0.192006397156E+03   -0.39743E-01   -0.27192E-01  3712   0.895E-01    0.317E+00
RMM:   4    -0.191913171204E+03    0.93226E-01   -0.43842E-02  3685   0.367E-01    0.136E+00
RMM:   5    -0.191911716237E+03    0.14550E-02   -0.28995E-02  3681   0.275E-01    0.127E+00
RMM:   6    -0.191905541049E+03    0.61752E-02   -0.42918E-02  3684   0.325E-01    0.102E+00
RMM:   7    -0.191899459357E+03    0.60817E-02   -0.16419E-02  3681   0.203E-01    0.609E-01
RMM:   8    -0.191895193373E+03    0.42660E-02   -0.36054E-03  3684   0.920E-02    0.261E-01
RMM:   9    -0.191894539732E+03    0.65364E-03   -0.13706E-03  3680   0.594E-02    0.141E-01
RMM:  10    -0.191894357208E+03    0.18252E-03   -0.49171E-04  3681   0.348E-02    0.101E-01
RMM:  11    -0.191894273588E+03    0.83621E-04   -0.15266E-04  3684   0.194E-02    0.618E-02
RMM:  12    -0.191894250264E+03    0.23324E-04   -0.13573E-04  3682   0.180E-02    0.387E-02
RMM:  13    -0.191894240210E+03    0.10054E-04   -0.46398E-05  3681   0.106E-02    0.167E-02
RMM:  14    -0.191894240956E+03   -0.74524E-06   -0.56586E-06  2938   0.397E-03
   4 F= -.19189424E+03 E0= -.19175545E+03  d E =-.630513E+00
       N       E                     dE             d eps       ncg     rms          rms(c)
DAV:   1    -0.190101552596E+03    0.17927E+01   -0.30022E+03  3672   0.867E+01    0.538E+00
RMM:   2    -0.193222137725E+03   -0.31206E+01   -0.30156E+01  3680   0.119E+01    0.615E+00
RMM:   3    -0.193469026983E+03   -0.24689E+00   -0.19835E+00  3710   0.241E+00    0.732E+00
RMM:   4    -0.192907974233E+03    0.56105E+00   -0.29114E-01  3685   0.936E-01    0.364E+00
RMM:   5    -0.192884799809E+03    0.23174E-01   -0.16976E-01  3683   0.650E-01    0.348E+00
RMM:   6    -0.192860772366E+03    0.24027E-01   -0.37302E-01  3681   0.938E-01    0.315E+00
RMM:   7    -0.192804562208E+03    0.56210E-01   -0.14772E-01  3681   0.602E-01    0.226E+00
RMM:   8    -0.192751604284E+03    0.52958E-01   -0.48915E-02  3686   0.346E-01    0.835E-01
RMM:   9    -0.192745522043E+03    0.60822E-02   -0.12240E-02  3680   0.175E-01    0.530E-01
RMM:  10    -0.192743498712E+03    0.20233E-02   -0.48548E-03  3682   0.110E-01    0.407E-01
RMM:  11    -0.192742149211E+03    0.13495E-02   -0.30842E-03  3679   0.858E-02    0.257E-01
RMM:  12    -0.192741532794E+03    0.61642E-03   -0.21564E-03  3683   0.721E-02    0.134E-01
RMM:  13    -0.192741528437E+03    0.43567E-05   -0.84632E-04  3683   0.453E-02    0.113E-01
RMM:  14    -0.192741417748E+03    0.11069E-03   -0.19317E-04  3686   0.224E-02    0.493E-02
RMM:  15    -0.192741400050E+03    0.17699E-04   -0.40260E-05  3678   0.102E-02    0.306E-02
RMM:  16    -0.192741395149E+03    0.49012E-05   -0.20580E-05  3677   0.719E-03    0.164E-02
RMM:  17    -0.192741398631E+03   -0.34819E-05   -0.56427E-06  2952   0.377E-03    0.984E-03
RMM:  18    -0.192741406359E+03   -0.77286E-05   -0.23925E-06  2236   0.264E-03    0.525E-03
RMM:  19    -0.192741410156E+03   -0.37973E-05   -0.73408E-07  2055   0.157E-03    0.361E-03
RMM:  20    -0.192741415261E+03   -0.51045E-05   -0.27810E-07  2067   0.882E-04    0.197E-03
RMM:  21    -0.192741419555E+03   -0.42944E-05   -0.16279E-07  1725   0.636E-04    0.138E-03
RMM:  22    -0.192741424096E+03   -0.45407E-05   -0.10445E-07  1363   0.497E-04    0.153E-03
RMM:  23    -0.192741430380E+03   -0.62841E-05   -0.22206E-07  1770   0.576E-04    0.166E-03
RMM:  24    -0.192741435366E+03   -0.49863E-05   -0.20068E-07  1365   0.534E-04    0.110E-03
RMM:  25    -0.192741438278E+03   -0.29112E-05   -0.20194E-07  1583   0.521E-04    0.790E-04
RMM:  26    -0.192741439220E+03   -0.94211E-06   -0.65092E-08   873   0.356E-04
   5 F= -.19274144E+03 E0= -.19261044E+03  d E =-.147771E+01
       N       E                     dE             d eps       ncg     rms          rms(c)
DAV:   1    -0.192712122501E+03    0.29316E-01   -0.42673E+01  3696   0.101E+01    0.629E-01
RMM:   2    -0.192763685592E+03   -0.51563E-01   -0.47110E-01  3681   0.148E+00    0.948E-01
RMM:   3    -0.192763638039E+03    0.47553E-04   -0.33986E-02  3719   0.320E-01    0.942E-01
RMM:   4    -0.192755414604E+03    0.82234E-02   -0.41698E-03  3685   0.116E-01    0.391E-01
RMM:   5    -0.192755314556E+03    0.10005E-03   -0.22489E-03  3682   0.772E-02    0.381E-01
RMM:   6    -0.192754288261E+03    0.10263E-02   -0.58861E-03  3682   0.120E-01    0.249E-01
RMM:   7    -0.192753993720E+03    0.29454E-03   -0.18832E-03  3682   0.679E-02    0.173E-01
RMM:   8    -0.192753698741E+03    0.29498E-03   -0.38287E-04  3688   0.308E-02    0.887E-02
RMM:   9    -0.192753627125E+03    0.71616E-04   -0.14230E-04  3681   0.190E-02    0.546E-02
RMM:  10    -0.192753596007E+03    0.31118E-04   -0.60717E-05  3680   0.122E-02    0.323E-02
RMM:  11    -0.192753588101E+03    0.79058E-05   -0.21272E-05  3673   0.711E-03    0.209E-02
RMM:  12    -0.192753585660E+03    0.24413E-05   -0.23375E-05  3674   0.736E-03    0.128E-02
RMM:  13    -0.192753585036E+03    0.62391E-06   -0.58681E-06  3151   0.384E-03
   6 F= -.19275359E+03 E0= -.19262356E+03  d E =-.148986E+01
       N       E                     dE             d eps       ncg     rms          rms(c)
DAV:   1    -0.192629462715E+03    0.12412E+00   -0.33822E+02  3672   0.285E+01    0.213E+00
RMM:   2    -0.193090034111E+03   -0.46057E+00   -0.38791E+00  3681   0.417E+00    0.353E+00
RMM:   3    -0.193056537575E+03    0.33497E-01   -0.31859E-01  3704   0.953E-01    0.280E+00
RMM:   4    -0.192986186387E+03    0.70351E-01   -0.50314E-02  3686   0.382E-01    0.143E+00
RMM:   5    -0.192973753256E+03    0.12433E-01   -0.22883E-02  3681   0.244E-01    0.953E-01
RMM:   6    -0.192973685778E+03    0.67479E-04   -0.46835E-02  3681   0.336E-01    0.900E-01
RMM:   7    -0.192967569461E+03    0.61163E-02   -0.15422E-02  3680   0.195E-01    0.566E-01
RMM:   8    -0.192964127163E+03    0.34423E-02   -0.35977E-03  3684   0.939E-02    0.260E-01
RMM:   9    -0.192963461170E+03    0.66599E-03   -0.13432E-03  3679   0.575E-02    0.149E-01
RMM:  10    -0.192963254948E+03    0.20622E-03   -0.47784E-04  3681   0.340E-02    0.945E-02
RMM:  11    -0.192963184131E+03    0.70817E-04   -0.16091E-04  3682   0.197E-02    0.591E-02
RMM:  12    -0.192963166030E+03    0.18101E-04   -0.13221E-04  3678   0.176E-02    0.403E-02
RMM:  13    -0.192963153886E+03    0.12144E-04   -0.54130E-05  3679   0.114E-02    0.161E-02
RMM:  14    -0.192963155295E+03   -0.14089E-05   -0.82605E-06  3403   0.466E-03    0.133E-02
RMM:  15    -0.192963154275E+03    0.10197E-05   -0.21289E-06  2233   0.257E-03    0.556E-03
RMM:  16    -0.192963155202E+03   -0.92712E-06   -0.10067E-06  2006   0.174E-03
   7 F= -.19296316E+03 E0= -.19283484E+03  d E =-.209570E+00
       N       E                     dE             d eps       ncg     rms          rms(c)
DAV:   1    -0.192959130107E+03    0.40242E-02   -0.69958E+00  3732   0.408E+00    0.298E-01
RMM:   2    -0.192968926744E+03   -0.97966E-02   -0.81860E-02  3681   0.605E-01    0.534E-01
RMM:   3    -0.192967734608E+03    0.11921E-02   -0.67240E-03  3707   0.139E-01    0.390E-01
RMM:   4    -0.192966395507E+03    0.13391E-02   -0.92697E-04  3686   0.528E-02    0.178E-01
RMM:   5    -0.192966302464E+03    0.93043E-04   -0.43826E-04  3680   0.340E-02    0.138E-01
RMM:   6    -0.192966302403E+03    0.61118E-07   -0.98752E-04  3681   0.492E-02    0.114E-01
RMM:   7    -0.192966200955E+03    0.10145E-03   -0.30207E-04  3680   0.272E-02    0.647E-02
RMM:   8    -0.192966159296E+03    0.41660E-04   -0.62092E-05  3684   0.125E-02    0.341E-02
RMM:   9    -0.192966148440E+03    0.10856E-04   -0.24567E-05  3672   0.778E-03    0.213E-02
RMM:  10    -0.192966144068E+03    0.43716E-05   -0.98656E-06  3644   0.488E-03    0.122E-02
RMM:  11    -0.192966143084E+03    0.98428E-06   -0.27640E-06  2374   0.269E-03
   8 F= -.19296614E+03 E0= -.19283807E+03  d E =-.212558E+00
       N       E                     dE             d eps       ncg     rms          rms(c)
DAV:   1    -0.192963702734E+03    0.24413E-02   -0.24676E+01  3684   0.766E+00    0.489E-01
RMM:   2    -0.192999232946E+03   -0.35530E-01   -0.28999E-01  3681   0.114E+00    0.101E+00
RMM:   3    -0.192993039435E+03    0.61935E-02   -0.22359E-02  3710   0.255E-01    0.583E-01
RMM:   4    -0.192989995369E+03    0.30441E-02   -0.27550E-03  3688   0.917E-02    0.309E-01
RMM:   5    -0.192989520840E+03    0.47453E-03   -0.11908E-03  3687   0.567E-02    0.248E-01
RMM:   6    -0.192989562678E+03   -0.41837E-04   -0.32906E-03  3680   0.891E-02    0.257E-01
RMM:   7    -0.192989044974E+03    0.51770E-03   -0.16694E-03  3680   0.637E-02    0.119E-01
RMM:   8    -0.192988936449E+03    0.10853E-03   -0.25940E-04  3686   0.253E-02    0.774E-02
RMM:   9    -0.192988870775E+03    0.65674E-04   -0.99347E-05  3679   0.159E-02    0.422E-02
RMM:  10    -0.192988850416E+03    0.20359E-04   -0.42519E-05  3676   0.998E-03    0.252E-02
RMM:  11    -0.192988843809E+03    0.66070E-05   -0.15794E-05  3672   0.602E-03    0.160E-02
RMM:  12    -0.192988842979E+03    0.83049E-06   -0.11549E-05  3665   0.511E-03    0.113E-02
RMM:  13    -0.192988842497E+03    0.48194E-06   -0.65239E-06  3464   0.391E-03
   9 F= -.19298884E+03 E0= -.19286104E+03  d E =-.226994E-01
       N       E                     dE             d eps       ncg     rms          rms(c)
DAV:   1    -0.192984220183E+03    0.46228E-02   -0.72587E+00  3696   0.415E+00    0.262E-01
RMM:   2    -0.192994645581E+03   -0.10425E-01   -0.85443E-02  3681   0.618E-01    0.548E-01
RMM:   3    -0.192992732002E+03    0.19136E-02   -0.65857E-03  3711   0.138E-01    0.312E-01
RMM:   4    -0.192991889832E+03    0.84217E-03   -0.79235E-04  3688   0.493E-02    0.165E-01
RMM:   5    -0.192991775189E+03    0.11464E-03   -0.33854E-04  3687   0.303E-02    0.134E-01
RMM:   6    -0.192991812715E+03   -0.37526E-04   -0.96676E-04  3680   0.483E-02    0.139E-01
RMM:   7    -0.192991661934E+03    0.15078E-03   -0.50069E-04  3680   0.349E-02    0.609E-02
RMM:   8    -0.192991637036E+03    0.24897E-04   -0.73569E-05  3686   0.135E-02    0.419E-02
RMM:   9    -0.192991618108E+03    0.18928E-04   -0.28060E-05  3672   0.845E-03    0.227E-02
RMM:  10    -0.192991612222E+03    0.58857E-05   -0.12317E-05  3667   0.536E-03    0.134E-02
RMM:  11    -0.192991610472E+03    0.17503E-05   -0.43837E-06  2795   0.326E-03    0.866E-03
RMM:  12    -0.192991610453E+03    0.19034E-07   -0.36647E-06  2434   0.315E-03
  10 F= -.19299161E+03 E0= -.19286396E+03  d E =-.254674E-01
       N       E                     dE             d eps       ncg     rms          rms(c)
DAV:   1    -0.192987798174E+03    0.38123E-02   -0.11333E+01  3672   0.519E+00    0.337E-01
RMM:   2    -0.193002470119E+03   -0.14672E-01   -0.13077E-01  3681   0.769E-01    0.562E-01
RMM:   3    -0.193001279271E+03    0.11908E-02   -0.93846E-03  3712   0.165E-01    0.420E-01
RMM:   4    -0.192999738778E+03    0.15405E-02   -0.13599E-03  3686   0.642E-02    0.210E-01
RMM:   5    -0.192999598122E+03    0.14066E-03   -0.81803E-04  3682   0.462E-02    0.191E-01
RMM:   6    -0.192999626611E+03   -0.28490E-04   -0.17446E-03  3679   0.648E-02    0.182E-01
RMM:   7    -0.192999340945E+03    0.28567E-03   -0.71660E-04  3679   0.418E-02    0.842E-02
RMM:   8    -0.192999296530E+03    0.44416E-04   -0.12278E-04  3687   0.175E-02    0.550E-02
RMM:   9    -0.192999257296E+03    0.39233E-04   -0.52914E-05  3676   0.116E-02    0.269E-02
RMM:  10    -0.192999248902E+03    0.83941E-05   -0.19490E-05  3672   0.672E-03    0.176E-02
RMM:  11    -0.192999245116E+03    0.37860E-05   -0.91188E-06  3643   0.452E-03    0.104E-02
RMM:  12    -0.192999244818E+03    0.29792E-06   -0.64649E-06  3530   0.383E-03
  11 F= -.19299924E+03 E0= -.19287184E+03  d E =-.763437E-02
       N       E                     dE             d eps       ncg     rms          rms(c)
DAV:   1    -0.192999046850E+03    0.19827E-03   -0.32211E-01  3744   0.874E-01    0.565E-02
RMM:   2    -0.192999478050E+03   -0.43120E-03   -0.37375E-03  3681   0.130E-01    0.105E-01
RMM:   3    -0.192999411058E+03    0.66991E-04   -0.27243E-04  3712   0.282E-02    0.662E-02
RMM:   4    -0.192999376968E+03    0.34091E-04   -0.36748E-05  3686   0.106E-02    0.351E-02
RMM:   5    -0.192999375551E+03    0.14173E-05   -0.22947E-05  3676   0.775E-03    0.326E-02
RMM:   6    -0.192999379234E+03   -0.36834E-05   -0.52443E-05  3681   0.112E-02    0.313E-02
RMM:   7    -0.192999370517E+03    0.87167E-05   -0.21014E-05  3670   0.715E-03    0.134E-02
RMM:   8    -0.192999369638E+03    0.87880E-06   -0.31664E-06  2542   0.289E-03
  12 F= -.19299937E+03 E0= -.19287202E+03  d E =-.775919E-02
       N       E                     dE             d eps       ncg     rms          rms(c)
DAV:   1    -0.192999155091E+03    0.21543E-03   -0.19130E+00  3672   0.213E+00    0.150E-01
RMM:   2    -0.193001707183E+03   -0.25521E-02   -0.22888E-02  3681   0.316E-01    0.249E-01
RMM:   3    -0.193001532134E+03    0.17505E-03   -0.17712E-03  3698   0.702E-02    0.200E-01
RMM:   4    -0.193001208443E+03    0.32369E-03   -0.27180E-04  3686   0.279E-02    0.945E-02
RMM:   5    -0.193001167017E+03    0.41426E-04   -0.12093E-04  3680   0.177E-02    0.704E-02
RMM:   6    -0.193001204979E+03   -0.37962E-04   -0.28255E-04  3680   0.260E-02    0.833E-02
RMM:   7    -0.193001143543E+03    0.61436E-04   -0.14751E-04  3681   0.189E-02    0.279E-02
RMM:   8    -0.193001140010E+03    0.35324E-05   -0.18829E-05  3666   0.684E-03    0.233E-02
RMM:   9    -0.193001133058E+03    0.69520E-05   -0.72967E-06  3435   0.433E-03    0.999E-03
RMM:  10    -0.193001132307E+03    0.75110E-06   -0.23740E-06  2188   0.253E-03
  13 F= -.19300113E+03 E0= -.19287402E+03  d E =-.176267E-02
       N       E                     dE             d eps       ncg     rms          rms(c)
DAV:   1    -0.193001018007E+03    0.11505E-03   -0.20112E-01  3720   0.690E-01    0.494E-02
RMM:   2    -0.193001293692E+03   -0.27569E-03   -0.24456E-03  3681   0.103E-01    0.865E-02
RMM:   3    -0.193001263058E+03    0.30634E-04   -0.19286E-04  3698   0.231E-02    0.642E-02
RMM:   4    -0.193001232141E+03    0.30917E-04   -0.28976E-05  3687   0.911E-03    0.308E-02
RMM:   5    -0.193001228915E+03    0.32259E-05   -0.12851E-05  3659   0.579E-03    0.228E-02
RMM:   6    -0.193001234277E+03   -0.53618E-05   -0.28421E-05  3672   0.826E-03    0.269E-02
RMM:   7    -0.193001227836E+03    0.64416E-05   -0.16112E-05  3652   0.624E-03    0.811E-03
RMM:   8    -0.193001227711E+03    0.12490E-06   -0.16400E-06  2112   0.215E-03
  14 F= -.19300123E+03 E0= -.19287419E+03  d E =-.185807E-02
       N       E                     dE             d eps       ncg     rms          rms(c)
DAV:   1    -0.193000600961E+03    0.62687E-03   -0.14992E+00  3672   0.187E+00    0.125E-01
RMM:   2    -0.193002699950E+03   -0.20990E-02   -0.18653E-02  3681   0.281E-01    0.232E-01
RMM:   3    -0.193002462608E+03    0.23734E-03   -0.14537E-03  3699   0.631E-02    0.166E-01
RMM:   4    -0.193002240391E+03    0.22222E-03   -0.18681E-04  3687   0.234E-02    0.773E-02
RMM:   5    -0.193002217772E+03    0.22619E-04   -0.76679E-05  3682   0.143E-02    0.644E-02
RMM:   6    -0.193002232554E+03   -0.14783E-04   -0.19201E-04  3680   0.212E-02    0.692E-02
RMM:   7    -0.193002200017E+03    0.32538E-04   -0.14413E-04  3681   0.184E-02    0.267E-02
RMM:   8    -0.193002196940E+03    0.30768E-05   -0.17785E-05  3638   0.669E-03    0.203E-02
RMM:   9    -0.193002191933E+03    0.50067E-05   -0.47915E-06  2869   0.354E-03    0.106E-02
RMM:  10    -0.193002190910E+03    0.10235E-05   -0.24241E-06  2140   0.258E-03    0.786E-03
RMM:  11    -0.193002190323E+03    0.58640E-06   -0.22015E-06  1962   0.253E-03
  15 F= -.19300219E+03 E0= -.19287545E+03  d E =-.962613E-03
       N       E                     dE             d eps       ncg     rms          rms(c)
DAV:   1    -0.193002042030E+03    0.14888E-03   -0.17787E-01  3684   0.645E-01    0.435E-02
RMM:   2    -0.193002302776E+03   -0.26075E-03   -0.22372E-03  3682   0.972E-02    0.878E-02
RMM:   3    -0.193002254654E+03    0.48122E-04   -0.17822E-04  3699   0.221E-02    0.553E-02
RMM:   4    -0.193002232641E+03    0.22013E-04   -0.22156E-05  3682   0.808E-03    0.272E-02
RMM:   5    -0.193002230545E+03    0.20957E-05   -0.90068E-06  3372   0.496E-03    0.223E-02
RMM:   6    -0.193002234533E+03   -0.39879E-05   -0.23637E-05  3672   0.750E-03    0.243E-02
RMM:   7    -0.193002230806E+03    0.37275E-05   -0.17366E-05  3642   0.640E-03    0.962E-03
RMM:   8    -0.193002230270E+03    0.53546E-06   -0.20352E-06  2219   0.238E-03
  16 F= -.19300223E+03 E0= -.19287558E+03  d E =-.100256E-02
       N       E                     dE             d eps       ncg     rms          rms(c)
DAV:   1    -0.193001707084E+03    0.52372E-03   -0.87891E-01  3672   0.144E+00    0.956E-02
RMM:   2    -0.193002927286E+03   -0.12202E-02   -0.10691E-02  3681   0.215E-01    0.177E-01
RMM:   3    -0.193002777292E+03    0.14999E-03   -0.82347E-04  3700   0.478E-02    0.123E-01
RMM:   4    -0.193002654173E+03    0.12312E-03   -0.99004E-05  3687   0.172E-02    0.566E-02
RMM:   5    -0.193002651757E+03    0.24157E-05   -0.55961E-05  3681   0.121E-02    0.536E-02
RMM:   6    -0.193002656227E+03   -0.44697E-05   -0.13324E-04  3680   0.176E-02    0.494E-02
RMM:   7    -0.193002637480E+03    0.18747E-04   -0.61217E-05  3677   0.121E-02    0.203E-02
RMM:   8    -0.193002635628E+03    0.18519E-05   -0.85754E-06  3146   0.469E-03    0.141E-02
RMM:   9    -0.193002633351E+03    0.22775E-05   -0.24522E-06  2286   0.264E-03    0.820E-03
RMM:  10    -0.193002632641E+03    0.70924E-06   -0.17710E-06  1954   0.226E-03
  17 F= -.19300263E+03 E0= -.19287617E+03  d E =-.402371E-03
