<?xml version="1.0" encoding="ISO-8859-1"?>
<modeling>
 <generator>
  <i name="program" type="string">vasp </i>
  <i name="version" type="string">5.4.1  </i>
  <i name="subversion" type="string">24Jun15 (build Mar 14 2019 10:18:33) complex                          parallel </i>
  <i name="platform" type="string">INTEL-19.0.2+OPENMPI-3.1.3 </i>
  <i name="date" type="string">2023 01 31 </i>
  <i name="time" type="string">01:35:18 </i>
 </generator>
 <incar>
  <i type="int" name="ISTART">     0</i>
  <i type="string" name="PREC">normal</i>
  <i type="string" name="ALGO"> Fast</i>
  <i type="int" name="NELM">   500</i>
  <i type="int" name="IBRION">     2</i>
  <i type="int" name="NFREE">     2</i>
  <i name="EDIFF">      0.00000100</i>
  <i name="EDIFFG">     -0.02000000</i>
  <i type="int" name="NSW">   500</i>
  <i type="int" name="ISIF">     0</i>
  <i type="int" name="ISYM">     2</i>
  <i name="ENCUT">    400.00000000</i>
  <i name="POTIM">      0.35000000</i>
  <i type="string" name="LREAL"> Auto</i>
  <i type="logical" name="LPLANE"> T  </i>
  <i type="int" name="ISMEAR">     0</i>
  <i name="SIGMA">      0.10000000</i>
  <i type="int" name="NWRITE">     1</i>
  <i type="logical" name="LWAVE"> F  </i>
  <i type="logical" name="LCHARG"> F  </i>
  <i type="logical" name="LVTOT"> F  </i>
  <i type="logical" name="LORBIT"> F  </i>
  <i type="logical" name="LAECHG"> F  </i>
  <v type="int" name="KPOINT_BSE">    -1     0     0     0</v>
  <i type="int" name="NELM">   500</i>
  <i type="string" name="GGA"> PE          ! optPBE-vdW XC-functional</i>
  <i type="int" name="VOSKOWN">     1</i>
  <i type="logical" name="LDIPOL"> T  </i>
  <i type="logical" name="LMONO"> F  </i>
  <i type="int" name="IDIPOL">     3</i>
  <v name="DIPOL">      0.00000000      0.00000000      0.50000000</v>
 </incar>
 <kpoints>
  <generation param="Monkhorst-Pack">
   <v type="int" name="divisions">       2        2        1 </v>
   <v name="usershift">      0.00000000       0.00000000       0.00000000 </v>
   <v name="genvec1">      0.50000000      -0.00000000       0.00000000 </v>
   <v name="genvec2">      0.00000000       0.50000000       0.00000000 </v>
   <v name="genvec3">      0.00000000       0.00000000       1.00000000 </v>
   <v name="shift">      0.50000000       0.50000000       0.00000000 </v>
  </generation>
  <varray name="kpointlist" >
   <v>       0.25000000       0.25000000       0.00000000 </v>
   <v>       0.00000000       0.25000000       0.00000000 </v>
   <v>      -0.25000000       0.00000000       0.00000000 </v>
   <v>      -0.25000000       0.25000000       0.00000000 </v>
   <v>       0.50000000      -0.25000000       0.00000000 </v>
   <v>      -0.25000000       0.50000000       0.00000000 </v>
  </varray>
  <varray name="weights" >
   <v>       0.16666667 </v>
   <v>       0.16666667 </v>
   <v>       0.16666667 </v>
   <v>       0.16666667 </v>
   <v>       0.16666667 </v>
   <v>       0.16666667 </v>
  </varray>
 </kpoints>
 <parameters>
  <separator name="general" >
   <i type="string" name="SYSTEM">unknown system</i>
   <i type="logical" name="LCOMPAT"> F  </i>
  </separator>
  <separator name="electronic" >
   <i type="string" name="PREC">normal</i>
   <i name="ENMAX">    400.00000000</i>
   <i name="ENAUG">    416.23000000</i>
   <i name="EDIFF">      0.00000100</i>
   <i type="int" name="IALGO">    68</i>
   <i type="int" name="IWAVPR">    11</i>
   <i type="int" name="NBANDS">   306</i>
   <i name="NELECT">    504.00000000</i>
   <i type="int" name="TURBO">     0</i>
   <i type="int" name="IRESTART">     0</i>
   <i type="int" name="NREBOOT">     0</i>
   <i type="int" name="NMIN">     0</i>
   <i name="EREF">      0.00000000</i>
   <separator name="electronic smearing" >
    <i type="int" name="ISMEAR">     0</i>
    <i name="SIGMA">      0.10000000</i>
    <i name="KSPACING">      0.50000000</i>
    <i type="logical" name="KGAMMA"> T  </i>
   </separator>
   <separator name="electronic projectors" >
    <i type="logical" name="LREAL"> T  </i>
    <v name="ROPT">     -0.00050000     -0.00050000</v>
    <i type="int" name="LMAXPAW">  -100</i>
    <i type="int" name="LMAXMIX">     2</i>
    <i type="logical" name="NLSPLINE"> F  </i>
   </separator>
   <separator name="electronic startup" >
    <i type="int" name="ISTART">     0</i>
    <i type="int" name="ICHARG">     2</i>
    <i type="int" name="INIWAV">     1</i>
   </separator>
   <separator name="electronic spin" >
    <i type="int" name="ISPIN">     1</i>
    <i type="logical" name="LNONCOLLINEAR"> F  </i>
    <v name="MAGMOM">      1.00000000      1.00000000      1.00000000      1.00000000      1.00000000      1.00000000      1.00000000      1.00000000      1.00000000      1.00000000      1.00000000      1.00000000      1.00000000      1.00000000      1.00000000      1.00000000      1.00000000      1.00000000      1.00000000      1.00000000
      1.00000000      1.00000000      1.00000000      1.00000000      1.00000000      1.00000000      1.00000000      1.00000000      1.00000000      1.00000000      1.00000000      1.00000000      1.00000000      1.00000000      1.00000000      1.00000000      1.00000000      1.00000000      1.00000000      1.00000000
      1.00000000      1.00000000      1.00000000      1.00000000      1.00000000      1.00000000      1.00000000      1.00000000</v>
    <i name="NUPDOWN">     -1.00000000</i>
    <i type="logical" name="LSORBIT"> F  </i>
    <v name="SAXIS">      0.00000000      0.00000000      1.00000000</v>
    <i type="logical" name="LSPIRAL"> F  </i>
    <v name="QSPIRAL">      0.00000000      0.00000000      0.00000000</v>
    <i type="logical" name="LZEROZ"> F  </i>
   </separator>
   <separator name="electronic exchange-correlation" >
    <i type="logical" name="LASPH"> F  </i>
    <i type="logical" name="LMETAGGA"> F  </i>
   </separator>
   <separator name="electronic convergence" >
    <i type="int" name="NELM">   500</i>
    <i type="int" name="NELMDL">    -5</i>
    <i type="int" name="NELMIN">     2</i>
    <i name="ENINI">    400.00000000</i>
    <separator name="electronic convergence detail" >
     <i type="logical" name="LDIAG"> T  </i>
     <i type="logical" name="LSUBROT"> F  </i>
     <i name="WEIMIN">      0.00100000</i>
     <i name="EBREAK">      0.00000000</i>
     <i name="DEPER">      0.30000000</i>
     <i type="int" name="NRMM">     4</i>
     <i name="TIME">      0.40000000</i>
    </separator>
   </separator>
   <separator name="electronic mixer" >
    <i name="AMIX">      0.40000000</i>
    <i name="BMIX">      1.00000000</i>
    <i name="AMIN">      0.10000000</i>
    <i name="AMIX_MAG">      1.60000000</i>
    <i name="BMIX_MAG">      1.00000000</i>
    <separator name="electronic mixer details" >
     <i type="int" name="IMIX">     4</i>
     <i type="logical" name="MIXFIRST"> F  </i>
     <i type="int" name="MAXMIX">   -45</i>
     <i name="WC">    100.00000000</i>
     <i type="int" name="INIMIX">     1</i>
     <i type="int" name="MIXPRE">     1</i>
     <i type="int" name="MREMOVE">     5</i>
    </separator>
   </separator>
   <separator name="electronic dipolcorrection" >
    <i type="logical" name="LDIPOL"> T  </i>
    <i type="logical" name="LMONO"> F  </i>
    <i type="int" name="IDIPOL">     3</i>
    <i name="EPSILON">      1.00000000</i>
    <v name="DIPOL">      0.00000000      0.00000000      0.50000000</v>
    <i name="EFIELD">      0.00000000</i>
   </separator>
  </separator>
  <separator name="grids" >
   <i type="int" name="NGX">    54</i>
   <i type="int" name="NGY">    54</i>
   <i type="int" name="NGZ">   120</i>
   <i type="int" name="NGXF">   108</i>
   <i type="int" name="NGYF">   108</i>
   <i type="int" name="NGZF">   240</i>
   <i type="logical" name="ADDGRID"> F  </i>
  </separator>
  <separator name="ionic" >
   <i type="int" name="NSW">   500</i>
   <i type="int" name="IBRION">     2</i>
   <i type="int" name="ISIF">     0</i>
   <i name="PSTRESS">      0.00000000</i>
   <i name="EDIFFG">     -0.02000000</i>
   <i type="int" name="NFREE">     2</i>
   <i name="POTIM">      0.35000000</i>
   <i name="SMASS">     -3.00000000</i>
   <i name="SCALEE">      1.00000000</i>
  </separator>
  <separator name="ionic md" >
   <i name="TEBEG">      0.00010000</i>
   <i name="TEEND">      0.00010000</i>
   <i type="int" name="NBLOCK">     1</i>
   <i type="int" name="KBLOCK">   500</i>
   <i type="int" name="NPACO">   256</i>
   <i name="APACO">     16.00000000</i>
  </separator>
  <separator name="symmetry" >
   <i type="int" name="ISYM">     2</i>
   <i name="SYMPREC">      0.00001000</i>
  </separator>
  <separator name="dos" >
   <i type="logical" name="LORBIT"> F  </i>
   <v name="RWIGS">     -1.00000000     -1.00000000</v>
   <i type="int" name="NEDOS">   301</i>
   <i name="EMIN">     10.00000000</i>
   <i name="EMAX">    -10.00000000</i>
   <i name="EFERMI">      0.00000000</i>
  </separator>
  <separator name="writing" >
   <i type="int" name="NWRITE">     1</i>
   <i type="logical" name="LWAVE"> F  </i>
   <i type="logical" name="LCHARG"> F  </i>
   <i type="logical" name="LPARD"> F  </i>
   <i type="logical" name="LVTOT"> F  </i>
   <i type="logical" name="LVHAR"> F  </i>
   <i type="logical" name="LELF"> F  </i>
   <i type="logical" name="LOPTICS"> F  </i>
   <v name="STM">      0.00000000      0.00000000      0.00000000      0.00000000      0.00000000      0.00000000      0.00000000</v>
  </separator>
  <separator name="performance" >
   <i type="int" name="NPAR">     6</i>
   <i type="int" name="NSIM">     4</i>
   <i type="int" name="NBLK">    -1</i>
   <i type="logical" name="LPLANE"> T  </i>
   <i type="logical" name="LSCALAPACK"> T  </i>
   <i type="logical" name="LSCAAWARE"> F  </i>
   <i type="logical" name="LSCALU"> F  </i>
   <i type="logical" name="LASYNC"> F  </i>
   <i type="logical" name="LORBITALREAL"> F  </i>
  </separator>
  <separator name="miscellaneous" >
   <i type="int" name="IDIOT">     3</i>
   <i type="logical" name="LMUSIC"> F  </i>
   <v name="POMASS">    196.96600000    106.42000000</v>
   <v name="DARWINR">      0.00000000      0.00000000</v>
   <v name="DARWINV">      1.00000000      1.00000000</v>
   <i type="logical" name="LCORR"> T  </i>
  </separator>
  <i type="logical" name="GGA_COMPAT"> T  </i>
  <i type="logical" name="LBERRY"> F  </i>
  <i type="int" name="ICORELEVEL">     0</i>
  <i type="logical" name="LDAU"> F  </i>
  <i type="int" name="I_CONSTRAINED_M">     0</i>
  <separator name="electronic exchange-correlation" >
   <i type="string" name="GGA">PE</i>
   <i type="int" name="VOSKOWN">     1</i>
   <i type="logical" name="LHFCALC"> F  </i>
   <i type="string" name="PRECFOCK"></i>
   <i type="logical" name="LSYMGRAD"> F  </i>
   <i type="logical" name="LHFONE"> F  </i>
   <i type="logical" name="LRHFCALC"> F  </i>
   <i type="logical" name="LTHOMAS"> F  </i>
   <i type="logical" name="LMODELHF"> F  </i>
   <i name="ENCUT4O">     -1.00000000</i>
   <i type="int" name="EXXOEP">     0</i>
   <i type="int" name="FOURORBIT">     0</i>
   <i name="AEXX">      0.00000000</i>
   <i name="HFALPHA">      0.00000000</i>
   <i name="MCALPHA">      0.00000000</i>
   <i name="ALDAX">      1.00000000</i>
   <i name="AGGAX">      1.00000000</i>
   <i name="ALDAC">      1.00000000</i>
   <i name="AGGAC">      1.00000000</i>
   <i type="int" name="NKREDX">     1</i>
   <i type="int" name="NKREDY">     1</i>
   <i type="int" name="NKREDZ">     1</i>
   <i type="logical" name="SHIFTRED"> F  </i>
   <i type="logical" name="ODDONLY"> F  </i>
   <i type="logical" name="EVENONLY"> F  </i>
   <i type="int" name="LMAXFOCK">     0</i>
   <i type="int" name="NMAXFOCKAE">     0</i>
   <i type="logical" name="LFOCKAEDFT"> F  </i>
   <i name="HFSCREEN">      0.00000000</i>
   <i name="HFSCREENC">      0.00000000</i>
   <i type="int" name="NBANDSGWLOW">     0</i>
  </separator>
  <separator name="vdW DFT" >
   <i type="logical" name="LUSE_VDW"> F  </i>
   <i name="Zab_VDW">     -0.84910000</i>
   <i name="PARAM1">      0.12340000</i>
   <i name="PARAM2">      1.00000000</i>
   <i name="PARAM3">      0.00000000</i>
  </separator>
  <separator name="model GW" >
   <i type="int" name="MODEL_GW">     0</i>
   <i name="MODEL_EPS0">     32.09595293</i>
   <i name="MODEL_ALPHA">      1.00000000</i>
  </separator>
  <separator name="linear response parameters" >
   <i type="logical" name="LEPSILON"> F  </i>
   <i type="logical" name="LRPA"> F  </i>
   <i type="logical" name="LNABLA"> F  </i>
   <i type="logical" name="LVEL"> F  </i>
   <i type="int" name="KINTER">     0</i>
   <i name="CSHIFT">      0.10000000</i>
   <i name="OMEGAMAX">     -1.00000000</i>
   <i name="DEG_THRESHOLD">      0.00200000</i>
  </separator>
  <separator name="orbital magnetization" >
   <i type="logical" name="NUCIND"> F  </i>
   <v name="MAGPOS">      0.00000000      0.00000000      0.00000000</v>
   <i type="logical" name="LNICSALL"> T  </i>
   <i type="logical" name="ORBITALMAG"> F  </i>
   <i type="logical" name="LMAGBLOCH"> F  </i>
   <i type="logical" name="LCHIMAG"> F  </i>
   <i type="logical" name="LGAUGE"> T  </i>
   <i type="int" name="MAGATOM">     0</i>
   <v name="MAGDIPOL">      0.00000000      0.00000000      0.00000000</v>
   <v name="AVECCONST">      0.00000000      0.00000000      0.00000000</v>
  </separator>
  <separator name="response functions" >
   <i type="logical" name="LADDER"> F  </i>
   <i type="logical" name="LFXC"> F  </i>
   <i type="logical" name="LHARTREE"> T  </i>
   <i type="int" name="IBSE">     0</i>
   <v type="int" name="KPOINT">    -1     0     0     0</v>
   <i type="logical" name="LTCTE"> F  </i>
   <i type="logical" name="LTETE"> F  </i>
   <i type="logical" name="LTRIPLET"> F  </i>
   <i type="logical" name="LFXCEPS"> F  </i>
   <i type="logical" name="LFXHEG"> F  </i>
   <i type="int" name="NATURALO">     0</i>
   <i type="logical" name="L2ORDER"> F  </i>
   <i type="logical" name="LUSEW"> F  </i>
   <i name="ENCUTGW">     -2.00000000</i>
   <i name="ENCUTGWSOFT">     -2.00000000</i>
   <i name="ENCUTLF">     -1.00000000</i>
   <i type="int" name="LMAXMP2">    -1</i>
   <i name="SCISSOR">      0.00000000</i>
   <i type="int" name="NOMEGA">     0</i>
   <i type="int" name="NOMEGAR">     0</i>
   <i type="int" name="NBANDSGW">    -1</i>
   <i type="int" name="NBANDSO">    -1</i>
   <i type="int" name="NBANDSV">    -1</i>
   <i type="int" name="NELM">   500</i>
   <i type="int" name="NELMHF">     1</i>
   <i type="int" name="DIM">     3</i>
   <i type="int" name="ANTIRES">     0</i>
   <i name="OMEGAMAX">    -30.00000000</i>
   <i name="OMEGAMIN">    -30.00000000</i>
   <i name="OMEGATL">   -200.00000000</i>
   <i type="int" name="OMEGAGRID">     0</i>
   <i name="CSHIFT">     -0.10000000</i>
   <i type="logical" name="SELFENERGY"> F  </i>
   <i type="logical" name="LSPECTRAL"> F  </i>
   <i type="logical" name="LSPECTRALGW"> F  </i>
   <i type="logical" name="LSINGLES"> F  </i>
   <i type="logical" name="LFERMIGW"> F  </i>
   <i type="logical" name="ODDONLYGW"> F  </i>
   <i type="logical" name="EVENONLYGW"> F  </i>
   <i type="int" name="NKREDLFX">     1</i>
   <i type="int" name="NKREDLFY">     1</i>
   <i type="int" name="NKREDLFZ">     1</i>
   <i type="int" name="MAXMEM">  1800</i>
   <i type="int" name="TELESCOPE">     0</i>
   <i type="int" name="TAUPAR">     1</i>
   <i type="int" name="OMEGAPAR">    -1</i>
   <i name="LAMBDA">      1.00000000</i>
  </separator>
  <separator name="External order field" >
   <i name="OFIELD_KAPPA">      0.00000000</i>
   <v name="OFIELD_K">      0.00000000      0.00000000      0.00000000</v>
   <i name="OFIELD_Q6_NEAR">      0.00000000</i>
   <i name="OFIELD_Q6_FAR">      0.00000000</i>
   <i name="OFIELD_A">      0.00000000</i>
  </separator>
 </parameters>
 <atominfo>
  <atoms>      48 </atoms>
  <types>       2 </types>
  <array name="atoms" >
   <dimension dim="1">ion</dimension>
   <field type="string">element</field>
   <field type="int">atomtype</field>
   <set>
    <rc><c>Au</c><c>   1</c></rc>
    <rc><c>Au</c><c>   1</c></rc>
    <rc><c>Au</c><c>   1</c></rc>
    <rc><c>Au</c><c>   1</c></rc>
    <rc><c>Au</c><c>   1</c></rc>
    <rc><c>Au</c><c>   1</c></rc>
    <rc><c>Au</c><c>   1</c></rc>
    <rc><c>Au</c><c>   1</c></rc>
    <rc><c>Au</c><c>   1</c></rc>
    <rc><c>Au</c><c>   1</c></rc>
    <rc><c>Au</c><c>   1</c></rc>
    <rc><c>Au</c><c>   1</c></rc>
    <rc><c>Au</c><c>   1</c></rc>
    <rc><c>Au</c><c>   1</c></rc>
    <rc><c>Au</c><c>   1</c></rc>
    <rc><c>Au</c><c>   1</c></rc>
    <rc><c>Au</c><c>   1</c></rc>
    <rc><c>Au</c><c>   1</c></rc>
    <rc><c>Au</c><c>   1</c></rc>
    <rc><c>Au</c><c>   1</c></rc>
    <rc><c>Au</c><c>   1</c></rc>
    <rc><c>Au</c><c>   1</c></rc>
    <rc><c>Au</c><c>   1</c></rc>
    <rc><c>Au</c><c>   1</c></rc>
    <rc><c>Pd</c><c>   2</c></rc>
    <rc><c>Pd</c><c>   2</c></rc>
    <rc><c>Pd</c><c>   2</c></rc>
    <rc><c>Pd</c><c>   2</c></rc>
    <rc><c>Pd</c><c>   2</c></rc>
    <rc><c>Pd</c><c>   2</c></rc>
    <rc><c>Pd</c><c>   2</c></rc>
    <rc><c>Pd</c><c>   2</c></rc>
    <rc><c>Pd</c><c>   2</c></rc>
    <rc><c>Pd</c><c>   2</c></rc>
    <rc><c>Pd</c><c>   2</c></rc>
    <rc><c>Pd</c><c>   2</c></rc>
    <rc><c>Pd</c><c>   2</c></rc>
    <rc><c>Pd</c><c>   2</c></rc>
    <rc><c>Pd</c><c>   2</c></rc>
    <rc><c>Pd</c><c>   2</c></rc>
    <rc><c>Pd</c><c>   2</c></rc>
    <rc><c>Pd</c><c>   2</c></rc>
    <rc><c>Pd</c><c>   2</c></rc>
    <rc><c>Pd</c><c>   2</c></rc>
    <rc><c>Pd</c><c>   2</c></rc>
    <rc><c>Pd</c><c>   2</c></rc>
    <rc><c>Pd</c><c>   2</c></rc>
    <rc><c>Pd</c><c>   2</c></rc>
   </set>
  </array>
  <array name="atomtypes" >
   <dimension dim="1">type</dimension>
   <field type="int">atomspertype</field>
   <field type="string">element</field>
   <field>mass</field>
   <field>valence</field>
   <field type="string">pseudopotential</field>
   <set>
    <rc><c>  24</c><c>Au</c><c>    196.96600000</c><c>     11.00000000</c><c>  PAW_PBE Au 04Oct2007                  </c></rc>
    <rc><c>  24</c><c>Pd</c><c>    106.42000000</c><c>     10.00000000</c><c>  PAW_PBE Pd 04Jan2005                  </c></rc>
   </set>
  </array>
 </atominfo>
 <structure name="initialpos" >
  <crystal>
   <varray name="basis" >
    <v>      11.00258152       0.00000000       0.00000000 </v>
    <v>       5.50129076       9.52851510       0.00000000 </v>
    <v>       0.00000000       0.00000000      24.49178509 </v>
   </varray>
   <i name="volume">   2567.67623402 </i>
   <varray name="rec_basis" >
    <v>       0.09088776      -0.05247407       0.00000000 </v>
    <v>       0.00000000       0.10494815       0.00000000 </v>
    <v>       0.00000000       0.00000000       0.04083002 </v>
   </varray>
  </crystal>
  <varray name="positions" >
   <v>       0.08333333       0.08333333       0.40830017 </v>
   <v>       0.00000000       0.50000000       0.59169983 </v>
   <v>       0.08333333       0.83333333       0.40830017 </v>
   <v>       0.91666667       0.41666667       0.50000000 </v>
   <v>       0.00000000       0.75000000       0.59169983 </v>
   <v>       0.08333333       0.33333333       0.40830017 </v>
   <v>       0.00000000       0.00000000       0.59169983 </v>
   <v>       0.25000000       0.75000000       0.59169983 </v>
   <v>       0.33333333       0.58333333       0.40830017 </v>
   <v>       0.16666667       0.66666667       0.50000000 </v>
   <v>       0.25000000       0.50000000       0.59169983 </v>
   <v>       0.33333333       0.83333333       0.40830017 </v>
   <v>       0.00000000       0.25000000       0.59169983 </v>
   <v>       0.58333333       0.08333333       0.40830017 </v>
   <v>       0.41666667       0.16666667       0.50000000 </v>
   <v>       0.58333333       0.33333333       0.40830017 </v>
   <v>       0.58333333       0.83333333       0.40830017 </v>
   <v>       0.83333333       0.08333333       0.40830017 </v>
   <v>       0.75000000       0.00000000       0.59169983 </v>
   <v>       0.66666667       0.41666667       0.50000000 </v>
   <v>       0.75000000       0.25000000       0.59169983 </v>
   <v>       0.83333333       0.58333333       0.40830017 </v>
   <v>       0.83333333       0.83333333       0.40830017 </v>
   <v>       0.66666667       0.91666667       0.50000000 </v>
   <v>       0.50000000       0.25000000       0.59169983 </v>
   <v>       0.41666667       0.41666667       0.50000000 </v>
   <v>       0.50000000       0.00000000       0.59169983 </v>
   <v>       0.91666667       0.91666667       0.50000000 </v>
   <v>       0.33333333       0.33333333       0.40830017 </v>
   <v>       0.33333333       0.08333333       0.40830017 </v>
   <v>       0.16666667       0.16666667       0.50000000 </v>
   <v>       0.25000000       0.00000000       0.59169983 </v>
   <v>       0.58333333       0.58333333       0.40830017 </v>
   <v>       0.16666667       0.91666667       0.50000000 </v>
   <v>       0.41666667       0.66666667       0.50000000 </v>
   <v>       0.08333333       0.58333333       0.40830017 </v>
   <v>       0.50000000       0.50000000       0.59169983 </v>
   <v>       0.41666667       0.91666667       0.50000000 </v>
   <v>       0.50000000       0.75000000       0.59169983 </v>
   <v>       0.66666667       0.16666667       0.50000000 </v>
   <v>       0.83333333       0.33333333       0.40830017 </v>
   <v>       0.66666667       0.66666667       0.50000000 </v>
   <v>       0.75000000       0.50000000       0.59169983 </v>
   <v>       0.91666667       0.16666667       0.50000000 </v>
   <v>       0.25000000       0.25000000       0.59169983 </v>
   <v>       0.91666667       0.66666667       0.50000000 </v>
   <v>       0.16666667       0.41666667       0.50000000 </v>
   <v>       0.75000000       0.75000000       0.59169983 </v>
  </varray>
  <varray name="selective"  type="logical" >
   <v type="logical" >  F  F  F </v>
   <v type="logical" >  T  T  T </v>
   <v type="logical" >  F  F  F </v>
   <v type="logical" >  T  T  T </v>
   <v type="logical" >  T  T  T </v>
   <v type="logical" >  F  F  F </v>
   <v type="logical" >  T  T  T </v>
   <v type="logical" >  T  T  T </v>
   <v type="logical" >  F  F  F </v>
   <v type="logical" >  T  T  T </v>
   <v type="logical" >  T  T  T </v>
   <v type="logical" >  F  F  F </v>
   <v type="logical" >  T  T  T </v>
   <v type="logical" >  F  F  F </v>
   <v type="logical" >  T  T  T </v>
   <v type="logical" >  F  F  F </v>
   <v type="logical" >  F  F  F </v>
   <v type="logical" >  F  F  F </v>
   <v type="logical" >  T  T  T </v>
   <v type="logical" >  T  T  T </v>
   <v type="logical" >  T  T  T </v>
   <v type="logical" >  F  F  F </v>
   <v type="logical" >  F  F  F </v>
   <v type="logical" >  T  T  T </v>
   <v type="logical" >  T  T  T </v>
   <v type="logical" >  T  T  T </v>
   <v type="logical" >  T  T  T </v>
   <v type="logical" >  T  T  T </v>
   <v type="logical" >  F  F  F </v>
   <v type="logical" >  F  F  F </v>
   <v type="logical" >  T  T  T </v>
   <v type="logical" >  T  T  T </v>
   <v type="logical" >  F  F  F </v>
   <v type="logical" >  T  T  T </v>
   <v type="logical" >  T  T  T </v>
   <v type="logical" >  F  F  F </v>
   <v type="logical" >  T  T  T </v>
   <v type="logical" >  T  T  T </v>
   <v type="logical" >  T  T  T </v>
   <v type="logical" >  T  T  T </v>
   <v type="logical" >  F  F  F </v>
   <v type="logical" >  T  T  T </v>
   <v type="logical" >  T  T  T </v>
   <v type="logical" >  T  T  T </v>
   <v type="logical" >  T  T  T </v>
   <v type="logical" >  T  T  T </v>
   <v type="logical" >  T  T  T </v>
   <v type="logical" >  T  T  T </v>
  </varray>
  <nose>
   <v>      -3.00000000       0.00000000       0.00010000       0.00010000 </v>
  </nose>
 </structure>
 <calculation>
  <scstep>
   <time name="dav">   10.04   10.08</time>
   <time name="total">   10.11   10.15</time>
   <dipole>
    <v name="dipole">      0.00000000       0.00000000       0.00000222 </v>
    <i name="Tr[quadrupol]"> -10200.82095856 </i>
    <i name="Echarged">      0.00000000 </i>
    <i name="Edipol_quadrupol">      0.00000000 </i>
    <i name="Eion">      0.00000000 </i>
   </dipole>
   <energy>
    <i name="alphaZ">    805.86936534 </i>
    <i name="ewald"> 199460.42145907 </i>
    <i name="hartreedc">-241871.77784180 </i>
    <i name="XCdc">   -327.82262210 </i>
    <i name="pawpsdc">  40340.05962942 </i>
    <i name="pawaedc"> -38292.62782345 </i>
    <i name="eentropy">     -0.13859581 </i>
    <i name="bandstr">   1426.54366647 </i>
    <i name="atom">  41659.78587232 </i>
    <i name="e_fr_energy">   3200.31310946 </i>
    <i name="e_wo_entrp">   3200.45170527 </i>
    <i name="e_0_energy">   3200.38240736 </i>
   </energy>
  </scstep>
  <scstep>
   <time name="dav">   10.96   10.97</time>
   <time name="total">   10.96   10.97</time>
   <dipole>
    <v name="dipole">      0.00000000       0.00000000       0.00000222 </v>
    <i name="Tr[quadrupol]"> -10200.82095856 </i>
    <i name="Echarged">      0.00000000 </i>
    <i name="Edipol_quadrupol">      0.00000000 </i>
    <i name="Eion">      0.00000000 </i>
   </dipole>
   <energy>
    <i name="e_fr_energy">     12.88748679 </i>
    <i name="e_wo_entrp">     13.01121834 </i>
    <i name="e_0_energy">     12.94935257 </i>
   </energy>
  </scstep>
  <scstep>
   <time name="dav">   10.49   10.51</time>
   <time name="total">   10.50   10.52</time>
   <dipole>
    <v name="dipole">      0.00000000       0.00000000       0.00000222 </v>
    <i name="Tr[quadrupol]"> -10200.82095856 </i>
    <i name="Echarged">      0.00000000 </i>
    <i name="Edipol_quadrupol">      0.00000000 </i>
    <i name="Eion">      0.00000000 </i>
   </dipole>
   <energy>
    <i name="e_fr_energy">   -202.23357309 </i>
    <i name="e_wo_entrp">   -202.06975190 </i>
    <i name="e_0_energy">   -202.15166250 </i>
   </energy>
  </scstep>
  <scstep>
   <time name="dav">   10.60   10.68</time>
   <time name="total">   10.61   10.69</time>
   <dipole>
    <v name="dipole">      0.00000000       0.00000000       0.00000222 </v>
    <i name="Tr[quadrupol]"> -10200.82095856 </i>
    <i name="Echarged">      0.00000000 </i>
    <i name="Edipol_quadrupol">      0.00000000 </i>
    <i name="Eion">      0.00000000 </i>
   </dipole>
   <energy>
    <i name="e_fr_energy">   -208.05181914 </i>
    <i name="e_wo_entrp">   -207.88121594 </i>
    <i name="e_0_energy">   -207.96651754 </i>
   </energy>
  </scstep>
  <scstep>
   <time name="dav">   11.21   11.23</time>
   <time name="total">   11.52   11.54</time>
   <dipole>
    <v name="dipole">      0.00000000       0.00000000       0.00000222 </v>
    <i name="Tr[quadrupol]"> -10200.82095856 </i>
    <i name="Echarged">      0.00000000 </i>
    <i name="Edipol_quadrupol">      0.00000000 </i>
    <i name="Eion">      0.00000000 </i>
   </dipole>
   <energy>
    <i name="e_fr_energy">   -208.25179785 </i>
    <i name="e_wo_entrp">   -208.08088298 </i>
    <i name="e_0_energy">   -208.16634041 </i>
   </energy>
  </scstep>
  <scstep>
   <time name="diag">    1.65    1.65</time>
   <time name="diis">    4.41    4.42</time>
   <time name="orth">    0.41    0.41</time>
   <time name="total">    6.84    6.86</time>
   <dipole>
    <v name="dipole">      0.00000000       0.00000000       1.00248151 </v>
    <i name="Tr[quadrupol]"> -10204.29890308 </i>
    <i name="Echarged">      0.00000000 </i>
    <i name="Edipol_quadrupol">      0.00000000 </i>
    <i name="Eion">      0.00000000 </i>
   </dipole>
   <energy>
    <i name="e_fr_energy">   -207.53550329 </i>
    <i name="e_wo_entrp">   -207.27729073 </i>
    <i name="e_0_energy">   -207.40639701 </i>
   </energy>
  </scstep>
  <scstep>
   <time name="diag">    1.65    1.66</time>
   <time name="diis">    4.98    5.01</time>
   <time name="orth">    0.41    0.41</time>
   <time name="total">    7.41    7.45</time>
   <dipole>
    <v name="dipole">      0.00000000       0.00000000      -1.26886011 </v>
    <i name="Tr[quadrupol]"> -10201.84500141 </i>
    <i name="Echarged">      0.00000000 </i>
    <i name="Edipol_quadrupol">      0.00000000 </i>
    <i name="Eion">      0.00000000 </i>
   </dipole>
   <energy>
    <i name="e_fr_energy">   -215.24592768 </i>
    <i name="e_wo_entrp">   -215.02000165 </i>
    <i name="e_0_energy">   -215.13296466 </i>
   </energy>
  </scstep>
  <scstep>
   <time name="diag">    1.65    1.65</time>
   <time name="diis">    4.40    4.41</time>
   <time name="orth">    0.41    0.41</time>
   <time name="total">    6.83    6.84</time>
   <dipole>
    <v name="dipole">      0.00000000       0.00000000       1.48443818 </v>
    <i name="Tr[quadrupol]"> -10202.20017842 </i>
    <i name="Echarged">      0.00000000 </i>
    <i name="Edipol_quadrupol">      0.00000000 </i>
    <i name="Eion">      0.00000000 </i>
   </dipole>
   <energy>
    <i name="e_fr_energy">   -218.90304702 </i>
    <i name="e_wo_entrp">   -218.64120268 </i>
    <i name="e_0_energy">   -218.77212485 </i>
   </energy>
  </scstep>
  <scstep>
   <time name="diag">    1.66    1.66</time>
   <time name="diis">    4.28    4.33</time>
   <time name="orth">    0.39    0.42</time>
   <time name="total">    6.71    6.79</time>
   <dipole>
    <v name="dipole">      0.00000000       0.00000000      -0.38207182 </v>
    <i name="Tr[quadrupol]"> -10203.41557446 </i>
    <i name="Echarged">      0.00000000 </i>
    <i name="Edipol_quadrupol">      0.00000000 </i>
    <i name="Eion">      0.00000000 </i>
   </dipole>
   <energy>
    <i name="e_fr_energy">   -211.15383381 </i>
    <i name="e_wo_entrp">   -210.92964681 </i>
    <i name="e_0_energy">   -211.04174031 </i>
   </energy>
  </scstep>
  <scstep>
   <time name="diag">    1.65    1.66</time>
   <time name="diis">    4.30    4.31</time>
   <time name="orth">    0.41    0.41</time>
   <time name="total">    6.74    6.75</time>
   <dipole>
    <v name="dipole">      0.00000000       0.00000000       0.56433546 </v>
    <i name="Tr[quadrupol]"> -10202.37086493 </i>
    <i name="Echarged">      0.00000000 </i>
    <i name="Edipol_quadrupol">      0.00000000 </i>
    <i name="Eion">      0.00000000 </i>
   </dipole>
   <energy>
    <i name="e_fr_energy">   -198.87035604 </i>
    <i name="e_wo_entrp">   -198.70647053 </i>
    <i name="e_0_energy">   -198.78841329 </i>
   </energy>
  </scstep>
  <scstep>
   <time name="diag">    1.65    1.65</time>
   <time name="diis">    4.41    4.42</time>
   <time name="orth">    0.41    0.41</time>
   <time name="total">    6.83    6.84</time>
   <dipole>
    <v name="dipole">      0.00000000       0.00000000       0.21875327 </v>
    <i name="Tr[quadrupol]"> -10203.72559708 </i>
    <i name="Echarged">      0.00000000 </i>
    <i name="Edipol_quadrupol">      0.00000000 </i>
    <i name="Eion">      0.00000000 </i>
   </dipole>
   <energy>
    <i name="e_fr_energy">   -194.42997024 </i>
    <i name="e_wo_entrp">   -194.19717208 </i>
    <i name="e_0_energy">   -194.31357116 </i>
   </energy>
  </scstep>
  <scstep>
   <time name="diag">    1.64    1.65</time>
   <time name="diis">    4.42    4.42</time>
   <time name="orth">    0.41    0.41</time>
   <time name="total">    6.83    6.84</time>
   <dipole>
    <v name="dipole">      0.00000000       0.00000000       0.20980195 </v>
    <i name="Tr[quadrupol]"> -10203.61119646 </i>
    <i name="Echarged">      0.00000000 </i>
    <i name="Edipol_quadrupol">      0.00000000 </i>
    <i name="Eion">      0.00000000 </i>
   </dipole>
   <energy>
    <i name="e_fr_energy">   -190.79896386 </i>
    <i name="e_wo_entrp">   -190.55754133 </i>
    <i name="e_0_energy">   -190.67825260 </i>
   </energy>
  </scstep>
  <scstep>
   <time name="diag">    1.65    1.65</time>
   <time name="diis">    4.41    4.41</time>
   <time name="orth">    0.41    0.41</time>
   <time name="total">    6.83    6.83</time>
   <dipole>
    <v name="dipole">      0.00000000       0.00000000       0.13561867 </v>
    <i name="Tr[quadrupol]"> -10204.10173700 </i>
    <i name="Echarged">      0.00000000 </i>
    <i name="Edipol_quadrupol">      0.00000000 </i>
    <i name="Eion">      0.00000000 </i>
   </dipole>
   <energy>
    <i name="e_fr_energy">   -190.32913488 </i>
    <i name="e_wo_entrp">   -190.07779444 </i>
    <i name="e_0_energy">   -190.20346466 </i>
   </energy>
  </scstep>
  <scstep>
   <time name="diag">    1.64    1.64</time>
   <time name="diis">    4.32    4.33</time>
   <time name="orth">    0.41    0.41</time>
   <time name="total">    6.73    6.74</time>
   <dipole>
    <v name="dipole">      0.00000000       0.00000000       0.08660678 </v>
    <i name="Tr[quadrupol]"> -10204.20968422 </i>
    <i name="Echarged">      0.00000000 </i>
    <i name="Edipol_quadrupol">      0.00000000 </i>
    <i name="Eion">      0.00000000 </i>
   </dipole>
   <energy>
    <i name="e_fr_energy">   -190.32609716 </i>
    <i name="e_wo_entrp">   -190.06645611 </i>
    <i name="e_0_energy">   -190.19627663 </i>
   </energy>
  </scstep>
  <scstep>
   <time name="diag">    1.65    1.65</time>
   <time name="diis">    4.31    4.39</time>
   <time name="orth">    0.40    0.41</time>
   <time name="total">    6.72    6.81</time>
   <dipole>
    <v name="dipole">      0.00000000       0.00000000       0.07751475 </v>
    <i name="Tr[quadrupol]"> -10204.55657569 </i>
    <i name="Echarged">      0.00000000 </i>
    <i name="Edipol_quadrupol">      0.00000000 </i>
    <i name="Eion">      0.00000000 </i>
   </dipole>
   <energy>
    <i name="e_fr_energy">   -190.32256058 </i>
    <i name="e_wo_entrp">   -190.05441581 </i>
    <i name="e_0_energy">   -190.18848820 </i>
   </energy>
  </scstep>
  <scstep>
   <time name="diag">    1.66    1.67</time>
   <time name="diis">    5.00    5.03</time>
   <time name="orth">    0.40    0.40</time>
   <time name="total">    7.43    7.47</time>
   <dipole>
    <v name="dipole">      0.00000000       0.00000000       0.07040223 </v>
    <i name="Tr[quadrupol]"> -10204.87731187 </i>
    <i name="Echarged">      0.00000000 </i>
    <i name="Edipol_quadrupol">      0.00000000 </i>
    <i name="Eion">      0.00000000 </i>
   </dipole>
   <energy>
    <i name="e_fr_energy">   -190.14405771 </i>
    <i name="e_wo_entrp">   -189.87434731 </i>
    <i name="e_0_energy">   -190.00920251 </i>
   </energy>
  </scstep>
  <scstep>
   <time name="diag">    1.64    1.65</time>
   <time name="diis">    4.30    4.30</time>
   <time name="orth">    0.40    0.40</time>
   <time name="total">    6.71    6.72</time>
   <dipole>
    <v name="dipole">      0.00000000       0.00000000       0.07530677 </v>
    <i name="Tr[quadrupol]"> -10205.12675808 </i>
    <i name="Echarged">      0.00000000 </i>
    <i name="Edipol_quadrupol">      0.00000000 </i>
    <i name="Eion">      0.00000000 </i>
   </dipole>
   <energy>
    <i name="e_fr_energy">   -189.95434446 </i>
    <i name="e_wo_entrp">   -189.67952473 </i>
    <i name="e_0_energy">   -189.81693460 </i>
   </energy>
  </scstep>
  <scstep>
   <time name="diag">    1.62    1.62</time>
   <time name="diis">    4.28    4.28</time>
   <time name="orth">    0.39    0.39</time>
   <time name="total">    6.66    6.67</time>
   <dipole>
    <v name="dipole">      0.00000000       0.00000000       0.07510738 </v>
    <i name="Tr[quadrupol]"> -10205.29189935 </i>
    <i name="Echarged">      0.00000000 </i>
    <i name="Edipol_quadrupol">      0.00000000 </i>
    <i name="Eion">      0.00000000 </i>
   </dipole>
   <energy>
    <i name="e_fr_energy">   -189.87117819 </i>
    <i name="e_wo_entrp">   -189.59342891 </i>
    <i name="e_0_energy">   -189.73230355 </i>
   </energy>
  </scstep>
  <scstep>
   <time name="diag">    1.63    1.63</time>
   <time name="diis">    4.34    4.34</time>
   <time name="orth">    0.39    0.39</time>
   <time name="total">    6.71    6.73</time>
   <dipole>
    <v name="dipole">      0.00000000       0.00000000       0.06875256 </v>
    <i name="Tr[quadrupol]"> -10205.43119580 </i>
    <i name="Echarged">      0.00000000 </i>
    <i name="Edipol_quadrupol">      0.00000000 </i>
    <i name="Eion">      0.00000000 </i>
   </dipole>
   <energy>
    <i name="e_fr_energy">   -189.81923199 </i>
    <i name="e_wo_entrp">   -189.53899861 </i>
    <i name="e_0_energy">   -189.67911530 </i>
   </energy>
  </scstep>
  <scstep>
   <time name="diag">    1.62    1.62</time>
   <time name="diis">    4.40    4.40</time>
   <time name="orth">    0.39    0.39</time>
   <time name="total">    6.77    6.78</time>
   <dipole>
    <v name="dipole">      0.00000000       0.00000000       0.05646406 </v>
    <i name="Tr[quadrupol]"> -10205.51183235 </i>
    <i name="Echarged">      0.00000000 </i>
    <i name="Edipol_quadrupol">      0.00000000 </i>
    <i name="Eion">      0.00000000 </i>
   </dipole>
   <energy>
    <i name="e_fr_energy">   -189.81368460 </i>
    <i name="e_wo_entrp">   -189.53264636 </i>
    <i name="e_0_energy">   -189.67316548 </i>
   </energy>
  </scstep>
  <scstep>
   <time name="diag">    1.63    1.63</time>
   <time name="diis">    4.25    4.33</time>
   <time name="orth">    0.39    0.39</time>
   <time name="total">    6.63    6.71</time>
   <dipole>
    <v name="dipole">      0.00000000       0.00000000       0.04825658 </v>
    <i name="Tr[quadrupol]"> -10205.59199932 </i>
    <i name="Echarged">      0.00000000 </i>
    <i name="Edipol_quadrupol">      0.00000000 </i>
    <i name="Eion">      0.00000000 </i>
   </dipole>
   <energy>
    <i name="e_fr_energy">   -189.81174045 </i>
    <i name="e_wo_entrp">   -189.52982807 </i>
    <i name="e_0_energy">   -189.67078426 </i>
   </energy>
  </scstep>
  <scstep>
   <time name="diag">    1.60    1.60</time>
   <time name="diis">    4.34    4.35</time>
   <time name="orth">    0.39    0.39</time>
   <time name="total">    6.71    6.72</time>
   <dipole>
    <v name="dipole">      0.00000000       0.00000000       0.04316238 </v>
    <i name="Tr[quadrupol]"> -10205.70490773 </i>
    <i name="Echarged">      0.00000000 </i>
    <i name="Edipol_quadrupol">      0.00000000 </i>
    <i name="Eion">      0.00000000 </i>
   </dipole>
   <energy>
    <i name="e_fr_energy">   -189.80988805 </i>
    <i name="e_wo_entrp">   -189.52749859 </i>
    <i name="e_0_energy">   -189.66869332 </i>
   </energy>
  </scstep>
  <scstep>
   <time name="diag">    1.63    1.63</time>
   <time name="diis">    4.36    4.36</time>
   <time name="orth">    0.39    0.39</time>
   <time name="total">    6.74    6.78</time>
   <dipole>
    <v name="dipole">      0.00000000       0.00000000       0.04254339 </v>
    <i name="Tr[quadrupol]"> -10205.86976380 </i>
    <i name="Echarged">      0.00000000 </i>
    <i name="Edipol_quadrupol">      0.00000000 </i>
    <i name="Eion">      0.00000000 </i>
   </dipole>
   <energy>
    <i name="e_fr_energy">   -189.80809371 </i>
    <i name="e_wo_entrp">   -189.52540095 </i>
    <i name="e_0_energy">   -189.66674733 </i>
   </energy>
  </scstep>
  <scstep>
   <time name="diag">    1.61    1.61</time>
   <time name="diis">    4.40    4.40</time>
   <time name="orth">    0.39    0.39</time>
   <time name="total">    6.76    6.77</time>
   <dipole>
    <v name="dipole">      0.00000000       0.00000000       0.04088799 </v>
    <i name="Tr[quadrupol]"> -10205.93291799 </i>
    <i name="Echarged">      0.00000000 </i>
    <i name="Edipol_quadrupol">      0.00000000 </i>
    <i name="Eion">      0.00000000 </i>
   </dipole>
   <energy>
    <i name="e_fr_energy">   -189.80783658 </i>
    <i name="e_wo_entrp">   -189.52535307 </i>
    <i name="e_0_energy">   -189.66659482 </i>
   </energy>
  </scstep>
  <scstep>
   <time name="diag">    1.94    1.96</time>
   <time name="diis">    4.64    4.66</time>
   <time name="orth">    0.39    0.39</time>
   <time name="total">    7.35    7.39</time>
   <dipole>
    <v name="dipole">      0.00000000       0.00000000       0.03688636 </v>
    <i name="Tr[quadrupol]"> -10205.99309995 </i>
    <i name="Echarged">      0.00000000 </i>
    <i name="Edipol_quadrupol">      0.00000000 </i>
    <i name="Eion">      0.00000000 </i>
   </dipole>
   <energy>
    <i name="e_fr_energy">   -189.80787530 </i>
    <i name="e_wo_entrp">   -189.52510555 </i>
    <i name="e_0_energy">   -189.66649043 </i>
   </energy>
  </scstep>
  <scstep>
   <time name="diag">    1.61    1.61</time>
   <time name="diis">    4.25    4.26</time>
   <time name="orth">    0.39    0.39</time>
   <time name="total">    6.62    6.63</time>
   <dipole>
    <v name="dipole">      0.00000000       0.00000000       0.03431567 </v>
    <i name="Tr[quadrupol]"> -10206.03519744 </i>
    <i name="Echarged">      0.00000000 </i>
    <i name="Edipol_quadrupol">      0.00000000 </i>
    <i name="Eion">      0.00000000 </i>
   </dipole>
   <energy>
    <i name="e_fr_energy">   -189.80806905 </i>
    <i name="e_wo_entrp">   -189.52539734 </i>
    <i name="e_0_energy">   -189.66673319 </i>
   </energy>
  </scstep>
  <scstep>
   <time name="diag">    1.62    1.62</time>
   <time name="diis">    4.25    4.33</time>
   <time name="orth">    0.39    0.39</time>
   <time name="total">    6.62    6.71</time>
   <dipole>
    <v name="dipole">      0.00000000       0.00000000       0.03086282 </v>
    <i name="Tr[quadrupol]"> -10206.10128608 </i>
    <i name="Echarged">      0.00000000 </i>
    <i name="Edipol_quadrupol">      0.00000000 </i>
    <i name="Eion">      0.00000000 </i>
   </dipole>
   <energy>
    <i name="e_fr_energy">   -189.80845258 </i>
    <i name="e_wo_entrp">   -189.52575372 </i>
    <i name="e_0_energy">   -189.66710315 </i>
   </energy>
  </scstep>
  <scstep>
   <time name="diag">    1.61    1.61</time>
   <time name="diis">    4.28    4.29</time>
   <time name="orth">    0.39    0.39</time>
   <time name="total">    6.64    6.66</time>
   <dipole>
    <v name="dipole">      0.00000000       0.00000000       0.02881732 </v>
    <i name="Tr[quadrupol]"> -10206.15110465 </i>
    <i name="Echarged">      0.00000000 </i>
    <i name="Edipol_quadrupol">      0.00000000 </i>
    <i name="Eion">      0.00000000 </i>
   </dipole>
   <energy>
    <i name="e_fr_energy">   -189.80881928 </i>
    <i name="e_wo_entrp">   -189.52600210 </i>
    <i name="e_0_energy">   -189.66741069 </i>
   </energy>
  </scstep>
  <scstep>
   <time name="diag">    1.62    1.62</time>
   <time name="diis">    4.39    4.40</time>
   <time name="orth">    0.39    0.39</time>
   <time name="total">    6.76    6.77</time>
   <dipole>
    <v name="dipole">      0.00000000       0.00000000       0.02723990 </v>
    <i name="Tr[quadrupol]"> -10206.19275143 </i>
    <i name="Echarged">      0.00000000 </i>
    <i name="Edipol_quadrupol">      0.00000000 </i>
    <i name="Eion">      0.00000000 </i>
   </dipole>
   <energy>
    <i name="e_fr_energy">   -189.80923405 </i>
    <i name="e_wo_entrp">   -189.52641574 </i>
    <i name="e_0_energy">   -189.66782489 </i>
   </energy>
  </scstep>
  <scstep>
   <time name="diag">    1.60    1.60</time>
   <time name="diis">    4.29    4.30</time>
   <time name="orth">    0.39    0.39</time>
   <time name="total">    6.65    6.66</time>
   <dipole>
    <v name="dipole">      0.00000000       0.00000000       0.02525726 </v>
    <i name="Tr[quadrupol]"> -10206.23440140 </i>
    <i name="Echarged">      0.00000000 </i>
    <i name="Edipol_quadrupol">      0.00000000 </i>
    <i name="Eion">      0.00000000 </i>
   </dipole>
   <energy>
    <i name="e_fr_energy">   -189.80971825 </i>
    <i name="e_wo_entrp">   -189.52695466 </i>
    <i name="e_0_energy">   -189.66833646 </i>
   </energy>
  </scstep>
  <scstep>
   <time name="diag">    1.63    1.63</time>
   <time name="diis">    4.35    4.35</time>
   <time name="orth">    0.39    0.39</time>
   <time name="total">    6.73    6.74</time>
   <dipole>
    <v name="dipole">      0.00000000       0.00000000       0.02249530 </v>
    <i name="Tr[quadrupol]"> -10206.28660579 </i>
    <i name="Echarged">      0.00000000 </i>
    <i name="Edipol_quadrupol">      0.00000000 </i>
    <i name="Eion">      0.00000000 </i>
   </dipole>
   <energy>
    <i name="e_fr_energy">   -189.81031940 </i>
    <i name="e_wo_entrp">   -189.52753350 </i>
    <i name="e_0_energy">   -189.66892645 </i>
   </energy>
  </scstep>
  <scstep>
   <time name="diag">    1.60    1.60</time>
   <time name="diis">    4.11    4.12</time>
   <time name="orth">    0.39    0.39</time>
   <time name="total">    6.47    6.48</time>
   <dipole>
    <v name="dipole">      0.00000000       0.00000000       0.01986343 </v>
    <i name="Tr[quadrupol]"> -10206.32552343 </i>
    <i name="Echarged">      0.00000000 </i>
    <i name="Edipol_quadrupol">      0.00000000 </i>
    <i name="Eion">      0.00000000 </i>
   </dipole>
   <energy>
    <i name="e_fr_energy">   -189.81077765 </i>
    <i name="e_wo_entrp">   -189.52798109 </i>
    <i name="e_0_energy">   -189.66937937 </i>
   </energy>
  </scstep>
  <scstep>
   <time name="diag">    1.62    1.62</time>
   <time name="diis">    3.45    3.53</time>
   <time name="orth">    0.39    0.39</time>
   <time name="total">    5.83    5.91</time>
   <dipole>
    <v name="dipole">      0.00000000       0.00000000       0.01867550 </v>
    <i name="Tr[quadrupol]"> -10206.34371349 </i>
    <i name="Echarged">      0.00000000 </i>
    <i name="Edipol_quadrupol">      0.00000000 </i>
    <i name="Eion">      0.00000000 </i>
   </dipole>
   <energy>
    <i name="e_fr_energy">   -189.81095557 </i>
    <i name="e_wo_entrp">   -189.52813040 </i>
    <i name="e_0_energy">   -189.66954298 </i>
   </energy>
  </scstep>
  <scstep>
   <time name="diag">    1.73    1.74</time>
   <time name="diis">    3.91    3.92</time>
   <time name="orth">    0.40    0.40</time>
   <time name="total">    6.41    6.43</time>
   <dipole>
    <v name="dipole">      0.00000000       0.00000000       0.01767651 </v>
    <i name="Tr[quadrupol]"> -10206.35488092 </i>
    <i name="Echarged">      0.00000000 </i>
    <i name="Edipol_quadrupol">      0.00000000 </i>
    <i name="Eion">      0.00000000 </i>
   </dipole>
   <energy>
    <i name="e_fr_energy">   -189.81108925 </i>
    <i name="e_wo_entrp">   -189.52828870 </i>
    <i name="e_0_energy">   -189.66968898 </i>
   </energy>
  </scstep>
  <scstep>
   <time name="diag">    1.62    1.63</time>
   <time name="diis">    2.86    2.86</time>
   <time name="orth">    0.38    0.38</time>
   <time name="total">    5.24    5.25</time>
   <dipole>
    <v name="dipole">      0.00000000       0.00000000       0.01705826 </v>
    <i name="Tr[quadrupol]"> -10206.36084359 </i>
    <i name="Echarged">      0.00000000 </i>
    <i name="Edipol_quadrupol">      0.00000000 </i>
    <i name="Eion">      0.00000000 </i>
   </dipole>
   <energy>
    <i name="e_fr_energy">   -189.81116533 </i>
    <i name="e_wo_entrp">   -189.52835816 </i>
    <i name="e_0_energy">   -189.66976174 </i>
   </energy>
  </scstep>
  <scstep>
   <time name="diag">    1.61    1.61</time>
   <time name="diis">    2.84    2.85</time>
   <time name="orth">    0.39    0.39</time>
   <time name="total">    5.23    5.23</time>
   <dipole>
    <v name="dipole">      0.00000000       0.00000000       0.01617077 </v>
    <i name="Tr[quadrupol]"> -10206.36892082 </i>
    <i name="Echarged">      0.00000000 </i>
    <i name="Edipol_quadrupol">      0.00000000 </i>
    <i name="Eion">      0.00000000 </i>
   </dipole>
   <energy>
    <i name="e_fr_energy">   -189.81125031 </i>
    <i name="e_wo_entrp">   -189.52844680 </i>
    <i name="e_0_energy">   -189.66984855 </i>
   </energy>
  </scstep>
  <scstep>
   <time name="diag">    1.62    1.63</time>
   <time name="diis">    2.67    2.67</time>
   <time name="orth">    0.39    0.39</time>
   <time name="total">    5.05    5.06</time>
   <dipole>
    <v name="dipole">      0.00000000       0.00000000       0.01557237 </v>
    <i name="Tr[quadrupol]"> -10206.37282778 </i>
    <i name="Echarged">      0.00000000 </i>
    <i name="Edipol_quadrupol">      0.00000000 </i>
    <i name="Eion">      0.00000000 </i>
   </dipole>
   <energy>
    <i name="e_fr_energy">   -189.81128957 </i>
    <i name="e_wo_entrp">   -189.52847655 </i>
    <i name="e_0_energy">   -189.66988306 </i>
   </energy>
  </scstep>
  <scstep>
   <time name="diag">    1.60    1.60</time>
   <time name="diis">    2.66    2.66</time>
   <time name="orth">    0.39    0.39</time>
   <time name="total">    5.01    5.02</time>
   <dipole>
    <v name="dipole">      0.00000000       0.00000000       0.01508182 </v>
    <i name="Tr[quadrupol]"> -10206.37581989 </i>
    <i name="Echarged">      0.00000000 </i>
    <i name="Edipol_quadrupol">      0.00000000 </i>
    <i name="Eion">      0.00000000 </i>
   </dipole>
   <energy>
    <i name="e_fr_energy">   -189.81131221 </i>
    <i name="e_wo_entrp">   -189.52850661 </i>
    <i name="e_0_energy">   -189.66990941 </i>
   </energy>
  </scstep>
  <scstep>
   <time name="diag">    1.62    1.62</time>
   <time name="diis">    2.34    2.35</time>
   <time name="orth">    0.39    0.39</time>
   <time name="total">    4.73    4.73</time>
   <dipole>
    <v name="dipole">      0.00000000       0.00000000       0.01475296 </v>
    <i name="Tr[quadrupol]"> -10206.37805789 </i>
    <i name="Echarged">      0.00000000 </i>
    <i name="Edipol_quadrupol">      0.00000000 </i>
    <i name="Eion">      0.00000000 </i>
   </dipole>
   <energy>
    <i name="e_fr_energy">   -189.81132310 </i>
    <i name="e_wo_entrp">   -189.52851821 </i>
    <i name="e_0_energy">   -189.66992066 </i>
   </energy>
  </scstep>
  <scstep>
   <time name="diag">    1.60    1.60</time>
   <time name="diis">    2.42    2.42</time>
   <time name="orth">    0.38    0.39</time>
   <time name="total">    4.78    4.78</time>
   <dipole>
    <v name="dipole">      0.00000000       0.00000000       0.01441930 </v>
    <i name="Tr[quadrupol]"> -10206.38039927 </i>
    <i name="Echarged">      0.00000000 </i>
    <i name="Edipol_quadrupol">      0.00000000 </i>
    <i name="Eion">      0.00000000 </i>
   </dipole>
   <energy>
    <i name="e_fr_energy">   -189.81132986 </i>
    <i name="e_wo_entrp">   -189.52852490 </i>
    <i name="e_0_energy">   -189.66992738 </i>
   </energy>
  </scstep>
  <scstep>
   <time name="diag">    1.58    1.66</time>
   <time name="diis">    2.08    2.08</time>
   <time name="orth">    0.39    0.39</time>
   <time name="total">    4.42    4.50</time>
   <dipole>
    <v name="dipole">      0.00000000       0.00000000       0.01420777 </v>
    <i name="Tr[quadrupol]"> -10206.38202463 </i>
    <i name="Echarged">      0.00000000 </i>
    <i name="Edipol_quadrupol">      0.00000000 </i>
    <i name="Eion">      0.00000000 </i>
   </dipole>
   <energy>
    <i name="e_fr_energy">   -189.81133183 </i>
    <i name="e_wo_entrp">   -189.52852708 </i>
    <i name="e_0_energy">   -189.66992945 </i>
   </energy>
  </scstep>
  <scstep>
   <time name="diag">    1.60    1.60</time>
   <time name="diis">    1.90    1.91</time>
   <time name="orth">    0.39    0.39</time>
   <time name="total">    3.95    3.96</time>
   <dipole>
    <v name="dipole">      0.00000000       0.00000000       0.01406223 </v>
    <i name="Tr[quadrupol]"> -10206.38321860 </i>
    <i name="Echarged">      0.00000000 </i>
    <i name="Edipol_quadrupol">      0.00000000 </i>
    <i name="Eion">      0.00000000 </i>
   </dipole>
   <energy>
    <i name="alphaZ">    805.87603456 </i>
    <i name="ewald"> 199460.42145907 </i>
    <i name="hartreedc">-241658.52121680 </i>
    <i name="XCdc">   -343.86375446 </i>
    <i name="pawpsdc">  49232.96172864 </i>
    <i name="pawaedc"> -47311.49231492 </i>
    <i name="eentropy">     -0.28280495 </i>
    <i name="bandstr">  -2034.69633609 </i>
    <i name="atom">  41659.78587232 </i>
    <i name="e_fr_energy">   -189.81133263 </i>
    <i name="e_wo_entrp">   -189.52852768 </i>
    <i name="e_0_energy">   -189.66993015 </i>
   </energy>
  </scstep>
  <structure>
   <crystal>
    <varray name="basis" >
     <v>      11.00258152       0.00000000       0.00000000 </v>
     <v>       5.50129076       9.52851510       0.00000000 </v>
     <v>       0.00000000       0.00000000      24.49178509 </v>
    </varray>
    <i name="volume">   2567.67623402 </i>
    <varray name="rec_basis" >
     <v>       0.09088776      -0.05247407       0.00000000 </v>
     <v>       0.00000000       0.10494815       0.00000000 </v>
     <v>       0.00000000       0.00000000       0.04083002 </v>
    </varray>
   </crystal>
   <varray name="positions" >
    <v>       0.08333333       0.08333333       0.40830017 </v>
    <v>       0.00000000       0.50000000       0.59169983 </v>
    <v>       0.08333333       0.83333333       0.40830017 </v>
    <v>       0.91666667       0.41666667       0.50000000 </v>
    <v>       0.00000000       0.75000000       0.59169983 </v>
    <v>       0.08333333       0.33333333       0.40830017 </v>
    <v>       0.00000000       0.00000000       0.59169983 </v>
    <v>       0.25000000       0.75000000       0.59169983 </v>
    <v>       0.33333333       0.58333333       0.40830017 </v>
    <v>       0.16666667       0.66666667       0.50000000 </v>
    <v>       0.25000000       0.50000000       0.59169983 </v>
    <v>       0.33333333       0.83333333       0.40830017 </v>
    <v>       0.00000000       0.25000000       0.59169983 </v>
    <v>       0.58333333       0.08333333       0.40830017 </v>
    <v>       0.41666667       0.16666667       0.50000000 </v>
    <v>       0.58333333       0.33333333       0.40830017 </v>
    <v>       0.58333333       0.83333333       0.40830017 </v>
    <v>       0.83333333       0.08333333       0.40830017 </v>
    <v>       0.75000000       0.00000000       0.59169983 </v>
    <v>       0.66666667       0.41666667       0.50000000 </v>
    <v>       0.75000000       0.25000000       0.59169983 </v>
    <v>       0.83333333       0.58333333       0.40830017 </v>
    <v>       0.83333333       0.83333333       0.40830017 </v>
    <v>       0.66666667       0.91666667       0.50000000 </v>
    <v>       0.50000000       0.25000000       0.59169983 </v>
    <v>       0.41666667       0.41666667       0.50000000 </v>
    <v>       0.50000000       0.00000000       0.59169983 </v>
    <v>       0.91666667       0.91666667       0.50000000 </v>
    <v>       0.33333333       0.33333333       0.40830017 </v>
    <v>       0.33333333       0.08333333       0.40830017 </v>
    <v>       0.16666667       0.16666667       0.50000000 </v>
    <v>       0.25000000       0.00000000       0.59169983 </v>
    <v>       0.58333333       0.58333333       0.40830017 </v>
    <v>       0.16666667       0.91666667       0.50000000 </v>
    <v>       0.41666667       0.66666667       0.50000000 </v>
    <v>       0.08333333       0.58333333       0.40830017 </v>
    <v>       0.50000000       0.50000000       0.59169983 </v>
    <v>       0.41666667       0.91666667       0.50000000 </v>
    <v>       0.50000000       0.75000000       0.59169983 </v>
    <v>       0.66666667       0.16666667       0.50000000 </v>
    <v>       0.83333333       0.33333333       0.40830017 </v>
    <v>       0.66666667       0.66666667       0.50000000 </v>
    <v>       0.75000000       0.50000000       0.59169983 </v>
    <v>       0.91666667       0.16666667       0.50000000 </v>
    <v>       0.25000000       0.25000000       0.59169983 </v>
    <v>       0.91666667       0.66666667       0.50000000 </v>
    <v>       0.16666667       0.41666667       0.50000000 </v>
    <v>       0.75000000       0.75000000       0.59169983 </v>
   </varray>
  </structure>
  <varray name="forces" >
   <v>       0.12549921       0.19804600      -1.11538456 </v>
   <v>      -0.12726503       0.06224267       1.38022663 </v>
   <v>      -0.10943405      -0.04042292      -1.33285001 </v>
   <v>      -0.06337545       0.04810490      -0.00558986 </v>
   <v>      -0.37855182       0.06978771       1.38670707 </v>
   <v>       0.34313027      -0.04891589      -1.30017567 </v>
   <v>       0.25397678       0.02846790       1.15524937 </v>
   <v>       0.65423882       0.07394462       1.31858868 </v>
   <v>       0.01255383      -0.30369328      -1.31456594 </v>
   <v>      -0.18210266      -0.16265252      -0.28962623 </v>
   <v>       0.25339563      -0.55757095       1.37917126 </v>
   <v>       0.28891095      -0.00654208      -1.10276135 </v>
   <v>       0.30752880      -0.19241635       1.35578037 </v>
   <v>      -0.25905800       0.33581990      -1.56522372 </v>
   <v>      -0.33724775       0.35754716       0.31427468 </v>
   <v>       0.01721083       0.15440702      -1.34263747 </v>
   <v>      -0.37915767      -0.13282442      -1.38963341 </v>
   <v>       0.13251659       0.20879910      -1.14482056 </v>
   <v>      -0.32600086       0.06009454       1.33405725 </v>
   <v>      -0.13819395       0.32903548       0.06002643 </v>
   <v>      -0.28618347       0.27045044       1.34485737 </v>
   <v>      -0.08952696      -0.04655654      -1.38501282 </v>
   <v>       0.23856348      -0.30223865      -1.36497547 </v>
   <v>      -0.10887015      -0.32760842       0.62545389 </v>
   <v>      -0.11600906       0.03319691       0.68480712 </v>
   <v>      -0.00472562      -0.12026053       0.16894244 </v>
   <v>      -0.24780121      -0.02098726       0.74202199 </v>
   <v>       0.08141326       0.14372442      -0.00530614 </v>
   <v>      -0.11209620       0.06533068      -0.69234407 </v>
   <v>      -0.00439358       0.09121989      -0.68999963 </v>
   <v>       0.20742103      -0.33255303       0.15883266 </v>
   <v>       0.25835772      -0.06100091       0.51458191 </v>
   <v>       0.07575149      -0.01777796      -0.71645337 </v>
   <v>       0.31718554       0.27112839       0.21085946 </v>
   <v>       0.37694588       0.06186011       0.23909220 </v>
   <v>      -0.01356488      -0.17247212      -0.71385745 </v>
   <v>       0.05751931      -0.00870175       0.68299838 </v>
   <v>      -0.31703204      -0.10017457       0.43345256 </v>
   <v>       0.12784076       0.06505724       0.46586677 </v>
   <v>       0.03160863       0.13739693       0.19854705 </v>
   <v>      -0.08432326       0.04104544      -0.87708412 </v>
   <v>      -0.25449717       0.15093468       0.39957134 </v>
   <v>      -0.17369373       0.39997850       0.82046258 </v>
   <v>       0.01866767      -0.21370470      -0.15480933 </v>
   <v>       0.14235376      -0.25865037       0.63735744 </v>
   <v>      -0.02734032       0.00123752       0.00330356 </v>
   <v>       0.15082379      -0.15520261      -0.17608028 </v>
   <v>      -0.33296912      -0.07593035       0.66410096 </v>
  </varray>
  <energy>
   <i name="e_fr_energy">   -189.81133263 </i>
   <i name="e_wo_entrp">   -189.66993015 </i>
   <i name="e_0_energy">     -0.28280495 </i>
  </energy>
  <time name="totalsc">  290.81  291.91</time>
 </calculation>
 <calculation>
  <scstep>
   <time name="dav">    9.34    9.35</time>
   <time name="total">    9.71    9.72</time>
   <dipole>
    <v name="dipole">      0.00000000       0.00000000       0.01389569 </v>
    <i name="Tr[quadrupol]"> -10207.16060394 </i>
    <i name="Echarged">      0.00000000 </i>
    <i name="Edipol_quadrupol">      0.00000000 </i>
    <i name="Eion">      0.00000000 </i>
   </dipole>
   <energy>
    <i name="alphaZ">    805.86961148 </i>
    <i name="ewald"> 198259.20083137 </i>
    <i name="hartreedc">-240464.41436461 </i>
    <i name="XCdc">   -344.84549387 </i>
    <i name="pawpsdc">  49232.95942225 </i>
    <i name="pawaedc"> -47311.49000190 </i>
    <i name="eentropy">     -0.28289385 </i>
    <i name="bandstr">  -2027.08200703 </i>
    <i name="atom">  41659.78587232 </i>
    <i name="e_fr_energy">   -190.29902384 </i>
    <i name="e_wo_entrp">   -190.01612999 </i>
    <i name="e_0_energy">   -190.15757692 </i>
   </energy>
  </scstep>
  <scstep>
   <time name="diag">    1.62    1.62</time>
   <time name="diis">    4.85    4.90</time>
   <time name="orth">    0.47    0.47</time>
   <time name="total">    7.39    7.45</time>
   <dipole>
    <v name="dipole">      0.00000000       0.00000000       0.05279037 </v>
    <i name="Tr[quadrupol]"> -10207.00971586 </i>
    <i name="Echarged">      0.00000000 </i>
    <i name="Edipol_quadrupol">      0.00000000 </i>
    <i name="Eion">      0.00000000 </i>
   </dipole>
   <energy>
    <i name="e_fr_energy">   -190.48303838 </i>
    <i name="e_wo_entrp">   -190.20538565 </i>
    <i name="e_0_energy">   -190.34421201 </i>
   </energy>
  </scstep>
  <scstep>
   <time name="diag">    1.63    1.63</time>
   <time name="diis">    4.37    4.37</time>
   <time name="orth">    0.39    0.39</time>
   <time name="total">    6.75    6.76</time>
   <dipole>
    <v name="dipole">      0.00000000       0.00000000      -0.04263527 </v>
    <i name="Tr[quadrupol]"> -10207.19388570 </i>
    <i name="Echarged">      0.00000000 </i>
    <i name="Edipol_quadrupol">      0.00000000 </i>
    <i name="Eion">      0.00000000 </i>
   </dipole>
   <energy>
    <i name="e_fr_energy">   -190.54328875 </i>
    <i name="e_wo_entrp">   -190.26577417 </i>
    <i name="e_0_energy">   -190.40453146 </i>
   </energy>
  </scstep>
  <scstep>
   <time name="diag">    1.63    1.63</time>
   <time name="diis">    4.41    4.41</time>
   <time name="orth">    0.38    0.39</time>
   <time name="total">    6.78    6.83</time>
   <dipole>
    <v name="dipole">      0.00000000       0.00000000       0.02601325 </v>
    <i name="Tr[quadrupol]"> -10207.21537182 </i>
    <i name="Echarged">      0.00000000 </i>
    <i name="Edipol_quadrupol">      0.00000000 </i>
    <i name="Eion">      0.00000000 </i>
   </dipole>
   <energy>
    <i name="e_fr_energy">   -190.46634867 </i>
    <i name="e_wo_entrp">   -190.18319911 </i>
    <i name="e_0_energy">   -190.32477389 </i>
   </energy>
  </scstep>
  <scstep>
   <time name="diag">    1.61    1.64</time>
   <time name="diis">    4.41    4.41</time>
   <time name="orth">    0.39    0.39</time>
   <time name="total">    6.77    6.81</time>
   <dipole>
    <v name="dipole">      0.00000000       0.00000000      -0.01129542 </v>
    <i name="Tr[quadrupol]"> -10207.16876096 </i>
    <i name="Echarged">      0.00000000 </i>
    <i name="Edipol_quadrupol">      0.00000000 </i>
    <i name="Eion">      0.00000000 </i>
   </dipole>
   <energy>
    <i name="e_fr_energy">   -190.46740687 </i>
    <i name="e_wo_entrp">   -190.18566603 </i>
    <i name="e_0_energy">   -190.32653645 </i>
   </energy>
  </scstep>
  <scstep>
   <time name="diag">    1.62    1.62</time>
   <time name="diis">    4.39    4.39</time>
   <time name="orth">    0.39    0.39</time>
   <time name="total">    6.76    6.77</time>
   <dipole>
    <v name="dipole">      0.00000000       0.00000000       0.02227621 </v>
    <i name="Tr[quadrupol]"> -10207.17147792 </i>
    <i name="Echarged">      0.00000000 </i>
    <i name="Edipol_quadrupol">      0.00000000 </i>
    <i name="Eion">      0.00000000 </i>
   </dipole>
   <energy>
    <i name="e_fr_energy">   -190.46083671 </i>
    <i name="e_wo_entrp">   -190.17639527 </i>
    <i name="e_0_energy">   -190.31861599 </i>
   </energy>
  </scstep>
  <scstep>
   <time name="diag">    1.62    1.62</time>
   <time name="diis">    4.41    4.42</time>
   <time name="orth">    0.39    0.39</time>
   <time name="total">    6.78    6.79</time>
   <dipole>
    <v name="dipole">      0.00000000       0.00000000       0.03206952 </v>
    <i name="Tr[quadrupol]"> -10207.18446268 </i>
    <i name="Echarged">      0.00000000 </i>
    <i name="Edipol_quadrupol">      0.00000000 </i>
    <i name="Eion">      0.00000000 </i>
   </dipole>
   <energy>
    <i name="e_fr_energy">   -190.45451892 </i>
    <i name="e_wo_entrp">   -190.17241973 </i>
    <i name="e_0_energy">   -190.31346932 </i>
   </energy>
  </scstep>
  <scstep>
   <time name="diag">    1.62    1.62</time>
   <time name="diis">    4.36    4.36</time>
   <time name="orth">    0.39    0.39</time>
   <time name="total">    6.73    6.74</time>
   <dipole>
    <v name="dipole">      0.00000000       0.00000000       0.01860772 </v>
    <i name="Tr[quadrupol]"> -10207.16896894 </i>
    <i name="Echarged">      0.00000000 </i>
    <i name="Edipol_quadrupol">      0.00000000 </i>
    <i name="Eion">      0.00000000 </i>
   </dipole>
   <energy>
    <i name="e_fr_energy">   -190.45307994 </i>
    <i name="e_wo_entrp">   -190.16921199 </i>
    <i name="e_0_energy">   -190.31114597 </i>
   </energy>
  </scstep>
  <scstep>
   <time name="diag">    1.63    1.63</time>
   <time name="diis">    4.42    4.42</time>
   <time name="orth">    0.39    0.39</time>
   <time name="total">    6.80    6.81</time>
   <dipole>
    <v name="dipole">      0.00000000       0.00000000       0.01851715 </v>
    <i name="Tr[quadrupol]"> -10207.16492741 </i>
    <i name="Echarged">      0.00000000 </i>
    <i name="Edipol_quadrupol">      0.00000000 </i>
    <i name="Eion">      0.00000000 </i>
   </dipole>
   <energy>
    <i name="e_fr_energy">   -190.45270527 </i>
    <i name="e_wo_entrp">   -190.16929032 </i>
    <i name="e_0_energy">   -190.31099779 </i>
   </energy>
  </scstep>
  <scstep>
   <time name="diag">    1.62    1.62</time>
   <time name="diis">    4.33    4.37</time>
   <time name="orth">    0.38    0.40</time>
   <time name="total">    6.69    6.77</time>
   <dipole>
    <v name="dipole">      0.00000000       0.00000000       0.01946186 </v>
    <i name="Tr[quadrupol]"> -10207.16228977 </i>
    <i name="Echarged">      0.00000000 </i>
    <i name="Edipol_quadrupol">      0.00000000 </i>
    <i name="Eion">      0.00000000 </i>
   </dipole>
   <energy>
    <i name="e_fr_energy">   -190.45257680 </i>
    <i name="e_wo_entrp">   -190.16911653 </i>
    <i name="e_0_energy">   -190.31084666 </i>
   </energy>
  </scstep>
  <scstep>
   <time name="diag">    1.62    1.62</time>
   <time name="diis">    5.08    5.12</time>
   <time name="orth">    0.40    0.40</time>
   <time name="total">    7.46    7.50</time>
   <dipole>
    <v name="dipole">      0.00000000       0.00000000       0.01941150 </v>
    <i name="Tr[quadrupol]"> -10207.16153887 </i>
    <i name="Echarged">      0.00000000 </i>
    <i name="Edipol_quadrupol">      0.00000000 </i>
    <i name="Eion">      0.00000000 </i>
   </dipole>
   <energy>
    <i name="e_fr_energy">   -190.45253599 </i>
    <i name="e_wo_entrp">   -190.16906621 </i>
    <i name="e_0_energy">   -190.31080110 </i>
   </energy>
  </scstep>
  <scstep>
   <time name="diag">    1.63    1.63</time>
   <time name="diis">    4.34    4.34</time>
   <time name="orth">    0.39    0.39</time>
   <time name="total">    6.72    6.73</time>
   <dipole>
    <v name="dipole">      0.00000000       0.00000000       0.01942982 </v>
    <i name="Tr[quadrupol]"> -10207.16264731 </i>
    <i name="Echarged">      0.00000000 </i>
    <i name="Edipol_quadrupol">      0.00000000 </i>
    <i name="Eion">      0.00000000 </i>
   </dipole>
   <energy>
    <i name="e_fr_energy">   -190.45253100 </i>
    <i name="e_wo_entrp">   -190.16909551 </i>
    <i name="e_0_energy">   -190.31081325 </i>
   </energy>
  </scstep>
  <scstep>
   <time name="diag">    1.62    1.63</time>
   <time name="diis">    4.24    4.24</time>
   <time name="orth">    0.39    0.39</time>
   <time name="total">    6.62    6.63</time>
   <dipole>
    <v name="dipole">      0.00000000       0.00000000       0.01948651 </v>
    <i name="Tr[quadrupol]"> -10207.16459722 </i>
    <i name="Echarged">      0.00000000 </i>
    <i name="Edipol_quadrupol">      0.00000000 </i>
    <i name="Eion">      0.00000000 </i>
   </dipole>
   <energy>
    <i name="e_fr_energy">   -190.45252325 </i>
    <i name="e_wo_entrp">   -190.16910080 </i>
    <i name="e_0_energy">   -190.31081202 </i>
   </energy>
  </scstep>
  <scstep>
   <time name="diag">    1.62    1.62</time>
   <time name="diis">    3.36    3.36</time>
   <time name="orth">    0.39    0.39</time>
   <time name="total">    5.42    5.43</time>
   <dipole>
    <v name="dipole">      0.00000000       0.00000000       0.01947894 </v>
    <i name="Tr[quadrupol]"> -10207.16584698 </i>
    <i name="Echarged">      0.00000000 </i>
    <i name="Edipol_quadrupol">      0.00000000 </i>
    <i name="Eion">      0.00000000 </i>
   </dipole>
   <energy>
    <i name="alphaZ">    805.86970697 </i>
    <i name="ewald"> 198259.20083137 </i>
    <i name="hartreedc">-240464.70692608 </i>
    <i name="XCdc">   -344.82150711 </i>
    <i name="pawpsdc">  49035.93709708 </i>
    <i name="pawaedc"> -47113.09662789 </i>
    <i name="eentropy">     -0.28341839 </i>
    <i name="bandstr">  -2028.33755092 </i>
    <i name="atom">  41659.78587232 </i>
    <i name="e_fr_energy">   -190.45252266 </i>
    <i name="e_wo_entrp">   -190.16910427 </i>
    <i name="e_0_energy">   -190.31081347 </i>
   </energy>
  </scstep>
  <structure>
   <crystal>
    <varray name="basis" >
     <v>      11.00258152       0.00000000       0.00000000 </v>
     <v>       5.50129076       9.52851510       0.00000000 </v>
     <v>       0.00000000       0.00000000      24.49178509 </v>
    </varray>
    <i name="volume">   2567.67623402 </i>
    <varray name="rec_basis" >
     <v>       0.09088776      -0.05247407       0.00000000 </v>
     <v>       0.00000000       0.10494815       0.00000000 </v>
     <v>       0.00000000       0.00000000       0.04083002 </v>
    </varray>
   </crystal>
   <varray name="positions" >
    <v>       0.08333333       0.08333333       0.40830017 </v>
    <v>      -0.00050091       0.50022059       0.59360292 </v>
    <v>       0.08333333       0.83333333       0.40830017 </v>
    <v>       0.91638691       0.41683715       0.49999229 </v>
    <v>      -0.00128554       0.75024733       0.59361186 </v>
    <v>       0.08333333       0.33333333       0.40830017 </v>
    <v>       0.00072908       0.00010089       0.59329272 </v>
    <v>       0.25187700       0.75026207       0.59351793 </v>
    <v>       0.33333333       0.58333333       0.40830017 </v>
    <v>       0.16639597       0.66609021       0.49960066 </v>
    <v>       0.25176578       0.49802392       0.59360146 </v>
    <v>       0.33333333       0.83333333       0.40830017 </v>
    <v>       0.00128486       0.24931806       0.59356921 </v>
    <v>       0.58333333       0.08333333       0.40830017 </v>
    <v>       0.41499797       0.16793384       0.50043333 </v>
    <v>       0.58333333       0.33333333       0.40830017 </v>
    <v>       0.58333333       0.83333333       0.40830017 </v>
    <v>       0.83333333       0.08333333       0.40830017 </v>
    <v>       0.74889293       0.00021298       0.59353926 </v>
    <v>       0.66565945       0.41783280       0.50008277 </v>
    <v>       0.74864238       0.25095850       0.59355415 </v>
    <v>       0.83333333       0.58333333       0.40830017 </v>
    <v>       0.83333333       0.83333333       0.40830017 </v>
    <v>       0.66691305       0.91550559       0.50086239 </v>
    <v>       0.49958511       0.25011765       0.59264406 </v>
    <v>       0.41686527       0.41624045       0.50023294 </v>
    <v>       0.49927662      -0.00007438       0.59272295 </v>
    <v>       0.91666186       0.91717604       0.49999268 </v>
    <v>       0.33333333       0.33333333       0.40830017 </v>
    <v>       0.33333333       0.08333333       0.40830017 </v>
    <v>       0.16789260       0.16548807       0.50021900 </v>
    <v>       0.25090106      -0.00021619       0.59240935 </v>
    <v>       0.58333333       0.58333333       0.40830017 </v>
    <v>       0.16715974       0.91762757       0.50029074 </v>
    <v>       0.41771400       0.66688590       0.50032967 </v>
    <v>       0.08333333       0.58333333       0.40830017 </v>
    <v>       0.50019196       0.49996916       0.59264157 </v>
    <v>       0.41587112       0.91631164       0.50059765 </v>
    <v>       0.50027709       0.75023057       0.59234218 </v>
    <v>       0.66652021       0.16715361       0.50027376 </v>
    <v>       0.83333333       0.33333333       0.40830017 </v>
    <v>       0.66561808       0.66720159       0.50055094 </v>
    <v>       0.74875811       0.50141756       0.59283110 </v>
    <v>       0.91710266       0.16590928       0.49978655 </v>
    <v>       0.25089526       0.24908332       0.59257863 </v>
    <v>       0.91658056       0.66667105       0.50000456 </v>
    <v>       0.16740461       0.41611662       0.49975722 </v>
    <v>       0.74911258       0.74973090       0.59261551 </v>
   </varray>
  </structure>
  <varray name="forces" >
   <v>       0.14339341       0.19740419      -1.12031408 </v>
   <v>      -0.05021639      -0.00743470       0.99276387 </v>
   <v>      -0.08098009      -0.01392421      -1.29962018 </v>
   <v>      -0.01725243      -0.04167386       0.34524907 </v>
   <v>      -0.10756187      -0.00092535       0.98550487 </v>
   <v>       0.32694945      -0.07185322      -1.26745625 </v>
   <v>       0.09615025       0.00943558       0.86455404 </v>
   <v>       0.27860786      -0.03446174       0.93523631 </v>
   <v>       0.05625491      -0.30855436      -1.27173721 </v>
   <v>      -0.06341669      -0.06759101       0.32849972 </v>
   <v>       0.11913794      -0.21853556       1.00714400 </v>
   <v>       0.28873116      -0.01393386      -1.06848932 </v>
   <v>       0.15129638      -0.06299436       0.97649327 </v>
   <v>      -0.28434870       0.29610942      -1.38426924 </v>
   <v>      -0.12706150       0.09744093       0.29864913 </v>
   <v>       0.01558393       0.14797090      -1.30983963 </v>
   <v>      -0.36784574      -0.10491136      -1.27603449 </v>
   <v>       0.09968041       0.21476136      -1.14239365 </v>
   <v>      -0.18981793       0.06819560       1.03862392 </v>
   <v>      -0.03516881       0.12079200       0.25756434 </v>
   <v>      -0.10044102       0.17823593       0.98928311 </v>
   <v>      -0.12066347      -0.02537455      -1.33708144 </v>
   <v>       0.19851285      -0.26972155      -1.29462250 </v>
   <v>      -0.07910798      -0.08825395       0.54906289 </v>
   <v>      -0.06913367      -0.03448915       0.59133392 </v>
   <v>      -0.01494264      -0.01473928       0.27059992 </v>
   <v>      -0.16299184       0.00233482       0.63316460 </v>
   <v>       0.05805895       0.08660388       0.32675534 </v>
   <v>      -0.09209118       0.04999099      -0.70357425 </v>
   <v>       0.02114615       0.07274648      -0.64476091 </v>
   <v>       0.05242873      -0.14371101       0.25008085 </v>
   <v>       0.19243298      -0.03509143       0.51908471 </v>
   <v>       0.08304866      -0.00207188      -0.71420473 </v>
   <v>       0.13270169       0.07501169       0.34984636 </v>
   <v>       0.10770609       0.07329051       0.28874269 </v>
   <v>      -0.03878486      -0.18020521      -0.75166785 </v>
   <v>       0.03709079       0.00496398       0.58738437 </v>
   <v>      -0.14101412      -0.04676144       0.34839839 </v>
   <v>       0.11468600       0.05060878       0.49997104 </v>
   <v>       0.02074638       0.04849621       0.37477045 </v>
   <v>      -0.09377736       0.04517715      -0.84878998 </v>
   <v>      -0.13760395       0.08715474       0.33758033 </v>
   <v>      -0.10222115       0.19506671       0.65320394 </v>
   <v>       0.00425444      -0.05395534       0.23539127 </v>
   <v>       0.06532346      -0.14699547       0.57812158 </v>
   <v>       0.02369364      -0.05095321       0.25152302 </v>
   <v>       0.02365227      -0.02022489       0.15284208 </v>
   <v>      -0.23482538      -0.06244989       0.61743230 </v>
  </varray>
  <energy>
   <i name="e_fr_energy">   -190.45252266 </i>
   <i name="e_wo_entrp">   -190.31081347 </i>
   <i name="e_0_energy">     -0.28341839 </i>
  </energy>
  <time name="totalsc">  100.39  100.74</time>
 </calculation>
 <calculation>
  <scstep>
   <time name="dav">    9.29    9.31</time>
   <time name="total">    9.66    9.69</time>
   <dipole>
    <v name="dipole">      0.00000000       0.00000000       0.01946017 </v>
    <i name="Tr[quadrupol]"> -10210.19688864 </i>
    <i name="Echarged">      0.00000000 </i>
    <i name="Edipol_quadrupol">      0.00000000 </i>
    <i name="Eion">      0.00000000 </i>
   </dipole>
   <energy>
    <i name="alphaZ">    805.84305265 </i>
    <i name="ewald"> 194695.65798682 </i>
    <i name="hartreedc">-236920.03954292 </i>
    <i name="XCdc">   -347.31861597 </i>
    <i name="pawpsdc">  49035.80843534 </i>
    <i name="pawaedc"> -47112.96817960 </i>
    <i name="eentropy">     -0.27700883 </i>
    <i name="bandstr">  -2006.35972326 </i>
    <i name="atom">  41659.78587232 </i>
    <i name="e_fr_energy">   -189.86772346 </i>
    <i name="e_wo_entrp">   -189.59071463 </i>
    <i name="e_0_energy">   -189.72921904 </i>
   </energy>
  </scstep>
  <scstep>
   <time name="diag">    1.58    1.64</time>
   <time name="diis">    4.33    4.33</time>
   <time name="orth">    0.39    0.39</time>
   <time name="total">    6.66    6.73</time>
   <dipole>
    <v name="dipole">      0.00000000       0.00000000       0.10855540 </v>
    <i name="Tr[quadrupol]"> -10209.70308495 </i>
    <i name="Echarged">      0.00000000 </i>
    <i name="Edipol_quadrupol">      0.00000000 </i>
    <i name="Eion">      0.00000000 </i>
   </dipole>
   <energy>
    <i name="e_fr_energy">   -191.48608064 </i>
    <i name="e_wo_entrp">   -191.22590582 </i>
    <i name="e_0_energy">   -191.35599323 </i>
   </energy>
  </scstep>
  <scstep>
   <time name="diag">    1.63    1.63</time>
   <time name="diis">    4.35    4.35</time>
   <time name="orth">    0.39    0.39</time>
   <time name="total">    6.73    6.74</time>
   <dipole>
    <v name="dipole">      0.00000000       0.00000000      -0.11549647 </v>
    <i name="Tr[quadrupol]"> -10210.27602827 </i>
    <i name="Echarged">      0.00000000 </i>
    <i name="Edipol_quadrupol">      0.00000000 </i>
    <i name="Eion">      0.00000000 </i>
   </dipole>
   <energy>
    <i name="e_fr_energy">   -191.89934923 </i>
    <i name="e_wo_entrp">   -191.66442231 </i>
    <i name="e_0_energy">   -191.78188577 </i>
   </energy>
  </scstep>
  <scstep>
   <time name="diag">    1.63    1.63</time>
   <time name="diis">    4.42    4.42</time>
   <time name="orth">    0.39    0.39</time>
   <time name="total">    6.80    6.81</time>
   <dipole>
    <v name="dipole">      0.00000000       0.00000000       0.05516507 </v>
    <i name="Tr[quadrupol]"> -10210.23939200 </i>
    <i name="Echarged">      0.00000000 </i>
    <i name="Edipol_quadrupol">      0.00000000 </i>
    <i name="Eion">      0.00000000 </i>
   </dipole>
   <energy>
    <i name="e_fr_energy">   -191.34506216 </i>
    <i name="e_wo_entrp">   -191.06780102 </i>
    <i name="e_0_energy">   -191.20643159 </i>
   </energy>
  </scstep>
  <scstep>
   <time name="diag">    1.62    1.63</time>
   <time name="diis">    4.89    4.92</time>
   <time name="orth">    0.47    0.48</time>
   <time name="total">    7.47    7.50</time>
   <dipole>
    <v name="dipole">      0.00000000       0.00000000      -0.04824908 </v>
    <i name="Tr[quadrupol]"> -10210.18503033 </i>
    <i name="Echarged">      0.00000000 </i>
    <i name="Edipol_quadrupol">      0.00000000 </i>
    <i name="Eion">      0.00000000 </i>
   </dipole>
   <energy>
    <i name="e_fr_energy">   -191.37333272 </i>
    <i name="e_wo_entrp">   -191.09605121 </i>
    <i name="e_0_energy">   -191.23469196 </i>
   </energy>
  </scstep>
  <scstep>
   <time name="diag">    1.63    1.63</time>
   <time name="diis">    4.25    4.25</time>
   <time name="orth">    0.39    0.39</time>
   <time name="total">    6.63    6.64</time>
   <dipole>
    <v name="dipole">      0.00000000       0.00000000       0.07001669 </v>
    <i name="Tr[quadrupol]"> -10210.24640510 </i>
    <i name="Echarged">      0.00000000 </i>
    <i name="Edipol_quadrupol">      0.00000000 </i>
    <i name="Eion">      0.00000000 </i>
   </dipole>
   <energy>
[...]
       <r>    -9.1527     0.0000     0.0000 </r>
       <r>    -9.0993     0.0000     0.0000 </r>
       <r>    -9.0459     0.0000     0.0000 </r>
       <r>    -8.9925     0.0000     0.0000 </r>
       <r>    -8.9391     0.0001     0.0000 </r>
       <r>    -8.8858     0.0031     0.0002 </r>
       <r>    -8.8324     0.0416     0.0024 </r>
       <r>    -8.7790     0.3187     0.0194 </r>
       <r>    -8.7256     1.4143     0.0949 </r>
       <r>    -8.6722     3.6400     0.2892 </r>
       <r>    -8.6188     5.4714     0.5813 </r>
       <r>    -8.5654     5.0359     0.8502 </r>
       <r>    -8.5120     3.8216     1.0542 </r>
       <r>    -8.4587     4.3841     1.2883 </r>
       <r>    -8.4053     5.5588     1.5850 </r>
       <r>    -8.3519     4.6685     1.8343 </r>
       <r>    -8.2985     2.3148     1.9578 </r>
       <r>    -8.2451     0.6687     1.9935 </r>
       <r>    -8.1917     0.1383     2.0009 </r>
       <r>    -8.1383     0.2632     2.0150 </r>
       <r>    -8.0850     1.4074     2.0901 </r>
       <r>    -8.0316     4.7547     2.3440 </r>
       <r>    -7.9782    10.0301     2.8794 </r>
       <r>    -7.9248    13.8301     3.6178 </r>
       <r>    -7.8714    13.4088     4.3336 </r>
       <r>    -7.8180    10.5850     4.8987 </r>
       <r>    -7.7646     9.2188     5.3909 </r>
       <r>    -7.7112    10.0502     5.9274 </r>
       <r>    -7.6579    10.2356     6.4739 </r>
       <r>    -7.6045     8.6038     6.9332 </r>
       <r>    -7.5511     7.0148     7.3077 </r>
       <r>    -7.4977     5.9842     7.6272 </r>
       <r>    -7.4443     4.4690     7.8658 </r>
       <r>    -7.3909     3.2472     8.0391 </r>
       <r>    -7.3375     4.2909     8.2682 </r>
       <r>    -7.2842     7.9792     8.6942 </r>
       <r>    -7.2308    12.8008     9.3776 </r>
       <r>    -7.1774    17.1118    10.2911 </r>
       <r>    -7.1240    20.5219    11.3867 </r>
       <r>    -7.0706    23.3277    12.6321 </r>
       <r>    -7.0172    25.8973    14.0147 </r>
       <r>    -6.9638    28.8431    15.5545 </r>
       <r>    -6.9104    31.9856    17.2621 </r>
       <r>    -6.8571    34.0319    19.0790 </r>
       <r>    -6.8037    34.4154    20.9163 </r>
       <r>    -6.7503    33.9013    22.7262 </r>
       <r>    -6.6969    33.5488    24.5172 </r>
       <r>    -6.6435    35.2111    26.3971 </r>
       <r>    -6.5901    40.3842    28.5530 </r>
       <r>    -6.5367    47.7022    31.0997 </r>
       <r>    -6.4833    54.1075    33.9883 </r>
       <r>    -6.4300    57.2579    37.0451 </r>
       <r>    -6.3766    57.4459    40.1120 </r>
       <r>    -6.3232    58.1044    43.2140 </r>
       <r>    -6.2698    61.9726    46.5225 </r>
       <r>    -6.2164    67.4154    50.1216 </r>
       <r>    -6.1630    71.8062    53.9551 </r>
       <r>    -6.1096    75.3844    57.9796 </r>
       <r>    -6.0563    79.1662    62.2061 </r>
       <r>    -6.0029    81.9343    66.5803 </r>
       <r>    -5.9495    82.1837    70.9678 </r>
       <r>    -5.8961    80.4612    75.2634 </r>
       <r>    -5.8427    78.1780    79.4370 </r>
       <r>    -5.7893    76.7634    83.5352 </r>
       <r>    -5.7359    76.6106    87.6252 </r>
       <r>    -5.6825    75.9978    91.6824 </r>
       <r>    -5.6292    74.3102    95.6496 </r>
       <r>    -5.5758    73.8071    99.5899 </r>
       <r>    -5.5224    75.4175   103.6162 </r>
       <r>    -5.4690    76.5817   107.7047 </r>
       <r>    -5.4156    75.6351   111.7426 </r>
       <r>    -5.3622    73.6019   115.6720 </r>
       <r>    -5.3088    71.5562   119.4921 </r>
       <r>    -5.2555    70.3157   123.2460 </r>
       <r>    -5.2021    70.9709   127.0350 </r>
       <r>    -5.1487    73.6122   130.9649 </r>
       <r>    -5.0953    77.3155   135.0925 </r>
       <r>    -5.0419    82.3871   139.4909 </r>
       <r>    -4.9885    88.2543   144.2025 </r>
       <r>    -4.9351    92.1199   149.1205 </r>
       <r>    -4.8817    93.5489   154.1147 </r>
       <r>    -4.8284    94.1303   159.1401 </r>
       <r>    -4.7750    93.5079   164.1321 </r>
       <r>    -4.7216    91.3768   169.0105 </r>
       <r>    -4.6682    89.0799   173.7661 </r>
       <r>    -4.6148    87.3864   178.4314 </r>
       <r>    -4.5614    86.7561   183.0630 </r>
       <r>    -4.5080    87.6378   187.7417 </r>
       <r>    -4.4547    89.4635   192.5179 </r>
       <r>    -4.4013    90.4780   197.3482 </r>
       <r>    -4.3479    89.4057   202.1213 </r>
       <r>    -4.2945    88.2323   206.8318 </r>
       <r>    -4.2411    89.1948   211.5936 </r>
       <r>    -4.1877    90.9671   216.4500 </r>
       <r>    -4.1343    92.0503   221.3643 </r>
       <r>    -4.0809    92.7538   226.3161 </r>
       <r>    -4.0276    93.1525   231.2892 </r>
       <r>    -3.9742    93.5332   236.2827 </r>
       <r>    -3.9208    95.2869   241.3697 </r>
       <r>    -3.8674    98.3423   246.6199 </r>
       <r>    -3.8140   100.7671   251.9995 </r>
       <r>    -3.7606   101.5673   257.4219 </r>
       <r>    -3.7072   101.5528   262.8435 </r>
       <r>    -3.6539   101.5539   268.2651 </r>
       <r>    -3.6005   101.2374   273.6698 </r>
       <r>    -3.5471    99.9516   279.0059 </r>
       <r>    -3.4937    97.7119   284.2224 </r>
       <r>    -3.4403    95.5276   289.3223 </r>
       <r>    -3.3869    94.9937   294.3937 </r>
       <r>    -3.3335    95.9950   299.5186 </r>
       <r>    -3.2801    96.2472   304.6569 </r>
       <r>    -3.2268    94.9153   309.7242 </r>
       <r>    -3.1734    93.2584   314.7029 </r>
       <r>    -3.1200    91.6166   319.5940 </r>
       <r>    -3.0666    89.8505   324.3909 </r>
       <r>    -3.0132    88.4537   329.1131 </r>
       <r>    -2.9598    87.2309   333.7701 </r>
       <r>    -2.9064    85.7979   338.3506 </r>
       <r>    -2.8531    84.2394   342.8478 </r>
       <r>    -2.7997    82.7188   347.2639 </r>
       <r>    -2.7463    81.6304   351.6219 </r>
       <r>    -2.6929    81.5929   355.9779 </r>
       <r>    -2.6395    83.0355   360.4109 </r>
       <r>    -2.5861    85.6865   364.9854 </r>
       <r>    -2.5327    88.4662   369.7083 </r>
       <r>    -2.4793    90.9438   374.5635 </r>
       <r>    -2.4260    93.3513   379.5472 </r>
       <r>    -2.3726    95.1362   384.6263 </r>
       <r>    -2.3192    95.0189   389.6990 </r>
       <r>    -2.2658    93.0849   394.6685 </r>
       <r>    -2.2124    91.5546   399.5563 </r>
       <r>    -2.1590    92.1499   404.4759 </r>
       <r>    -2.1056    94.7105   409.5322 </r>
       <r>    -2.0522    97.1446   414.7184 </r>
       <r>    -1.9989    96.7361   419.8828 </r>
       <r>    -1.9455    93.7241   424.8865 </r>
       <r>    -1.8921    91.3374   429.7627 </r>
       <r>    -1.8387    91.7618   434.6615 </r>
       <r>    -1.7853    94.6380   439.7140 </r>
       <r>    -1.7319    97.9807   444.9448 </r>
       <r>    -1.6785    99.6783   450.2663 </r>
       <r>    -1.6252   100.3099   455.6216 </r>
       <r>    -1.5718   101.8629   461.0597 </r>
       <r>    -1.5184   104.0230   466.6131 </r>
       <r>    -1.4650   103.8117   472.1553 </r>
       <r>    -1.4116    98.7480   477.4271 </r>
       <r>    -1.3582    91.2480   482.2986 </r>
       <r>    -1.3048    86.3871   486.9105 </r>
       <r>    -1.2514    84.9969   491.4482 </r>
       <r>    -1.1981    82.4602   495.8505 </r>
       <r>    -1.1447    74.1973   499.8116 </r>
       <r>    -1.0913    61.4606   503.0928 </r>
       <r>    -1.0379    48.3599   505.6746 </r>
       <r>    -0.9845    35.9017   507.5913 </r>
       <r>    -0.9311    24.4404   508.8961 </r>
       <r>    -0.8777    16.0285   509.7518 </r>
       <r>    -0.8244    11.3658   510.3586 </r>
       <r>    -0.7710     9.0771   510.8432 </r>
       <r>    -0.7176     7.8422   511.2618 </r>
       <r>    -0.6642     7.2482   511.6488 </r>
       <r>    -0.6108     7.5933   512.0542 </r>
       <r>    -0.5574     9.9820   512.5871 </r>
       <r>    -0.5040    14.5530   513.3640 </r>
       <r>    -0.4506    19.5219   514.4062 </r>
       <r>    -0.3973    22.6720   515.6166 </r>
       <r>    -0.3439    22.6257   516.8245 </r>
       <r>    -0.2905    20.8468   517.9375 </r>
       <r>    -0.2371    20.4116   519.0272 </r>
       <r>    -0.1837    20.8345   520.1395 </r>
       <r>    -0.1303    19.6238   521.1871 </r>
       <r>    -0.0769    17.3776   522.1149 </r>
       <r>    -0.0236    15.7657   522.9565 </r>
       <r>     0.0298    15.0279   523.7588 </r>
       <r>     0.0832    15.0765   524.5637 </r>
       <r>     0.1366    16.3298   525.4355 </r>
       <r>     0.1900    18.0972   526.4017 </r>
       <r>     0.2434    18.4592   527.3871 </r>
       <r>     0.2968    17.2217   528.3065 </r>
       <r>     0.3502    15.6035   529.1396 </r>
       <r>     0.4035    14.2669   529.9012 </r>
       <r>     0.4569    13.8179   530.6389 </r>
       <r>     0.5103    15.4931   531.4661 </r>
       <r>     0.5637    19.1254   532.4871 </r>
       <r>     0.6171    22.1486   533.6695 </r>
       <r>     0.6705    23.2076   534.9085 </r>
       <r>     0.7239    22.6687   536.1187 </r>
       <r>     0.7772    20.5782   537.2173 </r>
       <r>     0.8306    16.7606   538.1121 </r>
       <r>     0.8840    11.7738   538.7407 </r>
       <r>     0.9374     8.5741   539.1984 </r>
       <r>     0.9908     9.3537   539.6978 </r>
       <r>     1.0442    11.8976   540.3330 </r>
       <r>     1.0976    12.9198   541.0227 </r>
       <r>     1.1510    11.7567   541.6504 </r>
       <r>     1.2043     9.5564   542.1606 </r>
       <r>     1.2577     7.2916   542.5498 </r>
       <r>     1.3111     5.5275   542.8449 </r>
       <r>     1.3645     5.6128   543.1446 </r>
       <r>     1.4179     9.0924   543.6300 </r>
       <r>     1.4713    14.0999   544.3827 </r>
       <r>     1.5247    16.0282   545.2384 </r>
       <r>     1.5781    14.4086   546.0077 </r>
       <r>     1.6314    13.8679   546.7480 </r>
       <r>     1.6848    16.8069   547.6453 </r>
       <r>     1.7382    20.4725   548.7383 </r>
       <r>     1.7916    21.3079   549.8758 </r>
       <r>     1.8450    18.3061   550.8531 </r>
       <r>     1.8984    12.7001   551.5311 </r>
       <r>     1.9518     7.3750   551.9249 </r>
       <r>     2.0051     5.2847   552.2070 </r>
       <r>     2.0585     6.0053   552.5276 </r>
       <r>     2.1119     6.9989   552.9012 </r>
       <r>     2.1653     9.0264   553.3831 </r>
       <r>     2.2187    14.0771   554.1347 </r>
       <r>     2.2721    19.8479   555.1943 </r>
       <r>     2.3255    23.0088   556.4226 </r>
       <r>     2.3789    23.3972   557.6717 </r>
       <r>     2.4322    22.6994   558.8836 </r>
       <r>     2.4856    22.2977   560.0740 </r>
       <r>     2.5390    21.9214   561.2443 </r>
       <r>     2.5924    22.0559   562.4218 </r>
       <r>     2.6458    24.3201   563.7202 </r>
       <r>     2.6992    26.9532   565.1591 </r>
       <r>     2.7526    26.2269   566.5593 </r>
       <r>     2.8059    21.1358   567.6876 </r>
       <r>     2.8593    14.5052   568.4620 </r>
       <r>     2.9127    10.0884   569.0006 </r>
       <r>     2.9661     8.9288   569.4773 </r>
       <r>     3.0195     9.3292   569.9753 </r>
       <r>     3.0729     9.8235   570.4998 </r>
       <r>     3.1263    10.3793   571.0539 </r>
       <r>     3.1797    11.0952   571.6463 </r>
       <r>     3.2330    11.3433   572.2518 </r>
       <r>     3.2864    10.3389   572.8038 </r>
       <r>     3.3398     8.5223   573.2588 </r>
       <r>     3.3932     6.6367   573.6131 </r>
       <r>     3.4466     4.7780   573.8682 </r>
       <r>     3.5000     4.1055   574.0873 </r>
       <r>     3.5534     6.8028   574.4505 </r>
       <r>     3.6067    12.5576   575.1209 </r>
       <r>     3.6601    17.8369   576.0732 </r>
       <r>     3.7135    20.4916   577.1672 </r>
       <r>     3.7669    21.0679   578.2919 </r>
       <r>     3.8203    19.2870   579.3216 </r>
       <r>     3.8737    15.3998   580.1437 </r>
       <r>     3.9271    11.9416   580.7812 </r>
       <r>     3.9805    11.3582   581.3876 </r>
       <r>     4.0338    13.6019   582.1138 </r>
       <r>     4.0872    15.1172   582.9208 </r>
       <r>     4.1406    13.5765   583.6456 </r>
       <r>     4.1940    11.4843   584.2588 </r>
       <r>     4.2474    11.1103   584.8519 </r>
       <r>     4.3008    11.0500   585.4418 </r>
       <r>     4.3542    10.2576   585.9894 </r>
       <r>     4.4075    10.1630   586.5320 </r>
       <r>     4.4609    11.7823   587.1610 </r>
       <r>     4.5143    15.4323   587.9849 </r>
       <r>     4.5677    21.5109   589.1333 </r>
       <r>     4.6211    27.9207   590.6239 </r>
       <r>     4.6745    29.9598   592.2234 </r>
       <r>     4.7279    26.1562   593.6198 </r>
       <r>     4.7813    21.7065   594.7786 </r>
       <r>     4.8346    21.4813   595.9254 </r>
       <r>     4.8880    23.8244   597.1973 </r>
       <r>     4.9414    26.6605   598.6206 </r>
       <r>     4.9948    31.2908   600.2911 </r>
       <r>     5.0482    36.5575   602.2428 </r>
       <r>     5.1016    38.1518   604.2796 </r>
       <r>     5.1550    34.7835   606.1366 </r>
       <r>     5.2084    30.0200   607.7393 </r>
       <r>     5.2617    26.4657   609.1522 </r>
       <r>     5.3151    22.3526   610.3455 </r>
       <r>     5.3685    16.1606   611.2083 </r>
       <r>     5.4219     9.3511   611.7075 </r>
       <r>     5.4753     4.0373   611.9231 </r>
       <r>     5.5287     1.1907   611.9866 </r>
       <r>     5.5821     0.2232   611.9985 </r>
       <r>     5.6354     0.0255   611.9999 </r>
       <r>     5.6888     0.0017   612.0000 </r>
       <r>     5.7422     0.0001   612.0000 </r>
       <r>     5.7956     0.0000   612.0000 </r>
       <r>     5.8490     0.0000   612.0000 </r>
       <r>     5.9024     0.0000   612.0000 </r>
       <r>     5.9558     0.0000   612.0000 </r>
       <r>     6.0092     0.0000   612.0000 </r>
       <r>     6.0625     0.0000   612.0000 </r>
       <r>     6.1159     0.0000   612.0000 </r>
       <r>     6.1693     0.0000   612.0000 </r>
       <r>     6.2227     0.0000   612.0000 </r>
       <r>     6.2761     0.0000   612.0000 </r>
       <r>     6.3295     0.0000   612.0000 </r>
       <r>     6.3829     0.0000   612.0000 </r>
      </set>
     </set>
    </array>
   </total>
  </dos>
 </calculation>
 <structure name="finalpos" >
  <crystal>
   <varray name="basis" >
    <v>      11.00258152       0.00000000       0.00000000 </v>
    <v>       5.50129076       9.52851510       0.00000000 </v>
    <v>       0.00000000       0.00000000      24.49178509 </v>
   </varray>
   <i name="volume">   2567.67623402 </i>
   <varray name="rec_basis" >
    <v>       0.09088776      -0.05247407       0.00000000 </v>
    <v>       0.00000000       0.10494815       0.00000000 </v>
    <v>       0.00000000       0.00000000       0.04083002 </v>
   </varray>
  </crystal>
  <varray name="positions" >
   <v>       0.08333333       0.08333333       0.40830017 </v>
   <v>      -0.00026708       0.49940441       0.61073182 </v>
   <v>       0.08333333       0.83333333       0.40830017 </v>
   <v>       0.91686719       0.41618050       0.50887745 </v>
   <v>      -0.00142625       0.74947788       0.61188949 </v>
   <v>       0.08333333       0.33333333       0.40830017 </v>
   <v>       0.00143037      -0.00022075       0.60984556 </v>
   <v>       0.25515538       0.74878982       0.61032771 </v>
   <v>       0.33333333       0.58333333       0.40830017 </v>
   <v>       0.16511646       0.66641414       0.50902915 </v>
   <v>       0.25425617       0.49544348       0.61099204 </v>
   <v>       0.33333333       0.83333333       0.40830017 </v>
   <v>       0.00318395       0.24839646       0.61049162 </v>
   <v>       0.58333333       0.08333333       0.40830017 </v>
   <v>       0.41351560       0.16854446       0.50707275 </v>
   <v>       0.58333333       0.33333333       0.40830017 </v>
   <v>       0.58333333       0.83333333       0.40830017 </v>
   <v>       0.83333333       0.08333333       0.40830017 </v>
   <v>       0.74657302       0.00043744       0.61241132 </v>
   <v>       0.66484982       0.41795781       0.50728450 </v>
   <v>       0.74704821       0.25297639       0.61067248 </v>
   <v>       0.83333333       0.58333333       0.40830017 </v>
   <v>       0.83333333       0.83333333       0.40830017 </v>
   <v>       0.66706841       0.91553138       0.51099601 </v>
   <v>       0.49950158       0.24863472       0.60451422 </v>
   <v>       0.41509118       0.41734496       0.50796668 </v>
   <v>       0.49719784      -0.00003325       0.60524438 </v>
   <v>       0.91627549       0.91806229       0.51031710 </v>
   <v>       0.33333333       0.33333333       0.40830017 </v>
   <v>       0.33333333       0.08333333       0.40830017 </v>
   <v>       0.16635129       0.16488271       0.50757735 </v>
   <v>       0.25308059      -0.00131184       0.60412081 </v>
   <v>       0.58333333       0.58333333       0.40830017 </v>
   <v>       0.16626079       0.91793309       0.50949035 </v>
   <v>       0.41535632       0.66886696       0.50803489 </v>
   <v>       0.08333333       0.58333333       0.40830017 </v>
   <v>       0.50097196       0.49970751       0.60424535 </v>
   <v>       0.41456508       0.91579858       0.50749033 </v>
   <v>       0.50175139       0.75047764       0.60357409 </v>
   <v>       0.66708524       0.16702509       0.50989894 </v>
   <v>       0.83333333       0.33333333       0.40830017 </v>
   <v>       0.66445566       0.66813058       0.50755861 </v>
   <v>       0.74743433       0.50273898       0.60507587 </v>
   <v>       0.91691605       0.16495663       0.50893356 </v>
   <v>       0.25233798       0.24728630       0.60413857 </v>
   <v>       0.91661426       0.66657858       0.50907335 </v>
   <v>       0.16602400       0.41708590       0.50741180 </v>
   <v>       0.74778994       0.74865875       0.60592461 </v>
  </varray>
  <varray name="selective"  type="logical" >
   <v type="logical" >  F  F  F </v>
   <v type="logical" >  T  T  T </v>
   <v type="logical" >  F  F  F </v>
   <v type="logical" >  T  T  T </v>
   <v type="logical" >  T  T  T </v>
   <v type="logical" >  F  F  F </v>
   <v type="logical" >  T  T  T </v>
   <v type="logical" >  T  T  T </v>
   <v type="logical" >  F  F  F </v>
   <v type="logical" >  T  T  T </v>
   <v type="logical" >  T  T  T </v>
   <v type="logical" >  F  F  F </v>
   <v type="logical" >  T  T  T </v>
   <v type="logical" >  F  F  F </v>
   <v type="logical" >  T  T  T </v>
   <v type="logical" >  F  F  F </v>
   <v type="logical" >  F  F  F </v>
   <v type="logical" >  F  F  F </v>
   <v type="logical" >  T  T  T </v>
   <v type="logical" >  T  T  T </v>
   <v type="logical" >  T  T  T </v>
   <v type="logical" >  F  F  F </v>
   <v type="logical" >  F  F  F </v>
   <v type="logical" >  T  T  T </v>
   <v type="logical" >  T  T  T </v>
   <v type="logical" >  T  T  T </v>
   <v type="logical" >  T  T  T </v>
   <v type="logical" >  T  T  T </v>
   <v type="logical" >  F  F  F </v>
   <v type="logical" >  F  F  F </v>
   <v type="logical" >  T  T  T </v>
   <v type="logical" >  T  T  T </v>
   <v type="logical" >  F  F  F </v>
   <v type="logical" >  T  T  T </v>
   <v type="logical" >  T  T  T </v>
   <v type="logical" >  F  F  F </v>
   <v type="logical" >  T  T  T </v>
   <v type="logical" >  T  T  T </v>
   <v type="logical" >  T  T  T </v>
   <v type="logical" >  T  T  T </v>
   <v type="logical" >  F  F  F </v>
   <v type="logical" >  T  T  T </v>
   <v type="logical" >  T  T  T </v>
   <v type="logical" >  T  T  T </v>
   <v type="logical" >  T  T  T </v>
   <v type="logical" >  T  T  T </v>
   <v type="logical" >  T  T  T </v>
   <v type="logical" >  T  T  T </v>
  </varray>
  <nose>
   <v>      -3.00000000       0.00000000       0.00010000       0.00010000 </v>
  </nose>
 </structure>
</modeling>
