       N       E                     dE             d eps       ncg     rms          rms(c)
DAV:   1     0.320142674005E+04    0.32014E+04   -0.18982E+05  3672   0.112E+03
DAV:   2     0.169272761343E+02   -0.31845E+04   -0.29253E+04  4332   0.263E+02
DAV:   3    -0.200462484337E+03   -0.21739E+03   -0.20131E+03  4116   0.652E+01
DAV:   4    -0.206446476780E+03   -0.59840E+01   -0.59138E+01  4248   0.109E+01
DAV:   5    -0.206636879230E+03   -0.19040E+00   -0.18967E+00  4392   0.196E+00    0.624E+01
RMM:   6    -0.201712920964E+03    0.49240E+01   -0.94087E+01  3678   0.152E+01    0.555E+01
RMM:   7    -0.207934645394E+03   -0.62217E+01   -0.57694E+01  3683   0.125E+01    0.442E+01
RMM:   8    -0.225253141646E+03   -0.17318E+02   -0.90747E+01  3673   0.140E+01    0.455E+01
RMM:   9    -0.210777428600E+03    0.14476E+02   -0.47206E+01  3677   0.106E+01    0.346E+01
RMM:  10    -0.197424122667E+03    0.13353E+02   -0.20064E+01  3681   0.737E+00    0.207E+01
RMM:  11    -0.192250940557E+03    0.51732E+01   -0.13361E+01  3679   0.586E+00    0.132E+01
RMM:  12    -0.189262353993E+03    0.29886E+01   -0.45346E+00  3681   0.333E+00    0.799E+00
RMM:  13    -0.189000600252E+03    0.26175E+00   -0.15809E+00  3680   0.192E+00    0.700E+00
RMM:  14    -0.189125700557E+03   -0.12510E+00   -0.72279E-01  3680   0.131E+00    0.719E+00
RMM:  15    -0.188921129256E+03    0.20457E+00   -0.36864E-01  3678   0.946E-01    0.501E+00
RMM:  16    -0.188810174813E+03    0.11095E+00   -0.35270E-01  3681   0.909E-01    0.373E+00
RMM:  17    -0.188682402007E+03    0.12777E+00   -0.14408E-01  3679   0.584E-01    0.208E+00
RMM:  18    -0.188655797086E+03    0.26605E-01   -0.77767E-02  3681   0.422E-01    0.170E+00
RMM:  19    -0.188626770565E+03    0.29027E-01   -0.23028E-02  3681   0.231E-01    0.751E-01
RMM:  20    -0.188624238297E+03    0.25323E-02   -0.50278E-03  3681   0.108E-01    0.626E-01
RMM:  21    -0.188621661172E+03    0.25771E-02   -0.37434E-03  3681   0.906E-02    0.484E-01
RMM:  22    -0.188621060681E+03    0.60049E-03   -0.23852E-03  3679   0.757E-02    0.362E-01
RMM:  23    -0.188619680101E+03    0.13806E-02   -0.18140E-03  3679   0.617E-02    0.197E-01
RMM:  24    -0.188619526889E+03    0.15321E-03   -0.68337E-04  3681   0.389E-02    0.960E-02
RMM:  25    -0.188619694571E+03   -0.16768E-03   -0.29438E-04  3682   0.254E-02    0.662E-02
RMM:  26    -0.188620022047E+03   -0.32748E-03   -0.11260E-04  3678   0.156E-02    0.539E-02
RMM:  27    -0.188620489108E+03   -0.46706E-03   -0.64288E-05  3675   0.119E-02    0.369E-02
RMM:  28    -0.188620893330E+03   -0.40422E-03   -0.33114E-05  3672   0.825E-03    0.221E-02
RMM:  29    -0.188621379855E+03   -0.48653E-03   -0.24397E-05  3661   0.680E-03    0.262E-02
RMM:  30    -0.188621948975E+03   -0.56912E-03   -0.30011E-05  3667   0.769E-03    0.145E-02
RMM:  31    -0.188622599294E+03   -0.65032E-03   -0.41351E-05  3653   0.859E-03    0.164E-02
RMM:  32    -0.188622851736E+03   -0.25244E-03   -0.20472E-05  3208   0.560E-03    0.879E-03
RMM:  33    -0.188622970020E+03   -0.11828E-03   -0.57901E-06  2694   0.294E-03    0.558E-03
RMM:  34    -0.188623050938E+03   -0.80918E-04   -0.22976E-06  2381   0.206E-03    0.407E-03
RMM:  35    -0.188623116304E+03   -0.65366E-04   -0.12471E-06  2207   0.154E-03    0.267E-03
RMM:  36    -0.188623150615E+03   -0.34312E-04   -0.65513E-07  2142   0.111E-03    0.216E-03
RMM:  37    -0.188623184443E+03   -0.33828E-04   -0.60830E-07  2156   0.111E-03    0.128E-03
RMM:  38    -0.188623196233E+03   -0.11789E-04   -0.27982E-07  1767   0.724E-04    0.102E-03
RMM:  39    -0.188623203339E+03   -0.71065E-05   -0.19535E-07  1715   0.630E-04    0.709E-04
RMM:  40    -0.188623204408E+03   -0.10687E-05   -0.53069E-08  1054   0.369E-04    0.438E-04
RMM:  41    -0.188623205268E+03   -0.86028E-06   -0.25130E-08   767   0.331E-04
   1 F= -.18862321E+03 E0= -.18848513E+03  d E =-.188623E+03
       N       E                     dE             d eps       ncg     rms          rms(c)
DAV:   1    -0.189712718022E+03   -0.10895E+01   -0.37600E+02  3684   0.297E+01    0.380E+00
RMM:   2    -0.190097724125E+03   -0.38501E+00   -0.39470E+00  3678   0.430E+00    0.232E+00
RMM:   3    -0.190202794199E+03   -0.10507E+00   -0.37046E-01  3704   0.106E+00    0.376E+00
RMM:   4    -0.190077618588E+03    0.12518E+00   -0.16295E-01  3687   0.679E-01    0.127E+00
RMM:   5    -0.190099178713E+03   -0.21560E-01   -0.68896E-02  3683   0.423E-01    0.167E+00
RMM:   6    -0.190071656562E+03    0.27522E-01   -0.34505E-02  3681   0.299E-01    0.610E-01
RMM:   7    -0.190073724740E+03   -0.20682E-02   -0.90092E-03  3685   0.140E-01    0.786E-01
RMM:   8    -0.190067126546E+03    0.65982E-02   -0.44660E-03  3681   0.103E-01    0.258E-01
RMM:   9    -0.190066659074E+03    0.46747E-03   -0.18703E-03  3684   0.684E-02    0.141E-01
RMM:  10    -0.190066532866E+03    0.12621E-03   -0.52162E-04  3687   0.358E-02    0.973E-02
RMM:  11    -0.190066476980E+03    0.55886E-04   -0.12403E-04  3689   0.179E-02    0.609E-02
RMM:  12    -0.190066463531E+03    0.13449E-04   -0.44250E-05  3678   0.107E-02    0.432E-02
RMM:  13    -0.190066453690E+03    0.98412E-05   -0.27142E-05  3672   0.856E-03    0.228E-02
RMM:  14    -0.190066451023E+03    0.26665E-05   -0.10437E-05  3567   0.527E-03    0.109E-02
RMM:  15    -0.190066450970E+03    0.52998E-07   -0.28883E-06  2533   0.282E-03
   2 F= -.19006645E+03 E0= -.18992978E+03  d E =-.144325E+01
       N       E                     dE             d eps       ncg     rms          rms(c)
DAV:   1    -0.188597384360E+03    0.14691E+01   -0.35276E+03  3672   0.935E+01    0.903E+00
RMM:   2    -0.192003342848E+03   -0.34060E+01   -0.34853E+01  3679   0.129E+01    0.563E+00
RMM:   3    -0.192653810592E+03   -0.65047E+00   -0.25304E+00  3712   0.275E+00    0.100E+01
RMM:   4    -0.191818953203E+03    0.83486E+00   -0.87756E-01  3684   0.159E+00    0.388E+00
RMM:   5    -0.192460529720E+03   -0.64158E+00   -0.59491E-01  3686   0.117E+00    0.808E+00
RMM:   6    -0.191906069151E+03    0.55446E+00   -0.51379E-01  3681   0.109E+00    0.399E+00
RMM:   7    -0.191750413683E+03    0.15566E+00   -0.21924E-01  3681   0.739E-01    0.168E+00
RMM:   8    -0.191726679617E+03    0.23734E-01   -0.65402E-02  3684   0.395E-01    0.124E+00
RMM:   9    -0.191709418586E+03    0.17261E-01   -0.25932E-02  3682   0.255E-01    0.463E-01
RMM:  10    -0.191708009869E+03    0.14087E-02   -0.70190E-03  3681   0.131E-01    0.306E-01
RMM:  11    -0.191707384923E+03    0.62495E-03   -0.22290E-03  3686   0.749E-02    0.186E-01
RMM:  12    -0.191707346551E+03    0.38372E-04   -0.75347E-04  3682   0.441E-02    0.159E-01
RMM:  13    -0.191707183758E+03    0.16279E-03   -0.37998E-04  3681   0.318E-02    0.833E-02
RMM:  14    -0.191707160936E+03    0.22822E-04   -0.14506E-04  3680   0.194E-02    0.521E-02
RMM:  15    -0.191707141760E+03    0.19176E-04   -0.44508E-05  3679   0.108E-02    0.208E-02
RMM:  16    -0.191707147241E+03   -0.54816E-05   -0.11734E-05  3549   0.548E-03    0.150E-02
RMM:  17    -0.191707150439E+03   -0.31971E-05   -0.35832E-06  2675   0.314E-03    0.716E-03
RMM:  18    -0.191707157757E+03   -0.73188E-05   -0.10981E-06  2099   0.178E-03    0.536E-03
RMM:  19    -0.191707161678E+03   -0.39205E-05   -0.55414E-07  2067   0.133E-03    0.202E-03
RMM:  20    -0.191707165821E+03   -0.41426E-05   -0.16135E-07  1549   0.632E-04    0.130E-03
RMM:  21    -0.191707169648E+03   -0.38275E-05   -0.11422E-07  1403   0.540E-04    0.108E-03
RMM:  22    -0.191707174992E+03   -0.53438E-05   -0.16550E-07  1694   0.541E-04    0.853E-04
RMM:  23    -0.191707179081E+03   -0.40890E-05   -0.15167E-07  1325   0.480E-04    0.782E-04
RMM:  24    -0.191707183114E+03   -0.40336E-05   -0.20895E-07  1527   0.521E-04    0.445E-04
RMM:  25    -0.191707184966E+03   -0.18518E-05   -0.11351E-07  1076   0.441E-04    0.512E-04
RMM:  26    -0.191707186021E+03   -0.10549E-05   -0.10634E-07  1178   0.446E-04    0.320E-04
RMM:  27    -0.191707186428E+03   -0.40697E-06   -0.45930E-08   805   0.362E-04
   3 F= -.19170719E+03 E0= -.19157646E+03  d E =-.308398E+01
       N       E                     dE             d eps       ncg     rms          rms(c)
DAV:   1    -0.191843253419E+03   -0.13607E+00   -0.31850E+02  3672   0.276E+01    0.242E+00
RMM:   2    -0.192181824772E+03   -0.33857E+00   -0.35458E+00  3684   0.402E+00    0.155E+00
RMM:   3    -0.192247850234E+03   -0.66025E-01   -0.24827E-01  3707   0.866E-01    0.311E+00
RMM:   4    -0.192174672912E+03    0.73177E-01   -0.66505E-02  3686   0.439E-01    0.127E+00
RMM:   5    -0.192195051488E+03   -0.20379E-01   -0.33326E-02  3686   0.278E-01    0.190E+00
RMM:   6    -0.192170633767E+03    0.24418E-01   -0.44886E-02  3682   0.330E-01    0.959E-01
RMM:   7    -0.192161852207E+03    0.87816E-02   -0.16559E-02  3681   0.204E-01    0.469E-01
RMM:   8    -0.192160327210E+03    0.15250E-02   -0.47819E-03  3683   0.111E-01    0.338E-01
RMM:   9    -0.192158930629E+03    0.13966E-02   -0.20773E-03  3681   0.720E-02    0.130E-01
RMM:  10    -0.192158784728E+03    0.14590E-03   -0.53538E-04  3681   0.362E-02    0.738E-02
RMM:  11    -0.192158730178E+03    0.54550E-04   -0.14626E-04  3685   0.187E-02    0.313E-02
RMM:  12    -0.192158732866E+03   -0.26877E-05   -0.54395E-05  3683   0.117E-02    0.314E-02
RMM:  13    -0.192158727214E+03    0.56517E-05   -0.19182E-05  3678   0.711E-03    0.166E-02
RMM:  14    -0.192158726739E+03    0.47519E-06   -0.48003E-06  2865   0.369E-03
   4 F= -.19215873E+03 E0= -.19202952E+03  d E =-.451540E+00
       N       E                     dE             d eps       ncg     rms          rms(c)
DAV:   1    -0.192152318268E+03    0.64089E-02   -0.33425E+01  3744   0.892E+00    0.708E-01
RMM:   2    -0.192188486444E+03   -0.36168E-01   -0.37776E-01  3684   0.131E+00    0.511E-01
RMM:   3    -0.192194490948E+03   -0.60045E-02   -0.26852E-02  3711   0.286E-01    0.947E-01
RMM:   4    -0.192187702094E+03    0.67889E-02   -0.63454E-03  3685   0.136E-01    0.438E-01
RMM:   5    -0.192187940805E+03   -0.23871E-03   -0.24785E-03  3687   0.767E-02    0.455E-01
RMM:   6    -0.192186914793E+03    0.10260E-02   -0.46479E-03  3681   0.106E-01    0.300E-01
RMM:   7    -0.192186169929E+03    0.74486E-03   -0.18876E-03  3681   0.690E-02    0.156E-01
RMM:   8    -0.192185990387E+03    0.17954E-03   -0.48245E-04  3684   0.355E-02    0.105E-01
RMM:   9    -0.192185855629E+03    0.13476E-03   -0.21134E-04  3681   0.231E-02    0.462E-02
RMM:  10    -0.192185833882E+03    0.21748E-04   -0.64063E-05  3680   0.125E-02    0.245E-02
RMM:  11    -0.192185827637E+03    0.62446E-05   -0.18424E-05  3678   0.651E-03    0.106E-02
RMM:  12    -0.192185828452E+03   -0.81524E-06   -0.74252E-06  3670   0.425E-03
   5 F= -.19218583E+03 E0= -.19205709E+03  d E =-.478642E+00
       N       E                     dE             d eps       ncg     rms          rms(c)
DAV:   1    -0.192200781781E+03   -0.14954E-01   -0.53772E+01  3696   0.113E+01    0.101E+00
RMM:   2    -0.192256622608E+03   -0.55841E-01   -0.58574E-01  3684   0.164E+00    0.618E-01
RMM:   3    -0.192263120136E+03   -0.64975E-02   -0.36774E-02  3707   0.340E-01    0.998E-01
RMM:   4    -0.192254914367E+03    0.82058E-02   -0.10391E-02  3682   0.175E-01    0.411E-01
RMM:   5    -0.192258961638E+03   -0.40473E-02   -0.84570E-03  3683   0.144E-01    0.717E-01
RMM:   6    -0.192256702540E+03    0.22591E-02   -0.50446E-03  3682   0.108E-01    0.534E-01
RMM:   7    -0.192253841375E+03    0.28612E-02   -0.25250E-03  3679   0.776E-02    0.174E-01
RMM:   8    -0.192253688949E+03    0.15243E-03   -0.61811E-04  3680   0.405E-02    0.128E-01
RMM:   9    -0.192253495815E+03    0.19313E-03   -0.30543E-04  3680   0.275E-02    0.497E-02
RMM:  10    -0.192253468999E+03    0.26816E-04   -0.79258E-05  3681   0.137E-02    0.237E-02
RMM:  11    -0.192253465798E+03    0.32014E-05   -0.18571E-05  3677   0.673E-03    0.168E-02
RMM:  12    -0.192253465395E+03    0.40235E-06   -0.72719E-06  3560   0.429E-03
   6 F= -.19225347E+03 E0= -.19212503E+03  d E =-.676369E-01
       N       E                     dE             d eps       ncg     rms          rms(c)
DAV:   1    -0.192252790937E+03    0.67486E-03   -0.39891E+00  3744   0.308E+00    0.261E-01
RMM:   2    -0.192256935134E+03   -0.41442E-02   -0.43564E-02  3683   0.448E-01    0.169E-01
RMM:   3    -0.192257487863E+03   -0.55273E-03   -0.28427E-03  3708   0.941E-02    0.290E-01
RMM:   4    -0.192256788315E+03    0.69955E-03   -0.75605E-04  3683   0.473E-02    0.116E-01
RMM:   5    -0.192257418934E+03   -0.63062E-03   -0.58448E-04  3682   0.367E-02    0.262E-01
RMM:   6    -0.192256805335E+03    0.61360E-03   -0.49743E-04  3682   0.342E-02    0.111E-01
RMM:   7    -0.192256717746E+03    0.87590E-04   -0.20924E-04  3680   0.230E-02    0.491E-02
RMM:   8    -0.192256700730E+03    0.17016E-04   -0.46243E-05  3680   0.111E-02    0.328E-02
RMM:   9    -0.192256688825E+03    0.11905E-04   -0.22116E-05  3673   0.743E-03    0.153E-02
RMM:  10    -0.192256685902E+03    0.29228E-05   -0.72224E-06  3640   0.415E-03    0.668E-03
RMM:  11    -0.192256685569E+03    0.33317E-06   -0.14230E-06  2034   0.197E-03
   7 F= -.19225669E+03 E0= -.19212836E+03  d E =-.708571E-01
       N       E                     dE             d eps       ncg     rms          rms(c)
DAV:   1    -0.192260618745E+03   -0.39328E-02   -0.68448E+00  3684   0.401E+00    0.258E-01
RMM:   2    -0.192267739364E+03   -0.71206E-02   -0.75221E-02  3681   0.587E-01    0.212E-01
RMM:   3    -0.192268807477E+03   -0.10681E-02   -0.45921E-03  3726   0.120E-01    0.348E-01
RMM:   4    -0.192267729639E+03    0.10778E-02   -0.97610E-04  3677   0.507E-02    0.199E-01
RMM:   5    -0.192267545017E+03    0.18462E-03   -0.71724E-04  3681   0.427E-02    0.160E-01
RMM:   6    -0.192267390615E+03    0.15440E-03   -0.90091E-04  3681   0.472E-02    0.108E-01
RMM:   7    -0.192267362469E+03    0.28145E-04   -0.35079E-04  3684   0.299E-02    0.801E-02
RMM:   8    -0.192267312275E+03    0.50195E-04   -0.91091E-05  3681   0.154E-02    0.414E-02
RMM:   9    -0.192267292285E+03    0.19990E-04   -0.37486E-05  3678   0.966E-03    0.274E-02
RMM:  10    -0.192267280074E+03    0.12210E-04   -0.24509E-05  3675   0.749E-03    0.127E-02
RMM:  11    -0.192267278423E+03    0.16510E-05   -0.75315E-06  3665   0.417E-03    0.824E-03
RMM:  12    -0.192267277877E+03    0.54635E-06   -0.35424E-06  2287   0.298E-03
   8 F= -.19226728E+03 E0= -.19213879E+03  d E =-.105923E-01
       N       E                     dE             d eps       ncg     rms          rms(c)
DAV:   1    -0.192266976792E+03    0.30163E-03   -0.21042E+00  3720   0.222E+00    0.141E-01
RMM:   2    -0.192269160837E+03   -0.21840E-02   -0.23113E-02  3681   0.326E-01    0.116E-01
RMM:   3    -0.192269462320E+03   -0.30148E-03   -0.13953E-03  3727   0.662E-02    0.187E-01
RMM:   4    -0.192269154584E+03    0.30774E-03   -0.28901E-04  3678   0.276E-02    0.110E-01
RMM:   5    -0.192269096843E+03    0.57741E-04   -0.21321E-04  3681   0.233E-02    0.872E-02
RMM:   6    -0.192269046744E+03    0.50099E-04   -0.28185E-04  3680   0.264E-02    0.549E-02
RMM:   7    -0.192269044018E+03    0.27259E-05   -0.10314E-04  3684   0.162E-02    0.441E-02
RMM:   8    -0.192269028702E+03    0.15315E-04   -0.26458E-05  3676   0.831E-03    0.226E-02
RMM:   9    -0.192269022743E+03    0.59594E-05   -0.11657E-05  3672   0.536E-03    0.153E-02
RMM:  10    -0.192269019015E+03    0.37277E-05   -0.70932E-06  3670   0.403E-03    0.684E-03
RMM:  11    -0.192269018582E+03    0.43265E-06   -0.20358E-06  2001   0.231E-03
   9 F= -.19226902E+03 E0= -.19214043E+03  d E =-.123330E-01
       N       E                     dE             d eps       ncg     rms          rms(c)
DAV:   1    -0.192270262211E+03   -0.12432E-02   -0.67183E+00  3672   0.395E+00    0.228E-01
RMM:   2    -0.192277301234E+03   -0.70390E-02   -0.72370E-02  3681   0.582E-01    0.231E-01
RMM:   3    -0.192277421731E+03   -0.12050E-03   -0.44046E-03  3783   0.120E-01    0.217E-01
RMM:   4    -0.192277361179E+03    0.60552E-04   -0.67351E-04  3677   0.430E-02    0.223E-01
RMM:   5    -0.192277184676E+03    0.17650E-03   -0.55330E-04  3684   0.359E-02    0.208E-01
RMM:   6    -0.192276907174E+03    0.27750E-03   -0.93439E-04  3681   0.475E-02    0.149E-01
RMM:   7    -0.192276847073E+03    0.60101E-04   -0.70509E-04  3681   0.419E-02    0.989E-02
RMM:   8    -0.192276787013E+03    0.60059E-04   -0.15898E-04  3681   0.203E-02    0.491E-02
RMM:   9    -0.192276764664E+03    0.22350E-04   -0.32484E-05  3679   0.918E-03    0.363E-02
RMM:  10    -0.192276744770E+03    0.19893E-04   -0.34207E-05  3681   0.890E-03    0.235E-02
RMM:  11    -0.192276737604E+03    0.71665E-05   -0.16024E-05  3672   0.602E-03    0.124E-02
RMM:  12    -0.192276735825E+03    0.17792E-05   -0.12465E-05  3673   0.522E-03    0.652E-03
RMM:  13    -0.192276735616E+03    0.20884E-06   -0.22618E-06  2070   0.248E-03
  10 F= -.19227674E+03 E0= -.19214778E+03  d E =-.771703E-02
       N       E                     dE             d eps       ncg     rms          rms(c)
DAV:   1    -0.192270784130E+03    0.59517E-02   -0.10585E+01  3672   0.496E+00    0.282E-01
RMM:   2    -0.192281870254E+03   -0.11086E-01   -0.11378E-01  3681   0.730E-01    0.288E-01
RMM:   3    -0.192282049494E+03   -0.17924E-03   -0.69006E-03  3782   0.150E-01    0.270E-01
RMM:   4    -0.192281943005E+03    0.10649E-03   -0.10325E-03  3677   0.534E-02    0.277E-01
RMM:   5    -0.192281672041E+03    0.27096E-03   -0.84273E-04  3684   0.444E-02    0.259E-01
RMM:   6    -0.192281234713E+03    0.43733E-03   -0.14649E-03  3681   0.594E-02    0.187E-01
RMM:   7    -0.192281132049E+03    0.10266E-03   -0.11378E-03  3681   0.531E-02    0.122E-01
RMM:   8    -0.192281043305E+03    0.88743E-04   -0.24929E-04  3681   0.255E-02    0.627E-02
RMM:   9    -0.192281007374E+03    0.35931E-04   -0.51026E-05  3683   0.115E-02    0.465E-02
RMM:  10    -0.192280975076E+03    0.32298E-04   -0.55229E-05  3681   0.113E-02    0.301E-02
RMM:  11    -0.192280963376E+03    0.11701E-04   -0.25569E-05  3673   0.760E-03    0.158E-02
RMM:  12    -0.192280960327E+03    0.30485E-05   -0.20967E-05  3680   0.675E-03    0.817E-03
RMM:  13    -0.192280960025E+03    0.30277E-06   -0.38396E-06  2615   0.314E-03
  11 F= -.19228096E+03 E0= -.19215153E+03  d E =-.119414E-01
       N       E                     dE             d eps       ncg     rms          rms(c)
DAV:   1    -0.192279438750E+03    0.15216E-02   -0.65777E+00  3672   0.394E+00    0.206E-01
RMM:   2    -0.192286594851E+03   -0.71561E-02   -0.72418E-02  3680   0.580E-01    0.252E-01
RMM:   3    -0.192287082776E+03   -0.48793E-03   -0.47760E-03  3750   0.121E-01    0.300E-01
RMM:   4    -0.192286307821E+03    0.77495E-03   -0.70977E-04  3676   0.439E-02    0.178E-01
RMM:   5    -0.192286099057E+03    0.20876E-03   -0.28580E-04  3683   0.277E-02    0.137E-01
RMM:   6    -0.192286021539E+03    0.77518E-04   -0.63896E-04  3681   0.392E-02    0.136E-01
RMM:   7    -0.192285947769E+03    0.73770E-04   -0.78210E-04  3683   0.434E-02    0.864E-02
RMM:   8    -0.192285917257E+03    0.30512E-04   -0.17197E-04  3681   0.209E-02    0.481E-02
RMM:   9    -0.192285899232E+03    0.18024E-04   -0.28335E-05  3682   0.860E-03    0.351E-02
RMM:  10    -0.192285882810E+03    0.16422E-04   -0.25956E-05  3681   0.786E-03    0.251E-02
RMM:  11    -0.192285874625E+03    0.81858E-05   -0.15038E-05  3672   0.587E-03    0.124E-02
RMM:  12    -0.192285872843E+03    0.17811E-05   -0.14125E-05  3678   0.554E-03    0.639E-03
RMM:  13    -0.192285872737E+03    0.10637E-06   -0.25125E-06  2110   0.261E-03
  12 F= -.19228587E+03 E0= -.19215595E+03  d E =-.491271E-02
       N       E                     dE             d eps       ncg     rms          rms(c)
DAV:   1    -0.192284648245E+03    0.12246E-02   -0.21750E+00  3696   0.227E+00    0.118E-01
RMM:   2    -0.192287004949E+03   -0.23567E-02   -0.23943E-02  3680   0.334E-01    0.144E-01
RMM:   3    -0.192287151903E+03   -0.14695E-03   -0.15734E-03  3749   0.698E-02    0.170E-01
RMM:   4    -0.192286907665E+03    0.24424E-03   -0.23137E-04  3674   0.251E-02    0.103E-01
RMM:   5    -0.192286839826E+03    0.67839E-04   -0.91579E-05  3683   0.157E-02    0.784E-02
RMM:   6    -0.192286817994E+03    0.21832E-04   -0.21103E-04  3681   0.225E-02    0.777E-02
RMM:   7    -0.192286797611E+03    0.20382E-04   -0.26171E-04  3684   0.251E-02    0.504E-02
RMM:   8    -0.192286787616E+03    0.99955E-05   -0.57806E-05  3681   0.121E-02    0.279E-02
RMM:   9    -0.192286781685E+03    0.59309E-05   -0.93064E-06  3305   0.496E-03    0.203E-02
RMM:  10    -0.192286776237E+03    0.54480E-05   -0.86578E-06  3672   0.457E-03    0.145E-02
RMM:  11    -0.192286773520E+03    0.27172E-05   -0.48163E-06  3005   0.340E-03    0.731E-03
RMM:  12    -0.192286772948E+03    0.57142E-06   -0.49947E-06  3234   0.347E-03
  13 F= -.19228677E+03 E0= -.19215657E+03  d E =-.581292E-02
       N       E                     dE             d eps       ncg     rms          rms(c)
DAV:   1    -0.192283664837E+03    0.31087E-02   -0.60530E+00  3672   0.380E+00    0.189E-01
RMM:   2    -0.192290331083E+03   -0.66662E-02   -0.67242E-02  3680   0.558E-01    0.242E-01
RMM:   3    -0.192290293955E+03    0.37128E-04   -0.44019E-03  3734   0.117E-01    0.210E-01
RMM:   4    -0.192290035373E+03    0.25858E-03   -0.50560E-04  3678   0.385E-02    0.167E-01
RMM:   5    -0.192289855828E+03    0.17955E-03   -0.14503E-04  3686   0.194E-02    0.125E-01
RMM:   6    -0.192289803264E+03    0.52563E-04   -0.34869E-04  3681   0.291E-02    0.133E-01
RMM:   7    -0.192289683883E+03    0.11938E-03   -0.88801E-04  3679   0.458E-02    0.710E-02
RMM:   8    -0.192289684602E+03   -0.71889E-06   -0.19340E-04  3676   0.218E-02    0.494E-02
RMM:   9    -0.192289669419E+03    0.15183E-04   -0.27043E-05  3681   0.847E-03    0.336E-02
RMM:  10    -0.192289658562E+03    0.10858E-04   -0.14127E-05  3672   0.594E-03    0.258E-02
RMM:  11    -0.192289649179E+03    0.93826E-05   -0.16615E-05  3674   0.618E-03    0.133E-02
RMM:  12    -0.192289647247E+03    0.19322E-05   -0.14454E-05  3676   0.564E-03    0.721E-03
RMM:  13    -0.192289647114E+03    0.13316E-06   -0.35184E-06  2457   0.298E-03
  14 F= -.19228965E+03 E0= -.19215911E+03  d E =-.287417E-02
       N       E                     dE             d eps       ncg     rms          rms(c)
DAV:   1    -0.192289133802E+03    0.51344E-03   -0.83820E-01  3720   0.141E+00    0.698E-02
RMM:   2    -0.192290049196E+03   -0.91539E-03   -0.92904E-03  3680   0.208E-01    0.910E-02
RMM:   3    -0.192290037251E+03    0.11945E-04   -0.60746E-04  3734   0.435E-02    0.781E-02
RMM:   4    -0.192290002269E+03    0.34981E-04   -0.68590E-05  3678   0.142E-02    0.625E-02
RMM:   5    -0.192289978332E+03    0.23937E-04   -0.19345E-05  3677   0.714E-03    0.467E-02
RMM:   6    -0.192289974823E+03    0.35090E-05   -0.49432E-05  3677   0.110E-02    0.499E-02
RMM:   7    -0.192289962251E+03    0.12573E-04   -0.12729E-04  3677   0.173E-02    0.270E-02
RMM:   8    -0.192289962779E+03   -0.52838E-06   -0.27373E-05  3673   0.820E-03    0.186E-02
RMM:   9    -0.192289960733E+03    0.20459E-05   -0.36920E-06  2726   0.320E-03    0.125E-02
RMM:  10    -0.192289959224E+03    0.15088E-05   -0.18784E-06  2038   0.235E-03    0.100E-02
RMM:  11    -0.192289957865E+03    0.13594E-05   -0.23443E-06  1956   0.265E-03    0.534E-03
RMM:  12    -0.192289957603E+03    0.26160E-06   -0.26255E-06  1993   0.275E-03
  15 F= -.19228996E+03 E0= -.19215930E+03  d E =-.318465E-02
       N       E                     dE             d eps       ncg     rms          rms(c)
DAV:   1    -0.192286047652E+03    0.39102E-02   -0.63984E+00  3672   0.390E+00    0.185E-01
RMM:   2    -0.192293197485E+03   -0.71498E-02   -0.71741E-02  3679   0.575E-01    0.254E-01
RMM:   3    -0.192293067184E+03    0.13030E-03   -0.46752E-03  3731   0.120E-01    0.203E-01
RMM:   4    -0.192292843345E+03    0.22384E-03   -0.48011E-04  3677   0.378E-02    0.164E-01
RMM:   5    -0.192292701542E+03    0.14180E-03   -0.15185E-04  3684   0.198E-02    0.139E-01
RMM:   6    -0.192292641496E+03    0.60047E-04   -0.36137E-04  3676   0.295E-02    0.149E-01
RMM:   7    -0.192292471601E+03    0.16989E-03   -0.10583E-03  3678   0.498E-02    0.704E-02
RMM:   8    -0.192292487739E+03   -0.16138E-04   -0.22727E-04  3677   0.234E-02    0.511E-02
RMM:   9    -0.192292474478E+03    0.13260E-04   -0.25855E-05  3685   0.841E-03    0.370E-02
RMM:  10    -0.192292462055E+03    0.12423E-04   -0.13152E-05  3672   0.570E-03    0.294E-02
RMM:  11    -0.192292449798E+03    0.12257E-04   -0.22035E-05  3676   0.709E-03    0.161E-02
RMM:  12    -0.192292446736E+03    0.30622E-05   -0.19863E-05  3672   0.660E-03    0.749E-03
RMM:  13    -0.192292446863E+03   -0.12749E-06   -0.50678E-06  3032   0.344E-03
  16 F= -.19229245E+03 E0= -.19216157E+03  d E =-.248926E-02
       N       E                     dE             d eps       ncg     rms          rms(c)
DAV:   1    -0.192291749899E+03    0.69684E-03   -0.10130E+00  3696   0.155E+00    0.729E-02
RMM:   2    -0.192292870707E+03   -0.11208E-02   -0.11314E-02  3679   0.228E-01    0.103E-01
RMM:   3    -0.192292840780E+03    0.29927E-04   -0.73704E-04  3732   0.478E-02    0.803E-02
RMM:   4    -0.192292806430E+03    0.34350E-04   -0.73593E-05  3678   0.148E-02    0.653E-02
RMM:   5    -0.192292786398E+03    0.20032E-04   -0.22821E-05  3680   0.774E-03    0.556E-02
RMM:   6    -0.192292781097E+03    0.53013E-05   -0.59145E-05  3677   0.119E-02    0.602E-02
RMM:   7    -0.192292760048E+03    0.21048E-04   -0.17477E-04  3678   0.202E-02    0.288E-02
RMM:   8    -0.192292763448E+03   -0.33997E-05   -0.37143E-05  3676   0.945E-03    0.208E-02
RMM:   9    -0.192292761416E+03    0.20320E-05   -0.40413E-06  2777   0.340E-03    0.149E-02
RMM:  10    -0.192292759312E+03    0.21043E-05   -0.20918E-06  2079   0.245E-03    0.121E-02
RMM:  11    -0.192292757295E+03    0.20165E-05   -0.37906E-06  2607   0.320E-03    0.662E-03
RMM:  12    -0.192292756834E+03    0.46106E-06   -0.36921E-06  2453   0.314E-03
  17 F= -.19229276E+03 E0= -.19216180E+03  d E =-.279923E-02
       N       E                     dE             d eps       ncg     rms          rms(c)
DAV:   1    -0.192288303959E+03    0.44533E-02   -0.63791E+00  3672   0.390E+00    0.189E-01
RMM:   2    -0.192295545267E+03   -0.72413E-02   -0.71629E-02  3678   0.573E-01    0.264E-01
RMM:   3    -0.192295641145E+03   -0.95878E-04   -0.47480E-03  3730   0.120E-01    0.260E-01
RMM:   4    -0.192295137344E+03    0.50380E-03   -0.57144E-04  3678   0.398E-02    0.163E-01
RMM:   5    -0.192294964347E+03    0.17300E-03   -0.20814E-04  3680   0.238E-02    0.135E-01
RMM:   6    -0.192294943016E+03    0.21331E-04   -0.51271E-04  3679   0.350E-02    0.157E-01
RMM:   7    -0.192294773729E+03    0.16929E-03   -0.10411E-03  3679   0.494E-02    0.717E-02
RMM:   8    -0.192294778102E+03   -0.43730E-05   -0.16900E-04  3673   0.203E-02    0.504E-02
RMM:   9    -0.192294761121E+03    0.16981E-04   -0.17878E-05  3680   0.709E-03    0.348E-02
RMM:  10    -0.192294747685E+03    0.13436E-04   -0.15940E-05  3672   0.623E-03    0.261E-02
RMM:  11    -0.192294736311E+03    0.11374E-04   -0.36060E-05  3674   0.893E-03    0.114E-02
RMM:  12    -0.192294735573E+03    0.73793E-06   -0.10208E-05  3664   0.476E-03    0.524E-03
RMM:  13    -0.192294735918E+03   -0.34508E-06   -0.20006E-06  2031   0.233E-03
  18 F= -.19229474E+03 E0= -.19216352E+03  d E =-.197908E-02
       N       E                     dE             d eps       ncg     rms          rms(c)
DAV:   1    -0.192294568164E+03    0.16741E-03   -0.24220E-01  3732   0.759E-01    0.362E-02
RMM:   2    -0.192294838634E+03   -0.27047E-03   -0.26991E-03  3678   0.112E-01    0.527E-02
RMM:   3    -0.192294835384E+03    0.32499E-05   -0.17740E-04  3731   0.232E-02    0.483E-02
RMM:   4    -0.192294818463E+03    0.16921E-04   -0.19941E-05  3662   0.749E-03    0.318E-02
RMM:   5    -0.192294813943E+03    0.45204E-05   -0.68791E-06  3139   0.439E-03    0.272E-02
RMM:   6    -0.192294815301E+03   -0.13588E-05   -0.20441E-05  3674   0.707E-03    0.316E-02
RMM:   7    -0.192294811040E+03    0.42611E-05   -0.44226E-05  3678   0.102E-02    0.146E-02
RMM:   8    -0.192294811293E+03   -0.25297E-06   -0.65517E-06  3140   0.406E-03
  19 F= -.19229481E+03 E0= -.19216354E+03  d E =-.205446E-02
       N       E                     dE             d eps       ncg     rms          rms(c)
DAV:   1    -0.192291419710E+03    0.33913E-02   -0.45706E+00  3672   0.330E+00    0.159E-01
RMM:   2    -0.192296699452E+03   -0.52797E-02   -0.51721E-02  3678   0.486E-01    0.234E-01
RMM:   3    -0.192296792968E+03   -0.93516E-04   -0.35132E-03  3731   0.103E-01    0.233E-01
RMM:   4    -0.192296364598E+03    0.42837E-03   -0.45753E-04  3678   0.354E-02    0.141E-01
RMM:   5    -0.192296224831E+03    0.13977E-03   -0.13015E-04  3685   0.191E-02    0.105E-01
RMM:   6    -0.192296219222E+03    0.56086E-05   -0.29047E-04  3680   0.265E-02    0.123E-01
RMM:   7    -0.192296116576E+03    0.10265E-03   -0.71623E-04  3680   0.409E-02    0.534E-02
RMM:   8    -0.192296125150E+03   -0.85738E-05   -0.11321E-04  3677   0.166E-02    0.410E-02
RMM:   9    -0.192296117221E+03    0.79287E-05   -0.12737E-05  3663   0.593E-03    0.284E-02
RMM:  10    -0.192296109854E+03    0.73671E-05   -0.83787E-06  3460   0.460E-03    0.222E-02
RMM:  11    -0.192296102107E+03    0.77470E-05   -0.23551E-05  3675   0.727E-03    0.102E-02
RMM:  12    -0.192296101319E+03    0.78793E-06   -0.65523E-06  3295   0.386E-03
  20 F= -.19229610E+03 E0= -.19216473E+03  d E =-.129003E-02
       N       E                     dE             d eps       ncg     rms          rms(c)
DAV:   1    -0.192295906975E+03    0.19513E-03   -0.27051E-01  3720   0.802E-01    0.378E-02
RMM:   2    -0.192296216129E+03   -0.30915E-03   -0.30394E-03  3678   0.118E-01    0.597E-02
RMM:   3    -0.192296210217E+03    0.59120E-05   -0.20441E-04  3739   0.248E-02    0.532E-02
RMM:   4    -0.192296188803E+03    0.21414E-04   -0.24455E-05  3678   0.824E-03    0.340E-02
RMM:   5    -0.192296182759E+03    0.60433E-05   -0.62697E-06  3019   0.428E-03    0.267E-02
RMM:   6    -0.192296184559E+03   -0.17994E-05   -0.17944E-05  3675   0.668E-03    0.315E-02
RMM:   7    -0.192296180704E+03    0.38543E-05   -0.51409E-05  3674   0.110E-02    0.134E-02
RMM:   8    -0.192296181253E+03   -0.54843E-06   -0.70572E-06  3195   0.420E-03
  21 F= -.19229618E+03 E0= -.19216478E+03  d E =-.136996E-02
       N       E                     dE             d eps       ncg     rms          rms(c)
DAV:   1    -0.192293342669E+03    0.28380E-02   -0.35616E+00  3672   0.291E+00    0.148E-01
RMM:   2    -0.192297370208E+03   -0.40275E-02   -0.40767E-02  3678   0.430E-01    0.180E-01
RMM:   3    -0.192297529234E+03   -0.15903E-03   -0.27216E-03  3728   0.906E-02    0.200E-01
RMM:   4    -0.192297258707E+03    0.27053E-03   -0.39210E-04  3679   0.326E-02    0.140E-01
RMM:   5    -0.192297099115E+03    0.15959E-03   -0.10193E-04  3685   0.167E-02    0.866E-02
RMM:   6    -0.192297098070E+03    0.10451E-05   -0.18805E-04  3679   0.214E-02    0.101E-01
RMM:   7    -0.192297030947E+03    0.67123E-04   -0.53681E-04  3680   0.354E-02    0.430E-02
RMM:   8    -0.192297042623E+03   -0.11676E-04   -0.84655E-05  3677   0.144E-02    0.397E-02
RMM:   9    -0.192297030038E+03    0.12585E-04   -0.12752E-05  3664   0.593E-03    0.228E-02
RMM:  10    -0.192297025527E+03    0.45106E-05   -0.63456E-06  3119   0.399E-03    0.175E-02
RMM:  11    -0.192297020948E+03    0.45792E-05   -0.13774E-05  3672   0.561E-03    0.783E-03
RMM:  12    -0.192297020526E+03    0.42222E-06   -0.36226E-06  2570   0.297E-03
  22 F= -.19229702E+03 E0= -.19216565E+03  d E =-.839273E-03
       N       E                     dE             d eps       ncg     rms          rms(c)
DAV:   1    -0.192297019873E+03    0.10755E-05   -0.17950E-04  3864   0.212E-02    0.290E-03
RMM:   2    -0.192297020405E+03   -0.53247E-06   -0.27795E-06  2164   0.345E-03
  23 F= -.19229702E+03 E0= -.19216565E+03  d E =-.839152E-03
       N       E                     dE             d eps       ncg     rms          rms(c)
DAV:   1    -0.192295968401E+03    0.10515E-02   -0.14189E+00  3672   0.184E+00    0.901E-02
RMM:   2    -0.192297575866E+03   -0.16075E-02   -0.15996E-02  3681   0.271E-01    0.123E-01
RMM:   3    -0.192297622161E+03   -0.46296E-04   -0.10738E-03  3750   0.570E-02    0.130E-01
RMM:   4    -0.192297488352E+03    0.13381E-03   -0.14458E-04  3676   0.199E-02    0.817E-02
RMM:   5    -0.192297440843E+03    0.47509E-04   -0.40907E-05  3683   0.107E-02    0.576E-02
RMM:   6    -0.192297442004E+03   -0.11606E-05   -0.11034E-04  3680   0.163E-02    0.670E-02
RMM:   7    -0.192297410474E+03    0.31530E-04   -0.20888E-04  3680   0.221E-02    0.287E-02
RMM:   8    -0.192297415099E+03   -0.46257E-05   -0.32170E-05  3676   0.893E-03    0.254E-02
RMM:   9    -0.192297409623E+03    0.54760E-05   -0.48941E-06  2913   0.373E-03    0.158E-02
RMM:  10    -0.192297407318E+03    0.23057E-05   -0.27463E-06  2338   0.279E-03    0.123E-02
RMM:  11    -0.192297404887E+03    0.24306E-05   -0.79289E-06  3645   0.433E-03    0.549E-03
RMM:  12    -0.192297404602E+03    0.28478E-06   -0.16347E-06  1946   0.210E-03
  24 F= -.19229740E+03 E0= -.19216602E+03  d E =-.384197E-03
