unknown system                          
           1
    11.002582    0.000000    0.000000
     5.501291    9.528515    0.000000
     0.000000    0.000000   24.491785
   Au   Pd
  24  24
Direct configuration=     1
   0.25000000  0.75000000  0.59169983
   0.50000000  0.25000000  0.59169983
   0.58333333  0.83333333  0.40830017
   0.58333333  0.33333333  0.40830017
   0.50000000  0.00000000  0.59169983
   0.41666667  0.91666667  0.50000000
   0.16666667  0.91666667  0.50000000
   0.33333333  0.83333333  0.40830017
   0.25000000  0.50000000  0.59169983
   0.16666667  0.66666667  0.50000000
   0.33333333  0.58333333  0.40830017
   0.16666667  0.41666667  0.50000000
   0.25000000  0.00000000  0.59169983
   0.33333333  0.33333333  0.40830017
   0.33333333  0.08333333  0.40830017
   0.91666667  0.16666667  0.50000000
   0.00000000  0.00000000  0.59169983
   0.08333333  0.33333333  0.40830017
   0.75000000  0.50000000  0.59169983
   0.91666667  0.66666667  0.50000000
   0.41666667  0.66666667  0.50000000
   0.66666667  0.41666667  0.50000000
   0.83333333  0.33333333  0.40830017
   0.83333333  0.58333333  0.40830017
   0.75000000  0.25000000  0.59169983
   0.75000000  0.00000000  0.59169983
   0.83333333  0.08333333  0.40830017
   0.50000000  0.75000000  0.59169983
   0.83333333  0.83333333  0.40830017
   0.66666667  0.16666667  0.50000000
   0.50000000  0.50000000  0.59169983
   0.66666667  0.66666667  0.50000000
   0.08333333  0.08333333  0.40830017
   0.41666667  0.41666667  0.50000000
   0.41666667  0.16666667  0.50000000
   0.58333333  0.08333333  0.40830017
   0.66666667  0.91666667  0.50000000
   0.25000000  0.25000000  0.59169983
   0.16666667  0.16666667  0.50000000
   0.00000000  0.75000000  0.59169983
   0.91666667  0.91666667  0.50000000
   0.08333333  0.83333333  0.40830017
   0.00000000  0.50000000  0.59169983
   0.08333333  0.58333333  0.40830017
   0.00000000  0.25000000  0.59169983
   0.91666667  0.41666667  0.50000000
   0.58333333  0.58333333  0.40830017
   0.75000000  0.75000000  0.59169983
Direct configuration=     2
   0.25073969  0.74917771  0.59427609
   0.50087822  0.24996111  0.59320931
   0.58462065  0.83319332  0.40641904
   0.58375739  0.33219856  0.40646321
   0.50106158 -0.00048524  0.59350076
   0.41819560  0.91682780  0.50040397
   0.16469445  0.91816533  0.49924363
   0.33254039  0.83338432  0.40574832
   0.24998726  0.49955144  0.59386956
   0.16484887  0.66745175  0.49960984
   0.33282177  0.58354502  0.40608145
   0.16665397  0.41532551  0.50044695
   0.24971832  0.00138061  0.59390370
   0.33396308  0.33304494  0.40643629
   0.33307468  0.08385320  0.40638118
   0.91667120  0.16658469  0.50001655
  -0.00186973  0.00057924  0.59392087
   0.08311124  0.33299336  0.40637637
   0.75024638  0.50024539  0.59351953
   0.91517253  0.66804069  0.50037767
   0.41920574  0.66493390  0.50037210
   0.66600503  0.41694831  0.50044182
   0.83371224  0.33277194  0.40617905
   0.83309288  0.58394909  0.40644437
   0.74984922  0.24963808  0.59278520
   0.75050899 -0.00040652  0.59243131
   0.83368954  0.08210177  0.40739482
   0.50077459  0.74944235  0.59289920
   0.83355496  0.83409721  0.40740260
   0.66667770  0.16514849  0.49998659
   0.50033321  0.49979442  0.59293498
   0.66706593  0.66698707  0.50031105
   0.08288160  0.08310600  0.40709799
   0.41767775  0.41556402  0.50021479
   0.41743690  0.16649447  0.50000029
   0.58456648  0.08279125  0.40772757
   0.66746225  0.91729238  0.50000384
   0.24902462  0.25021159  0.59267229
   0.16608635  0.16770299  0.50026888
  -0.00135631  0.75039580  0.59286220
   0.91492909  0.91715309  0.49972469
   0.08214606  0.83394931  0.40715288
  -0.00024163  0.49980212  0.59283542
   0.08273780  0.58442600  0.40689245
   0.00017805  0.25065222  0.59272095
   0.91719471  0.41643935  0.50055387
   0.58351473  0.58347530  0.40697053
   0.75040399  0.75011924  0.59251394
Direct configuration=     3
   0.25295878  0.74671082  0.60200485
   0.50351290  0.24984444  0.59773774
   0.58848259  0.83277327  0.40077567
   0.58502957  0.32879422  0.40095234
   0.50424632 -0.00194096  0.59890356
   0.42278238  0.91731120  0.50161587
   0.15877780  0.92266134  0.49697450
   0.33016158  0.83353728  0.39809279
   0.24994902  0.49820575  0.60037875
   0.15939548  0.66980698  0.49843935
   0.33128706  0.58418010  0.39942530
   0.16661587  0.41130204  0.50178780
   0.24887329  0.00552246  0.60051531
   0.33585232  0.33217975  0.40084463
   0.33229873  0.08541281  0.40062422
   0.91668478  0.16633875  0.50006621
  -0.00747893  0.00231697  0.60058398
   0.08244495  0.33197342  0.40060497
   0.75098551  0.50098155  0.59897862
   0.91069011  0.67216274  0.50151067
   0.42682297  0.65973562  0.50148841
   0.66402014  0.41779326  0.50176727
   0.83484896  0.33108777  0.39981569
   0.83237153  0.58579637  0.40087698
   0.74939689  0.24855233  0.59604132
   0.75203597 -0.00162606  0.59462577
   0.83475816  0.07840709  0.40467878
   0.50309835  0.74776942  0.59649732
   0.83421986  0.83638884  0.40470988
   0.66671080  0.16059398  0.49994636
   0.50133284  0.49917769  0.59664043
   0.66826372  0.66794829  0.50124420
   0.08152638  0.08242400  0.40349147
   0.42071101  0.41225607  0.50085918
   0.41974760  0.16597787  0.50000115
   0.58826591  0.08116501  0.40600979
   0.66984898  0.91916953  0.50001537
   0.24609848  0.25084635  0.59558969
   0.16434540  0.17081195  0.50107554
  -0.00542523  0.75158319  0.59634933
   0.90971637  0.91861237  0.49889875
   0.07858422  0.83579726  0.40371100
  -0.00096651  0.49920847  0.59624220
   0.08095118  0.58770399  0.40266930
   0.00071221  0.25260887  0.59578432
   0.91877883  0.41575740  0.50221549
   0.58405891  0.58390120  0.40298163
   0.75161596  0.75047695  0.59495628
Direct configuration=     4
   0.25156188  0.74849444  0.60314275
   0.50294601  0.24948462  0.59907007
   0.58661648  0.83391134  0.39955143
   0.58602547  0.32941113  0.39978419
   0.50411794 -0.00139498  0.60048623
   0.42050410  0.91772330  0.50126190
   0.16312520  0.91944775  0.49782409
   0.33114420  0.83348315  0.39672026
   0.24926081  0.49886202  0.60164561
   0.16254291  0.66843017  0.49889672
   0.33170472  0.58421402  0.39827585
   0.16745417  0.41373402  0.50115987
   0.24840609  0.00355285  0.60175810
   0.33465757  0.33298869  0.39977340
   0.33329504  0.08373044  0.39957592
   0.91400301  0.16870093  0.50019601
  -0.00489266  0.00113989  0.60208346
   0.08216601  0.33327429  0.39934169
   0.75096331  0.50056171  0.60060043
   0.91201490  0.66918690  0.50093775
   0.42051622  0.66468274  0.50103186
   0.66858378  0.41388921  0.50123315
   0.83371174  0.33140333  0.39860646
   0.83369768  0.58475512  0.39983522
   0.74982936  0.24928208  0.59681889
   0.75136649 -0.00150890  0.59561404
   0.83493518  0.07959116  0.40371187
   0.50233836  0.74868355  0.59766202
   0.83478810  0.83524454  0.40361298
   0.66627977  0.16301574  0.50000550
   0.50147780  0.49891191  0.59813970
   0.66966439  0.66736095  0.50080906
   0.08139723  0.08282974  0.40226415
   0.41839404  0.41309006  0.50055313
   0.41911418  0.16598799  0.50002715
   0.58776709  0.08068247  0.40525807
   0.66737205  0.91917326  0.49997434
   0.24766955  0.25077388  0.59672918
   0.16641845  0.16772016  0.50062379
  -0.00372846  0.75072558  0.59730080
   0.91095720  0.91954390  0.49936002
   0.07908147  0.83536758  0.40239350
  -0.00094761  0.50015442  0.59745568
   0.08067748  0.58671023  0.40198278
  -0.00036110  0.25203696  0.59687522
   0.91630480  0.41701179  0.50158503
   0.58374301  0.58358756  0.40226251
   0.75133461  0.75035632  0.59618817
Direct configuration=     5
   0.25110862  0.74907317  0.60351197
   0.50276207  0.24936786  0.59950237
   0.58601098  0.83428062  0.39915420
   0.58634861  0.32961129  0.39940516
   0.50407628 -0.00121782  0.60099977
   0.41976486  0.91785701  0.50114705
   0.16453582  0.91840503  0.49809976
   0.33146303  0.83346559  0.39627492
   0.24903750  0.49907496  0.60205668
   0.16356416  0.66798343  0.49904512
   0.33184024  0.58422502  0.39790288
   0.16772617  0.41452314  0.50095612
   0.24825450  0.00291377  0.60216135
   0.33426991  0.33325116  0.39942582
   0.33361831  0.08318455  0.39923578
   0.91313286  0.16946739  0.50023812
  -0.00405348  0.00075796  0.60257000
   0.08207550  0.33369638  0.39893179
   0.75095610  0.50042549  0.60112666
   0.91244475  0.66822132  0.50075186
   0.41846986  0.66628794  0.50088372
   0.67006456  0.41262245  0.50105985
   0.83334275  0.33150572  0.39821410
   0.83412798  0.58441726  0.39949720
   0.74996969  0.24951887  0.59707119
   0.75114926 -0.00147089  0.59593471
   0.83499262  0.07997536  0.40339814
   0.50209176  0.74898016  0.59803993
   0.83497248  0.83487325  0.40325706
   0.66613991  0.16380154  0.50002469
   0.50152484  0.49882567  0.59862617
   0.67011887  0.66717037  0.50066786
   0.08135532  0.08296140  0.40186592
   0.41764225  0.41336066  0.50045383
   0.41890865  0.16599127  0.50003558
   0.58760523  0.08052590  0.40501416
   0.66656835  0.91917447  0.49996103
   0.24817931  0.25075037  0.59709891
   0.16709109  0.16671697  0.50047720
  -0.00317790  0.75044731  0.59760952
   0.91135982  0.91984616  0.49950970
   0.07924281  0.83522816  0.40196601
  -0.00094148  0.50046135  0.59784942
   0.08058867  0.58638779  0.40176003
  -0.00070935  0.25185139  0.59722919
   0.91550205  0.41741880  0.50138047
   0.58364051  0.58348579  0.40202917
   0.75124332  0.75031718  0.59658788
Direct configuration=     6
   0.25067713  0.74938259  0.60398531
   0.50225556  0.24966113  0.60003612
   0.58557068  0.83378458  0.39867540
   0.58570953  0.33026641  0.39896779
   0.50305190 -0.00101291  0.60169052
   0.41897836  0.91762855  0.50105467
   0.16491731  0.91836794  0.49854218
   0.33185170  0.83334439  0.39564552
   0.24901751  0.49965558  0.60255672
   0.16451768  0.66779054  0.49934710
   0.33214593  0.58414766  0.39751631
   0.16734091  0.41468601  0.50066014
   0.24836811  0.00230428  0.60261807
   0.33410322  0.33326668  0.39904482
   0.33345664  0.08310693  0.39884500
   0.91596754  0.16710936  0.50023846
  -0.00308525  0.00036545  0.60311774
   0.08248595  0.33340989  0.39851996
   0.75048684  0.50059435  0.60180321
   0.91390703  0.66781014  0.50046073
   0.41839111  0.66587253  0.50075229
   0.66696665  0.41562656  0.50079154
   0.83336904  0.33189672  0.39761489
   0.83366104  0.58432903  0.39902139
   0.75027766  0.24948308  0.59758911
   0.75137313 -0.00138412  0.59629629
   0.83515806  0.08040861  0.40302929
   0.50164334  0.74932943  0.59828722
   0.83510387  0.83427963  0.40293528
   0.66500731  0.16502491  0.50005832
   0.50115036  0.49932542  0.59880184
   0.66860990  0.66691281  0.50038483
   0.08154983  0.08305270  0.40163397
   0.41764286  0.41447809  0.50030825
   0.41818728  0.16618589  0.50008967
   0.58704024  0.08096945  0.40474127
   0.66590379  0.91872993  0.49997865
   0.24870771  0.25039053  0.59734592
   0.16715904  0.16646014  0.50022442
  -0.00226780  0.75005151  0.59778442
   0.91274820  0.91954037  0.49986486
   0.08007597  0.83480533  0.40161751
  -0.00061358  0.50046688  0.59823265
   0.08109565  0.58587635  0.40168126
  -0.00060157  0.25143056  0.59746462
   0.91619496  0.41709417  0.50099875
   0.58347524  0.58355285  0.40208306
   0.75126644  0.75014108  0.59706264
Direct configuration=     7
   0.25055954  0.74946691  0.60411431
   0.50211753  0.24974105  0.60018158
   0.58545069  0.83364941  0.39854491
   0.58553537  0.33044494  0.39884860
   0.50277274 -0.00095706  0.60187876
   0.41876402  0.91756629  0.50102950
   0.16502127  0.91835784  0.49866275
   0.33195761  0.83331136  0.39547400
   0.24901206  0.49981381  0.60269299
   0.16477753  0.66773797  0.49942939
   0.33222923  0.58412658  0.39741096
   0.16723593  0.41473039  0.50057949
   0.24839907  0.00213819  0.60274254
   0.33405779  0.33327090  0.39894100
   0.33341258  0.08308577  0.39873851
   0.91674004  0.16646676  0.50023855
  -0.00282139  0.00025848  0.60326700
   0.08259780  0.33333181  0.39840773
   0.75035896  0.50064037  0.60198758
   0.91430552  0.66769809  0.50038140
   0.41836965  0.66575932  0.50071647
   0.66612242  0.41644523  0.50071843
   0.83337620  0.33200327  0.39745159
   0.83353379  0.58430498  0.39889172
   0.75036159  0.24947333  0.59773025
   0.75143414 -0.00136047  0.59639482
   0.83520314  0.08052668  0.40292878
   0.50152113  0.74942461  0.59835461
   0.83513967  0.83411786  0.40284759
   0.66469866  0.16535829  0.50006748
   0.50104831  0.49946161  0.59884971
   0.66819868  0.66684262  0.50030770
   0.08160284  0.08307759  0.40157077
   0.41764302  0.41478261  0.50026857
   0.41799069  0.16623893  0.50010441
   0.58688628  0.08109032  0.40466690
   0.66572269  0.91860879  0.49998346
   0.24885171  0.25029246  0.59741324
   0.16717756  0.16639016  0.50015553
  -0.00201978  0.74994365  0.59783208
   0.91312656  0.91945704  0.49996164
   0.08030302  0.83469011  0.40152254
  -0.00052423  0.50046838  0.59833709
   0.08123381  0.58573697  0.40165979
  -0.00057220  0.25131587  0.59752878
   0.91638379  0.41700571  0.50089473
   0.58343021  0.58357113  0.40209775
   0.75127274  0.75009308  0.59719202
Direct configuration=     8
   0.25084541  0.74914700  0.60443662
   0.50206098  0.25000400  0.60034741
   0.58560230  0.83339004  0.39834870
   0.58525305  0.33046976  0.39864310
   0.50250978 -0.00108299  0.60213193
   0.41875812  0.91743214  0.50104307
   0.16523334  0.91813631  0.49873859
   0.33178624  0.83331412  0.39506009
   0.24922434  0.49972946  0.60290252
   0.16487889  0.66789752  0.49951581
   0.33216000  0.58419995  0.39721572
   0.16733811  0.41407114  0.50060062
   0.24857511  0.00237522  0.60298265
   0.33424203  0.33304688  0.39881982
   0.33330823  0.08325947  0.39855394
   0.91649352  0.16687537  0.50026906
  -0.00314000  0.00041447  0.60361088
   0.08273008  0.33301341  0.39819761
   0.75034647  0.50071710  0.60213687
   0.91379396  0.66848805  0.50038467
   0.41842882  0.66567528  0.50075326
   0.66615960  0.41658736  0.50073866
   0.83354543  0.33200457  0.39724289
   0.83318903  0.58440531  0.39867792
   0.75047105  0.24938274  0.59774244
   0.75158697 -0.00134813  0.59639873
   0.83518656  0.08045899  0.40295451
   0.50140058  0.74942412  0.59831663
   0.83500206  0.83420519  0.40291062
   0.66470252  0.16551074  0.50010906
   0.50076641  0.49981999  0.59876745
   0.66795813  0.66698900  0.50029648
   0.08182555  0.08285678  0.40159442
   0.41747999  0.41497607  0.50024814
   0.41768607  0.16640457  0.50019195
   0.58684381  0.08121444  0.40467156
   0.66613648  0.91818368  0.50003906
   0.24861384  0.25026246  0.59732116
   0.16713364  0.16698424  0.50008651
  -0.00210392  0.74997191  0.59782029
   0.91305127  0.91924423  0.50007873
   0.08073846  0.83451372  0.40160105
  -0.00036585  0.50008956  0.59830971
   0.08161340  0.58566370  0.40170089
  -0.00030884  0.25144225  0.59743616
   0.91649522  0.41648259  0.50079180
   0.58333664  0.58362601  0.40211699
   0.75142711  0.75007020  0.59714325
Direct configuration=     9
   0.25100390  0.74896962  0.60461532
   0.50202963  0.25014978  0.60043935
   0.58568635  0.83324624  0.39823991
   0.58509652  0.33048353  0.39852916
   0.50236398 -0.00115280  0.60227230
   0.41875485  0.91735776  0.50105059
   0.16535092  0.91801350  0.49878063
   0.33169122  0.83331565  0.39483062
   0.24934203  0.49968269  0.60301870
   0.16493509  0.66798597  0.49956373
   0.33212162  0.58424062  0.39710748
   0.16739477  0.41370564  0.50061233
   0.24867272  0.00250663  0.60311577
   0.33434417  0.33292268  0.39875263
   0.33325038  0.08335578  0.39845161
   0.91635685  0.16710191  0.50028597
  -0.00331665  0.00050095  0.60380154
   0.08280342  0.33283688  0.39808111
   0.75033955  0.50075964  0.60221965
   0.91351033  0.66892603  0.50038649
   0.41846163  0.66562869  0.50077366
   0.66618022  0.41666616  0.50074988
   0.83363925  0.33200529  0.39712719
   0.83299789  0.58446094  0.39855938
   0.75053173  0.24933252  0.59774920
   0.75167171 -0.00134129  0.59640089
   0.83517736  0.08042146  0.40296877
   0.50133375  0.74942385  0.59829558
   0.83492576  0.83425361  0.40294556
   0.66470466  0.16559526  0.50013211
   0.50061011  0.50001868  0.59872184
   0.66782477  0.66707016  0.50029025
   0.08194903  0.08273435  0.40160754
   0.41738960  0.41508333  0.50023682
   0.41751718  0.16649640  0.50024048
   0.58682026  0.08128326  0.40467414
   0.66636590  0.91794799  0.50006989
   0.24848196  0.25024583  0.59727010
   0.16710929  0.16731362  0.50004824
  -0.00215057  0.74998758  0.59781375
   0.91300953  0.91912624  0.50014364
   0.08097988  0.83441593  0.40164458
  -0.00027804  0.49987954  0.59829452
   0.08182385  0.58562308  0.40172368
  -0.00016283  0.25151232  0.59738481
   0.91655700  0.41619256  0.50073474
   0.58328477  0.58365644  0.40212765
   0.75151269  0.75005751  0.59711621
Direct configuration=    10
   0.25104885  0.74902198  0.60504500
   0.50208205  0.25019339  0.60056660
   0.58555760  0.83337524  0.39803267
   0.58512914  0.33046015  0.39830558
   0.50251127 -0.00120283  0.60249505
   0.41875784  0.91752446  0.50101261
   0.16525937  0.91832968  0.49890533
   0.33165805  0.83338773  0.39429585
   0.24936820  0.49949866  0.60323645
   0.16484199  0.66777896  0.49967745
   0.33214442  0.58419050  0.39686825
   0.16708098  0.41401866  0.50061486
   0.24858130  0.00261476  0.60338265
   0.33442754  0.33280577  0.39864168
   0.33348253  0.08314067  0.39826199
   0.91606309  0.16722729  0.50031085
  -0.00339789  0.00061908  0.60421921
   0.08272541  0.33287390  0.39779759
   0.75039156  0.50080729  0.60231131
   0.91341464  0.66874704  0.50037525
   0.41844625  0.66565899  0.50077063
   0.66653033  0.41641561  0.50077385
   0.83363935  0.33182145  0.39692326
   0.83316399  0.58437166  0.39835882
   0.75054620  0.24943363  0.59770242
   0.75144140 -0.00119437  0.59638716
   0.83520646  0.08032809  0.40310631
   0.50132790  0.74939492  0.59823493
   0.83490740  0.83435807  0.40305003
   0.66467279  0.16563045  0.50017711
   0.50060649  0.50014385  0.59860246
   0.66798211  0.66708832  0.50029878
   0.08207877  0.08244593  0.40172097
   0.41718625  0.41508875  0.50020321
   0.41780106  0.16625931  0.50036260
   0.58685064  0.08116213  0.40478871
   0.66620041  0.91814592  0.50014282
   0.24840848  0.25030388  0.59718607
   0.16714026  0.16731562  0.49992454
  -0.00214595  0.74990312  0.59781499
   0.91287975  0.91938605  0.50025862
   0.08113915  0.83439448  0.40183094
  -0.00019058  0.49969434  0.59814299
   0.08198815  0.58547621  0.40187317
  -0.00000426  0.25159314  0.59725291
   0.91636829  0.41632839  0.50058787
   0.58309791  0.58361350  0.40214451
   0.75160308  0.75002616  0.59702307
Direct configuration=    11
   0.25110527  0.74908769  0.60558424
   0.50214785  0.25024811  0.60072629
   0.58539602  0.83353714  0.39777258
   0.58517007  0.33043082  0.39802499
   0.50269611 -0.00126561  0.60277462
   0.41876159  0.91773366  0.50096495
   0.16514447  0.91872648  0.49906183
   0.33161641  0.83347818  0.39362472
   0.24940104  0.49926770  0.60350974
   0.16472516  0.66751917  0.49982017
   0.33217304  0.58412761  0.39656803
   0.16668716  0.41441151  0.50061804
   0.24846657  0.00275045  0.60371758
   0.33453216  0.33265906  0.39850243
   0.33377386  0.08287070  0.39802403
   0.91569441  0.16738464  0.50034208
  -0.00349986  0.00076734  0.60474340
   0.08262752  0.33292036  0.39744178
   0.75045684  0.50086708  0.60242635
   0.91329454  0.66852240  0.50036113
   0.41842694  0.66569701  0.50076684
   0.66696972  0.41610116  0.50080392
   0.83363949  0.33159073  0.39666734
   0.83337246  0.58425962  0.39810711
   0.75056436  0.24956052  0.59764370
   0.75115237 -0.00100998  0.59636994
   0.83524297  0.08021091  0.40327892
   0.50132055  0.74935862  0.59815881
   0.83488436  0.83448917  0.40318114
   0.66463279  0.16567460  0.50023357
   0.50060193  0.50030094  0.59845264
   0.66817957  0.66711111  0.50030948
   0.08224158  0.08208396  0.40186332
   0.41693104  0.41509556  0.50016104
   0.41815734  0.16596177  0.50051587
   0.58688877  0.08101012  0.40493250
   0.66599273  0.91839433  0.50023433
   0.24831626  0.25037674  0.59708061
   0.16717912  0.16731812  0.49976929
  -0.00214015  0.74979713  0.59781656
   0.91271687  0.91971211  0.50040292
   0.08133903  0.83436756  0.40206482
  -0.00008081  0.49946191  0.59795281
   0.08219434  0.58529188  0.40206079
   0.00019474  0.25169458  0.59708737
   0.91613146  0.41649886  0.50040354
   0.58286341  0.58355961  0.40216566
   0.75171652  0.74998681  0.59690618
Direct configuration=    12
   0.25080799  0.74932908  0.60595927
   0.50215142  0.25025119  0.60080011
   0.58555766  0.83327221  0.39764049
   0.58539244  0.33024118  0.39792768
   0.50272318 -0.00120341  0.60293403
   0.41867358  0.91773467  0.50091661
   0.16519604  0.91862055  0.49929792
   0.33184356  0.83330792  0.39315943
   0.24932135  0.49940144  0.60368505
   0.16472011  0.66790834  0.50000576
   0.33218952  0.58411182  0.39640682
   0.16684487  0.41434086  0.50051806
   0.24843388  0.00259159  0.60390919
   0.33449647  0.33254789  0.39850821
   0.33373219  0.08286919  0.39788674
   0.91610881  0.16699156  0.50037631
  -0.00337964  0.00072574  0.60515714
   0.08278290  0.33273930  0.39716864
   0.75054640  0.50086289  0.60244095
   0.91327716  0.66844019  0.50026786
   0.41811825  0.66595927  0.50063820
   0.66643911  0.41636868  0.50069925
   0.83355636  0.33140038  0.39647831
   0.83334885  0.58438703  0.39796617
   0.75058890  0.24975178  0.59764036
   0.75113457 -0.00093097  0.59641224
   0.83522450  0.08018724  0.40342804
   0.50131972  0.74954145  0.59807548
   0.83511202  0.83430137  0.40331976
   0.66426510  0.16593372  0.50025346
   0.50066504  0.50016268  0.59835670
   0.66807693  0.66714574  0.50021098
   0.08224258  0.08217935  0.40198792
   0.41709325  0.41490587  0.50008670
   0.41810394  0.16615999  0.50059416
   0.58690611  0.08098364  0.40508809
   0.66581295  0.91852012  0.50027165
   0.24870003  0.25021042  0.59700932
   0.16716209  0.16716667  0.49958399
  -0.00199777  0.74982421  0.59784139
   0.91290444  0.91970510  0.50057472
   0.08132930  0.83420983  0.40235075
  -0.00019393  0.49975011  0.59781081
   0.08208105  0.58521409  0.40220891
   0.00001163  0.25159739  0.59690936
   0.91601609  0.41674486  0.50017682
   0.58290531  0.58354566  0.40220884
   0.75165369  0.74999009  0.59685135
Direct configuration=    13
   0.25063705  0.74946788  0.60617491
   0.50215347  0.25025297  0.60084255
   0.58565060  0.83311988  0.39756454
   0.58552031  0.33013214  0.39787173
   0.50273874 -0.00116764  0.60302569
   0.41862298  0.91773525  0.50088882
   0.16522570  0.91855964  0.49943368
   0.33197417  0.83321002  0.39289189
   0.24927553  0.49947833  0.60378585
   0.16471721  0.66813211  0.50011247
   0.33219899  0.58410275  0.39631412
   0.16693555  0.41430024  0.50046057
   0.24841508  0.00250024  0.60401936
   0.33447595  0.33248397  0.39851153
   0.33370823  0.08286832  0.39780780
   0.91634709  0.16676554  0.50039599
  -0.00331051  0.00070182  0.60539504
   0.08287224  0.33263519  0.39701158
   0.75059790  0.50086049  0.60244935
   0.91326716  0.66839291  0.50021423
   0.41794075  0.66611007  0.50056424
   0.66613401  0.41652250  0.50063907
   0.83350857  0.33129093  0.39636962
   0.83333527  0.58446029  0.39788513
   0.75060301  0.24986175  0.59763843
   0.75112434 -0.00088554  0.59643656
   0.83521388  0.08017363  0.40351379
   0.50131925  0.74964657  0.59802757
   0.83524293  0.83419339  0.40339947
   0.66405368  0.16608271  0.50026490
   0.50070132  0.50008318  0.59830154
   0.66801791  0.66716565  0.50015434
   0.08224315  0.08223420  0.40205956
   0.41718653  0.41479679  0.50004395
   0.41807324  0.16627397  0.50063918
   0.58691608  0.08096841  0.40517755
   0.66570958  0.91859245  0.50029311
   0.24892070  0.25011478  0.59696832
   0.16715229  0.16707958  0.49947745
  -0.00191590  0.74983979  0.59785567
   0.91301229  0.91970107  0.50067350
   0.08132370  0.83411914  0.40251517
  -0.00025898  0.49991583  0.59772916
   0.08201591  0.58516937  0.40229407
  -0.00009366  0.25154151  0.59680701
   0.91594974  0.41688632  0.50004645
   0.58292941  0.58353763  0.40223367
   0.75161756  0.74999198  0.59681983
Direct configuration=    14
   0.25076180  0.74932786  0.60652447
   0.50218198  0.25033970  0.60089896
   0.58576759  0.83309442  0.39749283
   0.58545371  0.33002518  0.39783190
   0.50267646 -0.00115963  0.60312116
   0.41846342  0.91784289  0.50081024
   0.16558540  0.91830605  0.49970962
   0.33198687  0.83314399  0.39256871
   0.24928295  0.49963248  0.60385521
   0.16492250  0.66808857  0.50036006
   0.33219202  0.58397063  0.39624611
   0.16718273  0.41418082  0.50035437
   0.24852463  0.00251889  0.60413258
   0.33453516  0.33252523  0.39858037
   0.33381932  0.08260730  0.39770560
   0.91620581  0.16698679  0.50047381
  -0.00349913  0.00083781  0.60582888
   0.08277727  0.33259624  0.39672847
   0.75058621  0.50088924  0.60232749
   0.91331007  0.66864436  0.50016559
   0.41755558  0.66638693  0.50041475
   0.66605474  0.41658686  0.50050143
   0.83363268  0.33128909  0.39622113
   0.83336981  0.58425109  0.39774017
   0.75065293  0.24988883  0.59759926
   0.75136232 -0.00084707  0.59651563
   0.83528719  0.08003383  0.40367813
   0.50123521  0.74972235  0.59791155
   0.83534735  0.83409218  0.40355310
   0.66411610  0.16619787  0.50032426
   0.50049202  0.50026646  0.59823098
   0.66769353  0.66727844  0.50001363
   0.08236653  0.08214102  0.40215042
   0.41702394  0.41504671  0.49995124
   0.41771966  0.16638465  0.50067272
   0.58691182  0.08083437  0.40533011
   0.66567343  0.91854727  0.50033349
   0.24902553  0.24994863  0.59685806
   0.16719856  0.16705727  0.49932479
  -0.00200297  0.75002887  0.59792259
   0.91288943  0.91966432  0.50092803
   0.08144504  0.83396800  0.40282596
  -0.00024133  0.50002646  0.59757931
   0.08204863  0.58500989  0.40241259
  -0.00009018  0.25149290  0.59657627
   0.91582762  0.41677714  0.49975134
   0.58318304  0.58337602  0.40220290
   0.75150505  0.75015082  0.59675977
Direct configuration=    15
   0.25080821  0.74927576  0.60665452
   0.50219259  0.25037197  0.60091994
   0.58581112  0.83308495  0.39746615
   0.58542893  0.32998539  0.39781708
   0.50265329 -0.00115665  0.60315668
   0.41840405  0.91788294  0.50078100
   0.16571923  0.91821170  0.49981229
   0.33199159  0.83311941  0.39244847
   0.24928571  0.49968983  0.60388101
   0.16499889  0.66807237  0.50045218
   0.33218942  0.58392148  0.39622080
   0.16727469  0.41413638  0.50031485
   0.24856539  0.00252583  0.60417471
   0.33455719  0.33254059  0.39860598
   0.33386065  0.08251018  0.39766757
   0.91615325  0.16706911  0.50050277
  -0.00356931  0.00088841  0.60599030
   0.08274193  0.33258175  0.39662314
   0.75058185  0.50089994  0.60228215
   0.91332604  0.66873792  0.50014749
   0.41741227  0.66648995  0.50035913
   0.66602525  0.41661080  0.50045022
   0.83367886  0.33128841  0.39616588
   0.83338267  0.58417325  0.39768623
   0.75067150  0.24989891  0.59758468
   0.75145086 -0.00083276  0.59654504
   0.83531447  0.07998182  0.40373927
   0.50120394  0.74975054  0.59786839
   0.83538620  0.83405452  0.40361027
   0.66413933  0.16624072  0.50034635
   0.50041415  0.50033465  0.59820472
   0.66757284  0.66732041  0.49996128
   0.08241244  0.08210635  0.40218422
   0.41696344  0.41513969  0.49991675
   0.41758811  0.16642583  0.50068520
   0.58691023  0.08078449  0.40538687
   0.66565998  0.91853046  0.50034851
   0.24906453  0.24988681  0.59681703
   0.16721578  0.16704897  0.49926798
  -0.00203537  0.75009922  0.59794749
   0.91284372  0.91965064  0.50102274
   0.08149018  0.83391176  0.40294160
  -0.00023477  0.50006762  0.59752355
   0.08206080  0.58495055  0.40245668
  -0.00008889  0.25147482  0.59649042
   0.91578218  0.41673652  0.49964153
   0.58327741  0.58331589  0.40219145
   0.75146318  0.75020992  0.59673743
Direct configuration=    16
   0.25102072  0.74925228  0.60700089
   0.50220145  0.25049069  0.60092467
   0.58590741  0.83309659  0.39743276
   0.58544780  0.32988869  0.39782053
   0.50277725 -0.00114831  0.60316309
   0.41836851  0.91806847  0.50068467
   0.16542464  0.91855600  0.50011083
   0.33191726  0.83294180  0.39227355
   0.24927730  0.49959311  0.60386241
   0.16503946  0.66778307  0.50072493
   0.33219873  0.58390480  0.39621717
   0.16698127  0.41427226  0.50024911
   0.24856133  0.00260616  0.60420519
   0.33457227  0.33236311  0.39866766
   0.33395577  0.08237648  0.39758802
   0.91606335  0.16704220  0.50053294
  -0.00355179  0.00107491  0.60642808
   0.08284809  0.33250614  0.39632265
   0.75052241  0.50100908  0.60198905
   0.91338046  0.66862656  0.50018034
   0.41752586  0.66640620  0.50021817
   0.66602360  0.41670703  0.50032867
   0.83383003  0.33106193  0.39601348
   0.83347932  0.58400384  0.39754925
   0.75056052  0.24998543  0.59753965
   0.75142272 -0.00068753  0.59668461
   0.83543780  0.07988795  0.40393083
   0.50110585  0.74968073  0.59771982
   0.83539136  0.83400143  0.40374679
   0.66421880  0.16621852  0.50045130
   0.50028501  0.50057600  0.59810893
   0.66743752  0.66741689  0.49979693
   0.08255678  0.08175159  0.40228174
   0.41686564  0.41542057  0.49987617
   0.41752381  0.16629078  0.50069118
   0.58689624  0.08065203  0.40555111
   0.66550259  0.91859840  0.50043201
   0.24880268  0.25002582  0.59669402
   0.16709617  0.16715082  0.49911918
  -0.00221171  0.75026421  0.59810295
   0.91282170  0.91982836  0.50129422
   0.08169507  0.83383902  0.40330973
  -0.00013645  0.49993049  0.59734304
   0.08217077  0.58487353  0.40253831
   0.00014884  0.25154706  0.59627383
   0.91588939  0.41674579  0.49931889
   0.58337487  0.58316157  0.40205364
   0.75137157  0.75035743  0.59665300
Direct configuration=    17
   0.25110528  0.74924293  0.60713869
   0.50220497  0.25053793  0.60092655
   0.58594572  0.83310122  0.39741947
   0.58545531  0.32985022  0.39782191