 vasp.5.4.1 24Jun15 (build Mar 14 2019 10:18:33) complex                        
  
 executed on INTEL-19.0.2+OPENMPI date 2022.07.15  14:49:36
 running on   36 total cores
 distrk:  each k-point on   36 cores,    1 groups
 distr:  one band on NCORES_PER_BAND=   6 cores,    6 groups


--------------------------------------------------------------------------------------------------------


 INCAR:
 POTCAR:    PAW_PBE Au 04Oct2007                  
 POTCAR:    PAW_PBE Pd 04Jan2005                  
 POTCAR:    PAW_PBE Au 04Oct2007                  
  local pseudopotential read in
  partial core-charges read in
  partial kinetic energy density read in
  atomic valenz-charges read in
  non local Contribution for L=           2  read in
    real space projection operators read in
  non local Contribution for L=           2  read in
    real space projection operators read in
  non local Contribution for L=           0  read in
    real space projection operators read in
  non local Contribution for L=           0  read in
    real space projection operators read in
  non local Contribution for L=           1  read in
    real space projection operators read in
  non local Contribution for L=           1  read in
    real space projection operators read in
    PAW grid and wavefunctions read in
 
   number of l-projection  operators is LMAX  =           6
   number of lm-projection operators is LMMAX =          18
 
 POTCAR:    PAW_PBE Pd 04Jan2005                  
  local pseudopotential read in
  partial core-charges read in
  partial kinetic energy density read in
  atomic valenz-charges read in
  non local Contribution for L=           2  read in
    real space projection operators read in
  non local Contribution for L=           2  read in
    real space projection operators read in
  non local Contribution for L=           0  read in
    real space projection operators read in
  non local Contribution for L=           0  read in
    real space projection operators read in
  non local Contribution for L=           1  read in
    real space projection operators read in
  non local Contribution for L=           1  read in
    real space projection operators read in
    PAW grid and wavefunctions read in
 
   number of l-projection  operators is LMAX  =           6
   number of lm-projection operators is LMMAX =          18
 
 Optimization of the real space projectors (new method)

 maximal supplied QI-value         = 15.12
 optimisation between [QCUT,QGAM] = [ 10.13, 20.41] = [ 28.73,116.64] Ry 
 Optimized for a Real-space Cutoff    1.51 Angstroem

   l    n(q)    QCUT    max X(q) W(low)/X(q) W(high)/X(q)  e(spline) 
   2      8    10.129    60.898    0.46E-03    0.46E-03    0.14E-06
   2      8    10.129    58.894    0.47E-03    0.47E-03    0.14E-06
   0      9    10.129   109.617    0.16E-03    0.11E-03    0.54E-07
   0      9    10.129    75.026    0.15E-03    0.11E-03    0.52E-07
   1      9    10.129    16.344    0.96E-04    0.15E-03    0.14E-06
   1      9    10.129    10.160    0.81E-04    0.12E-03    0.11E-06
 Optimization of the real space projectors (new method)

 maximal supplied QI-value         = 14.36
 optimisation between [QCUT,QGAM] = [ 10.20, 20.39] = [ 29.12,116.47] Ry 
 Optimized for a Real-space Cutoff    1.51 Angstroem

   l    n(q)    QCUT    max X(q) W(low)/X(q) W(high)/X(q)  e(spline) 
   2      8    10.197    59.108    0.26E-03    0.14E-03    0.96E-07
   2      8    10.197    58.101    0.27E-03    0.14E-03    0.98E-07
   0      9    10.197   102.235    0.54E-04    0.60E-05    0.72E-07
   0      9    10.197    58.388    0.52E-04    0.60E-05    0.68E-07
   1      9    10.197    22.191    0.18E-03    0.25E-03    0.79E-07
   1      9    10.197    15.590    0.15E-03    0.21E-03    0.69E-07
  PAW_PBE Au 04Oct2007                  :
 energy of atom  1       EATOM= -926.0867
 kinetic energy error for atom=    0.0062 (will be added to EATOM!!)
  PAW_PBE Pd 04Jan2005                  :
 energy of atom  2       EATOM= -809.7530
 kinetic energy error for atom=    0.0091 (will be added to EATOM!!)
 
 
 POSCAR: Au Pd                                   
  positions in cartesian coordinates
  No initial velocities read in
 exchange correlation table for  LEXCH =        8
   RHO(1)=    0.500       N(1)  =     2000
   RHO(2)=  100.500       N(2)  =     4000

 VTST: version 3.2, (02/03/18)

 CHAIN: initializing optimizer
 
 OPT: Using VASP Conjugate-Gradient optimizer
 CHAIN: Read ICHAIN            0
 
 POSCAR: Au Pd                                   
  positions in cartesian coordinates
  No initial velocities read in
 


--------------------------------------------------------------------------------------------------------


 ion  position               nearest neighbor table
   1  0.250  0.750  0.592-  45 2.75  28 2.75  14 2.75  22 2.75   5 2.75   7 2.75  39 2.75  11 2.75
                             8 2.75
   2  0.500  0.000  0.592-   3 2.75  46 2.75  11 2.75  10 2.75  47 2.75  48 2.75  25 2.75  14 2.75
                             9 2.75
   3  0.417  0.167  0.500-  40 2.75   2 2.75  10 2.75  24 2.75   9 2.75  42 2.75  46 2.75  15 2.75
                            41 2.75  12 2.75   4 2.75  47 2.75
   4  0.583  0.083  0.408-  15 2.75  12 2.75   6 2.75  23 2.75  31 2.75  29 2.75  40 2.75  46 2.75
                             3 2.75
   5  0.500  0.500  0.592-  28 2.75  17 2.75   1 2.75  18 2.75  11 2.75  47 2.75   7 2.75  27 2.75
                            24 2.75
   6  0.583  0.833  0.408-  46 2.75  13 2.75  19 2.75  40 2.75   4 2.75  44 2.75  23 2.75  26 2.75
                             9 2.75
   7  0.250  0.500  0.592-   8 2.75  24 2.75  10 2.75   1 2.75  39 2.75  47 2.75   5 2.75  36 2.75
                            42 2.75
   8  0.167  0.667  0.500-  20 2.75   7 2.75  39 2.75  38 2.75  24 2.75  42 2.75  45 2.75  28 2.75
                            35 2.75  37 2.75  43 2.75   1 2.75
   9  0.417  0.917  0.500-  44 2.75  11 2.75  14 2.75  26 2.75  28 2.75  41 2.75   3 2.75  45 2.75
                            46 2.75  40 2.75   6 2.75   2 2.75
  10  0.250  0.250  0.592-  42 2.75   3 2.75   7 2.75  14 2.75  36 2.75   2 2.75  34 2.75  47 2.75
                            41 2.75
  11  0.500  0.750  0.592-   9 2.75  26 2.75   2 2.75  14 2.75   5 2.75  27 2.75   1 2.75  48 2.75
                            28 2.75
  12  0.333  0.333  0.408-  24 2.75  20 2.75   4 2.75  40 2.75  43 2.75  21 2.75  31 2.75   3 2.75
                            42 2.75
  13  0.583  0.583  0.408-  26 2.75  16 2.75   6 2.75  31 2.75  44 2.75  43 2.75  19 2.75  17 2.75
                            28 2.75
  14  0.250  0.000  0.592-  41 2.75   9 2.75  10 2.75  11 2.75  34 2.75   1 2.75   2 2.75  22 2.75
                            45 2.75
  15  0.667  0.167  0.500-   4 2.75  25 2.75  47 2.75  17 2.75  38 2.75  46 2.75  24 2.75  32 2.75
                             3 2.75  31 2.75  29 2.75  18 2.75
  16  0.833  0.333  0.408-  33 2.75  19 2.75  29 2.75  30 2.75  13 2.75  31 2.75  21 2.75  32 2.75
                            17 2.75
  17  0.667  0.417  0.500-  31 2.75  18 2.75   5 2.75  26 2.75  28 2.75  15 2.75  32 2.75  24 2.75
                            33 2.75  13 2.75  16 2.75  27 2.75
  18  0.750  0.250  0.592-  17 2.75  32 2.75  22 2.75  25 2.75  27 2.75   5 2.75  34 2.75  47 2.75
                            15 2.75
  19  0.833  0.583  0.408-  35 2.75  16 2.75  21 2.75  23 2.75   6 2.75  20 2.75  13 2.75  33 2.75
                            26 2.75
  20  0.083  0.583  0.408-   8 2.75  12 2.75  21 2.75  23 2.75  37 2.75  19 2.75  43 2.75  42 2.75
                            35 2.75
  21  0.083  0.333  0.408-  42 2.75  20 2.75  30 2.75  40 2.75  19 2.75  16 2.75  12 2.75  41 2.75
                            33 2.75
  22  0.000  0.000  0.592-  32 2.75  45 2.75   1 2.75  34 2.75  39 2.75  18 2.75  14 2.75  25 2.75
                            38 2.75
  23  0.833  0.833  0.408-  38 2.75  19 2.75  20 2.75  29 2.75   4 2.75  37 2.75   6 2.75  35 2.75
                            46 2.75
  24  0.417  0.417  0.500-  12 2.75  47 2.75   7 2.75   3 2.75  15 2.75  28 2.75   8 2.75  42 2.75
                            17 2.75  43 2.75  31 2.75   5 2.75
  25  0.750  0.000  0.592-  15 2.75  38 2.75  18 2.75  39 2.75  47 2.75  48 2.75   2 2.75  22 2.75
                            46 2.75
  26  0.667  0.667  0.500-  13 2.75  27 2.75  11 2.75  17 2.75   9 2.75  33 2.75  46 2.75  35 2.75
                            28 2.75   6 2.75  19 2.75  48 2.75
  27  0.750  0.500  0.592-  26 2.75  33 2.75  11 2.75  18 2.75  34 2.75  48 2.75  36 2.75   5 2.75
                            17 2.75
  28  0.417  0.667  0.500-  43 2.75   5 2.75   1 2.75  17 2.75  24 2.75   9 2.75  45 2.75   8 2.75
                            26 2.75  44 2.75  11 2.75  13 2.75
  29  0.833  0.083  0.408-  32 2.75  23 2.75  31 2.75  16 2.75  37 2.75  30 2.75   4 2.75  38 2.75
                            15 2.75
  30  0.083  0.083  0.408-  41 2.75  21 2.75  37 2.75  16 2.75  44 2.75  29 2.75  40 2.75  45 2.75
                            32 2.75
  31  0.583  0.333  0.408-  17 2.75  13 2.75   4 2.75  29 2.75  43 2.75  16 2.75  12 2.75  15 2.75
                            24 2.75
  32  0.917  0.167  0.500-  29 2.75  22 2.75  18 2.75  17 2.75  33 2.75  38 2.75  45 2.75  41 2.75
                            15 2.75  16 2.75  34 2.75  30 2.75
  33  0.917  0.417  0.500-  16 2.75  34 2.75  27 2.75  32 2.75  26 2.75  35 2.75  41 2.75  17 2.75
                            42 2.75  19 2.75  21 2.75  36 2.75
  34  0.000  0.250  0.592-  33 2.75  41 2.75  27 2.75  14 2.75  36 2.75  22 2.75  18 2.75  10 2.75
                            32 2.75
  35  0.917  0.667  0.500-  19 2.75  36 2.75  48 2.75  38 2.75  42 2.75  46 2.75  33 2.75   8 2.75
                            26 2.75  23 2.75  39 2.75  20 2.75
  36  0.000  0.500  0.592-  35 2.75  42 2.75  10 2.75  39 2.75  34 2.75  48 2.75  27 2.75   7 2.75
                            33 2.75
  37  0.083  0.833  0.408-  45 2.75  29 2.75  30 2.75  43 2.75  20 2.75  44 2.75  23 2.75   8 2.75
                            38 2.75
  38  0.917  0.917  0.500-  23 2.75  39 2.75  25 2.75  15 2.75  32 2.75  35 2.75   8 2.75  45 2.75
                            46 2.75  29 2.75  37 2.75  22 2.75
  39  0.000  0.750  0.592-  38 2.75   8 2.75  22 2.75  25 2.75  36 2.75   7 2.75   1 2.75  48 2.75
                            35 2.75
  40  0.333  0.083  0.408-   3 2.75   6 2.75  12 2.75  21 2.75  44 2.75  30 2.75   4 2.75   9 2.75
                            41 2.75
  41  0.167  0.167  0.500-  30 2.75  14 2.75  34 2.75  33 2.75   9 2.75  42 2.75  45 2.75   3 2.75
                            32 2.75  21 2.75  10 2.75  40 2.75
  42  0.167  0.417  0.500-  21 2.75  10 2.75  36 2.75   8 2.75  35 2.75   3 2.75  41 2.75  33 2.75
                            24 2.75  20 2.75  12 2.75   7 2.75
  43  0.333  0.583  0.408-  28 2.75  12 2.75  31 2.75  37 2.75  44 2.75  13 2.75  20 2.75  24 2.75
                             8 2.75
  44  0.333  0.833  0.408-   9 2.75  13 2.75  30 2.75  40 2.75  43 2.75   6 2.75  37 2.75  28 2.75
                            45 2.75
  45  0.167  0.917  0.500-  37 2.75   1 2.75  22 2.75  28 2.75  32 2.75   8 2.75  41 2.75  38 2.75
                             9 2.75  30 2.75  14 2.75  44 2.75
  46  0.667  0.917  0.500-   6 2.75  48 2.75   2 2.75  15 2.75  26 2.75  35 2.75   3 2.75  38 2.75
                             9 2.75   4 2.75  23 2.75  25 2.75
  47  0.500  0.250  0.592-  24 2.75  15 2.75   7 2.75   2 2.75   5 2.75  25 2.75  10 2.75  18 2.75
                             3 2.75
  48  0.750  0.750  0.592-  46 2.75  35 2.75  27 2.75   2 2.75  36 2.75  25 2.75  39 2.75  11 2.75
                            26 2.75
 
  LATTYP: Found a hexagonal cell.
 ALAT       =    11.0025815153
 C/A-ratio  =     2.2260035120
  
  Lattice vectors:
  
 A1 = (   5.5012907576,  -9.5285150994,   0.0000000000)
 A2 = ( -11.0025815153,   0.0000000000,   0.0000000000)
 A3 = (   0.0000000000,   0.0000000000, -24.4917850943)


Analysis of symmetry for initial positions (statically):
=====================================================================
 Subroutine PRICEL returns:
 Original cell was already a primitive cell.
 

 Routine SETGRP: Setting up the symmetry group for a 
 hexagonal supercell.


 Subroutine GETGRP returns: Found  1 space group operations
 (whereof  1 operations were pure point group operations)
 out of a pool of 24 trial point group operations.


The static configuration has the point symmetry C_1 .


Analysis of symmetry for dynamics (positions and initial velocities):
=====================================================================
 Subroutine PRICEL returns:
 Original cell was already a primitive cell.
 

 Routine SETGRP: Setting up the symmetry group for a 
 hexagonal supercell.


 Subroutine GETGRP returns: Found  1 space group operations
 (whereof  1 operations were pure point group operations)
 out of a pool of 24 trial point group operations.


The dynamic configuration has the point symmetry C_1 .
 
 
 KPOINTS: Automatic mesh                          

Automatic generation of k-mesh.
Space group operators:
 irot       det(A)        alpha          n_x          n_y          n_z        tau_x        tau_y        tau_z
    1     1.000000     0.000000     1.000000     0.000000     0.000000     0.000000     0.000000     0.000000
 
 Subroutine IBZKPT returns following result:
 ===========================================
 
 Found      6 irreducible k-points:
 
 Following reciprocal coordinates:
            Coordinates               Weight
  0.250000  0.250000  0.000000     16.000000
  0.000000  0.250000  0.000000     16.000000
 -0.250000  0.000000  0.000000     16.000000
 -0.250000  0.250000  0.000000     16.000000
  0.500000 -0.250000  0.000000     16.000000
 -0.250000  0.500000  0.000000     16.000000
 
 Following cartesian coordinates:
            Coordinates               Weight
  0.022722  0.013119  0.000000     16.000000
  0.000000  0.026237  0.000000     16.000000
 -0.022722  0.013119  0.000000     16.000000
 -0.022722  0.039356  0.000000     16.000000
  0.045444 -0.052474  0.000000     16.000000
 -0.022722  0.065593  0.000000     16.000000
 


--------------------------------------------------------------------------------------------------------




 Dimension of arrays:
   k-points           NKPTS =      6   k-points in BZ     NKDIM =      6   number of bands    NBANDS=    306
   number of dos      NEDOS =    301   number of ions     NIONS =     48
   non local maximal  LDIM  =      6   non local SUM 2l+1 LMDIM =     18
   total plane-waves  NPLWV = 349920
   max r-space proj   IRMAX =   2009   max aug-charges    IRDMAX=   8532
   dimension x,y,z NGX =    54 NGY =   54 NGZ =  120
   dimension x,y,z NGXF=   108 NGYF=  108 NGZF=  240
   support grid    NGXF=   108 NGYF=  108 NGZF=  240
   ions per type =              24  24
 NGX,Y,Z   is equivalent  to a cutoff of   8.16,  8.16,  8.15 a.u.
 NGXF,Y,Z  is equivalent  to a cutoff of  16.32, 16.32, 16.29 a.u.


 I would recommend the setting:
   dimension x,y,z NGX =    54 NGY =   54 NGZ =  120
 SYSTEM =  unknown system                          
 POSCAR =  Au Pd                                   

 Startparameter for this run:
   NWRITE =      1    write-flag & timer
   PREC   = normal    normal or accurate (medium, high low for compatibility)
   ISTART =      0    job   : 0-new  1-cont  2-samecut
   ICHARG =      2    charge: 1-file 2-atom 10-const
   ISPIN  =      1    spin polarized calculation?
   LNONCOLLINEAR =      F non collinear calculations
   LSORBIT =      F    spin-orbit coupling
   INIWAV =      1    electr: 0-lowe 1-rand  2-diag
   LASPH  =      F    aspherical Exc in radial PAW
   METAGGA=      F    non-selfconsistent MetaGGA calc.

 Electronic Relaxation 1
   ENCUT  =  400.0 eV  29.40 Ry    5.42 a.u.  17.94 17.94 39.94*2*pi/ulx,y,z
   ENINI  =  400.0     initial cutoff
   ENAUG  =  416.2 eV  augmentation charge cutoff
   NELM   =    500;   NELMIN=  2; NELMDL= -5     # of ELM steps 
   EDIFF  = 0.1E-05   stopping-criterion for ELM
   LREAL  =      T    real-space projection
   NLSPLINE    = F    spline interpolate recip. space projectors
   LCOMPAT=      F    compatible to vasp.4.4
   GGA_COMPAT  = T    GGA compatible to vasp.4.4-vasp.4.6
   LMAXPAW     = -100 max onsite density
   LMAXMIX     =    2 max onsite mixed and CHGCAR
   VOSKOWN=      1    Vosko Wilk Nusair interpolation
   ROPT   =   -0.00050  -0.00050
 Ionic relaxation
   EDIFFG = -.2E-01   stopping-criterion for IOM
   NSW    =    500    number of steps for IOM
   NBLOCK =      1;   KBLOCK =    500    inner block; outer block 
   IBRION =      2    ionic relax: 0-MD 1-quasi-New 2-CG
   NFREE  =      2    steps in history (QN), initial steepest desc. (CG)
   ISIF   =      0    stress and relaxation
   IWAVPR =     11    prediction:  0-non 1-charg 2-wave 3-comb
   ISYM   =      2    0-nonsym 1-usesym 2-fastsym
   LCORR  =      T    Harris-Foulkes like correction to forces

   POTIM  = 0.3500    time-step for ionic-motion
   TEIN   =    0.0    initial temperature
   TEBEG  =    0.0;   TEEND  =   0.0 temperature during run
   SMASS  =  -3.00    Nose mass-parameter (am)
   estimated Nose-frequenzy (Omega)   =  0.10E-29 period in steps =****** mass=  -0.277E-26a.u.
   SCALEE = 1.0000    scale energy and forces
   NPACO  =    256;   APACO  = 16.0  distance and # of slots for P.C.
   PSTRESS=    0.0 pullay stress

  Mass of Ions in am
   POMASS = 196.97106.42
  Ionic Valenz
   ZVAL   =  11.00 10.00
  Atomic Wigner-Seitz radii
   RWIGS  =  -1.00 -1.00
  virtual crystal weights 
   VCA    =   1.00  1.00
   NELECT =     504.0000    total number of electrons
   NUPDOWN=      -1.0000    fix difference up-down

 DOS related values:
   EMIN   =  10.00;   EMAX   =-10.00  energy-range for DOS
   EFERMI =   0.00
   ISMEAR =     0;   SIGMA  =   0.10  broadening in eV -4-tet -1-fermi 0-gaus

 Electronic relaxation 2 (details)
   IALGO  =     68    algorithm
   LDIAG  =      T    sub-space diagonalisation (order eigenvalues)
   LSUBROT=      F    optimize rotation matrix (better conditioning)
   TURBO    =      0    0=normal 1=particle mesh
   IRESTART =      0    0=no restart 2=restart with 2 vectors
   NREBOOT  =      0    no. of reboots
   NMIN     =      0    reboot dimension
   EREF     =   0.00    reference energy to select bands
   IMIX   =      4    mixing-type and parameters
     AMIX     =   0.40;   BMIX     =  1.00
     AMIX_MAG =   1.60;   BMIX_MAG =  1.00
     AMIN     =   0.10
     WC   =   100.;   INIMIX=   1;  MIXPRE=   1;  MAXMIX= -45

 Intra band minimization:
   WEIMIN = 0.0010     energy-eigenvalue tresh-hold
   EBREAK =  0.82E-09  absolut break condition
   DEPER  =   0.30     relativ break condition  

   TIME   =   0.40     timestep for ELM

  volume/ion in A,a.u.               =      53.49       360.99
  Fermi-wavevector in a.u.,A,eV,Ry     =   0.951418  1.797920 12.315955  0.905197
  Thomas-Fermi vector in A             =   2.079887
 
 Write flags
   LWAVE  =      F    write WAVECAR
   LCHARG =      F    write CHGCAR
   LVTOT  =      F    write LOCPOT, total local potential
   LVHAR  =      F    write LOCPOT, Hartree potential only
   LELF   =      F    write electronic localiz. function (ELF)
   LORBIT =      0    0 simple, 1 ext, 2 COOP (PROOUT)


 Dipole corrections
   LMONO  =      F    monopole corrections only (constant potential shift)
   LDIPOL =      T    correct potential (dipole corrections)
   IDIPOL =      3    1-x, 2-y, 3-z, 4-all directions 
   EPSILON=  1.0000000 bulk dielectric constant

 Exchange correlation treatment:
   GGA     =    PE    GGA type
   LEXCH   =     8    internal setting for exchange type
   VOSKOWN=      1    Vosko Wilk Nusair interpolation
   LHFCALC =     F    Hartree Fock is set to
   LHFONE  =     F    Hartree Fock one center treatment
   AEXX    =    0.0000 exact exchange contribution

 Linear response parameters
   LEPSILON=     F    determine dielectric tensor
   LRPA    =     F    only Hartree local field effects (RPA)
   LNABLA  =     F    use nabla operator in PAW spheres
   LVEL    =     F    velocity operator in full k-point grid
   LINTERFAST=   F  fast interpolation
   KINTER  =     0    interpolate to denser k-point grid
   CSHIFT  =0.1000    complex shift for real part using Kramers Kronig
   OMEGAMAX=  -1.0    maximum frequency
   DEG_THRESHOLD= 0.2000000E-02 threshold for treating states as degnerate
   RTIME   =    0.100 relaxation time in fs

 Orbital magnetization related:
   ORBITALMAG=     F  switch on orbital magnetization
   LCHIMAG   =     F  perturbation theory with respect to B field
   DQ        =  0.001000  dq finite difference perturbation B field



--------------------------------------------------------------------------------------------------------


 conjugate gradient relaxation of ions
 charge density and potential will be updated during run
 non-spin polarized calculation
 RMM-DIIS sequential band-by-band and
  variant of blocked Davidson during initial phase
 perform sub-space diagonalisation
    before iterative eigenvector-optimisation
 modified Broyden-mixing scheme, WC =      100.0
 initial mixing is a Kerker type mixing with AMIX =  0.4000 and BMIX =      1.0000
 Hartree-type preconditioning will be used
 using additional bands           54
 real space projection scheme for non local part
 use partial core corrections
 calculate Harris-corrections to forces 
   (improved forces if not selfconsistent)
 use gradient corrections 
 use of overlap-Matrix (Vanderbilt PP)
 Gauss-broadening in eV      SIGMA  =   0.10


--------------------------------------------------------------------------------------------------------


  energy-cutoff  :      400.00
  volume of cell :     2567.68
      direct lattice vectors                 reciprocal lattice vectors
    11.002581515  0.000000000  0.000000000     0.090887761 -0.052474073  0.000000000
     5.501290758  9.528515099  0.000000000     0.000000000  0.104948147  0.000000000
     0.000000000  0.000000000 24.491785094     0.000000000  0.000000000  0.040830017

  length of vectors
    11.002581515 11.002581515 24.491785094     0.104948147  0.104948147  0.040830017


 
 k-points in units of 2pi/SCALE and weight: Automatic mesh                          
   0.02272194  0.01311852  0.00000000       0.167
   0.00000000  0.02623704  0.00000000       0.167
  -0.02272194  0.01311852  0.00000000       0.167
  -0.02272194  0.03935555  0.00000000       0.167
   0.04544388 -0.05247407  0.00000000       0.167
  -0.02272194  0.06559259  0.00000000       0.167
 
 k-points in reciprocal lattice and weights: Automatic mesh                          
   0.25000000  0.25000000  0.00000000       0.167
   0.00000000  0.25000000  0.00000000       0.167
  -0.25000000  0.00000000  0.00000000       0.167
  -0.25000000  0.25000000  0.00000000       0.167
   0.50000000 -0.25000000  0.00000000       0.167
  -0.25000000  0.50000000  0.00000000       0.167
 
 position of ions in fractional coordinates (direct lattice) 
   0.25000000  0.75000000  0.59169983
   0.50000000  0.00000000  0.59169983
   0.41666667  0.16666667  0.50000000
   0.58333333  0.08333333  0.40830017
   0.50000000  0.50000000  0.59169983
   0.58333333  0.83333333  0.40830017
   0.25000000  0.50000000  0.59169983
   0.16666667  0.66666667  0.50000000
   0.41666667  0.91666667  0.50000000
   0.25000000  0.25000000  0.59169983
   0.50000000  0.75000000  0.59169983
   0.33333333  0.33333333  0.40830017
   0.58333333  0.58333333  0.40830017
   0.25000000  0.00000000  0.59169983
   0.66666667  0.16666667  0.50000000
   0.83333333  0.33333333  0.40830017
   0.66666667  0.41666667  0.50000000
   0.75000000  0.25000000  0.59169983
   0.83333333  0.58333333  0.40830017
   0.08333333  0.58333333  0.40830017
   0.08333333  0.33333333  0.40830017
   0.00000000  0.00000000  0.59169983
   0.83333333  0.83333333  0.40830017
   0.41666667  0.41666667  0.50000000
   0.75000000  0.00000000  0.59169983
   0.66666667  0.66666667  0.50000000
   0.75000000  0.50000000  0.59169983
   0.41666667  0.66666667  0.50000000
   0.83333333  0.08333333  0.40830017
   0.08333333  0.08333333  0.40830017
   0.58333333  0.33333333  0.40830017
   0.91666667  0.16666667  0.50000000
   0.91666667  0.41666667  0.50000000
   0.00000000  0.25000000  0.59169983
   0.91666667  0.66666667  0.50000000
   0.00000000  0.50000000  0.59169983
   0.08333333  0.83333333  0.40830017
   0.91666667  0.91666667  0.50000000
   0.00000000  0.75000000  0.59169983
   0.33333333  0.08333333  0.40830017
   0.16666667  0.16666667  0.50000000
   0.16666667  0.41666667  0.50000000
   0.33333333  0.58333333  0.40830017
   0.33333333  0.83333333  0.40830017
   0.16666667  0.91666667  0.50000000
   0.66666667  0.91666667  0.50000000
   0.50000000  0.25000000  0.59169983
   0.75000000  0.75000000  0.59169983
 
 position of ions in cartesian coordinates  (Angst):
   6.87661345  7.14638632 14.49178509
   5.50129076  0.00000000 14.49178509
   5.50129076  1.58808585 12.24589255
   6.87661345  0.79404292 10.00000000
   8.25193614  4.76425755 14.49178509
  11.00258152  7.94042925 10.00000000
   5.50129076  4.76425755 14.49178509
   5.50129076  6.35234340 12.24589255
   9.62725883  8.73447217 12.24589255
   4.12596807  2.38212877 14.49178509
   9.62725883  7.14638632 14.49178509
   5.50129076  3.17617170 10.00000000
   9.62725883  5.55830047 10.00000000
   2.75064538  0.00000000 14.49178509
   8.25193614  1.58808585 12.24589255
  11.00258152  3.17617170 10.00000000
   9.62725883  3.97021462 12.24589255
   9.62725883  2.38212877 14.49178509
  12.37790420  5.55830047 10.00000000
   4.12596807  5.55830047 10.00000000
   2.75064538  3.17617170 10.00000000
   0.00000000  0.00000000 14.49178509
  13.75322689  7.94042925 10.00000000
   6.87661345  3.97021462 12.24589255
   8.25193614  0.00000000 14.49178509
  11.00258152  6.35234340 12.24589255
  11.00258152  4.76425755 14.49178509
   8.25193614  6.35234340 12.24589255
   9.62725883  0.79404292 10.00000000
   1.37532269  0.79404292 10.00000000
   8.25193614  3.17617170 10.00000000
  11.00258152  1.58808585 12.24589255
  12.37790420  3.97021462 12.24589255
   1.37532269  2.38212877 14.49178509
  13.75322689  6.35234340 12.24589255
   2.75064538  4.76425755 14.49178509
   5.50129076  7.94042925 10.00000000
  15.12854958  8.73447217 12.24589255
   4.12596807  7.14638632 14.49178509
   4.12596807  0.79404292 10.00000000
   2.75064538  1.58808585 12.24589255
   4.12596807  3.97021462 12.24589255
   6.87661345  5.55830047 10.00000000
   8.25193614  7.94042925 10.00000000
   6.87661345  8.73447217 12.24589255
  12.37790420  8.73447217 12.24589255
   6.87661345  2.38212877 14.49178509
  12.37790420  7.14638632 14.49178509
 


--------------------------------------------------------------------------------------------------------


 k-point  1 :   0.2500 0.2500 0.0000  plane waves:   46635
 k-point  2 :   0.0000 0.2500 0.0000  plane waves:   46635
 k-point  3 :  -0.2500 0.0000 0.0000  plane waves:   46635
 k-point  4 :  -0.2500 0.2500 0.0000  plane waves:   46644
 k-point  5 :   0.5000-0.2500 0.0000  plane waves:   46644
 k-point  6 :  -0.2500 0.5000 0.0000  plane waves:   46644

 maximum and minimum number of plane-waves per node :      7818     7732

 maximum number of plane-waves:     46644
 maximum index in each direction: 
   IXMAX=   18   IYMAX=   18   IZMAX=   39
   IXMIN=  -18   IYMIN=  -18   IZMIN=  -39

 WARNING: aliasing errors must be expected set NGX to  74 to avoid them
 WARNING: aliasing errors must be expected set NGY to  74 to avoid them
 WARNING: aliasing errors must be expected set NGZ to 158 to avoid them
 aliasing errors are usually negligible using standard VASP settings
 and one can safely disregard these warnings

 real space projection operators:
  total allocation   :      12803.06 KBytes
  max/ min on nodes  :       2145.66       2127.94


 parallel 3D FFT for wavefunctions:
    minimum data exchange during FFTs selected (reduces bandwidth)
 parallel 3D FFT for charge:
    minimum data exchange during FFTs selected (reduces bandwidth)


 total amount of memory used by VASP on root node    84353. kBytes
========================================================================

   base      :      30000. kBytes
   nonlr-proj:       4285. kBytes
   fftplans  :       4447. kBytes
   grid      :       6721. kBytes
   one-center:        124. kBytes
   wavefun   :      38776. kBytes
 
     INWAV:  cpu time    0.0000: real time    0.0000
 Broyden mixing: mesh for mixing (old mesh)
   NGX = 35   NGY = 35   NGZ = 79
  (NGX  =108   NGY  =108   NGZ  =240)
  gives a total of  96775 points

 initial charge density was supplied:
 charge density of overlapping atoms calculated
 number of electron     504.0000000 magnetization 
 keeping initial charge density in first step


--------------------------------------------------------------------------------------------------------


 Maximum index for non-local projection operator          355
 Maximum index for augmentation-charges          437 (set IRDMAX)


--------------------------------------------------------------------------------------------------------


 First call to EWALD:  gamma=   0.129
 Maximum number of real-space cells 4x 4x 2
 Maximum number of reciprocal cells 2x 2x 5

 FEWALD executed in parallel
    FEWALD:  cpu time    0.0020: real time    0.0020


----------------------------------------- Iteration    1(   1)  ---------------------------------------


    POTLOK:  cpu time    0.0464: real time    0.0466
    SETDIJ:  cpu time    0.0063: real time    0.0063
     EDDAV:  cpu time    6.8592: real time    6.8771
       DOS:  cpu time    0.0014: real time    0.0014
    --------------------------------------------
      LOOP:  cpu time    6.9166: real time    6.9384

 eigenvalue-minimisations  :  3672
 total energy-change (2. order) : 0.3200591E+04  (-0.1898613E+05)
 number of electron     504.0000000 magnetization 
 augmentation part      504.0000000 magnetization 

 DIPCOR: dipole corrections for dipol
 direction  3 min pos     1,
 dipolmoment           0.000000      0.000000      0.000000 electrons x Angstroem
 Tr[quadrupol]    -10355.504643

 energy correction for charged system         0.000000 eV
 dipol+quadrupol energy correction           -0.000000 eV
 added-field ion interaction          0.000000 eV  (added to PSCEN)


 Free energy of the ion-electron system (eV)
  ---------------------------------------------------
  alpha Z        PSCENC =       805.86936429
  Ewald energy   TEWEN  =    199701.97581051
  -Hartree energ DENC   =   -242114.90607704
  -exchange      EXHF   =         0.00000000
  -V(xc)+E(xc)   XCENC  =      -327.75756210
  PAW double counting   =     40340.05962942   -38292.62782345
  entropy T*S    EENTRO =        -0.12828983
  eigenvalues    EBANDS =      1428.32023964
  atomic energy  EATOM  =     41659.78587232
  Solvation  Ediel_sol  =         0.00000000
  ---------------------------------------------------
  free energy    TOTEN  =      3200.59116375 eV

  energy without entropy =     3200.71945359  energy(sigma->0) =     3200.65530867


--------------------------------------------------------------------------------------------------------




----------------------------------------- Iteration    1(   2)  ---------------------------------------


     EDDAV:  cpu time    7.9358: real time    7.9584
       DOS:  cpu time    0.0015: real time    0.0015
    --------------------------------------------
      LOOP:  cpu time    7.9379: real time    7.9622

 eigenvalue-minimisations  :  4356
 total energy-change (2. order) :-0.3186644E+04  (-0.2929198E+04)
 number of electron     504.0000000 magnetization 
 augmentation part      504.0000000 magnetization 

 DIPCOR: dipole corrections for dipol
 direction  3 min pos     1,
 dipolmoment           0.000000      0.000000      0.000000 electrons x Angstroem
 Tr[quadrupol]    -10355.504643

 energy correction for charged system         0.000000 eV
 dipol+quadrupol energy correction           -0.000000 eV
 added-field ion interaction          0.000000 eV  (added to PSCEN)


 Free energy of the ion-electron system (eV)
  ---------------------------------------------------
  alpha Z        PSCENC =       805.86936429
  Ewald energy   TEWEN  =    199701.97581051
  -Hartree energ DENC   =   -242114.90607704
  -exchange      EXHF   =         0.00000000
  -V(xc)+E(xc)   XCENC  =      -327.75756210
  PAW double counting   =     40340.05962942   -38292.62782345
  entropy T*S    EENTRO =        -0.10920086
  eigenvalues    EBANDS =     -1758.34290421
  atomic energy  EATOM  =     41659.78587232
  Solvation  Ediel_sol  =         0.00000000
  ---------------------------------------------------
  free energy    TOTEN  =        13.94710888 eV

  energy without entropy =       14.05630974  energy(sigma->0) =       14.00170931


--------------------------------------------------------------------------------------------------------




----------------------------------------- Iteration    1(   3)  ---------------------------------------


     EDDAV:  cpu time    7.9715: real time    7.9995
       DOS:  cpu time    0.0016: real time    0.0016
    --------------------------------------------
      LOOP:  cpu time    7.9737: real time    8.0032

 eigenvalue-minimisations  :  4140
 total energy-change (2. order) :-0.2159884E+03  (-0.2006624E+03)
 number of electron     504.0000000 magnetization 
 augmentation part      504.0000000 magnetization 

 DIPCOR: dipole corrections for dipol
 direction  3 min pos     1,
 dipolmoment           0.000000      0.000000      0.000000 electrons x Angstroem
 Tr[quadrupol]    -10355.504643

 energy correction for charged system         0.000000 eV
 dipol+quadrupol energy correction           -0.000000 eV
 added-field ion interaction          0.000000 eV  (added to PSCEN)


 Free energy of the ion-electron system (eV)
  ---------------------------------------------------
  alpha Z        PSCENC =       805.86936429
  Ewald energy   TEWEN  =    199701.97581051
  -Hartree energ DENC   =   -242114.90607704
  -exchange      EXHF   =         0.00000000
  -V(xc)+E(xc)   XCENC  =      -327.75756210
  PAW double counting   =     40340.05962942   -38292.62782345
  entropy T*S    EENTRO =        -0.17755362
  eigenvalues    EBANDS =     -1974.26292770
  atomic energy  EATOM  =     41659.78587232
  Solvation  Ediel_sol  =         0.00000000
  ---------------------------------------------------
  free energy    TOTEN  =      -202.04126738 eV

  energy without entropy =     -201.86371376  energy(sigma->0) =     -201.95249057


--------------------------------------------------------------------------------------------------------




----------------------------------------- Iteration    1(   4)  ---------------------------------------


     EDDAV:  cpu time    8.0188: real time    8.0452
       DOS:  cpu time    0.0016: real time    0.0016
    --------------------------------------------
      LOOP:  cpu time    8.0210: real time    8.0506

 eigenvalue-minimisations  :  4164
 total energy-change (2. order) :-0.5865403E+01  (-0.5793390E+01)
 number of electron     504.0000000 magnetization 
 augmentation part      504.0000000 magnetization 

 DIPCOR: dipole corrections for dipol
 direction  3 min pos     1,
 dipolmoment           0.000000      0.000000      0.000000 electrons x Angstroem
 Tr[quadrupol]    -10355.504643

 energy correction for charged system         0.000000 eV
 dipol+quadrupol energy correction           -0.000000 eV
 added-field ion interaction          0.000000 eV  (added to PSCEN)


 Free energy of the ion-electron system (eV)
  ---------------------------------------------------
  alpha Z        PSCENC =       805.86936429
  Ewald energy   TEWEN  =    199701.97581051
  -Hartree energ DENC   =   -242114.90607704
  -exchange      EXHF   =         0.00000000
  -V(xc)+E(xc)   XCENC  =      -327.75756210
  PAW double counting   =     40340.05962942   -38292.62782345
  entropy T*S    EENTRO =        -0.18679875
  eigenvalues    EBANDS =     -1980.11908570
  atomic energy  EATOM  =     41659.78587232
  Solvation  Ediel_sol  =         0.00000000
  ---------------------------------------------------
  free energy    TOTEN  =      -207.90667050 eV

  energy without entropy =     -207.71987175  energy(sigma->0) =     -207.81327113


--------------------------------------------------------------------------------------------------------




----------------------------------------- Iteration    1(   5)  ---------------------------------------


     EDDAV:  cpu time    8.3411: real time    8.4333
       DOS:  cpu time    0.0017: real time    0.0017
    CHARGE:  cpu time    0.2336: real time    0.2367
    MIXING:  cpu time    0.0021: real time    0.0022
    --------------------------------------------
      LOOP:  cpu time    8.5792: real time    8.6776

 eigenvalue-minimisations  :  4416
 total energy-change (2. order) :-0.2040895E+00  (-0.2032892E+00)
 number of electron     503.9998403 magnetization 
 augmentation part      191.2297670 magnetization 

 DIPCOR: dipole corrections for dipol
 direction  3 min pos     1,
 dipolmoment           0.000000      0.000000      0.000000 electrons x Angstroem
 Tr[quadrupol]    -10355.504643

 energy correction for charged system         0.000000 eV
 dipol+quadrupol energy correction           -0.000000 eV
 added-field ion interaction          0.000000 eV  (added to PSCEN)


 Broyden mixing:
  rms(total) = 0.62152E+01    rms(broyden)= 0.62151E+01
  rms(prec ) = 0.63617E+01
  weight for this iteration     100.00

 Free energy of the ion-electron system (eV)
  ---------------------------------------------------
  alpha Z        PSCENC =       805.86936429
  Ewald energy   TEWEN  =    199701.97581051
  -Hartree energ DENC   =   -242114.90607704
  -exchange      EXHF   =         0.00000000
  -V(xc)+E(xc)   XCENC  =      -327.75756210
  PAW double counting   =     40340.05962942   -38292.62782345
  entropy T*S    EENTRO =        -0.18655319
  eigenvalues    EBANDS =     -1980.32342078
  atomic energy  EATOM  =     41659.78587232
  Solvation  Ediel_sol  =         0.00000000
  ---------------------------------------------------
  free energy    TOTEN  =      -208.11076003 eV

  energy without entropy =     -207.92420683  energy(sigma->0) =     -208.01748343


--------------------------------------------------------------------------------------------------------




----------------------------------------- Iteration    1(   6)  ---------------------------------------


    POTLOK:  cpu time    0.0426: real time    0.0427
    SETDIJ:  cpu time    0.0063: real time    0.0063
    EDDIAG:  cpu time    1.2185: real time    1.2214
  RMM-DIIS:  cpu time    3.4126: real time    3.4228
    ORTHCH:  cpu time    0.2910: real time    0.2917
       DOS:  cpu time    0.0016: real time    0.0016
    CHARGE:  cpu time    0.2362: real time    0.2368
    MIXING:  cpu time    0.0020: real time    0.0021
    --------------------------------------------
      LOOP:  cpu time    5.2114: real time    5.2277

 eigenvalue-minimisations  :  3678
 total energy-change (2. order) : 0.4933026E+01  (-0.1043527E+02)
 number of electron     503.9998433 magnetization 
 augmentation part      191.0598796 magnetization 

 DIPCOR: dipole corrections for dipol
 direction  3 min pos     1,
 dipolmoment           0.000000      0.000000      0.003777 electrons x Angstroem
 Tr[quadrupol]    -10358.263837

 energy correction for charged system         0.000000 eV
 dipol+quadrupol energy correction           -0.000001 eV
 added-field ion interaction          0.000000 eV  (added to PSCEN)


 Broyden mixing:
  rms(total) = 0.55642E+01    rms(broyden)= 0.55641E+01
  rms(prec ) = 0.57717E+01
  weight for this iteration     100.00

 eigenvalues of (default mixing * dielectric matrix)
  average eigenvalue GAMMA=   0.6837
  0.6837

 Free energy of the ion-electron system (eV)
  ---------------------------------------------------
  alpha Z        PSCENC =       805.86936378
  Ewald energy   TEWEN  =    199701.97581051
  -Hartree energ DENC   =   -241908.15242934
  -exchange      EXHF   =         0.00000000
  -V(xc)+E(xc)   XCENC  =      -340.64397525
  PAW double counting   =     43896.37070354   -41908.59031581
  entropy T*S    EENTRO =        -0.27928579
  eigenvalues    EBANDS =     -2109.51347787
  atomic energy  EATOM  =     41659.78587232
  Solvation  Ediel_sol  =         0.00000000
  ---------------------------------------------------
  free energy    TOTEN  =      -203.17773391 eV

  energy without entropy =     -202.89844812  energy(sigma->0) =     -203.03809102


--------------------------------------------------------------------------------------------------------




----------------------------------------- Iteration    1(   7)  ---------------------------------------


    POTLOK:  cpu time    0.0414: real time    0.0415
    SETDIJ:  cpu time    0.0053: real time    0.0053
    EDDIAG:  cpu time    1.2171: real time    1.2200
  RMM-DIIS:  cpu time    3.3966: real time    3.4051
    ORTHCH:  cpu time    0.2916: real time    0.2931
       DOS:  cpu time    0.0016: real time    0.0016
    CHARGE:  cpu time    0.2338: real time    0.2344
    MIXING:  cpu time    0.0021: real time    0.0021
    --------------------------------------------
      LOOP:  cpu time    5.1902: real time    5.2058

 eigenvalue-minimisations  :  3683
 total energy-change (2. order) : 0.4720218E+01  (-0.5025678E+01)
 number of electron     503.9998357 magnetization 
 augmentation part      197.2391164 magnetization 

 DIPCOR: dipole corrections for dipol
 direction  3 min pos     1,
 dipolmoment           0.000000      0.000000     -0.079263 electrons x Angstroem
 Tr[quadrupol]    -10355.396255

 energy correction for charged system         0.000000 eV
 dipol+quadrupol energy correction           -0.000221 eV
 added-field ion interaction         -0.000000 eV  (added to PSCEN)


 Broyden mixing:
  rms(total) = 0.36828E+01    rms(broyden)= 0.36825E+01
  rms(prec ) = 0.39161E+01
  weight for this iteration     100.00

 eigenvalues of (default mixing * dielectric matrix)
  average eigenvalue GAMMA=   1.0418
  1.6706  0.4131

 Free energy of the ion-electron system (eV)
  ---------------------------------------------------
  alpha Z        PSCENC =       805.86914290
  Ewald energy   TEWEN  =    199701.97581051
  -Hartree energ DENC   =   -241704.58695502
  -exchange      EXHF   =         0.00000000
  -V(xc)+E(xc)   XCENC  =      -342.78783100
  PAW double counting   =     45247.11894966   -43284.92125462
  entropy T*S    EENTRO =        -0.19256523
  eigenvalues    EBANDS =     -2280.71868496
  atomic energy  EATOM  =     41659.78587232
  Solvation  Ediel_sol  =         0.00000000
  ---------------------------------------------------
  free energy    TOTEN  =      -198.45751545 eV

  energy without entropy =     -198.26495022  energy(sigma->0) =     -198.36123284


--------------------------------------------------------------------------------------------------------




----------------------------------------- Iteration    1(   8)  ---------------------------------------


    POTLOK:  cpu time    0.0420: real time    0.0422
    SETDIJ:  cpu time    0.0058: real time    0.0063
    EDDIAG:  cpu time    1.2266: real time    1.2304
  RMM-DIIS:  cpu time    3.4257: real time    3.4345
    ORTHCH:  cpu time    0.2863: real time    0.2869
       DOS:  cpu time    0.0015: real time    0.0015
    CHARGE:  cpu time    0.2365: real time    0.2371
    MIXING:  cpu time    0.0021: real time    0.0021
    --------------------------------------------
      LOOP:  cpu time    5.2271: real time    5.2447

 eigenvalue-minimisations  :  3678
 total energy-change (2. order) :-0.7631628E+01  (-0.6586133E+01)
 number of electron     503.9998353 magnetization 
 augmentation part      197.3759534 magnetization 

 DIPCOR: dipole corrections for dipol
 direction  3 min pos     1,
 dipolmoment           0.000000      0.000000      0.666013 electrons x Angstroem
 Tr[quadrupol]    -10358.352943

 energy correction for charged system         0.000000 eV
 dipol+quadrupol energy correction           -0.015630 eV
 added-field ion interaction         -0.000000 eV  (added to PSCEN)


 Broyden mixing:
  rms(total) = 0.31971E+01    rms(broyden)= 0.31967E+01
  rms(prec ) = 0.35370E+01
  weight for this iteration     100.00

 eigenvalues of (default mixing * dielectric matrix)
  average eigenvalue GAMMA=   1.0004
  2.1584  0.5044  0.3384

 Free energy of the ion-electron system (eV)
  ---------------------------------------------------
  alpha Z        PSCENC =       805.85373396
  Ewald energy   TEWEN  =    199701.97581051
  -Hartree energ DENC   =   -241751.22994241
  -exchange      EXHF   =         0.00000000
  -V(xc)+E(xc)   XCENC  =      -344.66186558
  PAW double counting   =     47622.13250814   -45690.15912489
  entropy T*S    EENTRO =        -0.25130444
  eigenvalues    EBANDS =     -2209.53483060
  atomic energy  EATOM  =     41659.78587232
  Solvation  Ediel_sol  =         0.00000000
  ---------------------------------------------------
  free energy    TOTEN  =      -206.08914299 eV

  energy without entropy =     -205.83783855  energy(sigma->0) =     -205.96349077


--------------------------------------------------------------------------------------------------------




----------------------------------------- Iteration    1(   9)  ---------------------------------------


    POTLOK:  cpu time    0.0415: real time    0.0416
    SETDIJ:  cpu time    0.0062: real time    0.0062
    EDDIAG:  cpu time    1.2137: real time    1.2183
  RMM-DIIS:  cpu time    3.4230: real time    3.4314
    ORTHCH:  cpu time    0.2862: real time    0.2869
       DOS:  cpu time    0.0015: real time    0.0016
    CHARGE:  cpu time    0.2387: real time    0.2393
    MIXING:  cpu time    0.0022: real time    0.0022
    --------------------------------------------
      LOOP:  cpu time    5.2137: real time    5.2315

 eigenvalue-minimisations  :  3678
 total energy-change (2. order) : 0.5033966E+01  (-0.1631045E+01)
 number of electron     503.9998350 magnetization 
 augmentation part      196.9678826 magnetization 

 DIPCOR: dipole corrections for dipol
 direction  3 min pos     1,
 dipolmoment           0.000000      0.000000     -0.730641 electrons x Angstroem
 Tr[quadrupol]    -10358.656965

 energy correction for charged system         0.000000 eV
 dipol+quadrupol energy correction           -0.018811 eV
 added-field ion interaction          0.000000 eV  (added to PSCEN)


 Broyden mixing:
  rms(total) = 0.28561E+01    rms(broyden)= 0.28558E+01
  rms(prec ) = 0.34893E+01
  weight for this iteration     100.00

 eigenvalues of (default mixing * dielectric matrix)
  average eigenvalue GAMMA=   0.8449
  2.2318  0.4895  0.3292  0.3292

 Free energy of the ion-electron system (eV)
  ---------------------------------------------------
  alpha Z        PSCENC =       805.85055331
  Ewald energy   TEWEN  =    199701.97581051
  -Hartree energ DENC   =   -241758.15974391
  -exchange      EXHF   =         0.00000000
  -V(xc)+E(xc)   XCENC  =      -345.21714469
  PAW double counting   =     48853.50924917   -46935.87566055
  entropy T*S    EENTRO =        -0.23320651
  eigenvalues    EBANDS =     -2182.69090706
  atomic energy  EATOM  =     41659.78587232
  Solvation  Ediel_sol  =         0.00000000
  ---------------------------------------------------
  free energy    TOTEN  =      -201.05517741 eV

  energy without entropy =     -200.82197090  energy(sigma->0) =     -200.93857415


--------------------------------------------------------------------------------------------------------




----------------------------------------- Iteration    1(  10)  ---------------------------------------


    POTLOK:  cpu time    0.0408: real time    0.0409
    SETDIJ:  cpu time    0.0054: real time    0.0055
    EDDIAG:  cpu time    1.2087: real time    1.2133
  RMM-DIIS:  cpu time    3.3962: real time    3.4055
    ORTHCH:  cpu time    0.2862: real time    0.2869
       DOS:  cpu time    0.0015: real time    0.0015
    CHARGE:  cpu time    0.2337: real time    0.2343
    MIXING:  cpu time    0.0023: real time    0.0023
    --------------------------------------------
      LOOP:  cpu time    5.1755: real time    5.1928

 eigenvalue-minimisations  :  3680
 total energy-change (2. order) : 0.6930974E+01  (-0.1248207E+01)
 number of electron     503.9998350 magnetization 
 augmentation part      197.9603384 magnetization 

 DIPCOR: dipole corrections for dipol
 direction  3 min pos     1,
 dipolmoment           0.000000      0.000000      0.323436 electrons x Angstroem
 Tr[quadrupol]    -10358.949180

 energy correction for charged system         0.000000 eV
 dipol+quadrupol energy correction           -0.003686 eV
 added-field ion interaction          0.000000 eV  (added to PSCEN)


 Broyden mixing:
  rms(total) = 0.15482E+01    rms(broyden)= 0.15478E+01
  rms(prec ) = 0.18104E+01
  weight for this iteration     100.00

 eigenvalues of (default mixing * dielectric matrix)
  average eigenvalue GAMMA=   0.7955
  2.2432  0.5800  0.5800  0.3861  0.1882

 Free energy of the ion-electron system (eV)
  ---------------------------------------------------
  alpha Z        PSCENC =       805.86567809
  Ewald energy   TEWEN  =    199701.97581051
  -Hartree energ DENC   =   -241770.17583769
  -exchange      EXHF   =         0.00000000
  -V(xc)+E(xc)   XCENC  =      -345.25123197
  PAW double counting   =     49036.16992627   -47120.57281729
  entropy T*S    EENTRO =        -0.22970393
  eigenvalues    EBANDS =     -2161.69189929
  atomic energy  EATOM  =     41659.78587232
  Solvation  Ediel_sol  =         0.00000000
  ---------------------------------------------------
  free energy    TOTEN  =      -194.12420297 eV

  energy without entropy =     -193.89449904  energy(sigma->0) =     -194.00935100


--------------------------------------------------------------------------------------------------------




----------------------------------------- Iteration    1(  11)  ---------------------------------------


    POTLOK:  cpu time    0.0411: real time    0.0421
    SETDIJ:  cpu time    0.0055: real time    0.0055
    EDDIAG:  cpu time    1.2117: real time    1.2146
  RMM-DIIS:  cpu time    3.3908: real time    3.4022
    ORTHCH:  cpu time    0.2870: real time    0.2877
       DOS:  cpu time    0.0016: real time    0.0016
    CHARGE:  cpu time    0.2323: real time    0.2329
    MIXING:  cpu time    0.0024: real time    0.0024
    --------------------------------------------
      LOOP:  cpu time    5.1730: real time    5.1913

 eigenvalue-minimisations  :  3680
 total energy-change (2. order) : 0.2755590E+01  (-0.6690536E+00)
 number of electron     503.9998352 magnetization 
 augmentation part      197.5768114 magnetization 

 DIPCOR: dipole corrections for dipol
 direction  3 min pos     1,
 dipolmoment           0.000000      0.000000      0.154368 electrons x Angstroem
 Tr[quadrupol]    -10358.602513

 energy correction for charged system         0.000000 eV
 dipol+quadrupol energy correction           -0.000840 eV
 added-field ion interaction          0.000000 eV  (added to PSCEN)


 Broyden mixing:
  rms(total) = 0.14920E+01    rms(broyden)= 0.14918E+01
  rms(prec ) = 0.17516E+01
  weight for this iteration     100.00

 eigenvalues of (default mixing * dielectric matrix)
  average eigenvalue GAMMA=   0.7299
  2.2734  0.6384  0.6384  0.3746  0.2274  0.2274

 Free energy of the ion-electron system (eV)
  ---------------------------------------------------
  alpha Z        PSCENC =       805.86852459
  Ewald energy   TEWEN  =    199701.97581051
  -Hartree energ DENC   =   -241777.39581710
  -exchange      EXHF   =         0.00000000
  -V(xc)+E(xc)   XCENC  =      -344.74246675
  PAW double counting   =     49155.92736294   -47239.54635532
  entropy T*S    EENTRO =        -0.18954447
  eigenvalues    EBANDS =     -2153.05199938
  atomic energy  EATOM  =     41659.78587232
  Solvation  Ediel_sol  =         0.00000000
  ---------------------------------------------------
  free energy    TOTEN  =      -191.36861267 eV

  energy without entropy =     -191.17906820  energy(sigma->0) =     -191.27384044


--------------------------------------------------------------------------------------------------------




----------------------------------------- Iteration    1(  12)  ---------------------------------------


    POTLOK:  cpu time    0.0413: real time    0.0419
    SETDIJ:  cpu time    0.0054: real time    0.0055
    EDDIAG:  cpu time    1.2178: real time    1.2208
  RMM-DIIS:  cpu time    3.4135: real time    3.4218
    ORTHCH:  cpu time    0.2863: real time    0.2870
       DOS:  cpu time    0.0015: real time    0.0015
    CHARGE:  cpu time    0.2359: real time    0.2364
    MIXING:  cpu time    0.0025: real time    0.0025
    --------------------------------------------
      LOOP:  cpu time    5.2048: real time    5.2194

 eigenvalue-minimisations  :  3679
 total energy-change (2. order) : 0.1337090E+01  (-0.3324746E+00)
 number of electron     503.9998358 magnetization 
 augmentation part      197.4410011 magnetization 

 DIPCOR: dipole corrections for dipol
 direction  3 min pos     1,
 dipolmoment           0.000000      0.000000      0.059640 electrons x Angstroem
 Tr[quadrupol]    -10359.067976

 energy correction for charged system         0.000000 eV
 dipol+quadrupol energy correction           -0.000125 eV
 added-field ion interaction         -0.000000 eV  (added to PSCEN)


 Broyden mixing:
  rms(total) = 0.76573E+00    rms(broyden)= 0.76546E+00
  rms(prec ) = 0.84751E+00
  weight for this iteration     100.00

 eigenvalues of (default mixing * dielectric matrix)
  average eigenvalue GAMMA=   0.7003
  2.2718  0.6945  0.5744  0.5744  0.3771  0.2048  0.2048

 Free energy of the ion-electron system (eV)
  ---------------------------------------------------
  alpha Z        PSCENC =       805.86923895
  Ewald energy   TEWEN  =    199701.97581051
  -Hartree energ DENC   =   -241800.78748760
  -exchange      EXHF   =         0.00000000
  -V(xc)+E(xc)   XCENC  =      -344.57454030
  PAW double counting   =     49226.58186415   -47309.81876874
  entropy T*S    EENTRO =        -0.23004736
  eigenvalues    EBANDS =     -2128.83346488
  atomic energy  EATOM  =     41659.78587232
  Solvation  Ediel_sol  =         0.00000000
  ---------------------------------------------------
  free energy    TOTEN  =      -190.03152296 eV

  energy without entropy =     -189.80147560  energy(sigma->0) =     -189.91649928


--------------------------------------------------------------------------------------------------------




----------------------------------------- Iteration    1(  13)  ---------------------------------------


    POTLOK:  cpu time    0.0407: real time    0.0411
    SETDIJ:  cpu time    0.0055: real time    0.0055
    EDDIAG:  cpu time    1.2129: real time    1.2162
  RMM-DIIS:  cpu time    3.3584: real time    3.3937
    ORTHCH:  cpu time    0.2767: real time    0.3015
       DOS:  cpu time    0.0016: real time    0.0016
    CHARGE:  cpu time    0.2435: real time    0.2676
    MIXING:  cpu time    0.0027: real time    0.0028
    --------------------------------------------
      LOOP:  cpu time    5.1426: real time    5.2328

 eigenvalue-minimisations  :  3678
 total energy-change (2. order) : 0.5364865E+00  (-0.1079727E+00)
 number of electron     503.9998361 magnetization 
 augmentation part      197.2766132 magnetization 

 DIPCOR: dipole corrections for dipol
 direction  3 min pos     1,
 dipolmoment           0.000000      0.000000      0.007339 electrons x Angstroem
 Tr[quadrupol]    -10359.205776

 energy correction for charged system         0.000000 eV
 dipol+quadrupol energy correction           -0.000002 eV
 added-field ion interaction          0.000000 eV  (added to PSCEN)


 Broyden mixing:
  rms(total) = 0.59911E+00    rms(broyden)= 0.59901E+00
  rms(prec ) = 0.65670E+00
  weight for this iteration     100.00

 eigenvalues of (default mixing * dielectric matrix)
  average eigenvalue GAMMA=   0.6982
  2.2630  0.7812  0.7440  0.7440  0.3254  0.2921  0.2181  0.2181

 Free energy of the ion-electron system (eV)
  ---------------------------------------------------
  alpha Z        PSCENC =       805.86936239
  Ewald energy   TEWEN  =    199701.97581051
  -Hartree energ DENC   =   -241811.15772412
  -exchange      EXHF   =         0.00000000
  -V(xc)+E(xc)   XCENC  =      -344.42112422
  PAW double counting   =     49251.15874878   -47333.67302221
  entropy T*S    EENTRO =        -0.24042017
  eigenvalues    EBANDS =     -2118.79253971
  atomic energy  EATOM  =     41659.78587232
  Solvation  Ediel_sol  =         0.00000000
  ---------------------------------------------------
  free energy    TOTEN  =      -189.49503644 eV

  energy without entropy =     -189.25461626  energy(sigma->0) =     -189.37482635


--------------------------------------------------------------------------------------------------------




----------------------------------------- Iteration    1(  14)  ---------------------------------------


    POTLOK:  cpu time    0.0405: real time    0.0423
    SETDIJ:  cpu time    0.0055: real time    0.0056
    EDDIAG:  cpu time    1.2072: real time    1.2160
  RMM-DIIS:  cpu time    3.3512: real time    3.3593
    ORTHCH:  cpu time    0.2849: real time    0.2856
       DOS:  cpu time    0.0016: real time    0.0016
    CHARGE:  cpu time    0.2341: real time    0.2347
    MIXING:  cpu time    0.0030: real time    0.0030
    --------------------------------------------
      LOOP:  cpu time    5.1287: real time    5.1506

 eigenvalue-minimisations  :  3678
 total energy-change (2. order) : 0.2131475E+00  (-0.4289305E-01)
 number of electron     503.9998362 magnetization 
 augmentation part      197.0862915 magnetization 

 DIPCOR: dipole corrections for dipol
 direction  3 min pos     1,
 dipolmoment           0.000000      0.000000     -0.022885 electrons x Angstroem
 Tr[quadrupol]    -10359.394750

 energy correction for charged system         0.000000 eV
 dipol+quadrupol energy correction           -0.000018 eV
 added-field ion interaction          0.000000 eV  (added to PSCEN)


 Broyden mixing:
  rms(total) = 0.42199E+00    rms(broyden)= 0.42190E+00
  rms(prec ) = 0.46359E+00
  weight for this iteration     100.00

 eigenvalues of (default mixing * dielectric matrix)
  average eigenvalue GAMMA=   0.6877
  2.2402  0.8573  0.8573  0.7749  0.3817  0.3817  0.2801  0.2083  0.2083

 Free energy of the ion-electron system (eV)
  ---------------------------------------------------
  alpha Z        PSCENC =       805.86934583
  Ewald energy   TEWEN  =    199701.97581051
  -Hartree energ DENC   =   -241823.26374894
  -exchange      EXHF   =         0.00000000
  -V(xc)+E(xc)   XCENC  =      -344.23167706
  PAW double counting   =     49269.02741763   -47350.49676786
  entropy T*S    EENTRO =        -0.24104795
  eigenvalues    EBANDS =     -2107.70709340
  atomic energy  EATOM  =     41659.78587232
  Solvation  Ediel_sol  =         0.00000000
  ---------------------------------------------------
  free energy    TOTEN  =      -189.28188893 eV

  energy without entropy =     -189.04084097  energy(sigma->0) =     -189.16136495


--------------------------------------------------------------------------------------------------------




----------------------------------------- Iteration    1(  15)  ---------------------------------------


    POTLOK:  cpu time    0.0415: real time    0.0417
    SETDIJ:  cpu time    0.0056: real time    0.0056
    EDDIAG:  cpu time    1.2103: real time    1.2146
  RMM-DIIS:  cpu time    3.4258: real time    3.4361
    ORTHCH:  cpu time    0.2845: real time    0.2852
       DOS:  cpu time    0.0015: real time    0.0015
    CHARGE:  cpu time    0.2323: real time    0.2328
    MIXING:  cpu time    0.0031: real time    0.0031
    --------------------------------------------
      LOOP:  cpu time    5.2053: real time    5.2240

 eigenvalue-minimisations  :  3679
 total energy-change (2. order) : 0.5241452E-01  (-0.1531684E-01)
 number of electron     503.9998363 magnetization 
 augmentation part      197.0301618 magnetization 

 DIPCOR: dipole corrections for dipol
 direction  3 min pos     1,
 dipolmoment           0.000000      0.000000     -0.053675 electrons x Angstroem
 Tr[quadrupol]    -10359.504123

 energy correction for charged system         0.000000 eV
 dipol+quadrupol energy correction           -0.000102 eV
 added-field ion interaction          0.000000 eV  (added to PSCEN)


 Broyden mixing:
  rms(total) = 0.34573E+00    rms(broyden)= 0.34568E+00
  rms(prec ) = 0.38622E+00
  weight for this iteration     100.00

 eigenvalues of (default mixing * dielectric matrix)
  average eigenvalue GAMMA=   0.6995
  2.2006  1.0814  1.0814  0.7589  0.4615  0.4615  0.3018  0.2132  0.2132  0.2216

 Free energy of the ion-electron system (eV)
  ---------------------------------------------------
  alpha Z        PSCENC =       805.86926277
  Ewald energy   TEWEN  =    199701.97581051
  -Hartree energ DENC   =   -241829.79925442
  -exchange      EXHF   =         0.00000000
  -V(xc)+E(xc)   XCENC  =      -344.12516638
  PAW double counting   =     49267.19006404   -47347.94138310
  entropy T*S    EENTRO =        -0.25182404
  eigenvalues    EBANDS =     -2101.93285612
  atomic energy  EATOM  =     41659.78587232
  Solvation  Ediel_sol  =         0.00000000
  ---------------------------------------------------
  free energy    TOTEN  =      -189.22947441 eV

  energy without entropy =     -188.97765037  energy(sigma->0) =     -189.10356239


--------------------------------------------------------------------------------------------------------




----------------------------------------- Iteration    1(  16)  ---------------------------------------


    POTLOK:  cpu time    0.0412: real time    0.0414
    SETDIJ:  cpu time    0.0056: real time    0.0057
    EDDIAG:  cpu time    1.2116: real time    1.2155
  RMM-DIIS:  cpu time    3.4256: real time    3.4340
    ORTHCH:  cpu time    0.2845: real time    0.2852
       DOS:  cpu time    0.0016: real time    0.0016
    CHARGE:  cpu time    0.2361: real time    0.2367
    MIXING:  cpu time    0.0031: real time    0.0031
    --------------------------------------------
      LOOP:  cpu time    5.2100: real time    5.2263

 eigenvalue-minimisations  :  3679
 total energy-change (2. order) : 0.5430221E-01  (-0.1372813E-01)
 number of electron     503.9998362 magnetization 
 augmentation part      196.9853148 magnetization 

 DIPCOR: dipole corrections for dipol
 direction  3 min pos     1,
 dipolmoment           0.000000      0.000000     -0.002813 electrons x Angstroem
 Tr[quadrupol]    -10359.620300

 energy correction for charged system         0.000000 eV
 dipol+quadrupol energy correction           -0.000000 eV
 added-field ion interaction          0.000000 eV  (added to PSCEN)


 Broyden mixing:
  rms(total) = 0.27327E+00    rms(broyden)= 0.27322E+00
  rms(prec ) = 0.29642E+00
  weight for this iteration     100.00

 eigenvalues of (default mixing * dielectric matrix)
  average eigenvalue GAMMA=   0.7269
  2.1945  1.3788  1.3788  0.7091  0.5321  0.5321  0.3455  0.3114  0.2085  0.2085
  0.1962

 Free energy of the ion-electron system (eV)
  ---------------------------------------------------
  alpha Z        PSCENC =       805.86936401
  Ewald energy   TEWEN  =    199701.97581051
  -Hartree energ DENC   =   -241836.97417634
  -exchange      EXHF   =         0.00000000
  -V(xc)+E(xc)   XCENC  =      -343.99509793
  PAW double counting   =     49263.18325176   -47343.03022834
  entropy T*S    EENTRO =        -0.25785147
  eigenvalues    EBANDS =     -2095.73211672
  atomic energy  EATOM  =     41659.78587232
  Solvation  Ediel_sol  =         0.00000000
  ---------------------------------------------------
  free energy    TOTEN  =      -189.17517220 eV

  energy without entropy =     -188.91732072  energy(sigma->0) =     -189.04624646


--------------------------------------------------------------------------------------------------------




----------------------------------------- Iteration    1(  17)  ---------------------------------------


    POTLOK:  cpu time    0.0410: real time    0.0411
    SETDIJ:  cpu time    0.0054: real time    0.0054
    EDDIAG:  cpu time    1.2117: real time    1.2146
  RMM-DIIS:  cpu time    3.4406: real time    3.4498
    ORTHCH:  cpu time    0.2844: real time    0.2851
       DOS:  cpu time    0.0015: real time    0.0015
    CHARGE:  cpu time    0.2361: real time    0.2367
    MIXING:  cpu time    0.0032: real time    0.0032
    --------------------------------------------
      LOOP:  cpu time    5.2245: real time    5.2397

 eigenvalue-minimisations  :  3679
 total energy-change (2. order) :-0.1689500E-01  (-0.1222299E-01)
 number of electron     503.9998362 magnetization 
 augmentation part      197.0033510 magnetization 

 DIPCOR: dipole corrections for dipol
 direction  3 min pos     1,
 dipolmoment           0.000000      0.000000      0.013395 electrons x Angstroem
 Tr[quadrupol]    -10359.870017

 energy correction for charged system         0.000000 eV
 dipol+quadrupol energy correction           -0.000006 eV
 added-field ion interaction         -0.000000 eV  (added to PSCEN)


 Broyden mixing:
  rms(total) = 0.26360E+00    rms(broyden)= 0.26355E+00
  rms(prec ) = 0.29742E+00
  weight for this iteration     100.00

 eigenvalues of (default mixing * dielectric matrix)
  average eigenvalue GAMMA=   0.7456
  2.1965  1.5450  1.5450  0.7864  0.6452  0.6452  0.3520  0.3520  0.2658  0.2120
  0.2120  0.1898

 Free energy of the ion-electron system (eV)
  ---------------------------------------------------
  alpha Z        PSCENC =       805.86935796
  Ewald energy   TEWEN  =    199701.97581051
  -Hartree energ DENC   =   -241847.47079000
  -exchange      EXHF   =         0.00000000
  -V(xc)+E(xc)   XCENC  =      -343.90958975
  PAW double counting   =     49274.10495244   -47353.31956247
  entropy T*S    EENTRO =        -0.25623116
  eigenvalues    EBANDS =     -2085.97188705
  atomic energy  EATOM  =     41659.78587232
  Solvation  Ediel_sol  =         0.00000000
  ---------------------------------------------------
  free energy    TOTEN  =      -189.19206720 eV

  energy without entropy =     -188.93583604  energy(sigma->0) =     -189.06395162


--------------------------------------------------------------------------------------------------------




----------------------------------------- Iteration    1(  18)  ---------------------------------------


    POTLOK:  cpu time    0.0415: real time    0.0421
    SETDIJ:  cpu time    0.0054: real time    0.0054
    EDDIAG:  cpu time    1.2063: real time    1.2106
  RMM-DIIS:  cpu time    3.4415: real time    3.4511
    ORTHCH:  cpu time    0.2850: real time    0.2857
       DOS:  cpu time    0.0015: real time    0.0015
    CHARGE:  cpu time    0.2339: real time    0.2345
    MIXING:  cpu time    0.0034: real time    0.0034
    --------------------------------------------
      LOOP:  cpu time    5.2192: real time    5.2369

 eigenvalue-minimisations  :  3680
 total energy-change (2. order) : 0.3181942E-01  (-0.5073528E-02)
 number of electron     503.9998362 magnetization 
 augmentation part      197.0145448 magnetization 

 DIPCOR: dipole corrections for dipol
 direction  3 min pos     1,
 dipolmoment           0.000000      0.000000      0.012009 electrons x Angstroem
 Tr[quadrupol]    -10360.077369

 energy correction for charged system         0.000000 eV
 dipol+quadrupol energy correction           -0.000005 eV
 added-field ion interaction          0.000000 eV  (added to PSCEN)


 Broyden mixing:
  rms(total) = 0.17944E+00    rms(broyden)= 0.17942E+00
  rms(prec ) = 0.20941E+00
  weight for this iteration     100.00

 eigenvalues of (default mixing * dielectric matrix)
  average eigenvalue GAMMA=   0.7409
  2.2463  1.5984  1.5984  0.7515  0.7515  0.6991  0.3983  0.3983  0.3247  0.2571
  0.2108  0.2108  0.1869

 Free energy of the ion-electron system (eV)
  ---------------------------------------------------
  alpha Z        PSCENC =       805.86935920
  Ewald energy   TEWEN  =    199701.97581051
  -Hartree energ DENC   =   -241856.46188036
  -exchange      EXHF   =         0.00000000
  -V(xc)+E(xc)   XCENC  =      -343.82899303
  PAW double counting   =     49291.69631406   -47370.47743256
  entropy T*S    EENTRO =        -0.26211836
  eigenvalues    EBANDS =     -2077.45717957
  atomic energy  EATOM  =     41659.78587232
  Solvation  Ediel_sol  =         0.00000000
  ---------------------------------------------------
  free energy    TOTEN  =      -189.16024778 eV

  energy without entropy =     -188.89812943  energy(sigma->0) =     -189.02918860


--------------------------------------------------------------------------------------------------------




----------------------------------------- Iteration    1(  19)  ---------------------------------------


    POTLOK:  cpu time    0.0418: real time    0.0420
    SETDIJ:  cpu time    0.0057: real time    0.0057
    EDDIAG:  cpu time    1.2070: real time    1.2099
  RMM-DIIS:  cpu time    3.4093: real time    3.4179
    ORTHCH:  cpu time    0.2843: real time    0.2850
       DOS:  cpu time    0.0015: real time    0.0015
    CHARGE:  cpu time    0.2329: real time    0.2335
    MIXING:  cpu time    0.0035: real time    0.0035
    --------------------------------------------
      LOOP:  cpu time    5.1867: real time    5.2016

 eigenvalue-minimisations  :  3680
 total energy-change (2. order) : 0.2469443E-01  (-0.3011396E-02)
 number of electron     503.9998362 magnetization 
 augmentation part      197.0208175 magnetization 

 DIPCOR: dipole corrections for dipol
 direction  3 min pos     1,
 dipolmoment           0.000000      0.000000      0.011352 electrons x Angstroem
 Tr[quadrupol]    -10360.183727

 energy correction for charged system         0.000000 eV
 dipol+quadrupol energy correction           -0.000005 eV
 added-field ion interaction          0.000000 eV  (added to PSCEN)


 Broyden mixing:
  rms(total) = 0.94416E-01    rms(broyden)= 0.94394E-01
  rms(prec ) = 0.10901E+00
  weight for this iteration     100.00

 eigenvalues of (default mixing * dielectric matrix)
  average eigenvalue GAMMA=   0.7485
  2.1797  2.1797  1.2878  0.8939  0.8939  0.5729  0.5729  0.4110  0.3422  0.2108
  0.2108  0.2827  0.2542  0.1866

 Free energy of the ion-electron system (eV)
  ---------------------------------------------------
  alpha Z        PSCENC =       805.86935975
  Ewald energy   TEWEN  =    199701.97581051
  -Hartree energ DENC   =   -241860.79352447
  -exchange      EXHF   =         0.00000000
  -V(xc)+E(xc)   XCENC  =      -343.81222470
  PAW double counting   =     49298.88492214   -47377.60760131
  entropy T*S    EENTRO =        -0.25924456
  eigenvalues    EBANDS =     -2073.17892302
  atomic energy  EATOM  =     41659.78587232
  Solvation  Ediel_sol  =         0.00000000
  ---------------------------------------------------
  free energy    TOTEN  =      -189.13555336 eV

  energy without entropy =     -188.87630880  energy(sigma->0) =     -189.00593108


--------------------------------------------------------------------------------------------------------




----------------------------------------- Iteration    1(  20)  ---------------------------------------


    POTLOK:  cpu time    0.0411: real time    0.0412
    SETDIJ:  cpu time    0.0053: real time    0.0053
    EDDIAG:  cpu time    1.2094: real time    1.2124
  RMM-DIIS:  cpu time    3.4169: real time    3.4255
    ORTHCH:  cpu time    0.2842: real time    0.2849
       DOS:  cpu time    0.0016: real time    0.0016
    CHARGE:  cpu time    0.2363: real time    0.2369
    MIXING:  cpu time    0.0037: real time    0.0037
    --------------------------------------------
      LOOP:  cpu time    5.1991: real time    5.2138

 eigenvalue-minimisations  :  3679
 total energy-change (2. order) : 0.8314084E-02  (-0.1309748E-02)
 number of electron     503.9998362 magnetization 
 augmentation part      197.0119144 magnetization 

 DIPCOR: dipole corrections for dipol
 direction  3 min pos     1,
 dipolmoment           0.000000      0.000000     -0.001997 electrons x Angstroem
 Tr[quadrupol]    -10360.282061

 energy correction for charged system         0.000000 eV
 dipol+quadrupol energy correction           -0.000000 eV
 added-field ion interaction          0.000000 eV  (added to PSCEN)


 Broyden mixing:
  rms(total) = 0.54359E-01    rms(broyden)= 0.54340E-01
  rms(prec ) = 0.62475E-01
  weight for this iteration     100.00

 eigenvalues of (default mixing * dielectric matrix)
  average eigenvalue GAMMA=   0.7336
  2.2182  2.2182  1.2551  0.9642  0.9642  0.5687  0.5687  0.4444  0.3772  0.2973
  0.2973  0.2108  0.2108  0.2226  0.1868

 Free energy of the ion-electron system (eV)
  ---------------------------------------------------
  alpha Z        PSCENC =       805.86936415
  Ewald energy   TEWEN  =    199701.97581051
  -Hartree energ DENC   =   -241865.53585642
  -exchange      EXHF   =         0.00000000
  -V(xc)+E(xc)   XCENC  =      -343.77344699
  PAW double counting   =     49301.27536812   -47379.79877139
  entropy T*S    EENTRO =        -0.26065076
  eigenvalues    EBANDS =     -2068.66492881
  atomic energy  EATOM  =     41659.78587232
  Solvation  Ediel_sol  =         0.00000000
  ---------------------------------------------------
  free energy    TOTEN  =      -189.12723927 eV

  energy without entropy =     -188.86658851  energy(sigma->0) =     -188.99691389


--------------------------------------------------------------------------------------------------------




----------------------------------------- Iteration    1(  21)  ---------------------------------------


    POTLOK:  cpu time    0.0412: real time    0.0413
    SETDIJ:  cpu time    0.0054: real time    0.0054
    EDDIAG:  cpu time    1.2103: real time    1.2133
  RMM-DIIS:  cpu time    3.3401: real time    3.4368
    ORTHCH:  cpu time    0.2849: real time    0.2855
       DOS:  cpu time    0.0015: real time    0.0016
    CHARGE:  cpu time    0.2363: real time    0.2368
    MIXING:  cpu time    0.0039: real time    0.0039
    --------------------------------------------
      LOOP:  cpu time    5.1243: real time    5.2286

 eigenvalue-minimisations  :  3680
 total energy-change (2. order) : 0.2508989E-02  (-0.2769849E-03)
 number of electron     503.9998362 magnetization 
 augmentation part      197.0061792 magnetization 

 DIPCOR: dipole corrections for dipol
 direction  3 min pos     1,
 dipolmoment           0.000000      0.000000     -0.003565 electrons x Angstroem
 Tr[quadrupol]    -10360.330463

 energy correction for charged system         0.000000 eV
 dipol+quadrupol energy correction           -0.000000 eV
 added-field ion interaction          0.000000 eV  (added to PSCEN)


 Broyden mixing:
  rms(total) = 0.36334E-01    rms(broyden)= 0.36328E-01
  rms(prec ) = 0.43802E-01
  weight for this iteration     100.00

 eigenvalues of (default mixing * dielectric matrix)
  average eigenvalue GAMMA=   0.7348
  2.2892  2.0880  1.3355  1.0404  1.0404  0.6285  0.5873  0.5873  0.3713  0.3713
  0.3132  0.2109  0.2109  0.2588  0.2377  0.1866

 Free energy of the ion-electron system (eV)
  ---------------------------------------------------
  alpha Z        PSCENC =       805.86936384
  Ewald energy   TEWEN  =    199701.97581051
  -Hartree energ DENC   =   -241867.56140632
  -exchange      EXHF   =         0.00000000
  -V(xc)+E(xc)   XCENC  =      -343.76586267
  PAW double counting   =     49303.24840770   -47381.77080149
  entropy T*S    EENTRO =        -0.25913357
  eigenvalues    EBANDS =     -2066.64698060
  atomic energy  EATOM  =     41659.78587232
  Solvation  Ediel_sol  =         0.00000000
  ---------------------------------------------------
  free energy    TOTEN  =      -189.12473028 eV

  energy without entropy =     -188.86559671  energy(sigma->0) =     -188.99516350


--------------------------------------------------------------------------------------------------------




----------------------------------------- Iteration    1(  22)  ---------------------------------------


    POTLOK:  cpu time    0.0414: real time    0.0415
    SETDIJ:  cpu time    0.0061: real time    0.0063
    EDDIAG:  cpu time    1.2071: real time    1.2116
  RMM-DIIS:  cpu time    3.3658: real time    3.3739
    ORTHCH:  cpu time    0.2847: real time    0.2854
       DOS:  cpu time    0.0015: real time    0.0015
    CHARGE:  cpu time    0.2339: real time    0.2345
    MIXING:  cpu time    0.0040: real time    0.0040
    --------------------------------------------
      LOOP:  cpu time    5.1453: real time    5.1608

 eigenvalue-minimisations  :  3684
 total energy-change (2. order) : 0.8686087E-03  (-0.7306012E-04)
 number of electron     503.9998362 magnetization 
 augmentation part      197.0078812 magnetization 

 DIPCOR: dipole corrections for dipol
 direction  3 min pos     1,
 dipolmoment           0.000000      0.000000      0.000731 electrons x Angstroem
 Tr[quadrupol]    -10360.390154

 energy correction for charged system         0.000000 eV
 dipol+quadrupol energy correction           -0.000000 eV
 added-field ion interaction          0.000000 eV  (added to PSCEN)


 Broyden mixing:
  rms(total) = 0.25089E-01    rms(broyden)= 0.25086E-01
  rms(prec ) = 0.29236E-01
  weight for this iteration     100.00

 eigenvalues of (default mixing * dielectric matrix)
  average eigenvalue GAMMA=   0.7429
  2.3564  1.8944  1.3889  1.1799  1.1799  0.7096  0.6625  0.6625  0.4356  0.4356
  0.3120  0.3120  0.2109  0.2109  0.2641  0.1866  0.2281

 Free energy of the ion-electron system (eV)
  ---------------------------------------------------
  alpha Z        PSCENC =       805.86936427
  Ewald energy   TEWEN  =    199701.97581051
  -Hartree energ DENC   =   -241869.87044778
  -exchange      EXHF   =         0.00000000
  -V(xc)+E(xc)   XCENC  =      -343.76469023
  PAW double counting   =     49305.11897454   -47383.69580177
  entropy T*S    EENTRO =        -0.25915669
  eigenvalues    EBANDS =     -2064.28378684
  atomic energy  EATOM  =     41659.78587232
  Solvation  Ediel_sol  =         0.00000000
  ---------------------------------------------------
  free energy    TOTEN  =      -189.12386167 eV

  energy without entropy =     -188.86470498  energy(sigma->0) =     -188.99428333


--------------------------------------------------------------------------------------------------------




----------------------------------------- Iteration    1(  23)  ---------------------------------------


    POTLOK:  cpu time    0.0416: real time    0.0417
    SETDIJ:  cpu time    0.0055: real time    0.0055
    EDDIAG:  cpu time    1.2062: real time    1.2116
  RMM-DIIS:  cpu time    3.3459: real time    3.3879
    ORTHCH:  cpu time    0.2851: real time    0.2857
       DOS:  cpu time    0.0016: real time    0.0016
    CHARGE:  cpu time    0.2332: real time    0.2338
    MIXING:  cpu time    0.0042: real time    0.0042
    --------------------------------------------
      LOOP:  cpu time    5.1240: real time    5.1744

 eigenvalue-minimisations  :  3680
 total energy-change (2. order) : 0.2530714E-03  (-0.6568014E-04)
 number of electron     503.9998362 magnetization 
 augmentation part      197.0102187 magnetization 

 DIPCOR: dipole corrections for dipol
 direction  3 min pos     1,
 dipolmoment           0.000000      0.000000      0.002454 electrons x Angstroem
 Tr[quadrupol]    -10360.459486

 energy correction for charged system         0.000000 eV
 dipol+quadrupol energy correction           -0.000000 eV
[...]
    262      -0.2430      0.00000
    263      -0.1958      0.00000
    264       0.1004      0.00000
    265       0.1806      0.00000
    266       0.2482      0.00000
    267       0.3063      0.00000
    268       0.5397      0.00000
    269       0.6513      0.00000
    270       0.7929      0.00000
    271       1.1451      0.00000
    272       1.3462      0.00000
    273       1.5660      0.00000
    274       1.6706      0.00000
    275       1.7228      0.00000
    276       1.8719      0.00000
    277       2.2048      0.00000
    278       2.2744      0.00000
    279       2.3174      0.00000
    280       2.3739      0.00000
    281       2.4856      0.00000
    282       2.5417      0.00000
    283       2.7054      0.00000
    284       2.9879      0.00000
    285       3.0850      0.00000
    286       3.2512      0.00000
    287       3.5216      0.00000
    288       3.5876      0.00000
    289       3.7633      0.00000
    290       3.9429      0.00000
    291       4.1061      0.00000
    292       4.1967      0.00000
    293       4.4546      0.00000
    294       4.5170      0.00000
    295       4.6131      0.00000
    296       4.6336      0.00000
    297       4.6555      0.00000
    298       4.7571      0.00000
    299       4.8471      0.00000
    300       4.9214      0.00000
    301       4.9913      0.00000
    302       5.0436      0.00000
    303       5.0793      0.00000
    304       5.0901      0.00000
    305       5.1446      0.00000
    306       5.2263      0.00000


--------------------------------------------------------------------------------------------------------


 soft charge-density along one line, spin component           1
         0         1         2         3         4         5         6         7         8         9
 total charge-density along one line
 
 pseudopotential strength for first ion, spin component:           1
 -8.060  -0.004   0.001   0.000   0.000  -8.207  -0.004   0.001
 -0.004  -7.982   0.001   0.000  -0.005  -0.004  -8.130   0.001
  0.001   0.001  -7.973  -0.000  -0.004   0.001   0.001  -8.121
  0.000   0.000  -0.000  -7.976  -0.004   0.000   0.000  -0.000
  0.000  -0.005  -0.004  -0.004  -8.057   0.000  -0.005  -0.004
 -8.207  -0.004   0.001   0.000   0.000  -8.337  -0.004   0.001
 -0.004  -8.130   0.001   0.000  -0.005  -0.004  -8.262   0.001
  0.001   0.001  -8.121  -0.000  -0.004   0.001   0.001  -8.253
  0.000   0.000  -0.000  -8.124  -0.004   0.000   0.000  -0.000
  0.000  -0.005  -0.004  -0.004  -8.203   0.000  -0.005  -0.004
 -0.000  -0.002  -0.027   0.002  -0.003  -0.000  -0.002  -0.026
 -0.000  -0.002  -0.038   0.003  -0.004  -0.000  -0.002  -0.038
  0.002   0.005   0.000  -0.000   0.001   0.002   0.004   0.000
 -0.000  -0.001   0.007   0.001  -0.000  -0.000  -0.001   0.007
 -0.001  -0.000  -0.001   0.005   0.002  -0.001  -0.000  -0.001
  0.002   0.005   0.000  -0.000   0.001   0.002   0.005   0.000
 -0.000  -0.001   0.008   0.002  -0.000  -0.000  -0.001   0.008
 -0.001  -0.000  -0.002   0.005   0.003  -0.001  -0.000  -0.002
 total augmentation occupancy for first ion, spin component:           1
  4.568   0.004   0.065   0.016  -0.008  -2.755  -0.021  -0.053  -0.039   0.009   0.011   0.008   0.019   0.009   0.034   0.001
  0.004   3.992   0.053   0.055   0.007  -0.021  -1.739  -0.048  -0.044  -0.052   0.043   0.004   0.118   0.011   0.001  -0.002
  0.065   0.053   4.458   0.102   0.178  -0.054  -0.048  -2.333  -0.074  -0.188   1.117  -0.185   0.000   0.215   0.023   0.000
  0.016   0.055   0.102   4.063  -0.026  -0.038  -0.044  -0.074  -1.782   0.001  -0.084   0.039  -0.000   0.023   0.158  -0.000
 -0.008   0.007   0.178  -0.026   4.392   0.009  -0.052  -0.188   0.001  -2.537   0.162  -0.052   0.034   0.017  -0.047  -0.000
 -2.755  -0.021  -0.054  -0.038   0.009   2.821   0.034   0.044   0.055  -0.010  -0.010  -0.005  -0.018  -0.006  -0.030   0.000
 -0.021  -1.739  -0.048  -0.044  -0.052   0.034   1.459   0.044   0.035   0.085  -0.037  -0.003  -0.111  -0.007   0.000   0.004
 -0.053  -0.048  -2.333  -0.074  -0.188   0.044   0.044   2.154   0.051   0.195  -1.032   0.199   0.000  -0.221  -0.016   0.000
 -0.039  -0.044  -0.074  -1.782   0.001   0.055   0.035   0.051   1.477   0.018   0.072  -0.034   0.001  -0.017  -0.148   0.000
  0.009  -0.052  -0.188   0.001  -2.537  -0.010   0.085   0.195   0.018   2.571  -0.152   0.053  -0.031  -0.017   0.038   0.001
  0.011   0.043   1.117  -0.084   0.162  -0.010  -0.037  -1.032   0.072  -0.152   2.436  -0.535   0.002  -0.109   0.006  -0.000
  0.008   0.004  -0.185   0.039  -0.052  -0.005  -0.003   0.199  -0.034   0.053  -0.535   0.160   0.001   0.047  -0.009  -0.000
  0.019   0.118   0.000  -0.000   0.034  -0.018  -0.111   0.000   0.001  -0.031   0.002   0.001   0.199  -0.003  -0.002  -0.006
  0.009   0.011   0.215   0.023   0.017  -0.006  -0.007  -0.221  -0.017  -0.017  -0.109   0.047  -0.003   0.086   0.003   0.000
  0.034   0.001   0.023   0.158  -0.047  -0.030   0.000  -0.016  -0.148   0.038   0.006  -0.009  -0.002   0.003   0.185   0.000
  0.001  -0.002   0.000  -0.000  -0.000   0.000   0.004   0.000   0.000   0.001  -0.000  -0.000  -0.006   0.000   0.000   0.000
 -0.000  -0.002   0.002   0.000  -0.000   0.000   0.001   0.005   0.001   0.000   0.007  -0.002   0.000  -0.003  -0.000  -0.000
 -0.002  -0.000  -0.003  -0.003   0.004   0.001   0.000   0.002   0.005  -0.002  -0.000   0.000   0.000  -0.000  -0.006   0.000


------------------------ aborting loop because EDIFF is reached ----------------------------------------


    CHARGE:  cpu time    0.2321: real time    0.2327
    FORLOC:  cpu time    0.0165: real time    0.0165
    FORNL :  cpu time    1.3244: real time    1.3278
    FORCOR:  cpu time    0.0592: real time    0.0593
    FORHAR:  cpu time    0.0248: real time    0.0249
    MIXING:  cpu time    0.0020: real time    0.0020
    OFIELD:  cpu time    0.0000: real time    0.0000

 VOLUME and BASIS-vectors are now :
 -----------------------------------------------------------------------------
  energy-cutoff  :      400.00
  volume of cell :     2567.68
      direct lattice vectors                 reciprocal lattice vectors
    11.002581515  0.000000000  0.000000000     0.090887761 -0.052474073  0.000000000
     5.501290758  9.528515099  0.000000000     0.000000000  0.104948147  0.000000000
     0.000000000  0.000000000 24.491785094     0.000000000  0.000000000  0.040830017

  length of vectors
    11.002581515 11.002581515 24.491785094     0.104948147  0.104948147  0.040830017


 FORCES acting on ions
    electron-ion (+dipol)            ewald-force                    non-local-force                 convergence-correction
 -----------------------------------------------------------------------------------------------
   0.129E+02 0.315E-01 -.227E+04   -.132E+02 0.153E+00 0.227E+04   0.284E+00 -.194E+00 0.224E+00   0.107E-01 0.298E-03 -.209E-01
   -.235E+02 0.921E+01 -.226E+04   0.248E+02 -.950E+01 0.226E+04   -.130E+01 0.277E+00 -.120E+00   -.206E-01 0.112E-01 0.458E-02
   -.959E-01 -.130E+01 0.214E+01   -.485E+00 0.127E+01 -.206E+01   0.601E+00 0.716E-02 -.539E-01   -.175E-01 0.460E-02 -.223E-01
   -.296E+01 -.987E+01 0.229E+04   0.311E+01 0.101E+02 -.229E+04   -.160E+00 -.192E+00 0.189E+00   -.762E-02 0.776E-02 -.178E-01
   -.126E+02 0.784E+01 -.230E+04   0.129E+02 -.808E+01 0.230E+04   -.269E+00 0.228E+00 -.115E+00   0.102E-02 0.292E-02 -.579E-02
   0.262E+02 -.949E+01 0.226E+04   -.266E+02 0.974E+01 -.226E+04   0.433E+00 -.242E+00 -.452E+00   -.144E-01 0.401E-02 -.114E-01
   0.291E+02 -.150E+01 -.228E+04   -.296E+02 0.131E+01 0.228E+04   0.560E+00 0.197E+00 -.765E-01   0.490E-02 -.364E-02 -.318E-03
   -.203E+01 0.864E+01 -.256E+02   0.180E+01 -.796E+01 0.252E+02   0.209E+00 -.677E+00 0.487E+00   0.201E-01 0.898E-03 -.240E-01
   -.620E+01 0.177E+01 -.376E+02   0.567E+01 -.210E+01 0.364E+02   0.567E+00 0.314E+00 0.120E+01   -.235E-01 0.561E-02 -.239E-01
   0.951E+01 -.149E+02 -.225E+04   -.101E+02 0.155E+02 0.225E+04   0.604E+00 -.502E+00 0.153E+00   -.105E-01 -.802E-02 -.479E-02
   -.326E+02 0.787E+01 -.223E+04   0.332E+02 -.856E+01 0.223E+04   -.539E+00 0.679E+00 0.404E+00   -.141E-01 0.169E-02 -.123E-01
   -.906E+01 -.407E+01 0.228E+04   0.927E+01 0.410E+01 -.228E+04   -.202E+00 -.252E-01 0.124E+00   -.533E-03 -.450E-02 -.138E-01
   0.279E+02 -.374E+01 0.224E+04   -.289E+02 0.410E+01 -.224E+04   0.967E+00 -.368E+00 -.213E+00   -.123E-01 0.129E-02 -.121E-01
   -.271E+01 -.119E+02 -.227E+04   0.221E+01 0.125E+02 0.227E+04   0.505E+00 -.599E+00 0.246E+00   0.195E-03 0.922E-02 -.223E-01
   0.271E+01 -.249E+01 -.442E+01   -.227E+01 0.151E+01 0.445E+01   -.450E+00 0.968E+00 -.442E-02   0.573E-02 0.218E-01 -.250E-01
   0.102E+02 0.215E+02 0.226E+04   -.104E+02 -.225E+02 -.226E+04   0.180E+00 0.104E+01 -.207E+00   -.242E-03 -.975E-02 -.725E-02
   0.290E+01 -.166E+01 -.151E+02   -.207E+01 0.227E+01 0.151E+02   -.822E+00 -.611E+00 -.188E-02   -.527E-02 -.495E-02 -.187E-01
   -.802E+01 0.200E+01 -.229E+04   0.825E+01 -.200E+01 0.229E+04   -.240E+00 0.245E-02 -.168E+00   0.993E-02 0.657E-02 0.426E-02
   0.491E+01 0.356E+01 0.227E+04   -.482E+01 -.361E+01 -.226E+04   -.778E-01 0.686E-01 -.645E+00   -.591E-02 -.507E-02 0.484E-03
   -.236E+02 -.691E+01 0.226E+04   0.240E+02 0.729E+01 -.226E+04   -.450E+00 -.380E+00 -.273E+00   0.720E-02 -.756E-02 -.861E-02
   0.267E+00 0.248E+02 0.223E+04   -.307E+00 -.257E+02 -.223E+04   0.389E-01 0.852E+00 -.633E+00   0.413E-02 -.142E-01 0.377E-02
   0.185E+02 -.297E+01 -.224E+04   -.189E+02 0.287E+01 0.224E+04   0.383E+00 0.900E-01 0.455E+00   0.240E-01 0.115E-01 -.133E-01
   -.202E+02 -.111E+02 0.225E+04   0.210E+02 0.114E+02 -.225E+04   -.789E+00 -.337E+00 -.513E+00   -.306E-02 0.696E-03 -.902E-02
   0.613E+01 -.318E+01 -.342E+02   -.619E+01 0.356E+01 0.337E+02   0.682E-01 -.392E+00 0.543E+00   0.274E-02 0.477E-02 -.231E-01
   0.760E+01 0.196E+02 -.196E+04   -.777E+01 -.200E+02 0.196E+04   0.166E+00 0.426E+00 0.179E+01   0.124E-02 0.155E-01 -.118E-02
   0.510E+01 -.290E+01 0.504E+02   -.447E+01 0.277E+01 -.494E+02   -.609E+00 0.147E+00 -.923E+00   -.176E-01 -.169E-03 -.182E-01
   -.308E+02 -.783E+01 -.194E+04   0.314E+02 0.787E+01 0.194E+04   -.617E+00 -.261E-01 0.191E+01   -.634E-02 -.117E-01 -.656E-02
   -.259E+01 0.338E+01 -.599E+02   0.260E+01 -.295E+01 0.589E+02   -.307E-02 -.437E+00 0.970E+00   -.465E-02 0.949E-02 -.251E-01
   -.196E+02 0.174E+01 0.197E+04   0.200E+02 -.179E+01 -.197E+04   -.432E+00 0.510E-01 -.186E+01   0.113E-01 0.677E-02 -.754E-02
   -.270E+01 0.204E+02 0.193E+04   0.264E+01 -.209E+02 -.193E+04   0.551E-01 0.509E+00 -.190E+01   0.882E-02 -.482E-02 0.296E-02
   -.564E+00 -.469E+01 0.197E+04   0.660E+00 0.471E+01 -.197E+04   -.928E-01 -.218E-01 -.113E+01   0.421E-03 0.349E-02 -.258E-02
   0.350E+01 -.433E+01 -.259E+02   -.274E+01 0.393E+01 0.255E+02   -.774E+00 0.393E+00 0.453E+00   0.204E-01 0.152E-02 -.178E-01
   -.103E+00 -.540E+00 0.655E+02   0.436E+00 0.634E+00 -.642E+02   -.333E+00 -.758E-01 -.133E+01   0.291E-02 -.226E-01 -.138E-01
   0.691E+00 -.246E+02 -.195E+04   -.593E+00 0.249E+02 0.194E+04   -.109E+00 -.359E+00 0.201E+01   0.679E-02 -.905E-02 -.219E-01
   -.115E+01 0.169E+01 0.771E+02   0.681E+00 -.171E+01 -.758E+02   0.475E+00 0.383E-01 -.133E+01   0.506E-04 -.141E-01 -.173E-01
   0.151E+02 -.149E+02 -.191E+04   -.155E+02 0.151E+02 0.191E+04   0.465E+00 -.216E+00 0.194E+01   0.158E-02 -.212E-01 -.223E-02
   -.245E+02 -.112E+02 0.196E+04   0.249E+02 0.117E+02 -.196E+04   -.379E+00 -.522E+00 -.181E+01   0.196E-01 0.358E-02 -.817E-02
   -.753E-01 0.138E+01 0.480E+01   0.192E-01 -.139E+01 -.479E+01   0.410E-01 -.372E-02 0.102E-01   0.255E-01 0.841E-02 -.231E-01
   0.341E+02 0.472E+01 -.196E+04   -.346E+02 -.466E+01 0.196E+04   0.557E+00 -.590E-01 0.188E+01   0.187E-01 -.928E-02 -.569E-02
   0.230E+02 0.109E+02 0.196E+04   -.235E+02 -.108E+02 -.196E+04   0.505E+00 -.349E-01 -.163E+01   -.967E-02 0.349E-03 -.442E-02
   -.649E+01 -.990E+00 -.273E+02   0.575E+01 0.121E+01 0.269E+02   0.756E+00 -.219E+00 0.413E+00   -.859E-02 -.578E-02 -.157E-01
   -.800E+01 0.277E+01 0.278E+02   0.704E+01 -.266E+01 -.272E+02   0.968E+00 -.932E-01 -.569E+00   -.194E-02 -.153E-01 -.850E-02
   -.965E+01 -.164E+02 0.195E+04   0.993E+01 0.166E+02 -.195E+04   -.273E+00 -.246E+00 -.159E+01   0.637E-02 0.531E-02 -.928E-02
   0.207E+02 -.586E+01 0.194E+04   -.213E+02 0.605E+01 -.193E+04   0.559E+00 -.189E+00 -.169E+01   -.636E-02 0.641E-02 -.834E-02
   -.357E+01 0.413E+01 -.755E+02   0.345E+01 -.380E+01 0.741E+02   0.976E-01 -.354E+00 0.135E+01   0.137E-01 0.906E-02 -.251E-01
   0.768E+01 -.309E+01 0.570E+02   -.715E+01 0.237E+01 -.560E+02   -.519E+00 0.713E+00 -.937E+00   -.198E-01 0.729E-02 -.205E-01
   -.179E+01 0.129E+02 -.198E+04   0.190E+01 -.130E+02 0.198E+04   -.961E-01 0.178E+00 0.124E+01   -.382E-02 0.820E-02 -.155E-01
   -.135E+02 0.115E+02 -.191E+04   0.139E+02 -.118E+02 0.191E+04   -.446E+00 0.274E+00 0.191E+01   -.138E-01 -.711E-02 0.413E-02
 -----------------------------------------------------------------------------------------------
   -.394E-01 -.571E-01 0.820E+00   0.124E-13 -.178E-12 -.205E-11   0.596E-01 0.781E-01 -.291E+00   -.604E-04 0.151E-02 -.555E+00
 
 
 POSITION                                       TOTAL-FORCE (eV/Angst)
 -----------------------------------------------------------------------------------
      6.86335      7.13950     14.82207        -0.008088     -0.009936      0.012335
      5.55064     -0.02047     14.77524         0.004222      0.001619     -0.011132
      5.47967      1.59177     12.24548         0.002574     -0.013116      0.005702
      6.89262      0.80978      9.65824        -0.012003      0.005184      0.014335
      8.26438      4.74487     14.87170        -0.002882      0.000287     -0.006644
     10.97871      7.95747      9.70761         0.004837      0.005559      0.001708
      5.46808      4.75761     14.81266         0.002165      0.004266     -0.010631
      5.48613      6.37732     12.26728        -0.003937      0.002840      0.005860
      9.61423      8.72820     12.27520         0.008231     -0.010434     -0.003696
      4.11132      2.39620     14.76271        -0.001396     -0.005360     -0.007888
      9.67085      7.11516     14.75445         0.003432     -0.002047      0.013360
      5.51826      3.18215      9.66977         0.004854     -0.000195      0.011534
      9.58477      5.57093      9.74879        -0.011062     -0.000500     -0.000945
      2.74522      0.01758     14.82014         0.008220      0.011862      0.005663
      8.26429      1.56287     12.24878        -0.004407      0.017877     -0.002789
     10.99155      3.13311      9.72391        -0.014700     -0.007780      0.003075
      9.65179      3.98665     12.25586        -0.002113     -0.009460     -0.008728
      9.63462      2.37209     14.81295        -0.008100      0.006280     -0.011490
     12.37089      5.55238      9.68260         0.005098      0.009606     -0.002320
      4.15672      5.57643      9.71107         0.002129     -0.007437     -0.013583
      2.75436      3.13692      9.75151         0.002779     -0.005108     -0.011533
     -0.02699     -0.00789     14.75014        -0.004996      0.004663      0.006488
     13.79033      7.96478      9.72129        -0.003534      0.000336     -0.016570
      6.86663      3.98965     12.27726         0.007993     -0.007786      0.004393
      8.24871     -0.02675     14.59137        -0.006874     -0.000502      0.004176
     11.01485      6.35566     12.18197         0.000682      0.013639      0.002728
     11.03437      4.75562     14.56697        -0.003772      0.001392      0.006803
      8.25650      6.36808     12.31106         0.003084      0.000436      0.004181
      9.64990      0.79278      9.88740         0.005178      0.004259      0.001247
      1.37475      0.76593      9.95728         0.003633     -0.006052     -0.006825
      8.25490      3.18235      9.87294         0.003089     -0.000840      0.010838
     11.01611      1.58254     12.27448         0.003724      0.000731      0.000903
     12.38447      3.97203     12.16651         0.002023     -0.004972      0.006734
      1.37354      2.40911     14.58153        -0.004220     -0.006791      0.003133
     13.73197      6.35101     12.14766         0.004881      0.005301     -0.007217
      2.72895      4.76779     14.50486         0.003138      0.011695     -0.001021
      5.53606      7.96447      9.91486        -0.000777      0.007614     -0.002217
     15.12159      8.73462     12.23643         0.009980     -0.006200      0.001096
      4.08958      7.13389     14.58080         0.005024     -0.003825      0.000227
      4.11341      0.78819      9.88570        -0.000648     -0.000569      0.004252
      2.72899      1.60973     12.27520         0.006492     -0.001221     -0.002707
      4.09845      3.97921     12.21044         0.002357      0.002797     -0.004206
      6.88220      5.57907      9.91410         0.010483      0.006307      0.006364
      8.22940      7.95517      9.95493        -0.009850      0.002838     -0.004558
      6.86430      8.76300     12.33537        -0.002445     -0.009861     -0.001401
     12.38419      8.71609     12.17302        -0.007999     -0.007074     -0.004687
      6.87995      2.36820     14.65412         0.001422      0.000561     -0.005154
     12.40570      7.12450     14.49712        -0.007921     -0.000881      0.010805
 -----------------------------------------------------------------------------------
    total drift:                                0.020206      0.022431     -0.026004


--------------------------------------------------------------------------------------------------------



  FREE ENERGIE OF THE ION-ELECTRON SYSTEM (eV)
  ---------------------------------------------------
  free  energy   TOTEN  =      -192.74756670 eV

  energy  without entropy=     -192.49324640  energy(sigma->0) =     -192.62040655
 
 d Force = 0.1637937E-06[-0.729E-05, 0.761E-05]  d Energy = 0.1720196E-05-0.156E-05
 d Force = 0.2900912E+01[ 0.290E+01, 0.290E+01]  d Ewald  = 0.2900912E+01 0.250E-08


--------------------------------------------------------------------------------------------------------


    POTLOK:  cpu time    0.0497: real time    0.0498


--------------------------------------------------------------------------------------------------------


 stress matrix after NEB project (eV)
      0.00000      0.00000      0.00000
      0.00000      0.00000      0.00000
      0.00000      0.00000      0.00000
  FORCES: max atom, RMS     0.019402    0.011716
  FORCE total and by dimension    0.081169    0.017877
  Stress total and by dimension    0.000000    0.000000


--------------------------------------------------------------------------------------------------------


  
 reached required accuracy - stopping structural energy minimisation
     LOOP+:  cpu time   19.0965: real time   19.2442
    4ORBIT:  cpu time    0.0000: real time    0.0000

 total amount of memory used by VASP on root node    84353. kBytes
========================================================================

   base      :      30000. kBytes
   nonlr-proj:       4285. kBytes
   fftplans  :       4447. kBytes
   grid      :       6721. kBytes
   one-center:        124. kBytes
   wavefun   :      38776. kBytes
 
  
  
 General timing and accounting informations for this job:
 ========================================================
  
                  Total CPU time used (sec):     1731.969
                            User time (sec):     1651.128
                          System time (sec):       80.842
                         Elapsed time (sec):     1742.652
  
                   Maximum memory used (kb):      924804.
                   Average memory used (kb):           0.
  
                          Minor page faults:       838384
                          Major page faults:            0
                 Voluntary context switches:        10711
