<?xml version="1.0" encoding="ISO-8859-1"?>
<modeling>
 <generator>
  <i name="program" type="string">vasp </i>
  <i name="version" type="string">5.4.1  </i>
  <i name="subversion" type="string">24Jun15 (build Mar 14 2019 10:18:33) complex                          parallel </i>
  <i name="platform" type="string">INTEL-19.0.2+OPENMPI-3.1.3 </i>
  <i name="date" type="string">2022 07 15 </i>
  <i name="time" type="string">14:49:36 </i>
 </generator>
 <incar>
  <i type="int" name="ISTART">     0</i>
  <i type="string" name="PREC">normal</i>
  <i type="string" name="ALGO"> Fast</i>
  <i type="int" name="NELM">   500</i>
  <i type="int" name="IBRION">     2</i>
  <i type="int" name="NFREE">     2</i>
  <i name="EDIFF">      0.00000100</i>
  <i name="EDIFFG">     -0.02000000</i>
  <i type="int" name="NSW">   500</i>
  <i type="int" name="ISIF">     0</i>
  <i type="int" name="ISYM">     2</i>
  <i name="ENCUT">    400.00000000</i>
  <i name="POTIM">      0.35000000</i>
  <i type="string" name="LREAL"> Auto</i>
  <i type="logical" name="LPLANE"> T  </i>
  <i type="int" name="ISMEAR">     0</i>
  <i name="SIGMA">      0.10000000</i>
  <i type="int" name="NWRITE">     1</i>
  <i type="logical" name="LWAVE"> F  </i>
  <i type="logical" name="LCHARG"> F  </i>
  <i type="logical" name="LVTOT"> F  </i>
  <i type="logical" name="LORBIT"> F  </i>
  <i type="logical" name="LAECHG"> F  </i>
  <v type="int" name="KPOINT_BSE">    -1     0     0     0</v>
  <i type="int" name="NELM">   500</i>
  <i type="string" name="GGA"> PE          ! optPBE-vdW XC-functional</i>
  <i type="int" name="VOSKOWN">     1</i>
  <i type="logical" name="LDIPOL"> T  </i>
  <i type="logical" name="LMONO"> F  </i>
  <i type="int" name="IDIPOL">     3</i>
  <v name="DIPOL">      0.00000000      0.00000000      0.50000000</v>
 </incar>
 <kpoints>
  <generation param="Monkhorst-Pack">
   <v type="int" name="divisions">       2        2        1 </v>
   <v name="usershift">      0.00000000       0.00000000       0.00000000 </v>
   <v name="genvec1">      0.50000000      -0.00000000       0.00000000 </v>
   <v name="genvec2">      0.00000000       0.50000000       0.00000000 </v>
   <v name="genvec3">      0.00000000       0.00000000       1.00000000 </v>
   <v name="shift">      0.50000000       0.50000000       0.00000000 </v>
  </generation>
  <varray name="kpointlist" >
   <v>       0.25000000       0.25000000       0.00000000 </v>
   <v>       0.00000000       0.25000000       0.00000000 </v>
   <v>      -0.25000000       0.00000000       0.00000000 </v>
   <v>      -0.25000000       0.25000000       0.00000000 </v>
   <v>       0.50000000      -0.25000000       0.00000000 </v>
   <v>      -0.25000000       0.50000000       0.00000000 </v>
  </varray>
  <varray name="weights" >
   <v>       0.16666667 </v>
   <v>       0.16666667 </v>
   <v>       0.16666667 </v>
   <v>       0.16666667 </v>
   <v>       0.16666667 </v>
   <v>       0.16666667 </v>
  </varray>
 </kpoints>
 <parameters>
  <separator name="general" >
   <i type="string" name="SYSTEM">unknown system</i>
   <i type="logical" name="LCOMPAT"> F  </i>
  </separator>
  <separator name="electronic" >
   <i type="string" name="PREC">normal</i>
   <i name="ENMAX">    400.00000000</i>
   <i name="ENAUG">    416.23000000</i>
   <i name="EDIFF">      0.00000100</i>
   <i type="int" name="IALGO">    68</i>
   <i type="int" name="IWAVPR">    11</i>
   <i type="int" name="NBANDS">   306</i>
   <i name="NELECT">    504.00000000</i>
   <i type="int" name="TURBO">     0</i>
   <i type="int" name="IRESTART">     0</i>
   <i type="int" name="NREBOOT">     0</i>
   <i type="int" name="NMIN">     0</i>
   <i name="EREF">      0.00000000</i>
   <separator name="electronic smearing" >
    <i type="int" name="ISMEAR">     0</i>
    <i name="SIGMA">      0.10000000</i>
    <i name="KSPACING">      0.50000000</i>
    <i type="logical" name="KGAMMA"> T  </i>
   </separator>
   <separator name="electronic projectors" >
    <i type="logical" name="LREAL"> T  </i>
    <v name="ROPT">     -0.00050000     -0.00050000</v>
    <i type="int" name="LMAXPAW">  -100</i>
    <i type="int" name="LMAXMIX">     2</i>
    <i type="logical" name="NLSPLINE"> F  </i>
   </separator>
   <separator name="electronic startup" >
    <i type="int" name="ISTART">     0</i>
    <i type="int" name="ICHARG">     2</i>
    <i type="int" name="INIWAV">     1</i>
   </separator>
   <separator name="electronic spin" >
    <i type="int" name="ISPIN">     1</i>
    <i type="logical" name="LNONCOLLINEAR"> F  </i>
    <v name="MAGMOM">      1.00000000      1.00000000      1.00000000      1.00000000      1.00000000      1.00000000      1.00000000      1.00000000      1.00000000      1.00000000      1.00000000      1.00000000      1.00000000      1.00000000      1.00000000      1.00000000      1.00000000      1.00000000      1.00000000      1.00000000
      1.00000000      1.00000000      1.00000000      1.00000000      1.00000000      1.00000000      1.00000000      1.00000000      1.00000000      1.00000000      1.00000000      1.00000000      1.00000000      1.00000000      1.00000000      1.00000000      1.00000000      1.00000000      1.00000000      1.00000000
      1.00000000      1.00000000      1.00000000      1.00000000      1.00000000      1.00000000      1.00000000      1.00000000</v>
    <i name="NUPDOWN">     -1.00000000</i>
    <i type="logical" name="LSORBIT"> F  </i>
    <v name="SAXIS">      0.00000000      0.00000000      1.00000000</v>
    <i type="logical" name="LSPIRAL"> F  </i>
    <v name="QSPIRAL">      0.00000000      0.00000000      0.00000000</v>
    <i type="logical" name="LZEROZ"> F  </i>
   </separator>
   <separator name="electronic exchange-correlation" >
    <i type="logical" name="LASPH"> F  </i>
    <i type="logical" name="LMETAGGA"> F  </i>
   </separator>
   <separator name="electronic convergence" >
    <i type="int" name="NELM">   500</i>
    <i type="int" name="NELMDL">    -5</i>
    <i type="int" name="NELMIN">     2</i>
    <i name="ENINI">    400.00000000</i>
    <separator name="electronic convergence detail" >
     <i type="logical" name="LDIAG"> T  </i>
     <i type="logical" name="LSUBROT"> F  </i>
     <i name="WEIMIN">      0.00100000</i>
     <i name="EBREAK">      0.00000000</i>
     <i name="DEPER">      0.30000000</i>
     <i type="int" name="NRMM">     4</i>
     <i name="TIME">      0.40000000</i>
    </separator>
   </separator>
   <separator name="electronic mixer" >
    <i name="AMIX">      0.40000000</i>
    <i name="BMIX">      1.00000000</i>
    <i name="AMIN">      0.10000000</i>
    <i name="AMIX_MAG">      1.60000000</i>
    <i name="BMIX_MAG">      1.00000000</i>
    <separator name="electronic mixer details" >
     <i type="int" name="IMIX">     4</i>
     <i type="logical" name="MIXFIRST"> F  </i>
     <i type="int" name="MAXMIX">   -45</i>
     <i name="WC">    100.00000000</i>
     <i type="int" name="INIMIX">     1</i>
     <i type="int" name="MIXPRE">     1</i>
     <i type="int" name="MREMOVE">     5</i>
    </separator>
   </separator>
   <separator name="electronic dipolcorrection" >
    <i type="logical" name="LDIPOL"> T  </i>
    <i type="logical" name="LMONO"> F  </i>
    <i type="int" name="IDIPOL">     3</i>
    <i name="EPSILON">      1.00000000</i>
    <v name="DIPOL">      0.00000000      0.00000000      0.50000000</v>
    <i name="EFIELD">      0.00000000</i>
   </separator>
  </separator>
  <separator name="grids" >
   <i type="int" name="NGX">    54</i>
   <i type="int" name="NGY">    54</i>
   <i type="int" name="NGZ">   120</i>
   <i type="int" name="NGXF">   108</i>
   <i type="int" name="NGYF">   108</i>
   <i type="int" name="NGZF">   240</i>
   <i type="logical" name="ADDGRID"> F  </i>
  </separator>
  <separator name="ionic" >
   <i type="int" name="NSW">   500</i>
   <i type="int" name="IBRION">     2</i>
   <i type="int" name="ISIF">     0</i>
   <i name="PSTRESS">      0.00000000</i>
   <i name="EDIFFG">     -0.02000000</i>
   <i type="int" name="NFREE">     2</i>
   <i name="POTIM">      0.35000000</i>
   <i name="SMASS">     -3.00000000</i>
   <i name="SCALEE">      1.00000000</i>
  </separator>
  <separator name="ionic md" >
   <i name="TEBEG">      0.00010000</i>
   <i name="TEEND">      0.00010000</i>
   <i type="int" name="NBLOCK">     1</i>
   <i type="int" name="KBLOCK">   500</i>
   <i type="int" name="NPACO">   256</i>
   <i name="APACO">     16.00000000</i>
  </separator>
  <separator name="symmetry" >
   <i type="int" name="ISYM">     2</i>
   <i name="SYMPREC">      0.00001000</i>
  </separator>
  <separator name="dos" >
   <i type="logical" name="LORBIT"> F  </i>
   <v name="RWIGS">     -1.00000000     -1.00000000</v>
   <i type="int" name="NEDOS">   301</i>
   <i name="EMIN">     10.00000000</i>
   <i name="EMAX">    -10.00000000</i>
   <i name="EFERMI">      0.00000000</i>
  </separator>
  <separator name="writing" >
   <i type="int" name="NWRITE">     1</i>
   <i type="logical" name="LWAVE"> F  </i>
   <i type="logical" name="LCHARG"> F  </i>
   <i type="logical" name="LPARD"> F  </i>
   <i type="logical" name="LVTOT"> F  </i>
   <i type="logical" name="LVHAR"> F  </i>
   <i type="logical" name="LELF"> F  </i>
   <i type="logical" name="LOPTICS"> F  </i>
   <v name="STM">      0.00000000      0.00000000      0.00000000      0.00000000      0.00000000      0.00000000      0.00000000</v>
  </separator>
  <separator name="performance" >
   <i type="int" name="NPAR">     6</i>
   <i type="int" name="NSIM">     4</i>
   <i type="int" name="NBLK">    -1</i>
   <i type="logical" name="LPLANE"> T  </i>
   <i type="logical" name="LSCALAPACK"> T  </i>
   <i type="logical" name="LSCAAWARE"> F  </i>
   <i type="logical" name="LSCALU"> F  </i>
   <i type="logical" name="LASYNC"> F  </i>
   <i type="logical" name="LORBITALREAL"> F  </i>
  </separator>
  <separator name="miscellaneous" >
   <i type="int" name="IDIOT">     3</i>
   <i type="logical" name="LMUSIC"> F  </i>
   <v name="POMASS">    196.96600000    106.42000000</v>
   <v name="DARWINR">      0.00000000      0.00000000</v>
   <v name="DARWINV">      1.00000000      1.00000000</v>
   <i type="logical" name="LCORR"> T  </i>
  </separator>
  <i type="logical" name="GGA_COMPAT"> T  </i>
  <i type="logical" name="LBERRY"> F  </i>
  <i type="int" name="ICORELEVEL">     0</i>
  <i type="logical" name="LDAU"> F  </i>
  <i type="int" name="I_CONSTRAINED_M">     0</i>
  <separator name="electronic exchange-correlation" >
   <i type="string" name="GGA">PE</i>
   <i type="int" name="VOSKOWN">     1</i>
   <i type="logical" name="LHFCALC"> F  </i>
   <i type="string" name="PRECFOCK"></i>
   <i type="logical" name="LSYMGRAD"> F  </i>
   <i type="logical" name="LHFONE"> F  </i>
   <i type="logical" name="LRHFCALC"> F  </i>
   <i type="logical" name="LTHOMAS"> F  </i>
   <i type="logical" name="LMODELHF"> F  </i>
   <i name="ENCUT4O">     -1.00000000</i>
   <i type="int" name="EXXOEP">     0</i>
   <i type="int" name="FOURORBIT">     0</i>
   <i name="AEXX">      0.00000000</i>
   <i name="HFALPHA">      0.00000000</i>
   <i name="MCALPHA">      0.00000000</i>
   <i name="ALDAX">      1.00000000</i>
   <i name="AGGAX">      1.00000000</i>
   <i name="ALDAC">      1.00000000</i>
   <i name="AGGAC">      1.00000000</i>
   <i type="int" name="NKREDX">     1</i>
   <i type="int" name="NKREDY">     1</i>
   <i type="int" name="NKREDZ">     1</i>
   <i type="logical" name="SHIFTRED"> F  </i>
   <i type="logical" name="ODDONLY"> F  </i>
   <i type="logical" name="EVENONLY"> F  </i>
   <i type="int" name="LMAXFOCK">     0</i>
   <i type="int" name="NMAXFOCKAE">     0</i>
   <i type="logical" name="LFOCKAEDFT"> F  </i>
   <i name="HFSCREEN">      0.00000000</i>
   <i name="HFSCREENC">      0.00000000</i>
   <i type="int" name="NBANDSGWLOW">     0</i>
  </separator>
  <separator name="vdW DFT" >
   <i type="logical" name="LUSE_VDW"> F  </i>
   <i name="Zab_VDW">     -0.84910000</i>
   <i name="PARAM1">      0.12340000</i>
   <i name="PARAM2">      1.00000000</i>
   <i name="PARAM3">      0.00000000</i>
  </separator>
  <separator name="model GW" >
   <i type="int" name="MODEL_GW">     0</i>
   <i name="MODEL_EPS0">     32.09595293</i>
   <i name="MODEL_ALPHA">      1.00000000</i>
  </separator>
  <separator name="linear response parameters" >
   <i type="logical" name="LEPSILON"> F  </i>
   <i type="logical" name="LRPA"> F  </i>
   <i type="logical" name="LNABLA"> F  </i>
   <i type="logical" name="LVEL"> F  </i>
   <i type="int" name="KINTER">     0</i>
   <i name="CSHIFT">      0.10000000</i>
   <i name="OMEGAMAX">     -1.00000000</i>
   <i name="DEG_THRESHOLD">      0.00200000</i>
  </separator>
  <separator name="orbital magnetization" >
   <i type="logical" name="NUCIND"> F  </i>
   <v name="MAGPOS">      0.00000000      0.00000000      0.00000000</v>
   <i type="logical" name="LNICSALL"> T  </i>
   <i type="logical" name="ORBITALMAG"> F  </i>
   <i type="logical" name="LMAGBLOCH"> F  </i>
   <i type="logical" name="LCHIMAG"> F  </i>
   <i type="logical" name="LGAUGE"> T  </i>
   <i type="int" name="MAGATOM">     0</i>
   <v name="MAGDIPOL">      0.00000000      0.00000000      0.00000000</v>
   <v name="AVECCONST">      0.00000000      0.00000000      0.00000000</v>
  </separator>
  <separator name="response functions" >
   <i type="logical" name="LADDER"> F  </i>
   <i type="logical" name="LFXC"> F  </i>
   <i type="logical" name="LHARTREE"> T  </i>
   <i type="int" name="IBSE">     0</i>
   <v type="int" name="KPOINT">    -1     0     0     0</v>
   <i type="logical" name="LTCTE"> F  </i>
   <i type="logical" name="LTETE"> F  </i>
   <i type="logical" name="LTRIPLET"> F  </i>
   <i type="logical" name="LFXCEPS"> F  </i>
   <i type="logical" name="LFXHEG"> F  </i>
   <i type="int" name="NATURALO">     0</i>
   <i type="logical" name="L2ORDER"> F  </i>
   <i type="logical" name="LUSEW"> F  </i>
   <i name="ENCUTGW">     -2.00000000</i>
   <i name="ENCUTGWSOFT">     -2.00000000</i>
   <i name="ENCUTLF">     -1.00000000</i>
   <i type="int" name="LMAXMP2">    -1</i>
   <i name="SCISSOR">      0.00000000</i>
   <i type="int" name="NOMEGA">     0</i>
   <i type="int" name="NOMEGAR">     0</i>
   <i type="int" name="NBANDSGW">    -1</i>
   <i type="int" name="NBANDSO">    -1</i>
   <i type="int" name="NBANDSV">    -1</i>
   <i type="int" name="NELM">   500</i>
   <i type="int" name="NELMHF">     1</i>
   <i type="int" name="DIM">     3</i>
   <i type="int" name="ANTIRES">     0</i>
   <i name="OMEGAMAX">    -30.00000000</i>
   <i name="OMEGAMIN">    -30.00000000</i>
   <i name="OMEGATL">   -200.00000000</i>
   <i type="int" name="OMEGAGRID">     0</i>
   <i name="CSHIFT">     -0.10000000</i>
   <i type="logical" name="SELFENERGY"> F  </i>
   <i type="logical" name="LSPECTRAL"> F  </i>
   <i type="logical" name="LSPECTRALGW"> F  </i>
   <i type="logical" name="LSINGLES"> F  </i>
   <i type="logical" name="LFERMIGW"> F  </i>
   <i type="logical" name="ODDONLYGW"> F  </i>
   <i type="logical" name="EVENONLYGW"> F  </i>
   <i type="int" name="NKREDLFX">     1</i>
   <i type="int" name="NKREDLFY">     1</i>
   <i type="int" name="NKREDLFZ">     1</i>
   <i type="int" name="MAXMEM">  1800</i>
   <i type="int" name="TELESCOPE">     0</i>
   <i type="int" name="TAUPAR">     1</i>
   <i type="int" name="OMEGAPAR">    -1</i>
   <i name="LAMBDA">      1.00000000</i>
  </separator>
  <separator name="External order field" >
   <i name="OFIELD_KAPPA">      0.00000000</i>
   <v name="OFIELD_K">      0.00000000      0.00000000      0.00000000</v>
   <i name="OFIELD_Q6_NEAR">      0.00000000</i>
   <i name="OFIELD_Q6_FAR">      0.00000000</i>
   <i name="OFIELD_A">      0.00000000</i>
  </separator>
 </parameters>
 <atominfo>
  <atoms>      48 </atoms>
  <types>       2 </types>
  <array name="atoms" >
   <dimension dim="1">ion</dimension>
   <field type="string">element</field>
   <field type="int">atomtype</field>
   <set>
    <rc><c>Au</c><c>   1</c></rc>
    <rc><c>Au</c><c>   1</c></rc>
    <rc><c>Au</c><c>   1</c></rc>
    <rc><c>Au</c><c>   1</c></rc>
    <rc><c>Au</c><c>   1</c></rc>
    <rc><c>Au</c><c>   1</c></rc>
    <rc><c>Au</c><c>   1</c></rc>
    <rc><c>Au</c><c>   1</c></rc>
    <rc><c>Au</c><c>   1</c></rc>
    <rc><c>Au</c><c>   1</c></rc>
    <rc><c>Au</c><c>   1</c></rc>
    <rc><c>Au</c><c>   1</c></rc>
    <rc><c>Au</c><c>   1</c></rc>
    <rc><c>Au</c><c>   1</c></rc>
    <rc><c>Au</c><c>   1</c></rc>
    <rc><c>Au</c><c>   1</c></rc>
    <rc><c>Au</c><c>   1</c></rc>
    <rc><c>Au</c><c>   1</c></rc>
    <rc><c>Au</c><c>   1</c></rc>
    <rc><c>Au</c><c>   1</c></rc>
    <rc><c>Au</c><c>   1</c></rc>
    <rc><c>Au</c><c>   1</c></rc>
    <rc><c>Au</c><c>   1</c></rc>
    <rc><c>Au</c><c>   1</c></rc>
    <rc><c>Pd</c><c>   2</c></rc>
    <rc><c>Pd</c><c>   2</c></rc>
    <rc><c>Pd</c><c>   2</c></rc>
    <rc><c>Pd</c><c>   2</c></rc>
    <rc><c>Pd</c><c>   2</c></rc>
    <rc><c>Pd</c><c>   2</c></rc>
    <rc><c>Pd</c><c>   2</c></rc>
    <rc><c>Pd</c><c>   2</c></rc>
    <rc><c>Pd</c><c>   2</c></rc>
    <rc><c>Pd</c><c>   2</c></rc>
    <rc><c>Pd</c><c>   2</c></rc>
    <rc><c>Pd</c><c>   2</c></rc>
    <rc><c>Pd</c><c>   2</c></rc>
    <rc><c>Pd</c><c>   2</c></rc>
    <rc><c>Pd</c><c>   2</c></rc>
    <rc><c>Pd</c><c>   2</c></rc>
    <rc><c>Pd</c><c>   2</c></rc>
    <rc><c>Pd</c><c>   2</c></rc>
    <rc><c>Pd</c><c>   2</c></rc>
    <rc><c>Pd</c><c>   2</c></rc>
    <rc><c>Pd</c><c>   2</c></rc>
    <rc><c>Pd</c><c>   2</c></rc>
    <rc><c>Pd</c><c>   2</c></rc>
    <rc><c>Pd</c><c>   2</c></rc>
   </set>
  </array>
  <array name="atomtypes" >
   <dimension dim="1">type</dimension>
   <field type="int">atomspertype</field>
   <field type="string">element</field>
   <field>mass</field>
   <field>valence</field>
   <field type="string">pseudopotential</field>
   <set>
    <rc><c>  24</c><c>Au</c><c>    196.96600000</c><c>     11.00000000</c><c>  PAW_PBE Au 04Oct2007                  </c></rc>
    <rc><c>  24</c><c>Pd</c><c>    106.42000000</c><c>     10.00000000</c><c>  PAW_PBE Pd 04Jan2005                  </c></rc>
   </set>
  </array>
 </atominfo>
 <structure name="initialpos" >
  <crystal>
   <varray name="basis" >
    <v>      11.00258152       0.00000000       0.00000000 </v>
    <v>       5.50129076       9.52851510       0.00000000 </v>
    <v>       0.00000000       0.00000000      24.49178509 </v>
   </varray>
   <i name="volume">   2567.67623402 </i>
   <varray name="rec_basis" >
    <v>       0.09088776      -0.05247407       0.00000000 </v>
    <v>       0.00000000       0.10494815       0.00000000 </v>
    <v>       0.00000000       0.00000000       0.04083002 </v>
   </varray>
  </crystal>
  <varray name="positions" >
   <v>       0.25000000       0.75000000       0.59169983 </v>
   <v>       0.50000000       0.00000000       0.59169983 </v>
   <v>       0.41666667       0.16666667       0.50000000 </v>
   <v>       0.58333333       0.08333333       0.40830017 </v>
   <v>       0.50000000       0.50000000       0.59169983 </v>
   <v>       0.58333333       0.83333333       0.40830017 </v>
   <v>       0.25000000       0.50000000       0.59169983 </v>
   <v>       0.16666667       0.66666667       0.50000000 </v>
   <v>       0.41666667       0.91666667       0.50000000 </v>
   <v>       0.25000000       0.25000000       0.59169983 </v>
   <v>       0.50000000       0.75000000       0.59169983 </v>
   <v>       0.33333333       0.33333333       0.40830017 </v>
   <v>       0.58333333       0.58333333       0.40830017 </v>
   <v>       0.25000000       0.00000000       0.59169983 </v>
   <v>       0.66666667       0.16666667       0.50000000 </v>
   <v>       0.83333333       0.33333333       0.40830017 </v>
   <v>       0.66666667       0.41666667       0.50000000 </v>
   <v>       0.75000000       0.25000000       0.59169983 </v>
   <v>       0.83333333       0.58333333       0.40830017 </v>
   <v>       0.08333333       0.58333333       0.40830017 </v>
   <v>       0.08333333       0.33333333       0.40830017 </v>
   <v>       0.00000000       0.00000000       0.59169983 </v>
   <v>       0.83333333       0.83333333       0.40830017 </v>
   <v>       0.41666667       0.41666667       0.50000000 </v>
   <v>       0.75000000       0.00000000       0.59169983 </v>
   <v>       0.66666667       0.66666667       0.50000000 </v>
   <v>       0.75000000       0.50000000       0.59169983 </v>
   <v>       0.41666667       0.66666667       0.50000000 </v>
   <v>       0.83333333       0.08333333       0.40830017 </v>
   <v>       0.08333333       0.08333333       0.40830017 </v>
   <v>       0.58333333       0.33333333       0.40830017 </v>
   <v>       0.91666667       0.16666667       0.50000000 </v>
   <v>       0.91666667       0.41666667       0.50000000 </v>
   <v>       0.00000000       0.25000000       0.59169983 </v>
   <v>       0.91666667       0.66666667       0.50000000 </v>
   <v>       0.00000000       0.50000000       0.59169983 </v>
   <v>       0.08333333       0.83333333       0.40830017 </v>
   <v>       0.91666667       0.91666667       0.50000000 </v>
   <v>       0.00000000       0.75000000       0.59169983 </v>
   <v>       0.33333333       0.08333333       0.40830017 </v>
   <v>       0.16666667       0.16666667       0.50000000 </v>
   <v>       0.16666667       0.41666667       0.50000000 </v>
   <v>       0.33333333       0.58333333       0.40830017 </v>
   <v>       0.33333333       0.83333333       0.40830017 </v>
   <v>       0.16666667       0.91666667       0.50000000 </v>
   <v>       0.66666667       0.91666667       0.50000000 </v>
   <v>       0.50000000       0.25000000       0.59169983 </v>
   <v>       0.75000000       0.75000000       0.59169983 </v>
  </varray>
 </structure>
 <calculation>
  <scstep>
   <time name="dav">    6.86    6.88</time>
   <time name="total">    6.92    6.94</time>
   <dipole>
    <v name="dipole">      0.00000000       0.00000000       0.00000000 </v>
    <i name="Tr[quadrupol]"> -10355.50464281 </i>
    <i name="Echarged">      0.00000000 </i>
    <i name="Edipol_quadrupol">      0.00000000 </i>
    <i name="Eion">      0.00000000 </i>
   </dipole>
   <energy>
    <i name="alphaZ">    805.86936429 </i>
    <i name="ewald"> 199701.97581051 </i>
    <i name="hartreedc">-242114.90607704 </i>
    <i name="XCdc">   -327.75756210 </i>
    <i name="pawpsdc">  40340.05962942 </i>
    <i name="pawaedc"> -38292.62782345 </i>
    <i name="eentropy">     -0.12828983 </i>
    <i name="bandstr">   1428.32023964 </i>
    <i name="atom">  41659.78587232 </i>
    <i name="e_fr_energy">   3200.59116375 </i>
    <i name="e_wo_entrp">   3200.71945359 </i>
    <i name="e_0_energy">   3200.65530867 </i>
   </energy>
  </scstep>
  <scstep>
   <time name="dav">    7.94    7.96</time>
   <time name="total">    7.94    7.96</time>
   <dipole>
    <v name="dipole">      0.00000000       0.00000000       0.00000000 </v>
    <i name="Tr[quadrupol]"> -10355.50464281 </i>
    <i name="Echarged">      0.00000000 </i>
    <i name="Edipol_quadrupol">      0.00000000 </i>
    <i name="Eion">      0.00000000 </i>
   </dipole>
   <energy>
    <i name="e_fr_energy">     13.94710888 </i>
    <i name="e_wo_entrp">     14.05630974 </i>
    <i name="e_0_energy">     14.00170931 </i>
   </energy>
  </scstep>
  <scstep>
   <time name="dav">    7.97    8.00</time>
   <time name="total">    7.97    8.00</time>
   <dipole>
    <v name="dipole">      0.00000000       0.00000000       0.00000000 </v>
    <i name="Tr[quadrupol]"> -10355.50464281 </i>
    <i name="Echarged">      0.00000000 </i>
    <i name="Edipol_quadrupol">      0.00000000 </i>
    <i name="Eion">      0.00000000 </i>
   </dipole>
   <energy>
    <i name="e_fr_energy">   -202.04126738 </i>
    <i name="e_wo_entrp">   -201.86371376 </i>
    <i name="e_0_energy">   -201.95249057 </i>
   </energy>
  </scstep>
  <scstep>
   <time name="dav">    8.02    8.05</time>
   <time name="total">    8.02    8.05</time>
   <dipole>
    <v name="dipole">      0.00000000       0.00000000       0.00000000 </v>
    <i name="Tr[quadrupol]"> -10355.50464281 </i>
    <i name="Echarged">      0.00000000 </i>
    <i name="Edipol_quadrupol">      0.00000000 </i>
    <i name="Eion">      0.00000000 </i>
   </dipole>
   <energy>
    <i name="e_fr_energy">   -207.90667050 </i>
    <i name="e_wo_entrp">   -207.71987175 </i>
    <i name="e_0_energy">   -207.81327113 </i>
   </energy>
  </scstep>
  <scstep>
   <time name="dav">    8.34    8.43</time>
   <time name="total">    8.58    8.68</time>
   <dipole>
    <v name="dipole">      0.00000000       0.00000000       0.00000000 </v>
    <i name="Tr[quadrupol]"> -10355.50464281 </i>
    <i name="Echarged">      0.00000000 </i>
    <i name="Edipol_quadrupol">      0.00000000 </i>
    <i name="Eion">      0.00000000 </i>
   </dipole>
   <energy>
    <i name="e_fr_energy">   -208.11076003 </i>
    <i name="e_wo_entrp">   -207.92420683 </i>
    <i name="e_0_energy">   -208.01748343 </i>
   </energy>
  </scstep>
  <scstep>
   <time name="diag">    1.22    1.22</time>
   <time name="diis">    3.41    3.42</time>
   <time name="orth">    0.29    0.29</time>
   <time name="total">    5.21    5.23</time>
   <dipole>
    <v name="dipole">      0.00000000       0.00000000       0.00377692 </v>
    <i name="Tr[quadrupol]"> -10358.26383720 </i>
    <i name="Echarged">      0.00000000 </i>
    <i name="Edipol_quadrupol">      0.00000000 </i>
    <i name="Eion">      0.00000000 </i>
   </dipole>
   <energy>
    <i name="e_fr_energy">   -203.17773391 </i>
    <i name="e_wo_entrp">   -202.89844812 </i>
    <i name="e_0_energy">   -203.03809102 </i>
   </energy>
  </scstep>
  <scstep>
   <time name="diag">    1.22    1.22</time>
   <time name="diis">    3.40    3.41</time>
   <time name="orth">    0.29    0.29</time>
   <time name="total">    5.19    5.21</time>
   <dipole>
    <v name="dipole">      0.00000000       0.00000000      -0.07926349 </v>
    <i name="Tr[quadrupol]"> -10355.39625543 </i>
    <i name="Echarged">      0.00000000 </i>
    <i name="Edipol_quadrupol">      0.00000000 </i>
    <i name="Eion">      0.00000000 </i>
   </dipole>
   <energy>
    <i name="e_fr_energy">   -198.45751545 </i>
    <i name="e_wo_entrp">   -198.26495022 </i>
    <i name="e_0_energy">   -198.36123284 </i>
   </energy>
  </scstep>
  <scstep>
   <time name="diag">    1.23    1.23</time>
   <time name="diis">    3.43    3.43</time>
   <time name="orth">    0.29    0.29</time>
   <time name="total">    5.23    5.24</time>
   <dipole>
    <v name="dipole">      0.00000000       0.00000000       0.66601275 </v>
    <i name="Tr[quadrupol]"> -10358.35294331 </i>
    <i name="Echarged">      0.00000000 </i>
    <i name="Edipol_quadrupol">      0.00000000 </i>
    <i name="Eion">      0.00000000 </i>
   </dipole>
   <energy>
    <i name="e_fr_energy">   -206.08914299 </i>
    <i name="e_wo_entrp">   -205.83783855 </i>
    <i name="e_0_energy">   -205.96349077 </i>
   </energy>
  </scstep>
  <scstep>
   <time name="diag">    1.21    1.22</time>
   <time name="diis">    3.42    3.43</time>
   <time name="orth">    0.29    0.29</time>
   <time name="total">    5.21    5.23</time>
   <dipole>
    <v name="dipole">      0.00000000       0.00000000      -0.73064117 </v>
    <i name="Tr[quadrupol]"> -10358.65696514 </i>
    <i name="Echarged">      0.00000000 </i>
    <i name="Edipol_quadrupol">      0.00000000 </i>
    <i name="Eion">      0.00000000 </i>
   </dipole>
   <energy>
    <i name="e_fr_energy">   -201.05517741 </i>
    <i name="e_wo_entrp">   -200.82197090 </i>
    <i name="e_0_energy">   -200.93857415 </i>
   </energy>
  </scstep>
  <scstep>
   <time name="diag">    1.21    1.21</time>
   <time name="diis">    3.40    3.41</time>
   <time name="orth">    0.29    0.29</time>
   <time name="total">    5.18    5.19</time>
   <dipole>
    <v name="dipole">      0.00000000       0.00000000       0.32343555 </v>
    <i name="Tr[quadrupol]"> -10358.94918024 </i>
    <i name="Echarged">      0.00000000 </i>
    <i name="Edipol_quadrupol">      0.00000000 </i>
    <i name="Eion">      0.00000000 </i>
   </dipole>
   <energy>
    <i name="e_fr_energy">   -194.12420297 </i>
    <i name="e_wo_entrp">   -193.89449904 </i>
    <i name="e_0_energy">   -194.00935100 </i>
   </energy>
  </scstep>
  <scstep>
   <time name="diag">    1.21    1.21</time>
   <time name="diis">    3.39    3.40</time>
   <time name="orth">    0.29    0.29</time>
   <time name="total">    5.17    5.19</time>
   <dipole>
    <v name="dipole">      0.00000000       0.00000000       0.15436839 </v>
    <i name="Tr[quadrupol]"> -10358.60251330 </i>
    <i name="Echarged">      0.00000000 </i>
    <i name="Edipol_quadrupol">      0.00000000 </i>
    <i name="Eion">      0.00000000 </i>
   </dipole>
   <energy>
    <i name="e_fr_energy">   -191.36861267 </i>
    <i name="e_wo_entrp">   -191.17906820 </i>
    <i name="e_0_energy">   -191.27384044 </i>
   </energy>
  </scstep>
  <scstep>
   <time name="diag">    1.22    1.22</time>
   <time name="diis">    3.41    3.42</time>
   <time name="orth">    0.29    0.29</time>
   <time name="total">    5.20    5.22</time>
   <dipole>
    <v name="dipole">      0.00000000       0.00000000       0.05963978 </v>
    <i name="Tr[quadrupol]"> -10359.06797555 </i>
    <i name="Echarged">      0.00000000 </i>
    <i name="Edipol_quadrupol">      0.00000000 </i>
    <i name="Eion">      0.00000000 </i>
   </dipole>
   <energy>
    <i name="e_fr_energy">   -190.03152296 </i>
    <i name="e_wo_entrp">   -189.80147560 </i>
    <i name="e_0_energy">   -189.91649928 </i>
   </energy>
  </scstep>
  <scstep>
   <time name="diag">    1.21    1.22</time>
   <time name="diis">    3.36    3.39</time>
   <time name="orth">    0.28    0.30</time>
   <time name="total">    5.14    5.23</time>
   <dipole>
    <v name="dipole">      0.00000000       0.00000000       0.00733882 </v>
    <i name="Tr[quadrupol]"> -10359.20577587 </i>
    <i name="Echarged">      0.00000000 </i>
    <i name="Edipol_quadrupol">      0.00000000 </i>
    <i name="Eion">      0.00000000 </i>
   </dipole>
   <energy>
    <i name="e_fr_energy">   -189.49503644 </i>
    <i name="e_wo_entrp">   -189.25461626 </i>
    <i name="e_0_energy">   -189.37482635 </i>
   </energy>
  </scstep>
  <scstep>
   <time name="diag">    1.21    1.22</time>
   <time name="diis">    3.35    3.36</time>
   <time name="orth">    0.28    0.29</time>
   <time name="total">    5.13    5.15</time>
   <dipole>
    <v name="dipole">      0.00000000       0.00000000      -0.02288512 </v>
    <i name="Tr[quadrupol]"> -10359.39475004 </i>
    <i name="Echarged">      0.00000000 </i>
    <i name="Edipol_quadrupol">      0.00000000 </i>
    <i name="Eion">      0.00000000 </i>
   </dipole>
   <energy>
    <i name="e_fr_energy">   -189.28188893 </i>
    <i name="e_wo_entrp">   -189.04084097 </i>
    <i name="e_0_energy">   -189.16136495 </i>
   </energy>
  </scstep>
  <scstep>
   <time name="diag">    1.21    1.21</time>
   <time name="diis">    3.43    3.44</time>
   <time name="orth">    0.28    0.29</time>
   <time name="total">    5.21    5.22</time>
   <dipole>
    <v name="dipole">      0.00000000       0.00000000      -0.05367482 </v>
    <i name="Tr[quadrupol]"> -10359.50412271 </i>
    <i name="Echarged">      0.00000000 </i>
    <i name="Edipol_quadrupol">      0.00000000 </i>
    <i name="Eion">      0.00000000 </i>
   </dipole>
   <energy>
    <i name="e_fr_energy">   -189.22947441 </i>
    <i name="e_wo_entrp">   -188.97765037 </i>
    <i name="e_0_energy">   -189.10356239 </i>
   </energy>
  </scstep>
  <scstep>
   <time name="diag">    1.21    1.22</time>
   <time name="diis">    3.43    3.43</time>
   <time name="orth">    0.28    0.29</time>
   <time name="total">    5.21    5.23</time>
   <dipole>
    <v name="dipole">      0.00000000       0.00000000      -0.00281342 </v>
    <i name="Tr[quadrupol]"> -10359.62030049 </i>
    <i name="Echarged">      0.00000000 </i>
    <i name="Edipol_quadrupol">      0.00000000 </i>
    <i name="Eion">      0.00000000 </i>
   </dipole>
   <energy>
    <i name="e_fr_energy">   -189.17517220 </i>
    <i name="e_wo_entrp">   -188.91732072 </i>
    <i name="e_0_energy">   -189.04624646 </i>
   </energy>
  </scstep>
  <scstep>
   <time name="diag">    1.21    1.21</time>
   <time name="diis">    3.44    3.45</time>
   <time name="orth">    0.28    0.29</time>
   <time name="total">    5.22    5.24</time>
   <dipole>
    <v name="dipole">      0.00000000       0.00000000       0.01339522 </v>
    <i name="Tr[quadrupol]"> -10359.87001730 </i>
    <i name="Echarged">      0.00000000 </i>
    <i name="Edipol_quadrupol">      0.00000000 </i>
    <i name="Eion">      0.00000000 </i>
   </dipole>
   <energy>
    <i name="e_fr_energy">   -189.19206720 </i>
    <i name="e_wo_entrp">   -188.93583604 </i>
    <i name="e_0_energy">   -189.06395162 </i>
   </energy>
  </scstep>
  <scstep>
   <time name="diag">    1.21    1.21</time>
   <time name="diis">    3.44    3.45</time>
   <time name="orth">    0.28    0.29</time>
   <time name="total">    5.22    5.24</time>
   <dipole>
    <v name="dipole">      0.00000000       0.00000000       0.01200850 </v>
    <i name="Tr[quadrupol]"> -10360.07736947 </i>
    <i name="Echarged">      0.00000000 </i>
    <i name="Edipol_quadrupol">      0.00000000 </i>
    <i name="Eion">      0.00000000 </i>
   </dipole>
   <energy>
    <i name="e_fr_energy">   -189.16024778 </i>
    <i name="e_wo_entrp">   -188.89812943 </i>
    <i name="e_0_energy">   -189.02918860 </i>
   </energy>
  </scstep>
  <scstep>
   <time name="diag">    1.21    1.21</time>
   <time name="diis">    3.41    3.42</time>
   <time name="orth">    0.28    0.28</time>
   <time name="total">    5.19    5.20</time>
   <dipole>
    <v name="dipole">      0.00000000       0.00000000       0.01135212 </v>
    <i name="Tr[quadrupol]"> -10360.18372664 </i>
    <i name="Echarged">      0.00000000 </i>
    <i name="Edipol_quadrupol">      0.00000000 </i>
    <i name="Eion">      0.00000000 </i>
   </dipole>
   <energy>
    <i name="e_fr_energy">   -189.13555336 </i>
    <i name="e_wo_entrp">   -188.87630880 </i>
    <i name="e_0_energy">   -189.00593108 </i>
   </energy>
  </scstep>
  <scstep>
   <time name="diag">    1.21    1.21</time>
   <time name="diis">    3.42    3.43</time>
   <time name="orth">    0.28    0.28</time>
   <time name="total">    5.20    5.21</time>
   <dipole>
    <v name="dipole">      0.00000000       0.00000000      -0.00199656 </v>
    <i name="Tr[quadrupol]"> -10360.28206056 </i>
    <i name="Echarged">      0.00000000 </i>
    <i name="Edipol_quadrupol">      0.00000000 </i>
    <i name="Eion">      0.00000000 </i>
   </dipole>
   <energy>
    <i name="e_fr_energy">   -189.12723927 </i>
    <i name="e_wo_entrp">   -188.86658851 </i>
    <i name="e_0_energy">   -188.99691389 </i>
   </energy>
  </scstep>
  <scstep>
   <time name="diag">    1.21    1.21</time>
   <time name="diis">    3.34    3.44</time>
   <time name="orth">    0.28    0.29</time>
   <time name="total">    5.12    5.23</time>
   <dipole>
    <v name="dipole">      0.00000000       0.00000000      -0.00356455 </v>
    <i name="Tr[quadrupol]"> -10360.33046344 </i>
    <i name="Echarged">      0.00000000 </i>
    <i name="Edipol_quadrupol">      0.00000000 </i>
    <i name="Eion">      0.00000000 </i>
   </dipole>
   <energy>
    <i name="e_fr_energy">   -189.12473028 </i>
    <i name="e_wo_entrp">   -188.86559671 </i>
    <i name="e_0_energy">   -188.99516350 </i>
   </energy>
  </scstep>
  <scstep>
   <time name="diag">    1.21    1.21</time>
   <time name="diis">    3.37    3.37</time>
   <time name="orth">    0.28    0.29</time>
   <time name="total">    5.15    5.16</time>
   <dipole>
    <v name="dipole">      0.00000000       0.00000000       0.00073141 </v>
    <i name="Tr[quadrupol]"> -10360.39015388 </i>
    <i name="Echarged">      0.00000000 </i>
    <i name="Edipol_quadrupol">      0.00000000 </i>
    <i name="Eion">      0.00000000 </i>
   </dipole>
   <energy>
    <i name="e_fr_energy">   -189.12386167 </i>
    <i name="e_wo_entrp">   -188.86470498 </i>
    <i name="e_0_energy">   -188.99428333 </i>
   </energy>
  </scstep>
  <scstep>
   <time name="diag">    1.21    1.21</time>
   <time name="diis">    3.35    3.39</time>
   <time name="orth">    0.29    0.29</time>
   <time name="total">    5.12    5.17</time>
   <dipole>
    <v name="dipole">      0.00000000       0.00000000       0.00245359 </v>
    <i name="Tr[quadrupol]"> -10360.45948645 </i>
    <i name="Echarged">      0.00000000 </i>
    <i name="Edipol_quadrupol">      0.00000000 </i>
    <i name="Eion">      0.00000000 </i>
   </dipole>
   <energy>
    <i name="e_fr_energy">   -189.12360860 </i>
    <i name="e_wo_entrp">   -188.86502563 </i>
    <i name="e_0_energy">   -188.99431712 </i>
   </energy>
  </scstep>
  <scstep>
   <time name="diag">    1.21    1.21</time>
   <time name="diis">    3.40    3.41</time>
   <time name="orth">    0.28    0.29</time>
   <time name="total">    5.19    5.20</time>
   <dipole>
    <v name="dipole">      0.00000000       0.00000000       0.00493309 </v>
    <i name="Tr[quadrupol]"> -10360.54727486 </i>
    <i name="Echarged">      0.00000000 </i>
    <i name="Edipol_quadrupol">      0.00000000 </i>
    <i name="Eion">      0.00000000 </i>
   </dipole>
   <energy>
    <i name="e_fr_energy">   -189.12345221 </i>
    <i name="e_wo_entrp">   -188.86545014 </i>
    <i name="e_0_energy">   -188.99445117 </i>
   </energy>
  </scstep>
  <scstep>
   <time name="diag">    1.22    1.23</time>
   <time name="diis">    3.38    3.38</time>
   <time name="orth">    0.28    0.29</time>
   <time name="total">    5.17    5.19</time>
   <dipole>
    <v name="dipole">      0.00000000       0.00000000       0.00548711 </v>
    <i name="Tr[quadrupol]"> -10360.58291825 </i>
    <i name="Echarged">      0.00000000 </i>
    <i name="Edipol_quadrupol">      0.00000000 </i>
    <i name="Eion">      0.00000000 </i>
   </dipole>
   <energy>
    <i name="e_fr_energy">   -189.12356899 </i>
    <i name="e_wo_entrp">   -188.86540532 </i>
    <i name="e_0_energy">   -188.99448715 </i>
   </energy>
  </scstep>
  <scstep>
   <time name="diag">    1.21    1.21</time>
   <time name="diis">    3.42    3.43</time>
   <time name="orth">    0.28    0.28</time>
   <time name="total">    5.20    5.22</time>
   <dipole>
    <v name="dipole">      0.00000000       0.00000000       0.00577018 </v>
    <i name="Tr[quadrupol]"> -10360.63782180 </i>
    <i name="Echarged">      0.00000000 </i>
    <i name="Edipol_quadrupol">      0.00000000 </i>
    <i name="Eion">      0.00000000 </i>
   </dipole>
   <energy>
    <i name="e_fr_energy">   -189.12388974 </i>
    <i name="e_wo_entrp">   -188.86590442 </i>
    <i name="e_0_energy">   -188.99489708 </i>
   </energy>
  </scstep>
  <scstep>
   <time name="diag">    1.21    1.21</time>
   <time name="diis">    3.43    3.44</time>
   <time name="orth">    0.28    0.28</time>
   <time name="total">    5.21    5.22</time>
   <dipole>
    <v name="dipole">      0.00000000       0.00000000       0.00695107 </v>
    <i name="Tr[quadrupol]"> -10360.68531842 </i>
    <i name="Echarged">      0.00000000 </i>
    <i name="Edipol_quadrupol">      0.00000000 </i>
    <i name="Eion">      0.00000000 </i>
   </dipole>
   <energy>
    <i name="e_fr_energy">   -189.12431459 </i>
    <i name="e_wo_entrp">   -188.86623533 </i>
    <i name="e_0_energy">   -188.99527496 </i>
   </energy>
  </scstep>
  <scstep>
   <time name="diag">    1.21    1.21</time>
   <time name="diis">    3.41    3.42</time>
   <time name="orth">    0.28    0.28</time>
   <time name="total">    5.19    5.21</time>
   <dipole>
    <v name="dipole">      0.00000000       0.00000000       0.00727040 </v>
    <i name="Tr[quadrupol]"> -10360.74233695 </i>
    <i name="Echarged">      0.00000000 </i>
    <i name="Edipol_quadrupol">      0.00000000 </i>
    <i name="Eion">      0.00000000 </i>
   </dipole>
   <energy>
    <i name="e_fr_energy">   -189.12486918 </i>
    <i name="e_wo_entrp">   -188.86682821 </i>
    <i name="e_0_energy">   -188.99584869 </i>
   </energy>
  </scstep>
  <scstep>
   <time name="diag">    1.21    1.23</time>
   <time name="diis">    3.31    3.38</time>
   <time name="orth">    0.28    0.28</time>
   <time name="total">    5.09    5.20</time>
   <dipole>
    <v name="dipole">      0.00000000       0.00000000       0.00808260 </v>
    <i name="Tr[quadrupol]"> -10360.77488213 </i>
    <i name="Echarged">      0.00000000 </i>
    <i name="Edipol_quadrupol">      0.00000000 </i>
    <i name="Eion">      0.00000000 </i>
   </dipole>
   <energy>
    <i name="e_fr_energy">   -189.12525928 </i>
    <i name="e_wo_entrp">   -188.86712743 </i>
    <i name="e_0_energy">   -188.99619336 </i>
   </energy>
  </scstep>
  <scstep>
   <time name="diag">    1.21    1.21</time>
   <time name="diis">    3.36    3.37</time>
   <time name="orth">    0.28    0.28</time>
   <time name="total">    5.13    5.15</time>
   <dipole>
    <v name="dipole">      0.00000000       0.00000000       0.00781046 </v>
    <i name="Tr[quadrupol]"> -10360.81898295 </i>
    <i name="Echarged">      0.00000000 </i>
    <i name="Edipol_quadrupol">      0.00000000 </i>
    <i name="Eion">      0.00000000 </i>
   </dipole>
   <energy>
    <i name="e_fr_energy">   -189.12573010 </i>
    <i name="e_wo_entrp">   -188.86765609 </i>
    <i name="e_0_energy">   -188.99669309 </i>
   </energy>
  </scstep>
  <scstep>
   <time name="diag">    1.22    1.22</time>
   <time name="diis">    3.04    3.04</time>
   <time name="orth">    0.28    0.28</time>
   <time name="total">    4.83    4.84</time>
   <dipole>
    <v name="dipole">      0.00000000       0.00000000       0.00813371 </v>
    <i name="Tr[quadrupol]"> -10360.84189334 </i>
    <i name="Echarged">      0.00000000 </i>
    <i name="Edipol_quadrupol">      0.00000000 </i>
    <i name="Eion">      0.00000000 </i>
   </dipole>
   <energy>
    <i name="e_fr_energy">   -189.12604568 </i>
    <i name="e_wo_entrp">   -188.86786695 </i>
    <i name="e_0_energy">   -188.99695631 </i>
   </energy>
  </scstep>
  <scstep>
   <time name="diag">    1.21    1.22</time>
   <time name="diis">    2.98    2.99</time>
   <time name="orth">    0.28    0.28</time>
   <time name="total">    4.77    4.79</time>
   <dipole>
    <v name="dipole">      0.00000000       0.00000000       0.00818284 </v>
    <i name="Tr[quadrupol]"> -10360.87080965 </i>
    <i name="Echarged">      0.00000000 </i>
    <i name="Edipol_quadrupol">      0.00000000 </i>
    <i name="Eion">      0.00000000 </i>
   </dipole>
   <energy>
    <i name="e_fr_energy">   -189.12635631 </i>
    <i name="e_wo_entrp">   -188.86818210 </i>
    <i name="e_0_energy">   -188.99726920 </i>
   </energy>
  </scstep>
  <scstep>
   <time name="diag">    1.21    1.22</time>
   <time name="diis">    2.58    2.59</time>
   <time name="orth">    0.28    0.28</time>
   <time name="total">    4.37    4.39</time>
   <dipole>
    <v name="dipole">      0.00000000       0.00000000       0.00819216 </v>
    <i name="Tr[quadrupol]"> -10360.88736353 </i>
    <i name="Echarged">      0.00000000 </i>
    <i name="Edipol_quadrupol">      0.00000000 </i>
    <i name="Eion">      0.00000000 </i>
   </dipole>
   <energy>
    <i name="e_fr_energy">   -189.12651070 </i>
    <i name="e_wo_entrp">   -188.86834851 </i>
    <i name="e_0_energy">   -188.99742960 </i>
   </energy>
  </scstep>
  <scstep>
   <time name="diag">    1.21    1.21</time>
   <time name="diis">    2.37    2.38</time>
   <time name="orth">    0.28    0.28</time>
   <time name="total">    4.15    4.17</time>
   <dipole>
    <v name="dipole">      0.00000000       0.00000000       0.00824005 </v>
    <i name="Tr[quadrupol]"> -10360.89649440 </i>
    <i name="Echarged">      0.00000000 </i>
    <i name="Edipol_quadrupol">      0.00000000 </i>
    <i name="Eion">      0.00000000 </i>
   </dipole>
   <energy>
    <i name="e_fr_energy">   -189.12659410 </i>
    <i name="e_wo_entrp">   -188.86841549 </i>
    <i name="e_0_energy">   -188.99750480 </i>
   </energy>
  </scstep>
  <scstep>
   <time name="diag">    1.21    1.21</time>
   <time name="diis">    2.20    2.23</time>
   <time name="orth">    0.28    0.28</time>
   <time name="total">    3.98    4.02</time>
   <dipole>
    <v name="dipole">      0.00000000       0.00000000       0.00830325 </v>
    <i name="Tr[quadrupol]"> -10360.90511635 </i>
    <i name="Echarged">      0.00000000 </i>
    <i name="Edipol_quadrupol">      0.00000000 </i>
    <i name="Eion">      0.00000000 </i>
   </dipole>
   <energy>
    <i name="e_fr_energy">   -189.12666588 </i>
    <i name="e_wo_entrp">   -188.86850356 </i>
    <i name="e_0_energy">   -188.99758472 </i>
   </energy>
  </scstep>
  <scstep>
   <time name="diag">    1.21    1.22</time>
   <time name="diis">    2.08    2.09</time>
   <time name="orth">    0.28    0.28</time>
   <time name="total">    3.87    3.89</time>
   <dipole>
    <v name="dipole">      0.00000000       0.00000000       0.00837563 </v>
    <i name="Tr[quadrupol]"> -10360.90883370 </i>
    <i name="Echarged">      0.00000000 </i>
    <i name="Edipol_quadrupol">      0.00000000 </i>
    <i name="Eion">      0.00000000 </i>
   </dipole>
   <energy>
    <i name="e_fr_energy">   -189.12668994 </i>
    <i name="e_wo_entrp">   -188.86853223 </i>
    <i name="e_0_energy">   -188.99761108 </i>
   </energy>
  </scstep>
  <scstep>
   <time name="diag">    1.21    1.21</time>
   <time name="diis">    1.93    1.94</time>
   <time name="orth">    0.28    0.28</time>
   <time name="total">    3.72    3.73</time>
   <dipole>
    <v name="dipole">      0.00000000       0.00000000       0.00841814 </v>
    <i name="Tr[quadrupol]"> -10360.91175424 </i>
    <i name="Echarged">      0.00000000 </i>
    <i name="Edipol_quadrupol">      0.00000000 </i>
    <i name="Eion">      0.00000000 </i>
   </dipole>
   <energy>
    <i name="e_fr_energy">   -189.12670843 </i>
    <i name="e_wo_entrp">   -188.86855512 </i>
    <i name="e_0_energy">   -188.99763178 </i>
   </energy>
  </scstep>
  <scstep>
   <time name="diag">    1.22    1.22</time>
   <time name="diis">    1.77    1.86</time>
   <time name="orth">    0.28    0.28</time>
   <time name="total">    3.56    3.66</time>
   <dipole>
    <v name="dipole">      0.00000000       0.00000000       0.00846462 </v>
    <i name="Tr[quadrupol]"> -10360.91349987 </i>
    <i name="Echarged">      0.00000000 </i>
    <i name="Edipol_quadrupol">      0.00000000 </i>
    <i name="Eion">      0.00000000 </i>
   </dipole>
   <energy>
    <i name="e_fr_energy">   -189.12671788 </i>
    <i name="e_wo_entrp">   -188.86856950 </i>
    <i name="e_0_energy">   -188.99764369 </i>
   </energy>
  </scstep>
  <scstep>
   <time name="diag">    1.21    1.21</time>
   <time name="diis">    1.95    1.96</time>
   <time name="orth">    0.28    0.28</time>
   <time name="total">    3.73    3.74</time>
   <dipole>
    <v name="dipole">      0.00000000       0.00000000       0.00854759 </v>
    <i name="Tr[quadrupol]"> -10360.91711055 </i>
    <i name="Echarged">      0.00000000 </i>
    <i name="Edipol_quadrupol">      0.00000000 </i>
    <i name="Eion">      0.00000000 </i>
   </dipole>
   <energy>
    <i name="e_fr_energy">   -189.12673182 </i>
    <i name="e_wo_entrp">   -188.86858554 </i>
    <i name="e_0_energy">   -188.99765868 </i>
   </energy>
  </scstep>
  <scstep>
   <time name="diag">    1.21    1.21</time>
   <time name="diis">    1.58    1.59</time>
   <time name="orth">    0.28    0.28</time>
   <time name="total">    3.37    3.38</time>
   <dipole>
    <v name="dipole">      0.00000000       0.00000000       0.00857666 </v>
    <i name="Tr[quadrupol]"> -10360.91848046 </i>
    <i name="Echarged">      0.00000000 </i>
    <i name="Edipol_quadrupol">      0.00000000 </i>
    <i name="Eion">      0.00000000 </i>
   </dipole>
   <energy>
    <i name="e_fr_energy">   -189.12673372 </i>
    <i name="e_wo_entrp">   -188.86858512 </i>
    <i name="e_0_energy">   -188.99765942 </i>
   </energy>
  </scstep>
  <scstep>
   <time name="diag">    1.21    1.21</time>
   <time name="diis">    1.46    1.47</time>
   <time name="orth">    0.28    0.28</time>
   <time name="total">    3.00    3.01</time>
   <dipole>
    <v name="dipole">      0.00000000       0.00000000       0.00860670 </v>
    <i name="Tr[quadrupol]"> -10360.91961491 </i>
    <i name="Echarged">      0.00000000 </i>
    <i name="Edipol_quadrupol">      0.00000000 </i>
    <i name="Eion">      0.00000000 </i>
   </dipole>
   <energy>
    <i name="alphaZ">    805.86936168 </i>
    <i name="ewald"> 199701.97581051 </i>
    <i name="hartreedc">-241891.20842053 </i>
    <i name="XCdc">   -343.71885741 </i>
    <i name="pawpsdc">  49301.39721709 </i>
    <i name="pawaedc"> -47380.11400933 </i>
    <i name="eentropy">     -0.25814852 </i>
    <i name="bandstr">  -2042.85556020 </i>
    <i name="atom">  41659.78587232 </i>
    <i name="e_fr_energy">   -189.12673438 </i>
    <i name="e_wo_entrp">   -188.86858587 </i>
    <i name="e_0_energy">   -188.99766013 </i>
   </energy>
  </scstep>
  <structure>
   <crystal>
    <varray name="basis" >
     <v>      11.00258152       0.00000000       0.00000000 </v>
     <v>       5.50129076       9.52851510       0.00000000 </v>
     <v>       0.00000000       0.00000000      24.49178509 </v>
    </varray>
    <i name="volume">   2567.67623402 </i>
    <varray name="rec_basis" >
     <v>       0.09088776      -0.05247407       0.00000000 </v>
     <v>       0.00000000       0.10494815       0.00000000 </v>
     <v>       0.00000000       0.00000000       0.04083002 </v>
    </varray>
   </crystal>
   <varray name="positions" >
    <v>       0.25000000       0.75000000       0.59169983 </v>
    <v>       0.50000000       0.00000000       0.59169983 </v>
    <v>       0.41666667       0.16666667       0.50000000 </v>
    <v>       0.58333333       0.08333333       0.40830017 </v>
    <v>       0.50000000       0.50000000       0.59169983 </v>
    <v>       0.58333333       0.83333333       0.40830017 </v>
    <v>       0.25000000       0.50000000       0.59169983 </v>
    <v>       0.16666667       0.66666667       0.50000000 </v>
    <v>       0.41666667       0.91666667       0.50000000 </v>
    <v>       0.25000000       0.25000000       0.59169983 </v>
    <v>       0.50000000       0.75000000       0.59169983 </v>
    <v>       0.33333333       0.33333333       0.40830017 </v>
    <v>       0.58333333       0.58333333       0.40830017 </v>
    <v>       0.25000000       0.00000000       0.59169983 </v>
    <v>       0.66666667       0.16666667       0.50000000 </v>
    <v>       0.83333333       0.33333333       0.40830017 </v>
    <v>       0.66666667       0.41666667       0.50000000 </v>
    <v>       0.75000000       0.25000000       0.59169983 </v>
    <v>       0.83333333       0.58333333       0.40830017 </v>
    <v>       0.08333333       0.58333333       0.40830017 </v>
    <v>       0.08333333       0.33333333       0.40830017 </v>
    <v>       0.00000000       0.00000000       0.59169983 </v>
    <v>       0.83333333       0.83333333       0.40830017 </v>
    <v>       0.41666667       0.41666667       0.50000000 </v>
    <v>       0.75000000       0.00000000       0.59169983 </v>
    <v>       0.66666667       0.66666667       0.50000000 </v>
    <v>       0.75000000       0.50000000       0.59169983 </v>
    <v>       0.41666667       0.66666667       0.50000000 </v>
    <v>       0.83333333       0.08333333       0.40830017 </v>
    <v>       0.08333333       0.08333333       0.40830017 </v>
    <v>       0.58333333       0.33333333       0.40830017 </v>
    <v>       0.91666667       0.16666667       0.50000000 </v>
    <v>       0.91666667       0.41666667       0.50000000 </v>
    <v>       0.00000000       0.25000000       0.59169983 </v>
    <v>       0.91666667       0.66666667       0.50000000 </v>
    <v>       0.00000000       0.50000000       0.59169983 </v>
    <v>       0.08333333       0.83333333       0.40830017 </v>
    <v>       0.91666667       0.91666667       0.50000000 </v>
    <v>       0.00000000       0.75000000       0.59169983 </v>
    <v>       0.33333333       0.08333333       0.40830017 </v>
    <v>       0.16666667       0.16666667       0.50000000 </v>
    <v>       0.16666667       0.41666667       0.50000000 </v>
    <v>       0.33333333       0.58333333       0.40830017 </v>
    <v>       0.33333333       0.83333333       0.40830017 </v>
    <v>       0.16666667       0.91666667       0.50000000 </v>
    <v>       0.66666667       0.91666667       0.50000000 </v>
    <v>       0.50000000       0.25000000       0.59169983 </v>
    <v>       0.75000000       0.75000000       0.59169983 </v>
   </varray>
  </structure>
  <varray name="forces" >
   <v>      -0.16201650       0.08716712       1.41676790 </v>
   <v>       0.63827788      -0.12178361       1.58397640 </v>
   <v>      -0.26901682      -0.01640351       0.00998619 </v>
   <v>       0.15252608       0.02802074      -1.59268619 </v>
   <v>       0.17010859      -0.04337320       1.66193911 </v>
   <v>      -0.25865040       0.11238491      -1.34317077 </v>
   <v>      -0.40552765      -0.07584641       1.59826420 </v>
   <v>      -0.16784876       0.49398010      -0.27543032 </v>
   <v>      -0.34769873      -0.17486654      -0.59442060 </v>
   <v>      -0.27577575       0.30623433       1.38472741 </v>
   <v>       0.41157638      -0.37383460       1.37083143 </v>
   <v>       0.06141408       0.06475809      -1.60397372 </v>
   <v>      -0.48891541       0.16420095      -1.35801142 </v>
   <v>      -0.28185571       0.32599083       1.39744261 </v>
   <v>       0.30630130      -0.53962350      -0.00342424 </v>
   <v>      -0.06911361      -0.52483954      -1.34021390 </v>
   <v>       0.45647285       0.22855099      -0.01187793 </v>
   <v>       0.15777724      -0.10898164       1.54348917 </v>
   <v>       0.00258229       0.01362263      -1.16233558 </v>
   <v>       0.24474282       0.17534357      -1.33981173 </v>
   <v>      -0.03363898      -0.43945338      -1.12524290 </v>
   <v>      -0.22746861       0.00160752       1.14232326 </v>
   <v>       0.35432308       0.21911182      -1.14285066 </v>
   <v>       0.03610598       0.16421898      -0.29285294 </v>
   <v>      -0.03445479      -0.26639402       0.68836985 </v>
   <v>       0.34981232      -0.06901201       0.37042595 </v>
   <v>       0.39691206       0.04097758       0.64625373 </v>
   <v>      -0.00765351       0.26605018      -0.42895313 </v>
   <v>       0.27542166      -0.07956440      -0.66112889 </v>
   <v>      -0.04892759      -0.26683541      -0.46681090 </v>
   <v>       0.02819515       0.02152976      -1.02226403 </v>
   <v>       0.41841279      -0.27960506      -0.18702249 </v>
   <v>       0.20181485       0.00012969       0.58456087 </v>
   <v>       0.05942410       0.26763405       0.51002612 </v>
   <v>      -0.23508577       0.00756804       0.59920407 </v>
   <v>      -0.26584034       0.10068875       0.44964473 </v>
   <v>       0.23984658       0.25348263      -0.61648291 </v>
   <v>      -0.01833758       0.00644384      -0.00901834 </v>
   <v>      -0.40098820       0.05609435       0.63095230 </v>
   <v>      -0.34666464      -0.07746347      -0.84388386 </v>
   <v>      -0.45681158       0.13844844      -0.18971336 </v>
   <v>      -0.55520112       0.07455764       0.23821812 </v>
   <v>       0.13382090       0.21460464      -0.85758181 </v>
   <v>      -0.29273419       0.11581762      -0.63527124 </v>
   <v>      -0.13566753       0.23427191      -0.60193078 </v>
   <v>       0.37366713      -0.42373194       0.35123644 </v>
   <v>       0.05225111      -0.14703386       1.07791207 </v>
   <v>       0.26410654      -0.15484560       0.44981272 </v>
  </varray>
  <energy>
   <i name="e_fr_energy">   -189.12673438 </i>
   <i name="e_wo_entrp">   -188.99766013 </i>
   <i name="e_0_energy">     -0.25814852 </i>
  </energy>
  <time name="totalsc">  214.71  215.91</time>
 </calculation>
 <calculation>
  <scstep>
   <time name="dav">    7.06    7.08</time>
   <time name="total">    7.35    7.37</time>
   <dipole>
    <v name="dipole">      0.00000000       0.00000000       0.00863605 </v>
    <i name="Tr[quadrupol]"> -10332.44181009 </i>
    <i name="Echarged">      0.00000000 </i>
    <i name="Edipol_quadrupol">      0.00000000 </i>
    <i name="Eion">      0.00000000 </i>
   </dipole>
   <energy>
    <i name="alphaZ">    805.86936323 </i>
    <i name="ewald"> 197075.58284715 </i>
    <i name="hartreedc">-239280.45256489 </i>
    <i name="XCdc">   -345.87302751 </i>
    <i name="pawpsdc">  49301.39405555 </i>
    <i name="pawaedc"> -47380.11081913 </i>
    <i name="eentropy">     -0.25662674 </i>
    <i name="bandstr">  -2026.14480695 </i>
    <i name="atom">  41659.78587232 </i>
    <i name="e_fr_energy">   -190.20570697 </i>
    <i name="e_wo_entrp">   -189.94908023 </i>
    <i name="e_0_energy">   -190.07739360 </i>
   </energy>
  </scstep>
  <scstep>
   <time name="diag">    1.20    1.20</time>
   <time name="diis">    3.45    3.46</time>
   <time name="orth">    0.28    0.28</time>
   <time name="total">    5.23    5.24</time>
   <dipole>
    <v name="dipole">      0.00000000       0.00000000       0.00734670 </v>
    <i name="Tr[quadrupol]"> -10332.17660170 </i>
    <i name="Echarged">      0.00000000 </i>
    <i name="Edipol_quadrupol">      0.00000000 </i>
    <i name="Eion">      0.00000000 </i>
   </dipole>
   <energy>
    <i name="e_fr_energy">   -190.60402346 </i>
    <i name="e_wo_entrp">   -190.34341255 </i>
    <i name="e_0_energy">   -190.47371801 </i>
   </energy>
  </scstep>
  <scstep>
   <time name="diag">    1.20    1.20</time>
   <time name="diis">    3.41    3.41</time>
   <time name="orth">    0.28    0.28</time>
   <time name="total">    5.17    5.18</time>
   <dipole>
    <v name="dipole">      0.00000000       0.00000000       0.03269353 </v>
    <i name="Tr[quadrupol]"> -10332.67525901 </i>
    <i name="Echarged">      0.00000000 </i>
    <i name="Edipol_quadrupol">      0.00000000 </i>
    <i name="Eion">      0.00000000 </i>
   </dipole>
   <energy>
    <i name="e_fr_energy">   -190.76558494 </i>
    <i name="e_wo_entrp">   -190.52396861 </i>
    <i name="e_0_energy">   -190.64477677 </i>
   </energy>
  </scstep>
  <scstep>
   <time name="diag">    1.20    1.20</time>
   <time name="diis">    3.46    3.46</time>
   <time name="orth">    0.28    0.28</time>
   <time name="total">    5.22    5.24</time>
   <dipole>
    <v name="dipole">      0.00000000       0.00000000      -0.01757837 </v>
    <i name="Tr[quadrupol]"> -10332.57085769 </i>
    <i name="Echarged">      0.00000000 </i>
    <i name="Edipol_quadrupol">      0.00000000 </i>
    <i name="Eion">      0.00000000 </i>
   </dipole>
   <energy>
    <i name="e_fr_energy">   -190.58722646 </i>
    <i name="e_wo_entrp">   -190.33208603 </i>
    <i name="e_0_energy">   -190.45965624 </i>
   </energy>
  </scstep>
  <scstep>
   <time name="diag">    1.21    1.21</time>
   <time name="diis">    3.34    3.44</time>
   <time name="orth">    0.28    0.28</time>
   <time name="total">    5.11    5.22</time>
   <dipole>
    <v name="dipole">      0.00000000       0.00000000       0.07054386 </v>
    <i name="Tr[quadrupol]"> -10332.52810262 </i>
    <i name="Echarged">      0.00000000 </i>
    <i name="Edipol_quadrupol">      0.00000000 </i>
    <i name="Eion">      0.00000000 </i>
   </dipole>
   <energy>
    <i name="e_fr_energy">   -190.64898155 </i>
    <i name="e_wo_entrp">   -190.38629915 </i>
    <i name="e_0_energy">   -190.51764035 </i>
   </energy>
  </scstep>
  <scstep>
   <time name="diag">    1.20    1.21</time>
   <time name="diis">    3.43    3.44</time>
   <time name="orth">    0.28    0.28</time>
   <time name="total">    5.21    5.23</time>
   <dipole>
    <v name="dipole">      0.00000000       0.00000000      -0.01876809 </v>
    <i name="Tr[quadrupol]"> -10332.51702429 </i>
    <i name="Echarged">      0.00000000 </i>
    <i name="Edipol_quadrupol">      0.00000000 </i>
    <i name="Eion">      0.00000000 </i>
   </dipole>
   <energy>
    <i name="e_fr_energy">   -190.58368880 </i>
    <i name="e_wo_entrp">   -190.32502476 </i>
    <i name="e_0_energy">   -190.45435678 </i>
   </energy>
  </scstep>
  <scstep>
   <time name="diag">    1.20    1.22</time>
   <time name="diis">    3.42    3.44</time>
   <time name="orth">    0.28    0.28</time>
   <time name="total">    5.18    5.23</time>
   <dipole>
    <v name="dipole">      0.00000000       0.00000000       0.01654876 </v>
    <i name="Tr[quadrupol]"> -10332.50208681 </i>
    <i name="Echarged">      0.00000000 </i>
    <i name="Edipol_quadrupol">      0.00000000 </i>
    <i name="Eion">      0.00000000 </i>
   </dipole>
   <energy>
    <i name="e_fr_energy">   -190.56223040 </i>
    <i name="e_wo_entrp">   -190.30284267 </i>
    <i name="e_0_energy">   -190.43253653 </i>
   </energy>
  </scstep>
  <scstep>
   <time name="diag">    1.21    1.21</time>
   <time name="diis">    3.40    3.41</time>
   <time name="orth">    0.28    0.28</time>
   <time name="total">    5.17    5.18</time>
   <dipole>
    <v name="dipole">      0.00000000       0.00000000       0.00823039 </v>
    <i name="Tr[quadrupol]"> -10332.47631579 </i>
    <i name="Echarged">      0.00000000 </i>
    <i name="Edipol_quadrupol">      0.00000000 </i>
    <i name="Eion">      0.00000000 </i>
   </dipole>
   <energy>
    <i name="e_fr_energy">   -190.56099608 </i>
    <i name="e_wo_entrp">   -190.30038522 </i>
    <i name="e_0_energy">   -190.43069065 </i>
   </energy>
  </scstep>
  <scstep>
   <time name="diag">    1.22    1.22</time>
   <time name="diis">    3.39    3.40</time>
   <time name="orth">    0.28    0.28</time>
   <time name="total">    5.17    5.19</time>
   <dipole>
    <v name="dipole">      0.00000000       0.00000000       0.00823081 </v>
    <i name="Tr[quadrupol]"> -10332.46905627 </i>
    <i name="Echarged">      0.00000000 </i>
    <i name="Edipol_quadrupol">      0.00000000 </i>
    <i name="Eion">      0.00000000 </i>
   </dipole>
   <energy>
    <i name="e_fr_energy">   -190.56002664 </i>
    <i name="e_wo_entrp">   -190.30004724 </i>
    <i name="e_0_energy">   -190.43003694 </i>
   </energy>
  </scstep>
  <scstep>
   <time name="diag">    1.20    1.20</time>
   <time name="diis">    3.40    3.41</time>
   <time name="orth">    0.28    0.28</time>
   <time name="total">    5.18    5.19</time>
   <dipole>
    <v name="dipole">      0.00000000       0.00000000       0.01055075 </v>
    <i name="Tr[quadrupol]"> -10332.46023129 </i>
    <i name="Echarged">      0.00000000 </i>
    <i name="Edipol_quadrupol">      0.00000000 </i>
    <i name="Eion">      0.00000000 </i>
   </dipole>
   <energy>
    <i name="e_fr_energy">   -190.55972020 </i>
    <i name="e_wo_entrp">   -190.29978310 </i>
    <i name="e_0_energy">   -190.42975165 </i>
   </energy>
  </scstep>
  <scstep>
   <time name="diag">    1.20    1.20</time>
   <time name="diis">    3.39    3.40</time>
   <time name="orth">    0.28    0.28</time>
   <time name="total">    5.16    5.17</time>
   <dipole>
    <v name="dipole">      0.00000000       0.00000000       0.00974786 </v>
    <i name="Tr[quadrupol]"> -10332.45971097 </i>
    <i name="Echarged">      0.00000000 </i>
    <i name="Edipol_quadrupol">      0.00000000 </i>
    <i name="Eion">      0.00000000 </i>
   </dipole>
   <energy>
    <i name="e_fr_energy">   -190.55961614 </i>
    <i name="e_wo_entrp">   -190.29960070 </i>
    <i name="e_0_energy">   -190.42960842 </i>
   </energy>
  </scstep>
  <scstep>
   <time name="diag">    1.21    1.21</time>
   <time name="diis">    3.40    3.41</time>
   <time name="orth">    0.28    0.28</time>
   <time name="total">    5.17    5.19</time>
   <dipole>
    <v name="dipole">      0.00000000       0.00000000       0.00994366 </v>
    <i name="Tr[quadrupol]"> -10332.46301433 </i>
    <i name="Echarged">      0.00000000 </i>
    <i name="Edipol_quadrupol">      0.00000000 </i>
    <i name="Eion">      0.00000000 </i>
   </dipole>
   <energy>
    <i name="e_fr_energy">   -190.55961245 </i>
    <i name="e_wo_entrp">   -190.29964605 </i>
    <i name="e_0_energy">   -190.42962925 </i>
   </energy>
  </scstep>
  <scstep>
   <time name="diag">    1.20    1.22</time>
   <time name="diis">    3.39    3.46</time>
   <time name="orth">    0.28    0.28</time>
   <time name="total">    5.15    5.25</time>
   <dipole>
    <v name="dipole">      0.00000000       0.00000000       0.00979259 </v>
    <i name="Tr[quadrupol]"> -10332.46558960 </i>
    <i name="Echarged">      0.00000000 </i>
    <i name="Edipol_quadrupol">      0.00000000 </i>
    <i name="Eion">      0.00000000 </i>
   </dipole>
   <energy>
    <i name="e_fr_energy">   -190.55960206 </i>
    <i name="e_wo_entrp">   -190.29963121 </i>
    <i name="e_0_energy">   -190.42961664 </i>
   </energy>
  </scstep>
  <scstep>
   <time name="diag">    1.20    1.21</time>
   <time name="diis">    3.35    3.36</time>
   <time name="orth">    0.28    0.28</time>
   <time name="total">    5.12    5.14</time>
   <dipole>
    <v name="dipole">      0.00000000       0.00000000       0.00978370 </v>
    <i name="Tr[quadrupol]"> -10332.46851714 </i>
    <i name="Echarged">      0.00000000 </i>
    <i name="Edipol_quadrupol">      0.00000000 </i>
    <i name="Eion">      0.00000000 </i>
   </dipole>
   <energy>
    <i name="e_fr_energy">   -190.55959908 </i>
    <i name="e_wo_entrp">   -190.29958344 </i>
    <i name="e_0_energy">   -190.42959126 </i>
   </energy>
  </scstep>
  <scstep>
   <time name="diag">    1.20    1.20</time>
   <time name="diis">    2.70    2.70</time>
   <time name="orth">    0.28    0.28</time>
   <time name="total">    4.46    4.47</time>
   <dipole>
    <v name="dipole">      0.00000000       0.00000000       0.00976924 </v>
    <i name="Tr[quadrupol]"> -10332.47013977 </i>
    <i name="Echarged">      0.00000000 </i>
    <i name="Edipol_quadrupol">      0.00000000 </i>
    <i name="Eion">      0.00000000 </i>
   </dipole>
   <energy>
    <i name="e_fr_energy">   -190.55959662 </i>
    <i name="e_wo_entrp">   -190.29958006 </i>
    <i name="e_0_energy">   -190.42958834 </i>
   </energy>
  </scstep>
  <scstep>
   <time name="diag">    1.21    1.21</time>
   <time name="diis">    1.99    2.00</time>
   <time name="orth">    0.28    0.28</time>
   <time name="total">    3.53    3.54</time>
   <dipole>
    <v name="dipole">      0.00000000       0.00000000       0.00988962 </v>
    <i name="Tr[quadrupol]"> -10332.47158802 </i>
    <i name="Echarged">      0.00000000 </i>
    <i name="Edipol_quadrupol">      0.00000000 </i>
    <i name="Eion">      0.00000000 </i>
   </dipole>
   <energy>
    <i name="alphaZ">    805.86936264 </i>
    <i name="ewald"> 197075.58284715 </i>
    <i name="hartreedc">-239282.02000871 </i>
    <i name="XCdc">   -345.82429014 </i>
    <i name="pawpsdc">  48862.96309302 </i>
    <i name="pawaedc"> -46938.71727908 </i>
    <i name="eentropy">     -0.26001562 </i>
    <i name="bandstr">  -2027.93917866 </i>
    <i name="atom">  41659.78587232 </i>
    <i name="e_fr_energy">   -190.55959708 </i>
    <i name="e_wo_entrp">   -190.29958146 </i>
    <i name="e_0_energy">   -190.42958927 </i>
   </energy>
  </scstep>
  <structure>
   <crystal>
    <varray name="basis" >
     <v>      11.00258152       0.00000000       0.00000000 </v>
     <v>       5.50129076       9.52851510       0.00000000 </v>
     <v>       0.00000000       0.00000000      24.49178509 </v>
    </varray>
    <i name="volume">   2567.67623402 </i>
    <varray name="rec_basis" >
     <v>       0.09088776      -0.05247407       0.00000000 </v>
     <v>       0.00000000       0.10494815       0.00000000 </v>
     <v>       0.00000000       0.00000000       0.04083002 </v>
    </varray>
   </crystal>
   <varray name="positions" >
    <v>       0.24934826       0.75030893       0.59365330 </v>
    <v>       0.50217485      -0.00043161       0.59388386 </v>
    <v>       0.41587005       0.16660853       0.50001377 </v>
    <v>       0.58375182       0.08343264       0.40610414 </v>
    <v>       0.50059897       0.49984628       0.59399135 </v>
    <v>       0.58234032       0.83373163       0.40644817 </v>
    <v>       0.24888973       0.49973119       0.59390356 </v>
    <v>       0.16527614       0.66841737       0.49962023 </v>
    <v>       0.41590936       0.91604692       0.49918040 </v>
    <v>       0.24861091       0.25108532       0.59360913 </v>
    <v>       0.50192569       0.74867510       0.59358997 </v>
    <v>       0.33340708       0.33356284       0.40608857 </v>
    <v>       0.58154175       0.58391528       0.40642771 </v>
    <v>       0.24855724       0.00115534       0.59362666 </v>
    <v>       0.66856302       0.16475420       0.49999528 </v>
    <v>       0.83405124       0.33147326       0.40645225 </v>
    <v>       0.66766270       0.41747667       0.49998362 </v>
    <v>       0.75067738       0.24961376       0.59382803 </v>
    <v>       0.83331712       0.58338161       0.40669751 </v>
    <v>       0.08377380       0.58395477       0.40645280 </v>
    <v>       0.08400882       0.33177587       0.40674866 </v>
    <v>      -0.00070101       0.00000570       0.59327489 </v>
    <v>       0.83403257       0.83410988       0.40672438 </v>
    <v>       0.41648648       0.41724867       0.49959621 </v>
    <v>       0.75036631      -0.00094412       0.59264897 </v>
    <v>       0.66786263       0.66642208       0.50051075 </v>
    <v>       0.75114562       0.50014523       0.59259090 </v>
    <v>       0.41617172       0.66760957       0.49940855 </v>
    <v>       0.83431967       0.08305135       0.40738859 </v>
    <v>       0.08365601       0.08238765       0.40765652 </v>
    <v>       0.58338172       0.33340964       0.40689065 </v>
    <v>       0.91844636       0.16567572       0.49974213 </v>
    <v>       0.91728586       0.41666713       0.50080601 </v>
    <v>      -0.00029187       0.25094852       0.59240307 </v>
    <v>       0.91593171       0.66669349       0.50082620 </v>
    <v>      -0.00099436       0.50035685       0.59231981 </v>
    <v>       0.08362030       0.83423170       0.40745015 </v>
    <v>       0.91659896       0.91668950       0.49998757 </v>
    <v>      -0.00133014       0.75019880       0.59256980 </v>
    <v>       0.33240660       0.08305880       0.40713660 </v>
    <v>       0.16501925       0.16715734       0.49973842 </v>
    <v>       0.16483049       0.41693091       0.50032846 </v>
    <v>       0.33336378       0.58409391       0.40711772 </v>
    <v>       0.33222962       0.83374380       0.40742424 </v>
    <v>       0.16583513       0.91749695       0.49917004 </v>
    <v>       0.66856442       0.91516493       0.50048429 </v>
    <v>       0.50042092       0.24947890       0.59318608 </v>
    <v>       0.75108501       0.74945121       0.59232004 </v>
   </varray>
  </structure>
  <varray name="forces" >
   <v>      -0.08181248       0.03462790       0.95685235 </v>
   <v>       0.24238028      -0.08803154       1.05954293 </v>
   <v>      -0.15218573      -0.04431723       0.01743561 </v>
   <v>       0.06117509       0.02115699      -1.10719431 </v>
   <v>       0.05143020      -0.05289572       1.11276911 </v>
   <v>      -0.10073486       0.05925857      -0.97693233 </v>
   <v>      -0.18855491       0.01056299       1.07489545 </v>
   <v>      -0.10147665       0.19613424      -0.03752746 </v>
   <v>      -0.11906556      -0.06949689      -0.07022507 </v>
   <v>      -0.13787737       0.09183818       1.02063051 </v>
   <v>       0.20739833      -0.10591025       0.95117071 </v>
   <v>       0.02421897       0.02602332      -1.12581299 </v>
   <v>      -0.21819712       0.06680509      -1.00280277 </v>
   <v>      -0.05163530       0.13499115       0.93441696 </v>
   <v>       0.15998134      -0.19733892       0.00808656 </v>
   <v>      -0.03527771      -0.24711720      -0.96211333 </v>
   <v>       0.24232675       0.07485865       0.00442006 </v>
   <v>       0.09320981      -0.04386083       1.07923500 </v>
   <v>      -0.01623317      -0.03604868      -0.78766518 </v>
   <v>       0.11441070       0.08508973      -0.95496537 </v>
   <v>      -0.03172709      -0.20186214      -0.84856950 </v>
   <v>      -0.14223824      -0.01265881       0.83858379 </v>
   <v>       0.18938036       0.10020959      -0.82678086 </v>
   <v>      -0.00373813       0.09442941      -0.05058605 </v>
   <v>       0.01807478      -0.15239282       0.60011565 </v>
   <v>       0.16921835       0.00171031       0.06542831 </v>
   <v>       0.24242627      -0.02180195       0.59134629 </v>
   <v>       0.00328590       0.13092246      -0.06555458 </v>
   <v>       0.17314162      -0.04773158      -0.55395566 </v>
   <v>      -0.03001981      -0.18861113      -0.50082352 </v>
   <v>       0.04220980      -0.00693563      -0.70718967 </v>
   <v>       0.19711352      -0.11578443      -0.01920256 </v>
   <v>       0.09024546      -0.01144032       0.13391344 </v>
   <v>      -0.00945220       0.16370380       0.45650314 </v>
   <v>      -0.10194812      -0.01764242       0.14810496 </v>
   <v>      -0.17554266       0.09005170       0.48945236 </v>
   <v>       0.15847218       0.16738970      -0.58597207 </v>
   <v>       0.02019430      -0.01634739       0.00538056 </v>
   <v>      -0.22043863       0.01717943       0.52437013 </v>
   <v>      -0.17730154      -0.03225108      -0.67813059 </v>
   <v>      -0.20827208       0.07588933      -0.02413563 </v>
   <v>      -0.25085772       0.08286488       0.03794294 </v>
   <v>       0.03538855       0.14262389      -0.69594929 </v>
   <v>      -0.21550044       0.08526214      -0.63700869 </v>
   <v>      -0.08828520       0.14691022      -0.14111807 </v>
   <v>       0.10691617      -0.22287380       0.05373832 </v>
   <v>       0.04224591      -0.05604831       0.70089727 </v>
   <v>       0.17352809      -0.11109461       0.49498315 </v>
  </varray>
  <energy>
   <i name="e_fr_energy">   -190.55959708 </i>
   <i name="e_wo_entrp">   -190.42958927 </i>
   <i name="e_0_energy">     -0.26001562 </i>
  </energy>
  <time name="totalsc">   85.01   85.50</time>
 </calculation>
 <calculation>
  <scstep>
   <time name="dav">    6.97    6.99</time>
   <time name="total">    7.25    7.29</time>
   <dipole>
    <v name="dipole">      0.00000000       0.00000000       0.00988866 </v>
    <i name="Tr[quadrupol]"> -10253.93247468 </i>
    <i name="Echarged">      0.00000000 </i>
    <i name="Edipol_quadrupol">      0.00000000 </i>
    <i name="Eion">      0.00000000 </i>
   </dipole>
   <energy>
    <i name="alphaZ">    805.86936768 </i>
    <i name="ewald"> 189841.65981311 </i>
    <i name="hartreedc">-232085.42727592 </i>
    <i name="XCdc">   -350.84344007 </i>
    <i name="pawpsdc">  48862.87106425 </i>
    <i name="pawaedc"> -46938.62523115 </i>
    <i name="eentropy">     -0.25335589 </i>
    <i name="bandstr">  -1984.41773989 </i>
    <i name="atom">  41659.78587232 </i>
    <i name="e_fr_energy">   -189.38092556 </i>
    <i name="e_wo_entrp">   -189.12756968 </i>
    <i name="e_0_energy">   -189.25424762 </i>
   </energy>
  </scstep>
  <scstep>
   <time name="diag">    1.20    1.21</time>
   <time name="diis">    3.38    3.39</time>
   <time name="orth">    0.28    0.28</time>
   <time name="total">    5.15    5.18</time>
   <dipole>
    <v name="dipole">      0.00000000       0.00000000       0.00672812 </v>
    <i name="Tr[quadrupol]"> -10253.11343834 </i>
    <i name="Echarged">      0.00000000 </i>
    <i name="Edipol_quadrupol">      0.00000000 </i>
    <i name="Eion">      0.00000000 </i>
   </dipole>
   <energy>
    <i name="e_fr_energy">   -192.49162312 </i>
    <i name="e_wo_entrp">   -192.23766253 </i>
    <i name="e_0_energy">   -192.36464283 </i>
   </energy>
  </scstep>
  <scstep>
   <time name="diag">    1.20    1.21</time>
   <time name="diis">    3.40    3.41</time>
   <time name="orth">    0.28    0.29</time>
   <time name="total">    5.18    5.21</time>
   <dipole>
    <v name="dipole">      0.00000000       0.00000000       0.06364039 </v>
    <i name="Tr[quadrupol]"> -10254.27620128 </i>
    <i name="Echarged">      0.00000000 </i>
    <i name="Edipol_quadrupol">      0.00000000 </i>
    <i name="Eion">      0.00000000 </i>
   </dipole>
   <energy>
    <i name="e_fr_energy">   -193.22109550 </i>
    <i name="e_wo_entrp">   -193.02558392 </i>
    <i name="e_0_energy">   -193.12333971 </i>
   </energy>
  </scstep>
  <scstep>
   <time name="diag">    1.21    1.21</time>
   <time name="diis">    3.40    3.50</time>
   <time name="orth">    0.28    0.28</time>
   <time name="total">    5.17    5.27</time>
   <dipole>
    <v name="dipole">      0.00000000       0.00000000      -0.02271556 </v>
    <i name="Tr[quadrupol]"> -10254.08655608 </i>
    <i name="Echarged">      0.00000000 </i>
    <i name="Edipol_quadrupol">      0.00000000 </i>
    <i name="Eion">      0.00000000 </i>
   </dipole>
   <energy>
    <i name="e_fr_energy">   -192.21964725 </i>
    <i name="e_wo_entrp">   -191.96875970 </i>
    <i name="e_0_energy">   -192.09420347 </i>
   </energy>
  </scstep>
  <scstep>
   <time name="diag">    1.21    1.21</time>
   <time name="diis">    3.38    3.39</time>
   <time name="orth">    0.28    0.28</time>
   <time name="total">    5.15    5.16</time>
   <dipole>
    <v name="dipole">      0.00000000       0.00000000       0.11825061 </v>
    <i name="Tr[quadrupol]"> -10254.07085054 </i>
    <i name="Echarged">      0.00000000 </i>
    <i name="Edipol_quadrupol">      0.00000000 </i>
    <i name="Eion">      0.00000000 </i>
   </dipole>
   <energy>
    <i name="e_fr_energy">   -192.48947094 </i>
    <i name="e_wo_entrp">   -192.23060919 </i>
    <i name="e_0_energy">   -192.36004007 </i>
   </energy>
  </scstep>
  <scstep>
   <time name="diag">    1.21    1.21</time>
   <time name="diis">    3.44    3.45</time>
   <time name="orth">    0.28    0.28</time>
   <time name="total">    5.21    5.23</time>
   <dipole>
    <v name="dipole">      0.00000000       0.00000000      -0.12347502 </v>
    <i name="Tr[quadrupol]"> -10254.14125964 </i>
    <i name="Echarged">      0.00000000 </i>
    <i name="Edipol_quadrupol">      0.00000000 </i>
    <i name="Eion">      0.00000000 </i>
   </dipole>
   <energy>
    <i name="e_fr_energy">   -192.48181831 </i>
    <i name="e_wo_entrp">   -192.23776478 </i>
    <i name="e_0_energy">   -192.35979154 </i>
   </energy>
  </scstep>
  <scstep>
   <time name="diag">    1.20    1.21</time>
   <time name="diis">    3.45    3.46</time>
   <time name="orth">    0.28    0.28</time>
   <time name="total">    5.22    5.24</time>
   <dipole>
    <v name="dipole">      0.00000000       0.00000000       0.02966580 </v>
    <i name="Tr[quadrupol]"> -10254.08449493 </i>
    <i name="Echarged">      0.00000000 </i>
    <i name="Edipol_quadrupol">      0.00000000 </i>
    <i name="Eion">      0.00000000 </i>
   </dipole>
   <energy>
    <i name="e_fr_energy">   -192.11246162 </i>
    <i name="e_wo_entrp">   -191.85018003 </i>
    <i name="e_0_energy">   -191.98132082 </i>
   </energy>
  </scstep>
  <scstep>
   <time name="diag">    1.20    1.20</time>
   <time name="diis">    3.45    3.46</time>
   <time name="orth">    0.28    0.28</time>
   <time name="total">    5.21    5.22</time>
   <dipole>
    <v name="dipole">      0.00000000       0.00000000      -0.00155506 </v>
    <i name="Tr[quadrupol]"> -10253.96903017 </i>
    <i name="Echarged">      0.00000000 </i>
    <i name="Edipol_quadrupol">      0.00000000 </i>
    <i name="Eion">      0.00000000 </i>
[...]
       <r>    2.3174    0.0000 </r>
       <r>    2.3739    0.0000 </r>
       <r>    2.4856    0.0000 </r>
       <r>    2.5417    0.0000 </r>
       <r>    2.7054    0.0000 </r>
       <r>    2.9879    0.0000 </r>
       <r>    3.0850    0.0000 </r>
       <r>    3.2512    0.0000 </r>
       <r>    3.5216    0.0000 </r>
       <r>    3.5876    0.0000 </r>
       <r>    3.7633    0.0000 </r>
       <r>    3.9429    0.0000 </r>
       <r>    4.1061    0.0000 </r>
       <r>    4.1967    0.0000 </r>
       <r>    4.4546    0.0000 </r>
       <r>    4.5170    0.0000 </r>
       <r>    4.6131    0.0000 </r>
       <r>    4.6336    0.0000 </r>
       <r>    4.6555    0.0000 </r>
       <r>    4.7571    0.0000 </r>
       <r>    4.8471    0.0000 </r>
       <r>    4.9214    0.0000 </r>
       <r>    4.9913    0.0000 </r>
       <r>    5.0436    0.0000 </r>
       <r>    5.0793    0.0000 </r>
       <r>    5.0901    0.0000 </r>
       <r>    5.1446    0.0000 </r>
       <r>    5.2263    0.0000 </r>
      </set>
     </set>
    </set>
   </array>
  </eigenvalues>
  <separator name="orbital magnetization" >
   <v name="MAGDIPOLOUT">      0.00000000      0.00000000      0.00000000</v>
  </separator>
  <dos>
   <i name="efermi">     -1.07823076 </i>
   <total>
    <array>
     <dimension dim="1">gridpoints</dimension>
     <dimension dim="2">spin</dimension>
     <field>energy</field>
     <field>total</field>
     <field>integrated</field>
     <set>
      <set comment="spin 1">
       <r>    -9.6956     0.0000     0.0000 </r>
       <r>    -9.6422     0.0000     0.0000 </r>
       <r>    -9.5887     0.0000     0.0000 </r>
       <r>    -9.5353     0.0000     0.0000 </r>
       <r>    -9.4818     0.0000     0.0000 </r>
       <r>    -9.4284     0.0000     0.0000 </r>
       <r>    -9.3749     0.0000     0.0000 </r>
       <r>    -9.3215     0.0000     0.0000 </r>
       <r>    -9.2680     0.0000     0.0000 </r>
       <r>    -9.2146     0.0000     0.0000 </r>
       <r>    -9.1611     0.0000     0.0000 </r>
       <r>    -9.1077     0.0000     0.0000 </r>
       <r>    -9.0542     0.0000     0.0000 </r>
       <r>    -9.0008     0.0001     0.0000 </r>
       <r>    -8.9473     0.0021     0.0001 </r>
       <r>    -8.8939     0.0293     0.0017 </r>
       <r>    -8.8404     0.2415     0.0146 </r>
       <r>    -8.7869     1.1568     0.0764 </r>
       <r>    -8.7335     3.2353     0.2494 </r>
       <r>    -8.6800     5.3523     0.5354 </r>
       <r>    -8.6266     5.5953     0.8345 </r>
       <r>    -8.5731     4.8520     1.0938 </r>
       <r>    -8.5197     5.1494     1.3691 </r>
       <r>    -8.4662     5.4099     1.6583 </r>
       <r>    -8.4128     3.9606     1.8699 </r>
       <r>    -8.3593     1.8246     1.9675 </r>
       <r>    -8.3059     0.5560     1.9972 </r>
       <r>    -8.2524     0.3327     2.0150 </r>
       <r>    -8.1990     0.8655     2.0612 </r>
       <r>    -8.1455     1.9212     2.1639 </r>
       <r>    -8.0921     3.3657     2.3438 </r>
       <r>    -8.0386     5.9150     2.6600 </r>
       <r>    -7.9852     9.9187     3.1901 </r>
       <r>    -7.9317    13.1359     3.8923 </r>
       <r>    -7.8783    13.1169     4.5934 </r>
       <r>    -7.8248    10.4386     5.1513 </r>
       <r>    -7.7714     7.1193     5.5319 </r>
       <r>    -7.7179     4.4530     5.7699 </r>
       <r>    -7.6645     2.7117     5.9148 </r>
       <r>    -7.6110     1.9868     6.0210 </r>
       <r>    -7.5576     3.2169     6.1929 </r>
       <r>    -7.5041     6.8054     6.5567 </r>
       <r>    -7.4507    10.6733     7.1272 </r>
       <r>    -7.3972    12.1334     7.7757 </r>
       <r>    -7.3438    11.6410     8.3979 </r>
       <r>    -7.2903    11.6221     9.0192 </r>
       <r>    -7.2369    12.9600     9.7119 </r>
       <r>    -7.1834    14.8753    10.5070 </r>
       <r>    -7.1300    16.0316    11.3639 </r>
       <r>    -7.0765    16.6375    12.2532 </r>
       <r>    -7.0231    19.0439    13.2711 </r>
       <r>    -6.9696    23.7122    14.5385 </r>
       <r>    -6.9162    29.3594    16.1078 </r>
       <r>    -6.8627    35.3594    17.9978 </r>
       <r>    -6.8093    41.1787    20.1988 </r>
       <r>    -6.7558    46.8191    22.7013 </r>
       <r>    -6.7024    51.0712    25.4311 </r>
       <r>    -6.6489    51.3465    28.1756 </r>
       <r>    -6.5955    48.3730    30.7612 </r>
       <r>    -6.5420    44.9518    33.1639 </r>
       <r>    -6.4886    42.8731    35.4555 </r>
       <r>    -6.4351    43.8246    37.7979 </r>
       <r>    -6.3817    48.4272    40.3864 </r>
       <r>    -6.3282    55.3458    43.3446 </r>
       <r>    -6.2748    61.9425    46.6555 </r>
       <r>    -6.2213    65.5570    50.1596 </r>
       <r>    -6.1679    66.2915    53.7029 </r>
       <r>    -6.1144    66.4887    57.2568 </r>
       <r>    -6.0610    67.8857    60.8853 </r>
       <r>    -6.0075    72.4516    64.7579 </r>
       <r>    -5.9541    79.8241    69.0245 </r>
       <r>    -5.9006    85.3360    73.5858 </r>
       <r>    -5.8472    86.0129    78.1832 </r>
       <r>    -5.7937    82.8464    82.6114 </r>
       <r>    -5.7403    77.5630    86.7572 </r>
       <r>    -5.6868    71.7087    90.5901 </r>
       <r>    -5.6334    66.8638    94.1640 </r>
       <r>    -5.5799    63.5389    97.5602 </r>
       <r>    -5.5265    61.5464   100.8499 </r>
       <r>    -5.4730    62.0496   104.1665 </r>
       <r>    -5.4196    66.3060   107.7106 </r>
       <r>    -5.3661    72.1230   111.5656 </r>
       <r>    -5.3127    76.1146   115.6340 </r>
       <r>    -5.2592    78.6577   119.8383 </r>
       <r>    -5.2058    81.3305   124.1854 </r>
       <r>    -5.1523    83.7869   128.6639 </r>
       <r>    -5.0989    86.1140   133.2668 </r>
       <r>    -5.0454    88.3854   137.9910 </r>
       <r>    -4.9920    89.9528   142.7990 </r>
       <r>    -4.9385    91.0363   147.6650 </r>
       <r>    -4.8851    91.8934   152.5768 </r>
       <r>    -4.8316    92.2269   157.5063 </r>
       <r>    -4.7782    92.6763   162.4600 </r>
       <r>    -4.7247    93.8123   167.4743 </r>
       <r>    -4.6713    94.5420   172.5276 </r>
       <r>    -4.6178    94.0544   177.5549 </r>
       <r>    -4.5643    93.1105   182.5317 </r>
       <r>    -4.5109    92.0171   187.4501 </r>
       <r>    -4.4574    90.0079   192.2610 </r>
       <r>    -4.4040    87.8235   196.9553 </r>
       <r>    -4.3505    87.7786   201.6471 </r>
       <r>    -4.2971    90.6348   206.4916 </r>
       <r>    -4.2436    94.0647   211.5194 </r>
       <r>    -4.1902    95.1596   216.6057 </r>
       <r>    -4.1367    93.9330   221.6265 </r>
       <r>    -4.0833    92.8068   226.5871 </r>
       <r>    -4.0298    93.7276   231.5969 </r>
       <r>    -3.9764    96.1372   236.7355 </r>
       <r>    -3.9229    98.7296   242.0127 </r>
       <r>    -3.8695   101.1766   247.4206 </r>
       <r>    -3.8160   101.9306   252.8689 </r>
       <r>    -3.7626   100.1498   258.2219 </r>
       <r>    -3.7091    98.5654   263.4903 </r>
       <r>    -3.6557   100.1929   268.8457 </r>
       <r>    -3.6022   103.9526   274.4020 </r>
       <r>    -3.5488   106.8044   280.1108 </r>
       <r>    -3.4953   107.8371   285.8748 </r>
       <r>    -3.4419   106.6793   291.5768 </r>
       <r>    -3.3884   103.2191   297.0940 </r>
       <r>    -3.3350    99.6170   302.4186 </r>
       <r>    -3.2815    98.2031   307.6676 </r>
       <r>    -3.2281    98.3830   312.9262 </r>
       <r>    -3.1746    97.0888   318.1157 </r>
       <r>    -3.1212    92.9493   323.0839 </r>
       <r>    -3.0677    88.1805   327.7972 </r>
       <r>    -3.0143    85.3976   332.3617 </r>
       <r>    -2.9608    84.7020   336.8891 </r>
       <r>    -2.9074    84.7836   341.4208 </r>
       <r>    -2.8539    85.4208   345.9866 </r>
       <r>    -2.8005    87.1652   350.6457 </r>
       <r>    -2.7470    89.6583   355.4380 </r>
       <r>    -2.6936    92.4816   360.3812 </r>
       <r>    -2.6401    94.6368   365.4396 </r>
       <r>    -2.5867    94.4523   370.4881 </r>
       <r>    -2.5332    92.4674   375.4305 </r>
       <r>    -2.4798    90.7662   380.2820 </r>
       <r>    -2.4263    90.5301   385.1209 </r>
       <r>    -2.3729    91.6428   390.0193 </r>
       <r>    -2.3194    93.4262   395.0130 </r>
       <r>    -2.2660    94.3795   400.0576 </r>
       <r>    -2.2125    92.3557   404.9941 </r>
       <r>    -2.1591    87.6542   409.6793 </r>
       <r>    -2.1056    84.0909   414.1740 </r>
       <r>    -2.0522    84.1470   418.6717 </r>
       <r>    -1.9987    85.7980   423.2577 </r>
       <r>    -1.9453    86.7783   427.8960 </r>
       <r>    -1.8918    88.3406   432.6179 </r>
       <r>    -1.8384    91.0915   437.4868 </r>
       <r>    -1.7849    93.2197   442.4694 </r>
       <r>    -1.7315    94.4658   447.5187 </r>
       <r>    -1.6780    95.1436   452.6042 </r>
       <r>    -1.6246    95.2099   457.6932 </r>
       <r>    -1.5711    95.7058   462.8087 </r>
       <r>    -1.5177    96.7421   467.9797 </r>
       <r>    -1.4642    97.4646   473.1892 </r>
       <r>    -1.4108    97.1285   478.3808 </r>
       <r>    -1.3573    94.2985   483.4211 </r>
       <r>    -1.3039    88.4038   488.1463 </r>
       <r>    -1.2504    81.7018   492.5134 </r>
       <r>    -1.1970    75.6717   496.5581 </r>
       <r>    -1.1435    68.6365   500.2267 </r>
       <r>    -1.0901    59.0502   503.3830 </r>
       <r>    -1.0366    47.5472   505.9244 </r>
       <r>    -0.9832    35.8725   507.8418 </r>
       <r>    -0.9297    25.2710   509.1926 </r>
       <r>    -0.8763    17.0847   510.1058 </r>
       <r>    -0.8228    12.1511   510.7553 </r>
       <r>    -0.7694     9.8259   511.2805 </r>
       <r>    -0.7159     9.1411   511.7691 </r>
       <r>    -0.6625     9.5950   512.2819 </r>
       <r>    -0.6090    11.1311   512.8769 </r>
       <r>    -0.5556    13.7832   513.6136 </r>
       <r>    -0.5021    16.3749   514.4889 </r>
       <r>    -0.4487    17.1624   515.4062 </r>
       <r>    -0.3952    16.4905   516.2876 </r>
       <r>    -0.3417    15.4537   517.1136 </r>
       <r>    -0.2883    15.3512   517.9342 </r>
       <r>    -0.2348    17.9314   518.8926 </r>
       <r>    -0.1814    21.7091   520.0530 </r>
       <r>    -0.1279    22.4314   521.2519 </r>
       <r>    -0.0745    19.1064   522.2732 </r>
       <r>    -0.0210    15.1887   523.0850 </r>
       <r>     0.0324    14.3646   523.8528 </r>
       <r>     0.0859    16.6648   524.7436 </r>
       <r>     0.1393    18.7813   525.7474 </r>
       <r>     0.1928    19.2784   526.7779 </r>
       <r>     0.2462    20.0149   527.8477 </r>
       <r>     0.2997    20.8724   528.9633 </r>
       <r>     0.3531    18.9765   529.9777 </r>
       <r>     0.4066    14.3643   530.7454 </r>
       <r>     0.4600    11.0720   531.3372 </r>
       <r>     0.5135    12.7645   532.0195 </r>
       <r>     0.5669    18.6968   533.0189 </r>
       <r>     0.6204    23.9088   534.2968 </r>
       <r>     0.6738    24.9142   535.6285 </r>
       <r>     0.7273    22.6811   536.8408 </r>
       <r>     0.7807    18.8111   537.8463 </r>
       <r>     0.8342    13.4142   538.5633 </r>
       <r>     0.8876     8.5356   539.0195 </r>
       <r>     0.9411     7.3952   539.4148 </r>
       <r>     0.9945     9.5604   539.9258 </r>
       <r>     1.0480    11.6604   540.5490 </r>
       <r>     1.1014    11.9302   541.1867 </r>
       <r>     1.1549    11.0913   541.7796 </r>
       <r>     1.2083     9.6745   542.2967 </r>
       <r>     1.2618     8.2261   542.7364 </r>
       <r>     1.3152     8.1945   543.1744 </r>
       <r>     1.3687    10.3142   543.7257 </r>
       <r>     1.4221    13.2210   544.4323 </r>
       <r>     1.4756    14.7463   545.2205 </r>
       <r>     1.5290    14.6602   546.0041 </r>
       <r>     1.5825    14.6453   546.7869 </r>
       <r>     1.6359    15.5215   547.6166 </r>
       <r>     1.6894    16.4455   548.4956 </r>
       <r>     1.7428    16.8093   549.3940 </r>
       <r>     1.7963    16.8421   550.2943 </r>
       <r>     1.8497    15.9544   551.1470 </r>
       <r>     1.9032    13.3883   551.8627 </r>
       <r>     1.9566    10.0792   552.4014 </r>
       <r>     2.0101     7.1930   552.7859 </r>
       <r>     2.0635     6.1111   553.1125 </r>
       <r>     2.1170     8.7870   553.5822 </r>
       <r>     2.1704    14.0539   554.3334 </r>
       <r>     2.2239    17.8589   555.2879 </r>
       <r>     2.2773    19.1373   556.3108 </r>
       <r>     2.3308    20.2700   557.3943 </r>
       <r>     2.3842    22.0683   558.5738 </r>
       <r>     2.4377    23.5220   559.8311 </r>
       <r>     2.4911    24.7436   561.1537 </r>
       <r>     2.5446    25.7395   562.5295 </r>
       <r>     2.5980    25.1176   563.8720 </r>
       <r>     2.6515    22.8827   565.0951 </r>
       <r>     2.7049    20.3712   566.1840 </r>
       <r>     2.7584    17.6029   567.1248 </r>
       <r>     2.8118    14.2922   567.8888 </r>
       <r>     2.8653    11.2618   568.4907 </r>
       <r>     2.9187     9.4479   568.9957 </r>
       <r>     2.9722     8.6394   569.4575 </r>
       <r>     3.0256     7.9154   569.8806 </r>
       <r>     3.0791     7.5026   570.2816 </r>
       <r>     3.1325     8.2221   570.7211 </r>
       <r>     3.1860    10.0814   571.2599 </r>
       <r>     3.2394    12.2656   571.9155 </r>
       <r>     3.2929    12.6436   572.5914 </r>
       <r>     3.3463    10.6915   573.1628 </r>
       <r>     3.3998     8.7051   573.6281 </r>
       <r>     3.4532     8.5735   574.0864 </r>
       <r>     3.5067    11.5256   574.7024 </r>
       <r>     3.5601    16.4831   575.5835 </r>
       <r>     3.6136    18.6979   576.5829 </r>
       <r>     3.6670    16.0139   577.4388 </r>
       <r>     3.7205    12.6533   578.1152 </r>
       <r>     3.7740    12.5829   578.7877 </r>
       <r>     3.8274    14.3250   579.5534 </r>
       <r>     3.8809    14.4971   580.3283 </r>
       <r>     3.9343    13.3138   581.0399 </r>
       <r>     3.9878    13.5628   581.7649 </r>
       <r>     4.0412    15.1095   582.5725 </r>
       <r>     4.0947    15.0336   583.3760 </r>
       <r>     4.1481    13.3094   584.0874 </r>
       <r>     4.2016    12.3090   584.7453 </r>
       <r>     4.2550    11.3495   585.3520 </r>
       <r>     4.3085     9.1174   585.8393 </r>
       <r>     4.3619     8.2658   586.2811 </r>
       <r>     4.4154    10.8496   586.8610 </r>
       <r>     4.4688    14.2479   587.6226 </r>
       <r>     4.5223    16.5992   588.5098 </r>
       <r>     4.5757    20.2502   589.5922 </r>
       <r>     4.6292    25.9459   590.9790 </r>
       <r>     4.6826    29.0644   592.5326 </r>
       <r>     4.7361    27.8590   594.0216 </r>
       <r>     4.7895    26.9192   595.4605 </r>
       <r>     4.8430    27.4528   596.9279 </r>
       <r>     4.8964    26.6577   598.3527 </r>
       <r>     4.9499    25.8420   599.7340 </r>
       <r>     5.0033    29.0126   601.2847 </r>
       <r>     5.0568    35.2047   603.1665 </r>
       <r>     5.1102    38.6109   605.2302 </r>
       <r>     5.1637    36.5946   607.1862 </r>
       <r>     5.2171    31.7651   608.8841 </r>
       <r>     5.2706    25.5354   610.2490 </r>
       <r>     5.3240    17.6109   611.1903 </r>
       <r>     5.3775     9.6837   611.7079 </r>
       <r>     5.4309     4.0254   611.9231 </r>
       <r>     5.4844     1.1825   611.9863 </r>
       <r>     5.5378     0.2278   611.9984 </r>
       <r>     5.5913     0.0271   611.9999 </r>
       <r>     5.6447     0.0019   612.0000 </r>
       <r>     5.6982     0.0001   612.0000 </r>
       <r>     5.7516     0.0000   612.0000 </r>
       <r>     5.8051     0.0000   612.0000 </r>
       <r>     5.8585     0.0000   612.0000 </r>
       <r>     5.9120     0.0000   612.0000 </r>
       <r>     5.9654     0.0000   612.0000 </r>
       <r>     6.0189     0.0000   612.0000 </r>
       <r>     6.0723     0.0000   612.0000 </r>
       <r>     6.1258     0.0000   612.0000 </r>
       <r>     6.1792     0.0000   612.0000 </r>
       <r>     6.2327     0.0000   612.0000 </r>
       <r>     6.2861     0.0000   612.0000 </r>
       <r>     6.3396     0.0000   612.0000 </r>
      </set>
     </set>
    </array>
   </total>
  </dos>
 </calculation>
 <structure name="finalpos" >
  <crystal>
   <varray name="basis" >
    <v>      11.00258152       0.00000000       0.00000000 </v>
    <v>       5.50129076       9.52851510       0.00000000 </v>
    <v>       0.00000000       0.00000000      24.49178509 </v>
   </varray>
   <i name="volume">   2567.67623402 </i>
   <varray name="rec_basis" >
    <v>       0.09088776      -0.05247407       0.00000000 </v>
    <v>       0.00000000       0.10494815       0.00000000 </v>
    <v>       0.00000000       0.00000000       0.04083002 </v>
   </varray>
  </crystal>
  <varray name="positions" >
   <v>       0.24915554       0.74927708       0.60518546 </v>
   <v>       0.50555965      -0.00214811       0.60327334 </v>
   <v>       0.41450831       0.16705291       0.49998320 </v>
   <v>       0.58396257       0.08498506       0.39434605 </v>
   <v>       0.50214797       0.49796538       0.60721189 </v>
   <v>       0.58026928       0.83512169       0.39636168 </v>
   <v>       0.24732979       0.49930283       0.60480104 </v>
   <v>       0.16397835       0.66928745       0.50087331 </v>
   <v>       0.41581127       0.91600831       0.50119674 </v>
   <v>       0.24793064       0.25147689       0.60276156 </v>
   <v>       0.50560045       0.74672287       0.60242457 </v>
   <v>       0.33456181       0.33396068       0.39481678 </v>
   <v>       0.57880878       0.58465834       0.39804345 </v>
   <v>       0.24858425       0.00184532       0.60510668 </v>
   <v>       0.66911219       0.16402061       0.50011775 </v>
   <v>       0.83459048       0.32881415       0.39702753 </v>
   <v>       0.66803348       0.41839203       0.50040689 </v>
   <v>       0.75119558       0.24894609       0.60481297 </v>
   <v>       0.83300660       0.58271194       0.39534081 </v>
   <v>       0.08517690       0.58523594       0.39650314 </v>
   <v>       0.08573108       0.32921381       0.39815444 </v>
   <v>      -0.00203876      -0.00082842       0.60224855 </v>
   <v>       0.83542789       0.83588872       0.39692063 </v>
   <v>       0.41473897       0.41870654       0.50128074 </v>
   <v>       0.75111068      -0.00280778       0.59576585 </v>
   <v>       0.66760736       0.66701498       0.49738995 </v>
   <v>       0.75334226       0.49909305       0.59476966 </v>
   <v>       0.41625533       0.66831863       0.50266086 </v>
   <v>       0.83545767       0.08320029       0.40370255 </v>
   <v>       0.08475633       0.08038322       0.40655608 </v>
   <v>       0.58327806       0.33398212       0.40311216 </v>
   <v>       0.91818775       0.16608417       0.50116740 </v>
   <v>       0.91716803       0.41685679       0.49675886 </v>
   <v>      -0.00157818       0.25283172       0.59536414 </v>
   <v>       0.91480442       0.66652695       0.49598908 </v>
   <v>      -0.00215773       0.50037096       0.59223381 </v>
   <v>       0.08523179       0.83585624       0.40482399 </v>
   <v>       0.91602649       0.91668185       0.49961365 </v>
   <v>      -0.00265181       0.74868850       0.59533424 </v>
   <v>       0.33249911       0.08271942       0.40363335 </v>
   <v>       0.16356220       0.16893832       0.50119669 </v>
   <v>       0.16369321       0.41761063       0.49855233 </v>
   <v>       0.33275079       0.58551325       0.40479274 </v>
   <v>       0.33051189       0.83487994       0.40645984 </v>
   <v>       0.16405066       0.91966013       0.50365321 </v>
   <v>       0.66820234       0.91473702       0.49702476 </v>
   <v>       0.50103390       0.24853806       0.59832806 </v>
   <v>       0.75367438       0.74770343       0.59191754 </v>
  </varray>
 </structure>
</modeling>
