  48  48   0   0
  0.5349325E+02  0.1100258E-08  0.1100258E-08  0.2449179E-08  0.3500000E-15
  1.000000000000000E-004
  CAR 
 unknown system                          
      6.35107494     -9.93740760  301     -1.09560943      1.00000000
     -9.937  0.0000E+00  0.0000E+00
     -9.883  0.0000E+00  0.0000E+00
     -9.829  0.0000E+00  0.0000E+00
     -9.775  0.0000E+00  0.0000E+00
     -9.720  0.0000E+00  0.0000E+00
     -9.666  0.0000E+00  0.0000E+00
     -9.612  0.0000E+00  0.0000E+00
     -9.557  0.0000E+00  0.0000E+00
     -9.503  0.9542E-17  0.5181E-18
     -9.449  0.3830E-14  0.2085E-15
     -9.394  0.8571E-12  0.4674E-13
     -9.340  0.1083E-09  0.5925E-11
     -9.286  0.7737E-08  0.4260E-09
     -9.232  0.3137E-06  0.1746E-07
     -9.177  0.7232E-05  0.4101E-06
     -9.123  0.9512E-04  0.5575E-05
     -9.069  0.7155E-03  0.4442E-04
     -9.014  0.3086E-02  0.2120E-03
     -8.960  0.7659E-02  0.6278E-03
     -8.906  0.1109E-01  0.1230E-02
     -8.852  0.1012E-01  0.1779E-02
     -8.797  0.8312E-02  0.2231E-02
     -8.743  0.9436E-02  0.2743E-02
     -8.689  0.1035E-01  0.3305E-02
     -8.634  0.7766E-02  0.3727E-02
     -8.580  0.3747E-02  0.3930E-02
     -8.526  0.1402E-02  0.4006E-02
     -8.471  0.1426E-02  0.4084E-02
     -8.417  0.3035E-02  0.4248E-02
     -8.363  0.4924E-02  0.4516E-02
     -8.309  0.6609E-02  0.4875E-02
     -8.254  0.8097E-02  0.5314E-02
     -8.200  0.8088E-02  0.5753E-02
     -8.146  0.7221E-02  0.6145E-02
     -8.091  0.8110E-02  0.6586E-02
     -8.037  0.1064E-01  0.7163E-02
     -7.983  0.1321E-01  0.7881E-02
     -7.928  0.1426E-01  0.8655E-02
     -7.874  0.1280E-01  0.9350E-02
     -7.820  0.1097E-01  0.9946E-02
     -7.766  0.1136E-01  0.1056E-01
     -7.711  0.1336E-01  0.1129E-01
     -7.657  0.1478E-01  0.1209E-01
     -7.603  0.1519E-01  0.1292E-01
     -7.548  0.1652E-01  0.1381E-01
     -7.494  0.2027E-01  0.1491E-01
     -7.440  0.2300E-01  0.1616E-01
     -7.386  0.2016E-01  0.1726E-01
     -7.331  0.1642E-01  0.1815E-01
     -7.277  0.2090E-01  0.1928E-01
     -7.223  0.3333E-01  0.2109E-01
     -7.168  0.4577E-01  0.2358E-01
     -7.114  0.5531E-01  0.2658E-01
     -7.060  0.6305E-01  0.3000E-01
     -7.005  0.6556E-01  0.3356E-01
     -6.951  0.6109E-01  0.3688E-01
     -6.897  0.5686E-01  0.3997E-01
     -6.843  0.6027E-01  0.4324E-01
     -6.788  0.6990E-01  0.4704E-01
     -6.734  0.7949E-01  0.5135E-01
     -6.680  0.8505E-01  0.5597E-01
     -6.625  0.8640E-01  0.6066E-01
     -6.571  0.8771E-01  0.6542E-01
     -6.517  0.9422E-01  0.7054E-01
     -6.463  0.1053E+00  0.7625E-01
     -6.408  0.1158E+00  0.8254E-01
     -6.354  0.1248E+00  0.8932E-01
     -6.300  0.1319E+00  0.9648E-01
     -6.245  0.1357E+00  0.1038E+00
     -6.191  0.1421E+00  0.1116E+00
     -6.137  0.1555E+00  0.1200E+00
     -6.082  0.1664E+00  0.1290E+00
     -6.028  0.1674E+00  0.1381E+00
     -5.974  0.1641E+00  0.1470E+00
     -5.920  0.1626E+00  0.1559E+00
     -5.865  0.1602E+00  0.1646E+00
     -5.811  0.1546E+00  0.1730E+00
     -5.757  0.1486E+00  0.1810E+00
     -5.702  0.1427E+00  0.1888E+00
     -5.648  0.1351E+00  0.1961E+00
     -5.594  0.1293E+00  0.2031E+00
     -5.540  0.1293E+00  0.2101E+00
     -5.485  0.1346E+00  0.2175E+00
     -5.431  0.1405E+00  0.2251E+00
     -5.377  0.1445E+00  0.2329E+00
     -5.322  0.1503E+00  0.2411E+00
     -5.268  0.1575E+00  0.2496E+00
     -5.214  0.1602E+00  0.2583E+00
     -5.159  0.1605E+00  0.2671E+00
     -5.105  0.1638E+00  0.2759E+00
     -5.051  0.1670E+00  0.2850E+00
     -4.997  0.1680E+00  0.2941E+00
     -4.942  0.1702E+00  0.3034E+00
     -4.888  0.1725E+00  0.3127E+00
     -4.834  0.1712E+00  0.3220E+00
     -4.779  0.1665E+00  0.3311E+00
     -4.725  0.1627E+00  0.3399E+00
     -4.671  0.1647E+00  0.3489E+00
     -4.617  0.1705E+00  0.3581E+00
     -4.562  0.1726E+00  0.3675E+00
     -4.508  0.1694E+00  0.3767E+00
     -4.454  0.1672E+00  0.3858E+00
     -4.399  0.1699E+00  0.3950E+00
     -4.345  0.1746E+00  0.4045E+00
     -4.291  0.1771E+00  0.4141E+00
     -4.236  0.1766E+00  0.4237E+00
     -4.182  0.1743E+00  0.4331E+00
     -4.128  0.1724E+00  0.4425E+00
     -4.074  0.1718E+00  0.4518E+00
     -4.019  0.1710E+00  0.4611E+00
     -3.965  0.1714E+00  0.4704E+00
     -3.911  0.1762E+00  0.4800E+00
     -3.856  0.1835E+00  0.4899E+00
     -3.802  0.1898E+00  0.5002E+00
     -3.748  0.1942E+00  0.5108E+00
     -3.693  0.1961E+00  0.5214E+00
     -3.639  0.1966E+00  0.5321E+00
     -3.585  0.1971E+00  0.5428E+00
     -3.531  0.1968E+00  0.5535E+00
     -3.476  0.1963E+00  0.5642E+00
     -3.422  0.1986E+00  0.5749E+00
     -3.368  0.2023E+00  0.5859E+00
     -3.313  0.2026E+00  0.5969E+00
     -3.259  0.1973E+00  0.6076E+00
     -3.205  0.1906E+00  0.6180E+00
     -3.151  0.1861E+00  0.6281E+00
     -3.096  0.1825E+00  0.6380E+00
     -3.042  0.1810E+00  0.6478E+00
     -2.988  0.1834E+00  0.6578E+00
     -2.933  0.1881E+00  0.6680E+00
     -2.879  0.1932E+00  0.6785E+00
     -2.825  0.1965E+00  0.6892E+00
     -2.770  0.1950E+00  0.6998E+00
     -2.716  0.1916E+00  0.7102E+00
     -2.662  0.1916E+00  0.7206E+00
     -2.608  0.1934E+00  0.7311E+00
     -2.553  0.1932E+00  0.7416E+00
     -2.499  0.1910E+00  0.7519E+00
     -2.445  0.1881E+00  0.7621E+00
     -2.390  0.1863E+00  0.7723E+00
     -2.336  0.1867E+00  0.7824E+00
     -2.282  0.1861E+00  0.7925E+00
     -2.228  0.1807E+00  0.8023E+00
     -2.173  0.1752E+00  0.8118E+00
     -2.119  0.1769E+00  0.8214E+00
     -2.065  0.1834E+00  0.8314E+00
     -2.010  0.1887E+00  0.8416E+00
     -1.956  0.1926E+00  0.8521E+00
     -1.902  0.1980E+00  0.8628E+00
     -1.847  0.2047E+00  0.8739E+00
     -1.793  0.2104E+00  0.8854E+00
     -1.739  0.2118E+00  0.8969E+00
     -1.685  0.2080E+00  0.9082E+00
     -1.630  0.2027E+00  0.9192E+00
     -1.576  0.1995E+00  0.9300E+00
     -1.522  0.1978E+00  0.9407E+00
     -1.467  0.1949E+00  0.9513E+00
     -1.413  0.1891E+00  0.9616E+00
     -1.359  0.1818E+00  0.9715E+00
     -1.305  0.1746E+00  0.9809E+00
     -1.250  0.1635E+00  0.9898E+00
     -1.196  0.1422E+00  0.9975E+00
     -1.142  0.1144E+00  0.1004E+01
     -1.087  0.9078E-01  0.1009E+01
     -1.033  0.7246E-01  0.1013E+01
     -0.979  0.5475E-01  0.1016E+01
     -0.924  0.3790E-01  0.1018E+01
     -0.870  0.2497E-01  0.1019E+01
     -0.816  0.1844E-01  0.1020E+01
     -0.762  0.1939E-01  0.1021E+01
     -0.707  0.2488E-01  0.1022E+01
     -0.653  0.3028E-01  0.1024E+01
     -0.599  0.3575E-01  0.1026E+01
     -0.544  0.4304E-01  0.1028E+01
     -0.490  0.4845E-01  0.1031E+01
     -0.436  0.4577E-01  0.1033E+01
     -0.381  0.3673E-01  0.1035E+01
     -0.327  0.3235E-01  0.1037E+01
     -0.273  0.3692E-01  0.1039E+01
     -0.219  0.4083E-01  0.1041E+01
     -0.164  0.3610E-01  0.1043E+01
     -0.110  0.2690E-01  0.1045E+01
     -0.056  0.2088E-01  0.1046E+01
     -0.001  0.1893E-01  0.1047E+01
      0.053  0.1928E-01  0.1048E+01
      0.107  0.2259E-01  0.1049E+01
      0.161  0.2611E-01  0.1051E+01
      0.216  0.2654E-01  0.1052E+01
      0.270  0.2795E-01  0.1054E+01
      0.324  0.3249E-01  0.1055E+01
      0.379  0.3774E-01  0.1057E+01
      0.433  0.4271E-01  0.1060E+01
      0.487  0.4672E-01  0.1062E+01
      0.542  0.5083E-01  0.1065E+01
      0.596  0.5463E-01  0.1068E+01
      0.650  0.5357E-01  0.1071E+01
      0.704  0.4762E-01  0.1074E+01
      0.759  0.4102E-01  0.1076E+01
      0.813  0.3449E-01  0.1078E+01
      0.867  0.2775E-01  0.1079E+01
      0.922  0.2287E-01  0.1080E+01
      0.976  0.2085E-01  0.1082E+01
      1.030  0.2080E-01  0.1083E+01
      1.084  0.2098E-01  0.1084E+01
      1.139  0.1872E-01  0.1085E+01
      1.193  0.1453E-01  0.1086E+01
      1.247  0.1146E-01  0.1086E+01
      1.302  0.1048E-01  0.1087E+01
      1.356  0.1080E-01  0.1087E+01
      1.410  0.1256E-01  0.1088E+01
      1.465  0.1878E-01  0.1089E+01
      1.519  0.2951E-01  0.1091E+01
      1.573  0.3701E-01  0.1093E+01
      1.627  0.3597E-01  0.1095E+01
      1.682  0.3096E-01  0.1096E+01
      1.736  0.2913E-01  0.1098E+01
      1.790  0.3093E-01  0.1100E+01
      1.845  0.3137E-01  0.1101E+01
      1.899  0.2877E-01  0.1103E+01
      1.953  0.2564E-01  0.1104E+01
      2.007  0.2386E-01  0.1106E+01
      2.062  0.2610E-01  0.1107E+01
      2.116  0.3347E-01  0.1109E+01
      2.170  0.4069E-01  0.1111E+01
      2.225  0.4344E-01  0.1113E+01
      2.279  0.4340E-01  0.1116E+01
      2.333  0.4234E-01  0.1118E+01
      2.388  0.4076E-01  0.1120E+01
      2.442  0.4014E-01  0.1122E+01
      2.496  0.4073E-01  0.1125E+01
      2.550  0.4179E-01  0.1127E+01
      2.605  0.4413E-01  0.1129E+01
      2.659  0.4666E-01  0.1132E+01
      2.713  0.4409E-01  0.1134E+01
      2.768  0.3468E-01  0.1136E+01
      2.822  0.2236E-01  0.1137E+01
      2.876  0.1271E-01  0.1138E+01
      2.930  0.9933E-02  0.1139E+01
      2.985  0.1116E-01  0.1139E+01
      3.039  0.1043E-01  0.1140E+01
      3.093  0.9029E-02  0.1140E+01
      3.148  0.1217E-01  0.1141E+01
      3.202  0.1910E-01  0.1142E+01
      3.256  0.2430E-01  0.1143E+01
      3.311  0.2405E-01  0.1144E+01
      3.365  0.1943E-01  0.1146E+01
      3.419  0.1724E-01  0.1146E+01
      3.473  0.2271E-01  0.1148E+01
      3.528  0.3184E-01  0.1149E+01
      3.582  0.3951E-01  0.1152E+01
      3.636  0.4489E-01  0.1154E+01
      3.691  0.4517E-01  0.1156E+01
      3.745  0.3815E-01  0.1159E+01
      3.799  0.2873E-01  0.1160E+01
      3.854  0.2299E-01  0.1161E+01
      3.908  0.2096E-01  0.1162E+01
      3.962  0.2218E-01  0.1164E+01
      4.016  0.2607E-01  0.1165E+01
      4.071  0.2769E-01  0.1167E+01
      4.125  0.2599E-01  0.1168E+01
      4.179  0.2477E-01  0.1169E+01
      4.234  0.2275E-01  0.1171E+01
      4.288  0.1762E-01  0.1172E+01
      4.342  0.1508E-01  0.1172E+01
      4.396  0.2088E-01  0.1174E+01
      4.451  0.2989E-01  0.1175E+01
      4.505  0.3630E-01  0.1177E+01
      4.559  0.4446E-01  0.1180E+01
      4.614  0.5502E-01  0.1183E+01
      4.668  0.5832E-01  0.1186E+01
      4.722  0.5090E-01  0.1188E+01
      4.777  0.4232E-01  0.1191E+01
      4.831  0.4159E-01  0.1193E+01
      4.885  0.4681E-01  0.1196E+01
      4.939  0.5279E-01  0.1198E+01
      4.994  0.5994E-01  0.1202E+01
      5.048  0.6829E-01  0.1205E+01
      5.102  0.7053E-01  0.1209E+01
      5.157  0.6356E-01  0.1213E+01
      5.211  0.5729E-01  0.1216E+01
      5.265  0.5481E-01  0.1219E+01
      5.319  0.4641E-01  0.1221E+01
      5.374  0.3020E-01  0.1223E+01
      5.428  0.1435E-01  0.1224E+01
      5.482  0.4733E-02  0.1224E+01
      5.537  0.1013E-02  0.1224E+01
      5.591  0.1327E-03  0.1224E+01
      5.645  0.1026E-04  0.1224E+01
      5.700  0.4585E-06  0.1224E+01
      5.754  0.1170E-07  0.1224E+01
      5.808  0.1691E-09  0.1224E+01
      5.862  0.1380E-11  0.1224E+01
      5.917  0.6328E-14  0.1224E+01
      5.971  0.1772E-16  0.1224E+01
      6.025  0.0000E+00  0.1224E+01
      6.080  0.0000E+00  0.1224E+01
      6.134  0.0000E+00  0.1224E+01
      6.188  0.0000E+00  0.1224E+01
      6.242  0.0000E+00  0.1224E+01
      6.297  0.0000E+00  0.1224E+01
      6.351  0.0000E+00  0.1224E+01
