unknown system                          
           1
    11.002582    0.000000    0.000000
     5.501291    9.528515    0.000000
     0.000000    0.000000   24.491785
   Au   Pd
  24  24
Direct configuration=     1
   0.08333333  0.08333333  0.40830017
   0.41666667  0.66666667  0.50000000
   0.50000000  0.50000000  0.59169983
   0.41666667  0.16666667  0.50000000
   0.58333333  0.08333333  0.40830017
   0.58333333  0.83333333  0.40830017
   0.41666667  0.91666667  0.50000000
   0.16666667  0.66666667  0.50000000
   0.66666667  0.16666667  0.50000000
   0.25000000  0.25000000  0.59169983
   0.16666667  0.41666667  0.50000000
   0.33333333  0.33333333  0.40830017
   0.58333333  0.58333333  0.40830017
   0.50000000  0.25000000  0.59169983
   0.33333333  0.08333333  0.40830017
   0.00000000  0.75000000  0.59169983
   0.83333333  0.33333333  0.40830017
   0.91666667  0.66666667  0.50000000
   0.08333333  0.58333333  0.40830017
   0.91666667  0.41666667  0.50000000
   0.66666667  0.66666667  0.50000000
   0.75000000  0.50000000  0.59169983
   0.83333333  0.83333333  0.40830017
   0.16666667  0.16666667  0.50000000
   0.66666667  0.41666667  0.50000000
   0.75000000  0.25000000  0.59169983
   0.83333333  0.08333333  0.40830017
   0.50000000  0.75000000  0.59169983
   0.83333333  0.58333333  0.40830017
   0.75000000  0.00000000  0.59169983
   0.25000000  0.75000000  0.59169983
   0.58333333  0.33333333  0.40830017
   0.91666667  0.16666667  0.50000000
   0.00000000  0.00000000  0.59169983
   0.08333333  0.33333333  0.40830017
   0.00000000  0.25000000  0.59169983
   0.00000000  0.50000000  0.59169983
   0.08333333  0.83333333  0.40830017
   0.41666667  0.41666667  0.50000000
   0.91666667  0.91666667  0.50000000
   0.33333333  0.58333333  0.40830017
   0.25000000  0.50000000  0.59169983
   0.33333333  0.83333333  0.40830017
   0.16666667  0.91666667  0.50000000
   0.66666667  0.91666667  0.50000000
   0.50000000  0.00000000  0.59169983
   0.25000000  0.00000000  0.59169983
   0.75000000  0.75000000  0.59169983
Direct configuration=     2
   0.08304379  0.08228617  0.40641970
   0.41533645  0.66688615  0.49999268
   0.49951307  0.50023650  0.59361366
   0.41813626  0.16585362  0.50047802
   0.58441624  0.08354958  0.40609444
   0.58362007  0.83283282  0.40600009
   0.41636655  0.91617093  0.50088245
   0.16777059  0.66765242  0.50005344
   0.66870421  0.16661698  0.50007875
   0.24926299  0.25004838  0.59423240
   0.16673959  0.41718050  0.50038185
   0.33363240  0.33441411  0.40604544
   0.58288201  0.58274744  0.40610982
   0.50054307  0.24979215  0.59388069
   0.33252873  0.08326062  0.40567788
  -0.00033936  0.75064067  0.59378408
   0.83311867  0.33306992  0.40643870
   0.91506898  0.66778965  0.50041342
   0.08338280  0.58338469  0.40579904
   0.91679116  0.41574058  0.50006156
   0.66698170  0.66720450  0.50042029
   0.75053711  0.49954701  0.59387617
   0.83382111  0.83387943  0.40642646
   0.16493683  0.16604799  0.50045500
   0.66692877  0.41495588  0.49993264
   0.75110928  0.24903010  0.59264535
   0.83385950  0.08318246  0.40746124
   0.49948001  0.75100338  0.59304564
   0.83366295  0.58292906  0.40677647
   0.75027877 -0.00029085  0.59260337
   0.24975971  0.75086609  0.59284467
   0.58311152  0.33366678  0.40732339
   0.91642319  0.16574459  0.50045663
   0.00016188  0.00049626  0.59243087
   0.08297771  0.33367974  0.40679036
  -0.00019523  0.24911486  0.59285576
   0.00000132  0.49997237  0.59313812
   0.08348560  0.83395610  0.40742172
   0.41706876  0.41719143  0.49977079
   0.91659509  0.91800700  0.50008412
   0.33360952  0.58333844  0.40712480
   0.24987278  0.50030382  0.59301152
   0.33260560  0.83314081  0.40704275
   0.16526815  0.91703662  0.50032607
   0.66747618  0.91663825  0.50073745
   0.50079137 -0.00114238  0.59289646
   0.24962030 -0.00069761  0.59279454
   0.74925226  0.75104400  0.59286920
Direct configuration=     3
   0.08217515  0.07914467  0.40077829
   0.41134579  0.66754460  0.49997071
   0.49805226  0.50094598  0.59935515
   0.42254503  0.16341447  0.50191210
   0.58766496  0.08419830  0.39947727
   0.58448030  0.83133127  0.39909984
   0.41546618  0.91468371  0.50352982
   0.17108234  0.67060966  0.50021377
   0.67481684  0.16646791  0.50031501
   0.24705196  0.25019351  0.60183010
   0.16695837  0.41872200  0.50152741
   0.33452960  0.33765644  0.39928127
   0.58152806  0.58098977  0.39953877
   0.50217226  0.24916860  0.60042328
   0.33011493  0.08304247  0.39781101
  -0.00135746  0.75256268  0.60003683
   0.83247469  0.33227970  0.40085430
   0.91027591  0.67115861  0.50165369
   0.08353119  0.58353877  0.39829567
   0.91716464  0.41296233  0.50024622
   0.66792678  0.66881802  0.50168115
   0.75214844  0.49818805  0.60040518
   0.83528444  0.83551772  0.40080533
   0.15974732  0.16419196  0.50181998
   0.66771507  0.40982351  0.49973057
   0.75443711  0.24612041  0.59548192
   0.83543798  0.08272985  0.40494444
   0.49792003  0.75401353  0.59708306
   0.83465182  0.58171622  0.40220537
   0.75111509 -0.00116338  0.59531400
   0.24903883  0.75346434  0.59627921
   0.58244609  0.33466712  0.40439307
   0.91569278  0.16297836  0.50182654
   0.00064752  0.00198503  0.59462398
   0.08191083  0.33471895  0.40226092
  -0.00078092  0.24645945  0.59632356
   0.00000530  0.49988947  0.59745299
   0.08394240  0.83582441  0.40478639
   0.41827504  0.41876574  0.49908316
   0.91638038  0.92202799  0.50033648
   0.33443809  0.58335375  0.40359870
   0.24949113  0.50121526  0.59694660
   0.33042238  0.83256324  0.40327051
   0.16107259  0.91814649  0.50130428
   0.66990473  0.91655300  0.50294980
   0.50316547 -0.00456954  0.59648634
   0.24848121 -0.00279045  0.59607868
   0.74700906  0.75417602  0.59637729
Direct configuration=     4
   0.08228515  0.08056390  0.39944301
   0.41652353  0.66668413  0.49990701
   0.49869130  0.50134908  0.60064247
   0.42129893  0.16447534  0.50155816
   0.58612611  0.08448206  0.39826135
   0.58384256  0.83180279  0.39791590
   0.41490607  0.91608718  0.50239450
   0.16585717  0.66971842  0.50019709
   0.67052197  0.16612172  0.50022254
   0.24762303  0.24936630  0.60354437
   0.16773614  0.41820258  0.50122740
   0.33437644  0.33597035  0.39806142
   0.58175325  0.58199374  0.39840845
   0.50206830  0.24883400  0.60190558
   0.33079644  0.08337385  0.39659962
  -0.00079629  0.75228537  0.60143740
   0.83312828  0.33208865  0.39957409
   0.91460106  0.67031206  0.50128021
   0.08315797  0.58430829  0.39700835
   0.91562064  0.41406193  0.50009523
   0.66585675  0.66672807  0.50119386
   0.75151898  0.49857819  0.60184948
   0.83581409  0.83446403  0.39971215
   0.16294162  0.16407210  0.50122149
   0.66757533  0.41347146  0.49985503
   0.75357668  0.24677255  0.59679418
   0.83519838  0.08323630  0.40401234
   0.49856850  0.75224031  0.59842421
   0.83420586  0.58206299  0.40157740
   0.75110284 -0.00045373  0.59647940
   0.24888184  0.75321033  0.59763022
   0.58294817  0.33398828  0.40351745
   0.91681997  0.16436366  0.50108689
   0.00067517  0.00122722  0.59600151
   0.08281212  0.33388364  0.40172804
  -0.00072425  0.24702432  0.59775178
  -0.00046142  0.50027833  0.59844544
   0.08418310  0.83410630  0.40400877
   0.41858556  0.41639867  0.49939145
   0.91741999  0.91824788  0.50031030
   0.33347678  0.58428324  0.40245186
   0.24924422  0.50146111  0.59778586
   0.33158830  0.83244084  0.40270540
   0.16125810  0.91922453  0.50090265
   0.66891546  0.91845672  0.50191088
   0.50202195 -0.00294886  0.59793779
   0.24834139 -0.00205514  0.59756205
   0.74753648  0.75315491  0.59806796
Direct configuration=     5
   0.08231587  0.08096024  0.39907012
   0.41796949  0.66644383  0.49988922
   0.49886975  0.50146165  0.60100197
   0.42095094  0.16477160  0.50145931
   0.58569637  0.08456131  0.39792179
   0.58366446  0.83193446  0.39758528
   0.41474966  0.91647912  0.50207745
   0.16439797  0.66946953  0.50019244
   0.66932256  0.16602504  0.50019672
   0.24778251  0.24913529  0.60402310
   0.16795335  0.41805753  0.50114362
   0.33433366  0.33549948  0.39772075
   0.58181614  0.58227412  0.39809279
   0.50203927  0.24874055  0.60231953
   0.33098676  0.08346640  0.39626133
  -0.00063958  0.75220792  0.60182852
   0.83331080  0.33203530  0.39921657
   0.91580891  0.67007565  0.50117591
   0.08305375  0.58452319  0.39664885
   0.91518945  0.41436901  0.50005306
   0.66527867  0.66614442  0.50105778
   0.75134319  0.49868715  0.60225282
   0.83596200  0.83416977  0.39940687
   0.16383367  0.16403862  0.50105435
   0.66753631  0.41449019  0.49988978
   0.75333639  0.24695468  0.59716065
   0.83513147  0.08337774  0.40375204
   0.49874960  0.75174511  0.59879875
   0.83408132  0.58215983  0.40140204
   0.75109941 -0.00025555  0.59680486
   0.24883800  0.75313940  0.59800751
   0.58308838  0.33379870  0.40327292
   0.91713475  0.16475052  0.50088034
   0.00068289  0.00101559  0.59638621
   0.08306382  0.33365036  0.40157923
  -0.00070842  0.24718206  0.59815064
  -0.00059175  0.50038693  0.59872260
   0.08425032  0.83362649  0.40379160
   0.41867228  0.41573764  0.49947754
   0.91771032  0.91719224  0.50030299
   0.33320832  0.58454281  0.40213159
   0.24917527  0.50152976  0.59802023
   0.33191390  0.83240666  0.40254758
   0.16130991  0.91952559  0.50079049
   0.66863920  0.91898836  0.50162075
   0.50170260 -0.00249627  0.59834312
   0.24830234 -0.00184979  0.59797630
   0.74768376  0.75286976  0.59854010
Direct configuration=     6
   0.08290745  0.08129579  0.39846661
   0.41660415  0.66575844  0.49995056
   0.49896693  0.50127178  0.60146428
   0.41879283  0.16560485  0.50127110
   0.58503182  0.08412143  0.39737958
   0.58357017  0.83246912  0.39718965
   0.41529404  0.91740208  0.50147484
   0.16611079  0.66853467  0.50023979
   0.66882791  0.16649829  0.50022667
   0.24807732  0.24904909  0.60477082
   0.16828634  0.41635708  0.50093118
   0.33383103  0.33501024  0.39732714
   0.58216427  0.58246943  0.39756701
   0.50152719  0.24901478  0.60302112
   0.33175683  0.08337587  0.39577576
  -0.00059269  0.75195975  0.60260873
   0.83342597  0.33242979  0.39867003
   0.91495734  0.66928319  0.50103202
   0.08332071  0.58388944  0.39601881
   0.91549954  0.41530999  0.50010645
   0.66657977  0.66673269  0.50086778
   0.75130721  0.49890655  0.60290278
   0.83518589  0.83401858  0.39900027
   0.16559793  0.16535401  0.50078484
   0.66752910  0.41470660  0.49998535
   0.75260318  0.24748397  0.59750276
   0.83473814  0.08336911  0.40355578
   0.49898835  0.75140464  0.59925256
   0.83382695  0.58245940  0.40148396
   0.75103633 -0.00000480  0.59726662
   0.24907634  0.75258876  0.59824987
   0.58325889  0.33372542  0.40308487
   0.91649287  0.16538951  0.50041101
   0.00042286  0.00091557  0.59698466
   0.08355637  0.33352619  0.40166994
  -0.00055387  0.24771771  0.59862062
  -0.00075935  0.50041205  0.59890126
   0.08456078  0.83313993  0.40348609
   0.41828289  0.41600023  0.49975342
   0.91717066  0.91719630  0.50034946
   0.33288860  0.58470365  0.40200203
   0.24934897  0.50124940  0.59824414
   0.33242237  0.83273391  0.40247207
   0.16230268  0.91853010  0.50055499
   0.66833017  0.91762927  0.50090666
   0.50095566 -0.00184248  0.59878507
   0.24859458 -0.00149359  0.59855014
   0.74789575  0.75234221  0.59887882
Direct configuration=     7
   0.08300715  0.08135234  0.39836490
   0.41637405  0.66564293  0.49996089
   0.49898331  0.50123978  0.60154220
   0.41842912  0.16574528  0.50123938
   0.58491982  0.08404730  0.39728820
   0.58355428  0.83255923  0.39712298
   0.41538579  0.91755763  0.50137329
   0.16639945  0.66837712  0.50024778
   0.66874455  0.16657804  0.50023172
   0.24812701  0.24903457  0.60489683
   0.16834246  0.41607050  0.50089538
   0.33374632  0.33492779  0.39726081
   0.58222294  0.58250235  0.39747840
   0.50144089  0.24906099  0.60313935
   0.33188661  0.08336061  0.39569393
  -0.00058479  0.75191793  0.60274022
   0.83344538  0.33249627  0.39857793
   0.91481382  0.66914964  0.50100777
   0.08336570  0.58378264  0.39591263
   0.91555180  0.41546857  0.50011545
   0.66679904  0.66683183  0.50083576
   0.75130114  0.49894353  0.60301232
   0.83505509  0.83399310  0.39893175
   0.16589525  0.16557569  0.50073942
   0.66752789  0.41474308  0.50000145
   0.75247962  0.24757317  0.59756042
   0.83467185  0.08336766  0.40352271
   0.49902858  0.75134726  0.59932904
   0.83378409  0.58250989  0.40149777
   0.75102569  0.00003746  0.59734444
   0.24911651  0.75249596  0.59829071
   0.58328763  0.33371307  0.40305317
   0.91638469  0.16549720  0.50033191
   0.00037904  0.00089872  0.59708551
   0.08363938  0.33350527  0.40168523
  -0.00052782  0.24780798  0.59869983
  -0.00078759  0.50041628  0.59893137
   0.08461310  0.83305793  0.40343460
   0.41821727  0.41604449  0.49979991
   0.91707971  0.91719698  0.50035729
   0.33283472  0.58473076  0.40198020
   0.24937824  0.50120215  0.59828188
   0.33250806  0.83278907  0.40245934
   0.16246999  0.91836233  0.50051531
   0.66827809  0.91740022  0.50078631
   0.50082978 -0.00173230  0.59885955
   0.24864383 -0.00143356  0.59864685
   0.74793147  0.75225330  0.59893591
Direct configuration=     8
   0.08329288  0.08115453  0.39814142
   0.41587042  0.66579264  0.50006603
   0.49896672  0.50105994  0.60172594
   0.41885489  0.16577321  0.50125554
   0.58492616  0.08410229  0.39702852
   0.58362648  0.83247275  0.39683559
   0.41597017  0.91675981  0.50131913
   0.16695336  0.66785451  0.50033025
   0.66872805  0.16656099  0.50035118
   0.24803605  0.24935647  0.60539218
   0.16801512  0.41653289  0.50087635
   0.33381433  0.33511339  0.39708969
   0.58222166  0.58252869  0.39729564
   0.50117330  0.24913807  0.60348871
   0.33204622  0.08322971  0.39529698
  -0.00067864  0.75173329  0.60307332
   0.83351487  0.33271993  0.39837715
   0.91497403  0.66893917  0.50103389
   0.08343779  0.58345561  0.39561033
   0.91594974  0.41508409  0.50027492
   0.66638403  0.66756212  0.50089327
   0.75135590  0.49898143  0.60332935
   0.83493699  0.83397390  0.39875276
   0.16525852  0.16562764  0.50079365
   0.66754128  0.41465411  0.50004817
   0.75233188  0.24775966  0.59752636
   0.83461041  0.08312864  0.40355552
   0.49897252  0.75166813  0.59922922
   0.83380683  0.58253769  0.40158384
   0.75073797  0.00000400  0.59736838
   0.24924783  0.75235415  0.59828100
   0.58308071  0.33380639  0.40313788
   0.91668367  0.16548241  0.50016694
   0.00024916  0.00116841  0.59716812
   0.08361392  0.33362907  0.40176654
  -0.00043439  0.24787087  0.59864692
  -0.00060584  0.50032463  0.59889663
   0.08452090  0.83326849  0.40338984
   0.41809066  0.41605156  0.49995929
   0.91678876  0.91745948  0.50048514
   0.33307235  0.58438893  0.40204362
   0.24936675  0.50090207  0.59828863
   0.33271578  0.83294247  0.40249305
   0.16270626  0.91865969  0.50050120
   0.66788530  0.91722384  0.50052738
   0.50084947 -0.00185212  0.59879485
   0.24876420 -0.00141472  0.59863373
   0.74777460  0.75247508  0.59887598
Direct configuration=     9
   0.08348818  0.08101932  0.39798866
   0.41552616  0.66589497  0.50013789
   0.49895538  0.50093701  0.60185154
   0.41914592  0.16579231  0.50126659
   0.58493048  0.08413988  0.39685101
   0.58367583  0.83241363  0.39663914
   0.41636963  0.91621447  0.50128211
   0.16733199  0.66749728  0.50038662
   0.66871677  0.16654933  0.50043284
   0.24797388  0.24957651  0.60573078
   0.16779137  0.41684895  0.50086333
   0.33386081  0.33524025  0.39697272
   0.58222077  0.58254670  0.39717071
   0.50099039  0.24919075  0.60372751
   0.33215532  0.08314023  0.39502564
  -0.00074280  0.75160708  0.60330102
   0.83356237  0.33287281  0.39823992
   0.91508353  0.66879531  0.50105174
   0.08348707  0.58323208  0.39540369
   0.91622175  0.41482128  0.50038392
   0.66610035  0.66806131  0.50093257
   0.75139334  0.49900734  0.60354605
   0.83485626  0.83396078  0.39863041
   0.16482328  0.16566315  0.50083072
   0.66755044  0.41459330  0.50008011
   0.75223090  0.24788713  0.59750308
   0.83456842  0.08296526  0.40357795
   0.49893419  0.75188747  0.59916099
   0.83382237  0.58255670  0.40164268
   0.75054130 -0.00001887  0.59738475
   0.24933759  0.75225721  0.59827436
   0.58293927  0.33387017  0.40319578
   0.91688803  0.16547230  0.50005417
   0.00016038  0.00135275  0.59722459
   0.08359652  0.33371370  0.40182212
  -0.00037052  0.24791386  0.59861075
  -0.00048161  0.50026198  0.59887288
   0.08445788  0.83341242  0.40335924
   0.41800412  0.41605640  0.50006823
   0.91658988  0.91763891  0.50057254
   0.33323478  0.58415527  0.40208697
   0.24935890  0.50069695  0.59829325
   0.33285776  0.83304732  0.40251609
   0.16286776  0.91886295  0.50049156
   0.66761681  0.91710328  0.50035038
   0.50086293 -0.00193402  0.59875062
   0.24884649 -0.00140184  0.59862475
   0.74766737  0.75262667  0.59883501
Direct configuration=    10
   0.08357138  0.08093440  0.39773262
   0.41570506  0.66579740  0.50023679
   0.49898832  0.50090747  0.60206004
   0.41919201  0.16570668  0.50131967
   0.58490360  0.08434893  0.39654359
   0.58381298  0.83220791  0.39618631
   0.41604181  0.91642393  0.50122660
   0.16685413  0.66787608  0.50044414
   0.66890434  0.16639616  0.50059349
   0.24782359  0.24971011  0.60631867
   0.16789543  0.41685913  0.50083664
   0.33402155  0.33527711  0.39679705
   0.58216933  0.58252495  0.39703444
   0.50085043  0.24906107  0.60416367
   0.33216943  0.08327574  0.39454558
  -0.00081129  0.75158544  0.60364145
   0.83361020  0.33283932  0.39808193
   0.91529532  0.66906669  0.50109091
   0.08342981  0.58332071  0.39505379
   0.91572674  0.41498106  0.50059010
   0.66609825  0.66754768  0.50098207
   0.75134440  0.49919187  0.60387873
   0.83511292  0.83374699  0.39846890
   0.16522538  0.16515480  0.50091678
   0.66757610  0.41481093  0.50011323
   0.75220174  0.24795009  0.59739047
   0.83460003  0.08290207  0.40368327
   0.49888023  0.75204494  0.59902760
   0.83386139  0.58255019  0.40181472
   0.75021542 -0.00005111  0.59731679
   0.24924118  0.75227758  0.59824329
   0.58294906  0.33389178  0.40339633
   0.91693815  0.16525420  0.49985844
   0.00002529  0.00155293  0.59718499
   0.08370742  0.33361564  0.40193746
  -0.00031090  0.24789061  0.59853088
  -0.00043285  0.50027084  0.59885499
   0.08442135  0.83342673  0.40345915
   0.41819490  0.41577998  0.50027890
   0.91676520  0.91744123  0.50077031
   0.33340121  0.58405601  0.40221471
   0.24925677  0.50054956  0.59833997
   0.33303893  0.83298291  0.40255162
   0.16273284  0.91909691  0.50049850
   0.66755427  0.91728277  0.50004141
   0.50080208 -0.00188388  0.59856423
   0.24890054 -0.00133294  0.59849170
   0.74754452  0.75289843  0.59869307
Direct configuration=    11
   0.08366559  0.08083824  0.39744270
   0.41590764  0.66568691  0.50034878
   0.49902563  0.50087402  0.60229612
   0.41924419  0.16560973  0.50137978
   0.58487316  0.08458563  0.39619548
   0.58396829  0.83197497  0.39567354
   0.41567061  0.91666110  0.50116375
   0.16631304  0.66830499  0.50050927
   0.66911674  0.16622273  0.50077541
   0.24765341  0.24986139  0.60698435
   0.16801327  0.41687066  0.50080641
   0.33420355  0.33531885  0.39659814
   0.58211107  0.58250033  0.39688015
   0.50069195  0.24891423  0.60465754
   0.33218540  0.08342919  0.39400200
  -0.00088884  0.75156094  0.60402693
   0.83366436  0.33280139  0.39790304
   0.91553513  0.66937398  0.50113528
   0.08336498  0.58342108  0.39465758
   0.91516623  0.41516199  0.50082356
   0.66609587  0.66696607  0.50103811
   0.75128899  0.49940081  0.60425543
   0.83540353  0.83350492  0.39828602
   0.16568069  0.16457918  0.50101424
   0.66760517  0.41505737  0.50015073
   0.75216873  0.24802137  0.59726296
   0.83463582  0.08283051  0.40380253
   0.49881911  0.75222326  0.59887657
   0.83390558  0.58254282  0.40200954
   0.74984641 -0.00008762  0.59723983
   0.24913201  0.75230064  0.59820810
   0.58296015  0.33391624  0.40362342
   0.91699491  0.16500724  0.49963681
  -0.00012767  0.00177960  0.59714015
   0.08383300  0.33350460  0.40206805
  -0.00024339  0.24786427  0.59844044
  -0.00037763  0.50028087  0.59883473
   0.08438000  0.83344294  0.40357227
   0.41841093  0.41546698  0.50051745
   0.91696371  0.91721739  0.50099425
   0.33358966  0.58394361  0.40235936
   0.24914112  0.50038267  0.59839288
   0.33324408  0.83290996  0.40259185
   0.16258007  0.91936182  0.50050636
   0.66748346  0.91748602  0.49969155
   0.50073318 -0.00182711  0.59835317
   0.24896174 -0.00125493  0.59834104
   0.74740541  0.75320614  0.59853235
Direct configuration=    12
   0.08367998  0.08084914  0.39721324
   0.41585850  0.66546998  0.50039313
   0.49895984  0.50095866  0.60247607
   0.41886479  0.16576861  0.50140989
   0.58505580  0.08440887  0.39591476
   0.58401909  0.83211691  0.39522983
   0.41581244  0.91679646  0.50087648
   0.16635853  0.66856923  0.50055676
   0.66903893  0.16626279  0.50086523
   0.24754543  0.24970732  0.60751738
   0.16818919  0.41625510  0.50076551
   0.33413380  0.33540619  0.39650922
   0.58224307  0.58237085  0.39681246
   0.50072853  0.24881890  0.60506613
   0.33223307  0.08351399  0.39351005
  -0.00093597  0.75179885  0.60433437
   0.83374954  0.33260882  0.39786884
   0.91509452  0.66960030  0.50116776
   0.08360815  0.58345580  0.39436379
   0.91548658  0.41499448  0.50097077
   0.66629470  0.66700178  0.50098230
   0.75122083  0.49956797  0.60458319
   0.83542390  0.83362005  0.39818951
   0.16584149  0.16528749  0.50098264
   0.66747699  0.41484115  0.50018328
   0.75215440  0.24805247  0.59714059
   0.83468313  0.08285948  0.40395675
   0.49875810  0.75209166  0.59878877
   0.83404443  0.58236127  0.40226181
   0.74970423 -0.00004781  0.59715542
   0.24889094  0.75240934  0.59817798
   0.58327799  0.33378812  0.40393144
   0.91691849  0.16507521  0.49943662
  -0.00026601  0.00175256  0.59703427
   0.08403456  0.33333056  0.40230077
  -0.00036359  0.24788462  0.59837537
  -0.00058538  0.50041528  0.59883007
   0.08458467  0.83322588  0.40375863
   0.41852603  0.41539933  0.50078656
   0.91706996  0.91714501  0.50117809
   0.33344100  0.58416516  0.40262954
   0.24909224  0.50050283  0.59846574
   0.33324365  0.83283596  0.40261928
   0.16238811  0.91892097  0.50046702
   0.66768403  0.91724032  0.49925238
   0.50049138 -0.00156763  0.59813816
   0.24887572 -0.00114649  0.59827400
   0.74737021  0.75325624  0.59829815
Direct configuration=    13
   0.08368268  0.08085119  0.39717006
   0.41584925  0.66542915  0.50040147
   0.49894746  0.50097459  0.60250994
   0.41879339  0.16579851  0.50141556
   0.58509017  0.08437561  0.39586193
   0.58402865  0.83214362  0.39514633
   0.41583914  0.91682193  0.50082242
   0.16636709  0.66861896  0.50056570
   0.66902429  0.16627033  0.50088213
   0.24752511  0.24967832  0.60761769
   0.16822229  0.41613926  0.50075782
   0.33412067  0.33542263  0.39649249
   0.58226791  0.58234648  0.39679972
   0.50073542  0.24880096  0.60514303
   0.33224204  0.08352995  0.39341747
  -0.00094483  0.75184363  0.60439223
   0.83376557  0.33257258  0.39786241
   0.91501161  0.66964289  0.50117387
   0.08365391  0.58346234  0.39430850
   0.91554687  0.41496296  0.50099847
   0.66633212  0.66700850  0.50097180
   0.75120800  0.49959943  0.60464487
   0.83542774  0.83364172  0.39817135
   0.16587175  0.16542078  0.50097670
   0.66745286  0.41480046  0.50018940
   0.75215171  0.24805832  0.59711756
   0.83469204  0.08286493  0.40398577
   0.49874662  0.75206689  0.59877225
   0.83407056  0.58232711  0.40230928
   0.74967748 -0.00004032  0.59713954
   0.24884558  0.75242979  0.59817231
   0.58333781  0.33376400  0.40398941
   0.91690411  0.16508800  0.49939895
  -0.00029205  0.00174747  0.59701435
   0.08407249  0.33329781  0.40234457
  -0.00038622  0.24788845  0.59836312
  -0.00062447  0.50044058  0.59882919
   0.08462318  0.83318503  0.40379370
   0.41854770  0.41538660  0.50083720
   0.91708995  0.91713139  0.50121268
   0.33341303  0.58420686  0.40268038
   0.24908304  0.50052544  0.59847945
   0.33324357  0.83282203  0.40262444
   0.16235199  0.91883800  0.50045962
   0.66772177  0.91719408  0.49916973
   0.50044587 -0.00151880  0.59809770
   0.24885953 -0.00112609  0.59826138
   0.74736359  0.75326567  0.59825407
Direct configuration=    14
   0.08384683  0.08078616  0.39703048
   0.41605063  0.66537412  0.50043057
   0.49885121  0.50106413  0.60266340
   0.41893102  0.16585246  0.50141595
   0.58516059  0.08434267  0.39566806
   0.58399820  0.83223237  0.39476904
   0.41600796  0.91673195  0.50042347
   0.16644299  0.66792422  0.50065123
   0.66862317  0.16610595  0.50091169
   0.24743089  0.24958164  0.60802425
   0.16818797  0.41649155  0.50080305
   0.33422354  0.33543001  0.39650249
   0.58248830  0.58229879  0.39682933
   0.50076224  0.24886233  0.60543485
   0.33233512  0.08342487  0.39297410
  -0.00102922  0.75203079  0.60459172
   0.83391463  0.33246970  0.39792783
   0.91514462  0.66938270  0.50118895
   0.08384236  0.58345227  0.39415259
   0.91573153  0.41483675  0.50110123
   0.66621297  0.66718741  0.50084278
   0.75110690  0.49966102  0.60485716
   0.83556053  0.83370816  0.39812716
   0.16581070  0.16556644  0.50090719
   0.66750287  0.41466150  0.50026708
   0.75209786  0.24814338  0.59704961
   0.83482735  0.08276890  0.40413121
   0.49862055  0.75194067  0.59867796
   0.83426418  0.58216660  0.40253084
   0.74961361  0.00001524  0.59705957
   0.24867278  0.75259047  0.59820099
   0.58348080  0.33358955  0.40426961
   0.91710385  0.16528206  0.49925214
  -0.00038660  0.00174758  0.59690648
   0.08421503  0.33320020  0.40251976
  -0.00060274  0.24789938  0.59833764
  -0.00076130  0.50061242  0.59885925
   0.08471125  0.83306806  0.40393031
   0.41830579  0.41540205  0.50111621
   0.91686457  0.91720461  0.50132884
   0.33334174  0.58428105  0.40298573
   0.24899342  0.50066312  0.59853625
   0.33324153  0.83288561  0.40261740
   0.16237816  0.91898332  0.50041392
   0.66768359  0.91726501  0.49872167
   0.50022570 -0.00137154  0.59786225
   0.24871814 -0.00109557  0.59816414
   0.74725219  0.75329788  0.59803259
Direct configuration=    15
   0.08388683  0.08077032  0.39699648
   0.41609970  0.66536070  0.50043766
   0.49882776  0.50108595  0.60270079
   0.41896455  0.16586561  0.50141604
   0.58517775  0.08433464  0.39562081
   0.58399078  0.83225400  0.39467710
   0.41604910  0.91671002  0.50032626
   0.16646149  0.66775493  0.50067207
   0.66852543  0.16606589  0.50091889
   0.24740793  0.24955808  0.60812331
   0.16817960  0.41657739  0.50081408
   0.33424861  0.33543181  0.39650493
   0.58254201  0.58228717  0.39683655
   0.50076878  0.24887729  0.60550596
   0.33235780  0.08339927  0.39286606
  -0.00104978  0.75207639  0.60464033
   0.83395095  0.33244463  0.39794378
   0.91517703  0.66931930  0.50119262
   0.08388828  0.58344981  0.39411460
   0.91577652  0.41480600  0.50112627
   0.66618393  0.66723101  0.50081134
   0.75108226  0.49967602  0.60490888
   0.83559289  0.83372435  0.39811639
   0.16579582  0.16560193  0.50089026
   0.66751506  0.41462763  0.50028600
   0.75208473  0.24816411  0.59703305
   0.83486032  0.08274550  0.40416664
   0.49858983  0.75190991  0.59865499
   0.83431136  0.58212749  0.40258483
   0.74959805  0.00002878  0.59704008
   0.24863068  0.75262962  0.59820798
   0.58351564  0.33354704  0.40433789
   0.91715252  0.16532935  0.49921637
  -0.00040964  0.00174760  0.59688020
   0.08424976  0.33317641  0.40256245
  -0.00065551  0.24790204  0.59833143
  -0.00079465  0.50065429  0.59886657
   0.08473271  0.83303955  0.40396360
   0.41824685  0.41540582  0.50118420
   0.91680965  0.91722245  0.50135714
   0.33332438  0.58429913  0.40306013
   0.24897159  0.50069667  0.59855009
   0.33324103  0.83290110  0.40261569
   0.16238454  0.91901873  0.50040278
   0.66767429  0.91728229  0.49861249
   0.50017205 -0.00133566  0.59780489
   0.24868369 -0.00108813  0.59814045
   0.74722504  0.75330573  0.59797862
Direct configuration=    16
   0.08405297  0.08066636  0.39696818
   0.41605897  0.66546593  0.50047579
   0.49870909  0.50116252  0.60277258
   0.41887149  0.16587563  0.50138909
   0.58509544  0.08447536  0.39554429
   0.58415160  0.83203429  0.39444403
   0.41588269  0.91686547  0.50010783
   0.16638427  0.66780064  0.50081307
   0.66851472  0.16605657  0.50093883
   0.24729773  0.24969344  0.60823671
   0.16818640  0.41665606  0.50092987
   0.33447127  0.33527149  0.39659847
   0.58257133  0.58230305  0.39691495
   0.50065957  0.24899921  0.60560905
   0.33240709  0.08337511  0.39262652
  -0.00116360  0.75205239  0.60465913
   0.83404230  0.33248462  0.39802287
   0.91535368  0.66921480  0.50119167
   0.08383859  0.58340209  0.39410397
   0.91546699  0.41504334  0.50120572
   0.66613834  0.66714398  0.50073881
   0.75103269  0.49966093  0.60490915
   0.83578007  0.83352618  0.39810038
   0.16612454  0.16512529  0.50086413
   0.66767331  0.41460954  0.50040026
   0.75199224  0.24821441  0.59701576
   0.83498044  0.08263587  0.40423065
   0.49847442  0.75205075  0.59854911
   0.83445967  0.58222506  0.40263145
   0.74949779  0.00004445  0.59700361
   0.24857991  0.75272186  0.59822335
   0.58339824  0.33356680  0.40447184
   0.91709235  0.16529940  0.49921200
  -0.00048410  0.00187458  0.59681895
   0.08437791  0.33317885  0.40258828
  -0.00074479  0.24793011  0.59836410
  -0.00072196  0.50063955  0.59893200
   0.08469715  0.83314223  0.40404182
   0.41826855  0.41537688  0.50136946
   0.91680727  0.91713829  0.50135768
   0.33359677  0.58410330  0.40324001
   0.24886736  0.50066661  0.59867228
   0.33331896  0.83289956  0.40253045
   0.16256344  0.91912947  0.50036294
   0.66757933  0.91730086  0.49837648
   0.50013890 -0.00143413  0.59761800
   0.24863108 -0.00111274  0.59798812
   0.74702754  0.75344370  0.59783628
Direct configuration=    17
   0.08411118  0.08062994  0.39695826
   0.41604469  0.66550280  0.50048915
   0.49866751  0.50118935  0.60279774
   0.41883888  0.16587914  0.50137964