  48  48   0   0
  0.5349325E+02  0.1100258E-08  0.1100258E-08  0.2449179E-08  0.3500000E-15
  1.000000000000000E-004
  CAR 
 unknown system                          
      6.31345016    -10.02833064  301     -1.10182630      1.00000000
    -10.028  0.0000E+00  0.0000E+00
     -9.974  0.0000E+00  0.0000E+00
     -9.919  0.0000E+00  0.0000E+00
     -9.865  0.0000E+00  0.0000E+00
     -9.810  0.0000E+00  0.0000E+00
     -9.756  0.0000E+00  0.0000E+00
     -9.701  0.0000E+00  0.0000E+00
     -9.647  0.0000E+00  0.0000E+00
     -9.593  0.9511E-17  0.5181E-18
     -9.538  0.3808E-14  0.2079E-15
     -9.484  0.8395E-12  0.4594E-13
     -9.429  0.1043E-09  0.5730E-11
     -9.375  0.7341E-08  0.4056E-09
     -9.320  0.2936E-06  0.1640E-07
     -9.266  0.6708E-05  0.3818E-06
     -9.211  0.8793E-04  0.5172E-05
     -9.157  0.6640E-03  0.4134E-04
     -9.102  0.2900E-02  0.1993E-03
     -9.048  0.7366E-02  0.6006E-03
     -8.993  0.1110E-01  0.1205E-02
     -8.939  0.1094E-01  0.1802E-02
     -8.884  0.9679E-02  0.2329E-02
     -8.830  0.1011E-01  0.2880E-02
     -8.775  0.9651E-02  0.3405E-02
     -8.721  0.6655E-02  0.3768E-02
     -8.667  0.3119E-02  0.3938E-02
     -8.612  0.9962E-03  0.3992E-02
     -8.558  0.5182E-03  0.4020E-02
     -8.503  0.1345E-02  0.4094E-02
     -8.449  0.2936E-02  0.4254E-02
     -8.394  0.3815E-02  0.4461E-02
     -8.340  0.3543E-02  0.4654E-02
     -8.285  0.4348E-02  0.4891E-02
     -8.231  0.7350E-02  0.5292E-02
     -8.176  0.1089E-01  0.5885E-02
     -8.122  0.1457E-01  0.6678E-02
     -8.067  0.1767E-01  0.7641E-02
     -8.013  0.1689E-01  0.8561E-02
     -7.958  0.1275E-01  0.9255E-02
     -7.904  0.8613E-02  0.9725E-02
     -7.849  0.6706E-02  0.1009E-01
     -7.795  0.8350E-02  0.1054E-01
     -7.740  0.1122E-01  0.1116E-01
     -7.686  0.1131E-01  0.1177E-01
     -7.632  0.9794E-02  0.1231E-01
     -7.577  0.1022E-01  0.1286E-01
     -7.523  0.1268E-01  0.1355E-01
     -7.468  0.1629E-01  0.1444E-01
     -7.414  0.2303E-01  0.1570E-01
     -7.359  0.3553E-01  0.1763E-01
     -7.305  0.5278E-01  0.2051E-01
     -7.250  0.6820E-01  0.2422E-01
     -7.196  0.7228E-01  0.2816E-01
     -7.141  0.6339E-01  0.3161E-01
     -7.087  0.5139E-01  0.3441E-01
     -7.032  0.4420E-01  0.3682E-01
     -6.978  0.4109E-01  0.3906E-01
     -6.923  0.3901E-01  0.4118E-01
     -6.869  0.3721E-01  0.4321E-01
     -6.814  0.4021E-01  0.4540E-01
     -6.760  0.5180E-01  0.4822E-01
     -6.706  0.6637E-01  0.5184E-01
     -6.651  0.7884E-01  0.5613E-01
     -6.597  0.9044E-01  0.6106E-01
     -6.542  0.1012E+00  0.6657E-01
     -6.488  0.1103E+00  0.7257E-01
     -6.433  0.1194E+00  0.7908E-01
     -6.379  0.1324E+00  0.8629E-01
     -6.324  0.1475E+00  0.9433E-01
     -6.270  0.1584E+00  0.1030E+00
     -6.215  0.1636E+00  0.1119E+00
     -6.161  0.1641E+00  0.1208E+00
     -6.106  0.1613E+00  0.1296E+00
     -6.052  0.1566E+00  0.1381E+00
     -5.997  0.1511E+00  0.1464E+00
     -5.943  0.1475E+00  0.1544E+00
     -5.888  0.1458E+00  0.1623E+00
     -5.834  0.1431E+00  0.1701E+00
     -5.779  0.1386E+00  0.1777E+00
     -5.725  0.1341E+00  0.1850E+00
     -5.671  0.1321E+00  0.1922E+00
     -5.616  0.1325E+00  0.1994E+00
     -5.562  0.1340E+00  0.2067E+00
     -5.507  0.1348E+00  0.2140E+00
     -5.453  0.1341E+00  0.2213E+00
     -5.398  0.1339E+00  0.2286E+00
     -5.344  0.1369E+00  0.2361E+00
     -5.289  0.1441E+00  0.2439E+00
     -5.235  0.1541E+00  0.2523E+00
     -5.180  0.1641E+00  0.2613E+00
     -5.126  0.1739E+00  0.2708E+00
     -5.071  0.1812E+00  0.2806E+00
     -5.017  0.1817E+00  0.2905E+00
     -4.962  0.1780E+00  0.3002E+00
     -4.908  0.1773E+00  0.3099E+00
     -4.853  0.1784E+00  0.3196E+00
     -4.799  0.1767E+00  0.3292E+00
     -4.744  0.1722E+00  0.3386E+00
     -4.690  0.1672E+00  0.3477E+00
     -4.636  0.1632E+00  0.3566E+00
     -4.581  0.1610E+00  0.3654E+00
     -4.527  0.1615E+00  0.3742E+00
     -4.472  0.1640E+00  0.3831E+00
     -4.418  0.1648E+00  0.3921E+00
     -4.363  0.1621E+00  0.4009E+00
     -4.309  0.1583E+00  0.4095E+00
     -4.254  0.1558E+00  0.4180E+00
     -4.200  0.1560E+00  0.4265E+00
     -4.145  0.1604E+00  0.4353E+00
     -4.091  0.1683E+00  0.4444E+00
     -4.036  0.1754E+00  0.4540E+00
     -3.982  0.1782E+00  0.4637E+00
     -3.927  0.1787E+00  0.4734E+00
     -3.873  0.1823E+00  0.4833E+00
     -3.818  0.1911E+00  0.4938E+00
     -3.764  0.2016E+00  0.5047E+00
     -3.710  0.2068E+00  0.5160E+00
     -3.655  0.2051E+00  0.5272E+00
     -3.601  0.2022E+00  0.5382E+00
     -3.546  0.2017E+00  0.5492E+00
     -3.492  0.2043E+00  0.5603E+00
     -3.437  0.2072E+00  0.5716E+00
     -3.383  0.2066E+00  0.5829E+00
     -3.328  0.2043E+00  0.5940E+00
     -3.274  0.2036E+00  0.6051E+00
     -3.219  0.1999E+00  0.6160E+00
     -3.165  0.1897E+00  0.6263E+00
     -3.110  0.1786E+00  0.6360E+00
     -3.056  0.1741E+00  0.6455E+00
     -3.001  0.1755E+00  0.6551E+00
     -2.947  0.1788E+00  0.6648E+00
     -2.892  0.1853E+00  0.6749E+00
     -2.838  0.1932E+00  0.6854E+00
     -2.783  0.1966E+00  0.6961E+00
     -2.729  0.1951E+00  0.7068E+00
     -2.675  0.1913E+00  0.7172E+00
     -2.620  0.1899E+00  0.7275E+00
     -2.566  0.1931E+00  0.7380E+00
     -2.511  0.1939E+00  0.7486E+00
     -2.457  0.1888E+00  0.7589E+00
     -2.402  0.1831E+00  0.7689E+00
     -2.348  0.1809E+00  0.7787E+00
     -2.293  0.1808E+00  0.7886E+00
     -2.239  0.1810E+00  0.7984E+00
     -2.184  0.1799E+00  0.8082E+00
     -2.130  0.1795E+00  0.8180E+00
     -2.075  0.1842E+00  0.8280E+00
     -2.021  0.1931E+00  0.8386E+00
     -1.966  0.2030E+00  0.8496E+00
     -1.912  0.2133E+00  0.8612E+00
     -1.857  0.2208E+00  0.8733E+00
     -1.803  0.2214E+00  0.8853E+00
     -1.748  0.2170E+00  0.8971E+00
     -1.694  0.2118E+00  0.9087E+00
     -1.640  0.2047E+00  0.9198E+00
     -1.585  0.1958E+00  0.9305E+00
     -1.531  0.1873E+00  0.9407E+00
     -1.476  0.1795E+00  0.9505E+00
     -1.422  0.1746E+00  0.9600E+00
     -1.367  0.1765E+00  0.9696E+00
     -1.313  0.1808E+00  0.9794E+00
     -1.258  0.1747E+00  0.9890E+00
     -1.204  0.1507E+00  0.9972E+00
     -1.149  0.1178E+00  0.1004E+01
     -1.095  0.9188E-01  0.1009E+01
     -1.040  0.7448E-01  0.1013E+01
     -0.986  0.5652E-01  0.1016E+01
     -0.931  0.3644E-01  0.1018E+01
     -0.877  0.2146E-01  0.1019E+01
     -0.822  0.1492E-01  0.1020E+01
     -0.768  0.1537E-01  0.1021E+01
     -0.714  0.2181E-01  0.1022E+01
     -0.659  0.3080E-01  0.1023E+01
     -0.605  0.3841E-01  0.1025E+01
     -0.550  0.4497E-01  0.1028E+01
     -0.496  0.4893E-01  0.1031E+01
     -0.441  0.4581E-01  0.1033E+01
     -0.387  0.3940E-01  0.1035E+01
     -0.332  0.3840E-01  0.1037E+01
     -0.278  0.4268E-01  0.1040E+01
     -0.223  0.4353E-01  0.1042E+01
     -0.169  0.3638E-01  0.1044E+01
     -0.114  0.2535E-01  0.1045E+01
     -0.060  0.1695E-01  0.1046E+01
     -0.005  0.1373E-01  0.1047E+01
      0.049  0.1460E-01  0.1048E+01
      0.104  0.1929E-01  0.1049E+01
      0.158  0.2495E-01  0.1050E+01
      0.213  0.2671E-01  0.1052E+01
      0.267  0.2686E-01  0.1053E+01
      0.321  0.3089E-01  0.1055E+01
      0.376  0.3760E-01  0.1057E+01
      0.430  0.4245E-01  0.1059E+01
      0.485  0.4666E-01  0.1062E+01
      0.539  0.5258E-01  0.1065E+01
      0.594  0.5649E-01  0.1068E+01
      0.648  0.5433E-01  0.1071E+01
      0.703  0.4759E-01  0.1073E+01
      0.757  0.4081E-01  0.1075E+01
      0.812  0.3496E-01  0.1077E+01
      0.866  0.2976E-01  0.1079E+01
      0.921  0.2624E-01  0.1080E+01
      0.975  0.2410E-01  0.1082E+01
      1.030  0.2351E-01  0.1083E+01
      1.084  0.2238E-01  0.1084E+01
      1.139  0.1817E-01  0.1085E+01
      1.193  0.1468E-01  0.1086E+01
      1.247  0.1366E-01  0.1087E+01
      1.302  0.1146E-01  0.1087E+01
      1.356  0.7428E-02  0.1088E+01
      1.411  0.5432E-02  0.1088E+01
      1.465  0.1003E-01  0.1089E+01
      1.520  0.2260E-01  0.1090E+01
      1.574  0.3663E-01  0.1092E+01
      1.629  0.4160E-01  0.1094E+01
      1.683  0.3716E-01  0.1096E+01
      1.738  0.3196E-01  0.1098E+01
      1.792  0.2925E-01  0.1100E+01
      1.847  0.2769E-01  0.1101E+01
      1.901  0.2835E-01  0.1103E+01
      1.956  0.3102E-01  0.1104E+01
      2.010  0.3323E-01  0.1106E+01
      2.065  0.3628E-01  0.1108E+01
      2.119  0.4080E-01  0.1110E+01
      2.174  0.4404E-01  0.1113E+01
      2.228  0.4582E-01  0.1115E+01
      2.282  0.4532E-01  0.1118E+01
      2.337  0.3962E-01  0.1120E+01
      2.391  0.3174E-01  0.1122E+01
      2.446  0.2895E-01  0.1123E+01
      2.500  0.3367E-01  0.1125E+01
      2.555  0.4143E-01  0.1127E+01
      2.609  0.4689E-01  0.1130E+01
      2.664  0.4733E-01  0.1132E+01
      2.718  0.4086E-01  0.1135E+01
      2.773  0.2959E-01  0.1136E+01
      2.827  0.1959E-01  0.1137E+01
      2.882  0.1421E-01  0.1138E+01
      2.936  0.1308E-01  0.1139E+01
      2.991  0.1213E-01  0.1139E+01
      3.045  0.8340E-02  0.1140E+01
      3.100  0.5806E-02  0.1140E+01
      3.154  0.9759E-02  0.1141E+01
      3.209  0.1884E-01  0.1142E+01
      3.263  0.2565E-01  0.1143E+01
      3.317  0.2522E-01  0.1144E+01
      3.372  0.2129E-01  0.1146E+01
      3.426  0.2190E-01  0.1147E+01
      3.481  0.2923E-01  0.1148E+01
      3.535  0.3757E-01  0.1150E+01
      3.590  0.4263E-01  0.1153E+01
      3.644  0.4300E-01  0.1155E+01
      3.699  0.3828E-01  0.1157E+01
      3.753  0.3177E-01  0.1159E+01
      3.808  0.2713E-01  0.1160E+01
      3.862  0.2439E-01  0.1162E+01
      3.917  0.2281E-01  0.1163E+01
      3.971  0.2394E-01  0.1164E+01
      4.026  0.2644E-01  0.1166E+01
      4.080  0.2568E-01  0.1167E+01
      4.135  0.2343E-01  0.1168E+01
      4.189  0.2366E-01  0.1170E+01
      4.243  0.2187E-01  0.1171E+01
      4.298  0.1554E-01  0.1172E+01
      4.352  0.1287E-01  0.1172E+01
      4.407  0.1977E-01  0.1174E+01
      4.461  0.3000E-01  0.1175E+01
      4.516  0.3588E-01  0.1177E+01
      4.570  0.4055E-01  0.1179E+01
      4.625  0.4845E-01  0.1182E+01
      4.679  0.5407E-01  0.1185E+01
      4.734  0.5367E-01  0.1188E+01
      4.788  0.5320E-01  0.1191E+01
      4.843  0.5593E-01  0.1194E+01
      4.897  0.5929E-01  0.1197E+01
      4.952  0.6166E-01  0.1200E+01
      5.006  0.6391E-01  0.1204E+01
      5.061  0.6642E-01  0.1207E+01
      5.115  0.6483E-01  0.1211E+01
      5.170  0.5963E-01  0.1214E+01
      5.224  0.5782E-01  0.1217E+01
      5.278  0.5448E-01  0.1220E+01
      5.333  0.3976E-01  0.1223E+01
      5.387  0.1967E-01  0.1224E+01
      5.442  0.6249E-02  0.1224E+01
      5.496  0.1235E-02  0.1224E+01
      5.551  0.1481E-03  0.1224E+01
      5.605  0.1055E-04  0.1224E+01
      5.660  0.4391E-06  0.1224E+01
      5.714  0.1055E-07  0.1224E+01
      5.769  0.1448E-09  0.1224E+01
      5.823  0.1129E-11  0.1224E+01
      5.878  0.4977E-14  0.1224E+01
      5.932  0.1223E-16  0.1224E+01
      5.987  0.0000E+00  0.1224E+01
      6.041  0.0000E+00  0.1224E+01
      6.096  0.0000E+00  0.1224E+01
      6.150  0.0000E+00  0.1224E+01
      6.205  0.0000E+00  0.1224E+01
      6.259  0.0000E+00  0.1224E+01
      6.313  0.0000E+00  0.1224E+01
