 vasp.5.4.1 24Jun15 (build Mar 14 2019 10:18:33) complex                        
  
 executed on INTEL-19.0.2+OPENMPI date 2022.07.15  22:22:25
 running on   36 total cores
 distrk:  each k-point on   36 cores,    1 groups
 distr:  one band on NCORES_PER_BAND=   6 cores,    6 groups


--------------------------------------------------------------------------------------------------------


 INCAR:
 POTCAR:    PAW_PBE Au 04Oct2007                  
 POTCAR:    PAW_PBE Pd 04Jan2005                  
 POTCAR:    PAW_PBE Au 04Oct2007                  
  local pseudopotential read in
  partial core-charges read in
  partial kinetic energy density read in
  atomic valenz-charges read in
  non local Contribution for L=           2  read in
    real space projection operators read in
  non local Contribution for L=           2  read in
    real space projection operators read in
  non local Contribution for L=           0  read in
    real space projection operators read in
  non local Contribution for L=           0  read in
    real space projection operators read in
  non local Contribution for L=           1  read in
    real space projection operators read in
  non local Contribution for L=           1  read in
    real space projection operators read in
    PAW grid and wavefunctions read in
 
   number of l-projection  operators is LMAX  =           6
   number of lm-projection operators is LMMAX =          18
 
 POTCAR:    PAW_PBE Pd 04Jan2005                  
  local pseudopotential read in
  partial core-charges read in
  partial kinetic energy density read in
  atomic valenz-charges read in
  non local Contribution for L=           2  read in
    real space projection operators read in
  non local Contribution for L=           2  read in
    real space projection operators read in
  non local Contribution for L=           0  read in
    real space projection operators read in
  non local Contribution for L=           0  read in
    real space projection operators read in
  non local Contribution for L=           1  read in
    real space projection operators read in
  non local Contribution for L=           1  read in
    real space projection operators read in
    PAW grid and wavefunctions read in
 
   number of l-projection  operators is LMAX  =           6
   number of lm-projection operators is LMMAX =          18
 
 Optimization of the real space projectors (new method)

 maximal supplied QI-value         = 15.12
 optimisation between [QCUT,QGAM] = [ 10.13, 20.41] = [ 28.73,116.64] Ry 
 Optimized for a Real-space Cutoff    1.51 Angstroem

   l    n(q)    QCUT    max X(q) W(low)/X(q) W(high)/X(q)  e(spline) 
   2      8    10.129    60.898    0.46E-03    0.46E-03    0.14E-06
   2      8    10.129    58.894    0.47E-03    0.47E-03    0.14E-06
   0      9    10.129   109.617    0.16E-03    0.11E-03    0.54E-07
   0      9    10.129    75.026    0.15E-03    0.11E-03    0.52E-07
   1      9    10.129    16.344    0.96E-04    0.15E-03    0.14E-06
   1      9    10.129    10.160    0.81E-04    0.12E-03    0.11E-06
 Optimization of the real space projectors (new method)

 maximal supplied QI-value         = 14.36
 optimisation between [QCUT,QGAM] = [ 10.20, 20.39] = [ 29.12,116.47] Ry 
 Optimized for a Real-space Cutoff    1.51 Angstroem

   l    n(q)    QCUT    max X(q) W(low)/X(q) W(high)/X(q)  e(spline) 
   2      8    10.197    59.108    0.26E-03    0.14E-03    0.96E-07
   2      8    10.197    58.101    0.27E-03    0.14E-03    0.98E-07
   0      9    10.197   102.235    0.54E-04    0.60E-05    0.72E-07
   0      9    10.197    58.388    0.52E-04    0.60E-05    0.68E-07
   1      9    10.197    22.191    0.18E-03    0.25E-03    0.79E-07
   1      9    10.197    15.590    0.15E-03    0.21E-03    0.69E-07
  PAW_PBE Au 04Oct2007                  :
 energy of atom  1       EATOM= -926.0867
 kinetic energy error for atom=    0.0062 (will be added to EATOM!!)
  PAW_PBE Pd 04Jan2005                  :
 energy of atom  2       EATOM= -809.7530
 kinetic energy error for atom=    0.0091 (will be added to EATOM!!)
 
 
 POSCAR: Au Pd                                   
  positions in cartesian coordinates
  No initial velocities read in
 exchange correlation table for  LEXCH =        8
   RHO(1)=    0.500       N(1)  =     2000
   RHO(2)=  100.500       N(2)  =     4000

 VTST: version 3.2, (02/03/18)

 CHAIN: initializing optimizer
 
 OPT: Using VASP Conjugate-Gradient optimizer
 CHAIN: Read ICHAIN            0
 
 POSCAR: Au Pd                                   
  positions in cartesian coordinates
  No initial velocities read in
 


--------------------------------------------------------------------------------------------------------


 ion  position               nearest neighbor table
   1  0.333  0.333  0.408-   2 2.75   4 2.75  10 2.75  40 2.75  42 2.75  33 2.75  45 2.75   3 2.75
                            11 2.75
   2  0.417  0.417  0.500-   1 2.75  12 2.75   8 2.75   3 2.75  13 2.75  14 2.75  36 2.75  21 2.75
                            11 2.75  10 2.75  33 2.75  25 2.75
   3  0.417  0.167  0.500-  40 2.75  34 2.75  37 2.75  11 2.75   2 2.75   5 2.75   6 2.75  39 2.75
                            13 2.75   1 2.75  12 2.75   4 2.75
   4  0.583  0.083  0.408-  13 2.75   1 2.75  26 2.75  30 2.75  33 2.75  29 2.75  40 2.75   5 2.75
                             3 2.75
   5  0.667  0.917  0.500-  26 2.75  48 2.75  34 2.75   3 2.75  13 2.75  41 2.75  23 2.75  17 2.75
                             6 2.75   4 2.75  30 2.75  28 2.75
   6  0.417  0.917  0.500-   7 2.75   9 2.75  38 2.75  14 2.75  23 2.75   3 2.75  39 2.75   5 2.75
                            35 2.75  40 2.75  26 2.75  34 2.75
   7  0.333  0.833  0.408-   6 2.75  10 2.75  31 2.75  40 2.75  47 2.75  26 2.75  19 2.75  14 2.75
                            35 2.75
   8  0.250  0.500  0.592-  36 2.75   2 2.75  16 2.75  32 2.75  12 2.75  37 2.75  25 2.75  20 2.75
                            11 2.75
   9  0.500  0.750  0.592-   6 2.75  23 2.75  24 2.75  25 2.75  34 2.75  38 2.75  32 2.75  48 2.75
                            14 2.75
  10  0.333  0.583  0.408-  14 2.75   7 2.75   1 2.75  19 2.75  33 2.75  42 2.75  47 2.75   2 2.75
                            36 2.75
  11  0.167  0.417  0.500-  45 2.75  37 2.75  20 2.75   3 2.75  39 2.75  41 2.75  36 2.75  44 2.75
                             2 2.75  42 2.75   1 2.75   8 2.75
  12  0.500  0.250  0.592-   2 2.75  13 2.75   8 2.75  25 2.75  28 2.75  34 2.75  22 2.75  37 2.75
                             3 2.75
  13  0.667  0.167  0.500-   4 2.75  28 2.75  12 2.75   2 2.75  17 2.75  21 2.75   5 2.75   3 2.75
                            18 2.75  33 2.75  29 2.75  22 2.75
  14  0.417  0.667  0.500-  10 2.75  25 2.75  32 2.75  21 2.75   6 2.75   2 2.75  35 2.75  23 2.75
                            36 2.75   7 2.75   9 2.75  47 2.75
  15  0.833  0.333  0.408-  44 2.75  29 2.75  31 2.75  27 2.75  47 2.75  45 2.75  33 2.75  18 2.75
                            21 2.75
  16  0.000  0.750  0.592-  17 2.75  36 2.75  20 2.75  28 2.75   8 2.75  46 2.75  32 2.75  48 2.75
                            41 2.75
  17  0.917  0.917  0.500-  30 2.75  16 2.75  28 2.75  13 2.75  18 2.75  36 2.75  41 2.75   5 2.75
                            35 2.75  29 2.75  19 2.75  46 2.75
  18  0.917  0.167  0.500-  29 2.75  46 2.75  22 2.75  21 2.75  35 2.75  44 2.75  17 2.75  13 2.75
                            39 2.75  15 2.75  31 2.75  43 2.75
  19  0.083  0.833  0.408-  35 2.75  29 2.75  31 2.75  10 2.75  42 2.75  30 2.75   7 2.75  36 2.75
                            17 2.75
  20  0.000  0.500  0.592-  41 2.75  11 2.75  37 2.75  16 2.75  43 2.75  48 2.75   8 2.75  24 2.75
                            44 2.75
  21  0.667  0.417  0.500-  33 2.75  22 2.75  25 2.75  13 2.75  23 2.75  14 2.75  18 2.75   2 2.75
                            44 2.75  47 2.75  15 2.75  24 2.75
  22  0.750  0.250  0.592-  21 2.75  18 2.75  24 2.75  25 2.75  28 2.75  46 2.75  43 2.75  12 2.75
                            13 2.75
  23  0.667  0.667  0.500-  47 2.75  24 2.75   9 2.75  21 2.75   6 2.75  44 2.75   5 2.75  14 2.75
                            41 2.75  26 2.75  27 2.75  48 2.75
  24  0.750  0.500  0.592-  23 2.75  44 2.75   9 2.75  43 2.75  22 2.75  48 2.75  25 2.75  20 2.75
                            21 2.75
  25  0.500  0.500  0.592-  14 2.75  21 2.75   9 2.75  12 2.75  22 2.75  32 2.75  24 2.75   8 2.75
                             2 2.75
  26  0.583  0.833  0.408-   5 2.75   4 2.75  27 2.75  40 2.75  47 2.75   7 2.75  30 2.75  23 2.75
                             6 2.75
  27  0.833  0.583  0.408-  41 2.75  26 2.75  30 2.75  15 2.75  45 2.75  42 2.75  47 2.75  44 2.75
                            23 2.75
  28  0.750  0.000  0.592-  13 2.75  17 2.75  16 2.75  12 2.75  22 2.75  48 2.75  46 2.75  34 2.75
                             5 2.75
  29  0.833  0.083  0.408-  18 2.75  15 2.75  19 2.75  30 2.75  33 2.75  31 2.75   4 2.75  17 2.75
                            13 2.75
  30  0.833  0.833  0.408-  17 2.75   4 2.75  27 2.75  29 2.75  42 2.75  26 2.75  19 2.75  41 2.75
                             5 2.75
  31  0.083  0.083  0.408-  39 2.75  15 2.75  19 2.75   7 2.75  45 2.75  40 2.75  29 2.75  35 2.75
                            18 2.75
  32  0.250  0.750  0.592-  35 2.75  14 2.75  25 2.75   8 2.75  38 2.75  46 2.75   9 2.75  16 2.75
                            36 2.75
  33  0.583  0.333  0.408-  21 2.75  10 2.75   4 2.75  29 2.75  47 2.75  15 2.75   1 2.75  13 2.75
                             2 2.75
  34  0.500  0.000  0.592-   3 2.75   5 2.75   9 2.75  12 2.75  37 2.75  48 2.75  38 2.75  28 2.75
                             6 2.75
  35  0.167  0.917  0.500-  19 2.75  32 2.75  46 2.75  18 2.75  36 2.75  39 2.75  14 2.75   6 2.75
                            17 2.75  31 2.75   7 2.75  38 2.75
  36  0.167  0.667  0.500-  42 2.75   8 2.75  16 2.75   2 2.75  17 2.75  35 2.75  11 2.75  41 2.75
                            14 2.75  19 2.75  32 2.75  10 2.75
  37  0.250  0.250  0.592-  11 2.75   3 2.75   8 2.75  20 2.75  34 2.75  38 2.75  12 2.75  43 2.75
                            39 2.75
  38  0.250  0.000  0.592-  39 2.75   6 2.75  32 2.75  37 2.75   9 2.75  43 2.75  34 2.75  46 2.75
                            35 2.75
  39  0.167  0.167  0.500-  31 2.75  38 2.75  43 2.75  35 2.75  11 2.75   6 2.75  44 2.75  18 2.75
                             3 2.75  45 2.75  40 2.75  37 2.75
  40  0.333  0.083  0.408-   3 2.75   1 2.75   7 2.75  26 2.75  45 2.75  31 2.75   4 2.75   6 2.75
                            39 2.75
  41  0.917  0.667  0.500-  27 2.75  20 2.75  48 2.75   5 2.75  11 2.75  44 2.75  17 2.75  23 2.75
                            36 2.75  30 2.75  16 2.75  42 2.75
  42  0.083  0.583  0.408-  36 2.75  19 2.75  30 2.75   1 2.75  45 2.75  27 2.75  10 2.75  11 2.75
                            41 2.75
  43  0.000  0.250  0.592-  44 2.75  39 2.75  38 2.75  20 2.75  24 2.75  46 2.75  22 2.75  37 2.75
                            18 2.75
  44  0.917  0.417  0.500-  15 2.75  43 2.75  24 2.75  18 2.75  39 2.75  41 2.75  23 2.75  21 2.75
                            11 2.75  27 2.75  20 2.75  45 2.75
  45  0.083  0.333  0.408-  11 2.75  27 2.75  31 2.75  40 2.75  42 2.75   1 2.75  15 2.75  39 2.75
                            44 2.75
  46  0.000  0.000  0.592-  18 2.75  35 2.75  22 2.75  32 2.75  16 2.75  43 2.75  38 2.75  28 2.75
                            17 2.75
  47  0.583  0.583  0.408-  23 2.75  15 2.75   7 2.75  26 2.75  33 2.75  27 2.75  10 2.75  21 2.75
                            14 2.75
  48  0.750  0.750  0.592-   5 2.75  41 2.75  24 2.75  28 2.75  34 2.75  20 2.75  16 2.75   9 2.75
                            23 2.75
 
  LATTYP: Found a hexagonal cell.
 ALAT       =    11.0025815153
 C/A-ratio  =     2.2260035120
  
  Lattice vectors:
  
 A1 = (   5.5012907576,  -9.5285150994,   0.0000000000)
 A2 = ( -11.0025815153,   0.0000000000,   0.0000000000)
 A3 = (   0.0000000000,   0.0000000000, -24.4917850943)


Analysis of symmetry for initial positions (statically):
=====================================================================
 Subroutine PRICEL returns:
 Original cell was already a primitive cell.
 

 Routine SETGRP: Setting up the symmetry group for a 
 hexagonal supercell.


 Subroutine GETGRP returns: Found  1 space group operations
 (whereof  1 operations were pure point group operations)
 out of a pool of 24 trial point group operations.


The static configuration has the point symmetry C_1 .


Analysis of symmetry for dynamics (positions and initial velocities):
=====================================================================
 Subroutine PRICEL returns:
 Original cell was already a primitive cell.
 

 Routine SETGRP: Setting up the symmetry group for a 
 hexagonal supercell.


 Subroutine GETGRP returns: Found  1 space group operations
 (whereof  1 operations were pure point group operations)
 out of a pool of 24 trial point group operations.


The dynamic configuration has the point symmetry C_1 .
 
 
 KPOINTS: Automatic mesh                          

Automatic generation of k-mesh.
Space group operators:
 irot       det(A)        alpha          n_x          n_y          n_z        tau_x        tau_y        tau_z
    1     1.000000     0.000000     1.000000     0.000000     0.000000     0.000000     0.000000     0.000000
 
 Subroutine IBZKPT returns following result:
 ===========================================
 
 Found      6 irreducible k-points:
 
 Following reciprocal coordinates:
            Coordinates               Weight
  0.250000  0.250000  0.000000     16.000000
  0.000000  0.250000  0.000000     16.000000
 -0.250000  0.000000  0.000000     16.000000
 -0.250000  0.250000  0.000000     16.000000
  0.500000 -0.250000  0.000000     16.000000
 -0.250000  0.500000  0.000000     16.000000
 
 Following cartesian coordinates:
            Coordinates               Weight
  0.022722  0.013119  0.000000     16.000000
  0.000000  0.026237  0.000000     16.000000
 -0.022722  0.013119  0.000000     16.000000
 -0.022722  0.039356  0.000000     16.000000
  0.045444 -0.052474  0.000000     16.000000
 -0.022722  0.065593  0.000000     16.000000
 


--------------------------------------------------------------------------------------------------------




 Dimension of arrays:
   k-points           NKPTS =      6   k-points in BZ     NKDIM =      6   number of bands    NBANDS=    306
   number of dos      NEDOS =    301   number of ions     NIONS =     48
   non local maximal  LDIM  =      6   non local SUM 2l+1 LMDIM =     18
   total plane-waves  NPLWV = 349920
   max r-space proj   IRMAX =   2009   max aug-charges    IRDMAX=   8532
   dimension x,y,z NGX =    54 NGY =   54 NGZ =  120
   dimension x,y,z NGXF=   108 NGYF=  108 NGZF=  240
   support grid    NGXF=   108 NGYF=  108 NGZF=  240
   ions per type =              24  24
 NGX,Y,Z   is equivalent  to a cutoff of   8.16,  8.16,  8.15 a.u.
 NGXF,Y,Z  is equivalent  to a cutoff of  16.32, 16.32, 16.29 a.u.


 I would recommend the setting:
   dimension x,y,z NGX =    54 NGY =   54 NGZ =  120
 SYSTEM =  unknown system                          
 POSCAR =  Au Pd                                   

 Startparameter for this run:
   NWRITE =      1    write-flag & timer
   PREC   = normal    normal or accurate (medium, high low for compatibility)
   ISTART =      0    job   : 0-new  1-cont  2-samecut
   ICHARG =      2    charge: 1-file 2-atom 10-const
   ISPIN  =      1    spin polarized calculation?
   LNONCOLLINEAR =      F non collinear calculations
   LSORBIT =      F    spin-orbit coupling
   INIWAV =      1    electr: 0-lowe 1-rand  2-diag
   LASPH  =      F    aspherical Exc in radial PAW
   METAGGA=      F    non-selfconsistent MetaGGA calc.

 Electronic Relaxation 1
   ENCUT  =  400.0 eV  29.40 Ry    5.42 a.u.  17.94 17.94 39.94*2*pi/ulx,y,z
   ENINI  =  400.0     initial cutoff
   ENAUG  =  416.2 eV  augmentation charge cutoff
   NELM   =    500;   NELMIN=  2; NELMDL= -5     # of ELM steps 
   EDIFF  = 0.1E-05   stopping-criterion for ELM
   LREAL  =      T    real-space projection
   NLSPLINE    = F    spline interpolate recip. space projectors
   LCOMPAT=      F    compatible to vasp.4.4
   GGA_COMPAT  = T    GGA compatible to vasp.4.4-vasp.4.6
   LMAXPAW     = -100 max onsite density
   LMAXMIX     =    2 max onsite mixed and CHGCAR
   VOSKOWN=      1    Vosko Wilk Nusair interpolation
   ROPT   =   -0.00050  -0.00050
 Ionic relaxation
   EDIFFG = -.2E-01   stopping-criterion for IOM
   NSW    =    500    number of steps for IOM
   NBLOCK =      1;   KBLOCK =    500    inner block; outer block 
   IBRION =      2    ionic relax: 0-MD 1-quasi-New 2-CG
   NFREE  =      2    steps in history (QN), initial steepest desc. (CG)
   ISIF   =      0    stress and relaxation
   IWAVPR =     11    prediction:  0-non 1-charg 2-wave 3-comb
   ISYM   =      2    0-nonsym 1-usesym 2-fastsym
   LCORR  =      T    Harris-Foulkes like correction to forces

   POTIM  = 0.3500    time-step for ionic-motion
   TEIN   =    0.0    initial temperature
   TEBEG  =    0.0;   TEEND  =   0.0 temperature during run
   SMASS  =  -3.00    Nose mass-parameter (am)
   estimated Nose-frequenzy (Omega)   =  0.10E-29 period in steps =****** mass=  -0.277E-26a.u.
   SCALEE = 1.0000    scale energy and forces
   NPACO  =    256;   APACO  = 16.0  distance and # of slots for P.C.
   PSTRESS=    0.0 pullay stress

  Mass of Ions in am
   POMASS = 196.97106.42
  Ionic Valenz
   ZVAL   =  11.00 10.00
  Atomic Wigner-Seitz radii
   RWIGS  =  -1.00 -1.00
  virtual crystal weights 
   VCA    =   1.00  1.00
   NELECT =     504.0000    total number of electrons
   NUPDOWN=      -1.0000    fix difference up-down

 DOS related values:
   EMIN   =  10.00;   EMAX   =-10.00  energy-range for DOS
   EFERMI =   0.00
   ISMEAR =     0;   SIGMA  =   0.10  broadening in eV -4-tet -1-fermi 0-gaus

 Electronic relaxation 2 (details)
   IALGO  =     68    algorithm
   LDIAG  =      T    sub-space diagonalisation (order eigenvalues)
   LSUBROT=      F    optimize rotation matrix (better conditioning)
   TURBO    =      0    0=normal 1=particle mesh
   IRESTART =      0    0=no restart 2=restart with 2 vectors
   NREBOOT  =      0    no. of reboots
   NMIN     =      0    reboot dimension
   EREF     =   0.00    reference energy to select bands
   IMIX   =      4    mixing-type and parameters
     AMIX     =   0.40;   BMIX     =  1.00
     AMIX_MAG =   1.60;   BMIX_MAG =  1.00
     AMIN     =   0.10
     WC   =   100.;   INIMIX=   1;  MIXPRE=   1;  MAXMIX= -45

 Intra band minimization:
   WEIMIN = 0.0010     energy-eigenvalue tresh-hold
   EBREAK =  0.82E-09  absolut break condition
   DEPER  =   0.30     relativ break condition  

   TIME   =   0.40     timestep for ELM

  volume/ion in A,a.u.               =      53.49       360.99
  Fermi-wavevector in a.u.,A,eV,Ry     =   0.951418  1.797920 12.315955  0.905197
  Thomas-Fermi vector in A             =   2.079887
 
 Write flags
   LWAVE  =      F    write WAVECAR
   LCHARG =      F    write CHGCAR
   LVTOT  =      F    write LOCPOT, total local potential
   LVHAR  =      F    write LOCPOT, Hartree potential only
   LELF   =      F    write electronic localiz. function (ELF)
   LORBIT =      0    0 simple, 1 ext, 2 COOP (PROOUT)


 Dipole corrections
   LMONO  =      F    monopole corrections only (constant potential shift)
   LDIPOL =      T    correct potential (dipole corrections)
   IDIPOL =      3    1-x, 2-y, 3-z, 4-all directions 
   EPSILON=  1.0000000 bulk dielectric constant

 Exchange correlation treatment:
   GGA     =    PE    GGA type
   LEXCH   =     8    internal setting for exchange type
   VOSKOWN=      1    Vosko Wilk Nusair interpolation
   LHFCALC =     F    Hartree Fock is set to
   LHFONE  =     F    Hartree Fock one center treatment
   AEXX    =    0.0000 exact exchange contribution

 Linear response parameters
   LEPSILON=     F    determine dielectric tensor
   LRPA    =     F    only Hartree local field effects (RPA)
   LNABLA  =     F    use nabla operator in PAW spheres
   LVEL    =     F    velocity operator in full k-point grid
   LINTERFAST=   F  fast interpolation
   KINTER  =     0    interpolate to denser k-point grid
   CSHIFT  =0.1000    complex shift for real part using Kramers Kronig
   OMEGAMAX=  -1.0    maximum frequency
   DEG_THRESHOLD= 0.2000000E-02 threshold for treating states as degnerate
   RTIME   =    0.100 relaxation time in fs

 Orbital magnetization related:
   ORBITALMAG=     F  switch on orbital magnetization
   LCHIMAG   =     F  perturbation theory with respect to B field
   DQ        =  0.001000  dq finite difference perturbation B field



--------------------------------------------------------------------------------------------------------


 conjugate gradient relaxation of ions
 charge density and potential will be updated during run
 non-spin polarized calculation
 RMM-DIIS sequential band-by-band and
  variant of blocked Davidson during initial phase
 perform sub-space diagonalisation
    before iterative eigenvector-optimisation
 modified Broyden-mixing scheme, WC =      100.0
 initial mixing is a Kerker type mixing with AMIX =  0.4000 and BMIX =      1.0000
 Hartree-type preconditioning will be used
 using additional bands           54
 real space projection scheme for non local part
 use partial core corrections
 calculate Harris-corrections to forces 
   (improved forces if not selfconsistent)
 use gradient corrections 
 use of overlap-Matrix (Vanderbilt PP)
 Gauss-broadening in eV      SIGMA  =   0.10


--------------------------------------------------------------------------------------------------------


  energy-cutoff  :      400.00
  volume of cell :     2567.68
      direct lattice vectors                 reciprocal lattice vectors
    11.002581515  0.000000000  0.000000000     0.090887761 -0.052474073  0.000000000
     5.501290758  9.528515099  0.000000000     0.000000000  0.104948147  0.000000000
     0.000000000  0.000000000 24.491785094     0.000000000  0.000000000  0.040830017

  length of vectors
    11.002581515 11.002581515 24.491785094     0.104948147  0.104948147  0.040830017


 
 k-points in units of 2pi/SCALE and weight: Automatic mesh                          
   0.02272194  0.01311852  0.00000000       0.167
   0.00000000  0.02623704  0.00000000       0.167
  -0.02272194  0.01311852  0.00000000       0.167
  -0.02272194  0.03935555  0.00000000       0.167
   0.04544388 -0.05247407  0.00000000       0.167
  -0.02272194  0.06559259  0.00000000       0.167
 
 k-points in reciprocal lattice and weights: Automatic mesh                          
   0.25000000  0.25000000  0.00000000       0.167
   0.00000000  0.25000000  0.00000000       0.167
  -0.25000000  0.00000000  0.00000000       0.167
  -0.25000000  0.25000000  0.00000000       0.167
   0.50000000 -0.25000000  0.00000000       0.167
  -0.25000000  0.50000000  0.00000000       0.167
 
 position of ions in fractional coordinates (direct lattice) 
   0.33333333  0.33333333  0.40830017
   0.41666667  0.41666667  0.50000000
   0.41666667  0.16666667  0.50000000
   0.58333333  0.08333333  0.40830017
   0.66666667  0.91666667  0.50000000
   0.41666667  0.91666667  0.50000000
   0.33333333  0.83333333  0.40830017
   0.25000000  0.50000000  0.59169983
   0.50000000  0.75000000  0.59169983
   0.33333333  0.58333333  0.40830017
   0.16666667  0.41666667  0.50000000
   0.50000000  0.25000000  0.59169983
   0.66666667  0.16666667  0.50000000
   0.41666667  0.66666667  0.50000000
   0.83333333  0.33333333  0.40830017
   0.00000000  0.75000000  0.59169983
   0.91666667  0.91666667  0.50000000
   0.91666667  0.16666667  0.50000000
   0.08333333  0.83333333  0.40830017
   0.00000000  0.50000000  0.59169983
   0.66666667  0.41666667  0.50000000
   0.75000000  0.25000000  0.59169983
   0.66666667  0.66666667  0.50000000
   0.75000000  0.50000000  0.59169983
   0.50000000  0.50000000  0.59169983
   0.58333333  0.83333333  0.40830017
   0.83333333  0.58333333  0.40830017
   0.75000000  0.00000000  0.59169983
   0.83333333  0.08333333  0.40830017
   0.83333333  0.83333333  0.40830017
   0.08333333  0.08333333  0.40830017
   0.25000000  0.75000000  0.59169983
   0.58333333  0.33333333  0.40830017
   0.50000000  0.00000000  0.59169983
   0.16666667  0.91666667  0.50000000
   0.16666667  0.66666667  0.50000000
   0.25000000  0.25000000  0.59169983
   0.25000000  0.00000000  0.59169983
   0.16666667  0.16666667  0.50000000
   0.33333333  0.08333333  0.40830017
   0.91666667  0.66666667  0.50000000
   0.08333333  0.58333333  0.40830017
   0.00000000  0.25000000  0.59169983
   0.91666667  0.41666667  0.50000000
   0.08333333  0.33333333  0.40830017
   0.00000000  0.00000000  0.59169983
   0.58333333  0.58333333  0.40830017
   0.75000000  0.75000000  0.59169983
 
 position of ions in cartesian coordinates  (Angst):
   5.50129076  3.17617170 10.00000000
   6.87661345  3.97021462 12.24589255
   5.50129076  1.58808585 12.24589255
   6.87661345  0.79404292 10.00000000
  12.37790420  8.73447217 12.24589255
   9.62725883  8.73447217 12.24589255
   8.25193614  7.94042925 10.00000000
   5.50129076  4.76425755 14.49178509
   9.62725883  7.14638632 14.49178509
   6.87661345  5.55830047 10.00000000
   4.12596807  3.97021462 12.24589255
   6.87661345  2.38212877 14.49178509
   8.25193614  1.58808585 12.24589255
   8.25193614  6.35234340 12.24589255
  11.00258152  3.17617170 10.00000000
   4.12596807  7.14638632 14.49178509
  15.12854958  8.73447217 12.24589255
  11.00258152  1.58808585 12.24589255
   5.50129076  7.94042925 10.00000000
   2.75064538  4.76425755 14.49178509
   9.62725883  3.97021462 12.24589255
   9.62725883  2.38212877 14.49178509
  11.00258152  6.35234340 12.24589255
  11.00258152  4.76425755 14.49178509
   8.25193614  4.76425755 14.49178509
  11.00258152  7.94042925 10.00000000
  12.37790420  5.55830047 10.00000000
   8.25193614  0.00000000 14.49178509
   9.62725883  0.79404292 10.00000000
  13.75322689  7.94042925 10.00000000
   1.37532269  0.79404292 10.00000000
   6.87661345  7.14638632 14.49178509
   8.25193614  3.17617170 10.00000000
   5.50129076  0.00000000 14.49178509
   6.87661345  8.73447217 12.24589255
   5.50129076  6.35234340 12.24589255
   4.12596807  2.38212877 14.49178509
   2.75064538  0.00000000 14.49178509
   2.75064538  1.58808585 12.24589255
   4.12596807  0.79404292 10.00000000
  13.75322689  6.35234340 12.24589255
   4.12596807  5.55830047 10.00000000
   1.37532269  2.38212877 14.49178509
  12.37790420  3.97021462 12.24589255
   2.75064538  3.17617170 10.00000000
   0.00000000  0.00000000 14.49178509
   9.62725883  5.55830047 10.00000000
  12.37790420  7.14638632 14.49178509
 


--------------------------------------------------------------------------------------------------------


 k-point  1 :   0.2500 0.2500 0.0000  plane waves:   46635
 k-point  2 :   0.0000 0.2500 0.0000  plane waves:   46635
 k-point  3 :  -0.2500 0.0000 0.0000  plane waves:   46635
 k-point  4 :  -0.2500 0.2500 0.0000  plane waves:   46644
 k-point  5 :   0.5000-0.2500 0.0000  plane waves:   46644
 k-point  6 :  -0.2500 0.5000 0.0000  plane waves:   46644

 maximum and minimum number of plane-waves per node :      7818     7732

 maximum number of plane-waves:     46644
 maximum index in each direction: 
   IXMAX=   18   IYMAX=   18   IZMAX=   39
   IXMIN=  -18   IYMIN=  -18   IZMIN=  -39

 WARNING: aliasing errors must be expected set NGX to  74 to avoid them
 WARNING: aliasing errors must be expected set NGY to  74 to avoid them
 WARNING: aliasing errors must be expected set NGZ to 158 to avoid them
 aliasing errors are usually negligible using standard VASP settings
 and one can safely disregard these warnings

 real space projection operators:
  total allocation   :      12803.06 KBytes
  max/ min on nodes  :       2145.66       2127.94


 parallel 3D FFT for wavefunctions:
    minimum data exchange during FFTs selected (reduces bandwidth)
 parallel 3D FFT for charge:
    minimum data exchange during FFTs selected (reduces bandwidth)


 total amount of memory used by VASP on root node    84353. kBytes
========================================================================

   base      :      30000. kBytes
   nonlr-proj:       4285. kBytes
   fftplans  :       4447. kBytes
   grid      :       6721. kBytes
   one-center:        124. kBytes
   wavefun   :      38776. kBytes
 
     INWAV:  cpu time    0.0000: real time    0.0000
 Broyden mixing: mesh for mixing (old mesh)
   NGX = 35   NGY = 35   NGZ = 79
  (NGX  =108   NGY  =108   NGZ  =240)
  gives a total of  96775 points

 initial charge density was supplied:
 charge density of overlapping atoms calculated
 number of electron     504.0000000 magnetization 
 keeping initial charge density in first step


--------------------------------------------------------------------------------------------------------


 Maximum index for non-local projection operator          355
 Maximum index for augmentation-charges          437 (set IRDMAX)


--------------------------------------------------------------------------------------------------------


 First call to EWALD:  gamma=   0.129
 Maximum number of real-space cells 4x 4x 2
 Maximum number of reciprocal cells 2x 2x 5

 FEWALD executed in parallel
    FEWALD:  cpu time    0.0022: real time    0.0026


----------------------------------------- Iteration    1(   1)  ---------------------------------------


    POTLOK:  cpu time    0.0517: real time    0.0533
    SETDIJ:  cpu time    0.0058: real time    0.0058
     EDDAV:  cpu time    8.9481: real time    9.0055
       DOS:  cpu time    0.0013: real time    0.0013
    --------------------------------------------
      LOOP:  cpu time    9.0097: real time    9.0731

 eigenvalue-minimisations  :  3672
 total energy-change (2. order) : 0.3201268E+04  (-0.1897629E+05)
 number of electron     504.0000000 magnetization 
 augmentation part      504.0000000 magnetization 

 DIPCOR: dipole corrections for dipol
 direction  3 min pos     1,
 dipolmoment           0.000000      0.000000     -0.000001 electrons x Angstroem
 Tr[quadrupol]    -10351.301258

 energy correction for charged system         0.000000 eV
 dipol+quadrupol energy correction           -0.000000 eV
 added-field ion interaction          0.000000 eV  (added to PSCEN)


 Free energy of the ion-electron system (eV)
  ---------------------------------------------------
  alpha Z        PSCENC =       805.86936440
  Ewald energy   TEWEN  =    200873.91685489
  -Hartree energ DENC   =   -243291.29575724
  -exchange      EXHF   =         0.00000000
  -V(xc)+E(xc)   XCENC  =      -327.42876335
  PAW double counting   =     40340.05962942   -38292.62782345
  entropy T*S    EENTRO =        -0.13908579
  eigenvalues    EBANDS =      1433.12776413
  atomic energy  EATOM  =     41659.78587232
  Solvation  Ediel_sol  =         0.00000000
  ---------------------------------------------------
  free energy    TOTEN  =      3201.26805535 eV

  energy without entropy =     3201.40714114  energy(sigma->0) =     3201.33759824


--------------------------------------------------------------------------------------------------------




----------------------------------------- Iteration    1(   2)  ---------------------------------------


     EDDAV:  cpu time   10.3911: real time   10.4625
       DOS:  cpu time    0.0015: real time    0.0015
    --------------------------------------------
      LOOP:  cpu time   10.3937: real time   10.4674

 eigenvalue-minimisations  :  4380
 total energy-change (2. order) :-0.3184956E+04  (-0.2928986E+04)
 number of electron     504.0000000 magnetization 
 augmentation part      504.0000000 magnetization 

 DIPCOR: dipole corrections for dipol
 direction  3 min pos     1,
 dipolmoment           0.000000      0.000000     -0.000001 electrons x Angstroem
 Tr[quadrupol]    -10351.301258

 energy correction for charged system         0.000000 eV
 dipol+quadrupol energy correction           -0.000000 eV
 added-field ion interaction          0.000000 eV  (added to PSCEN)


 Free energy of the ion-electron system (eV)
  ---------------------------------------------------
  alpha Z        PSCENC =       805.86936440
  Ewald energy   TEWEN  =    200873.91685489
  -Hartree energ DENC   =   -243291.29575724
  -exchange      EXHF   =         0.00000000
  -V(xc)+E(xc)   XCENC  =      -327.42876335
  PAW double counting   =     40340.05962942   -38292.62782345
  entropy T*S    EENTRO =        -0.14444869
  eigenvalues    EBANDS =     -1751.82313519
  atomic energy  EATOM  =     41659.78587232
  Solvation  Ediel_sol  =         0.00000000
  ---------------------------------------------------
  free energy    TOTEN  =        16.31179312 eV

  energy without entropy =       16.45624181  energy(sigma->0) =       16.38401747


--------------------------------------------------------------------------------------------------------




----------------------------------------- Iteration    1(   3)  ---------------------------------------


     EDDAV:  cpu time   10.0635: real time   10.1211
       DOS:  cpu time    0.0016: real time    0.0016
    --------------------------------------------
      LOOP:  cpu time   10.0661: real time   10.1275

 eigenvalue-minimisations  :  4140
 total energy-change (2. order) :-0.2155012E+03  (-0.2002783E+03)
 number of electron     504.0000000 magnetization 
 augmentation part      504.0000000 magnetization 

 DIPCOR: dipole corrections for dipol
 direction  3 min pos     1,
 dipolmoment           0.000000      0.000000     -0.000001 electrons x Angstroem
 Tr[quadrupol]    -10351.301258

 energy correction for charged system         0.000000 eV
 dipol+quadrupol energy correction           -0.000000 eV
 added-field ion interaction          0.000000 eV  (added to PSCEN)


 Free energy of the ion-electron system (eV)
  ---------------------------------------------------
  alpha Z        PSCENC =       805.86936440
  Ewald energy   TEWEN  =    200873.91685489
  -Hartree energ DENC   =   -243291.29575724
  -exchange      EXHF   =         0.00000000
  -V(xc)+E(xc)   XCENC  =      -327.42876335
  PAW double counting   =     40340.05962942   -38292.62782345
  entropy T*S    EENTRO =        -0.23095279
  eigenvalues    EBANDS =     -1967.23784477
  atomic energy  EATOM  =     41659.78587232
  Solvation  Ediel_sol  =         0.00000000
  ---------------------------------------------------
  free energy    TOTEN  =      -199.18942056 eV

  energy without entropy =     -198.95846777  energy(sigma->0) =     -199.07394416


--------------------------------------------------------------------------------------------------------




----------------------------------------- Iteration    1(   4)  ---------------------------------------


     EDDAV:  cpu time   10.1221: real time   10.2475
       DOS:  cpu time    0.0016: real time    0.0016
    --------------------------------------------
      LOOP:  cpu time   10.1250: real time   10.2532

 eigenvalue-minimisations  :  4188
 total energy-change (2. order) :-0.5798315E+01  (-0.5728009E+01)
 number of electron     504.0000000 magnetization 
 augmentation part      504.0000000 magnetization 

 DIPCOR: dipole corrections for dipol
 direction  3 min pos     1,
 dipolmoment           0.000000      0.000000     -0.000001 electrons x Angstroem
 Tr[quadrupol]    -10351.301258

 energy correction for charged system         0.000000 eV
 dipol+quadrupol energy correction           -0.000000 eV
 added-field ion interaction          0.000000 eV  (added to PSCEN)


 Free energy of the ion-electron system (eV)
  ---------------------------------------------------
  alpha Z        PSCENC =       805.86936440
  Ewald energy   TEWEN  =    200873.91685489
  -Hartree energ DENC   =   -243291.29575724
  -exchange      EXHF   =         0.00000000
  -V(xc)+E(xc)   XCENC  =      -327.42876335
  PAW double counting   =     40340.05962942   -38292.62782345
  entropy T*S    EENTRO =        -0.24265911
  eigenvalues    EBANDS =     -1973.02445387
  atomic energy  EATOM  =     41659.78587232
  Solvation  Ediel_sol  =         0.00000000
  ---------------------------------------------------
  free energy    TOTEN  =      -204.98773597 eV

  energy without entropy =     -204.74507686  energy(sigma->0) =     -204.86640642


--------------------------------------------------------------------------------------------------------




----------------------------------------- Iteration    1(   5)  ---------------------------------------


     EDDAV:  cpu time   12.6188: real time   12.7199
       DOS:  cpu time    0.0015: real time    0.0015
    CHARGE:  cpu time    0.2300: real time    0.2312
    MIXING:  cpu time    0.0025: real time    0.0026
    --------------------------------------------
      LOOP:  cpu time   12.8543: real time   12.9601

 eigenvalue-minimisations  :  4476
 total energy-change (2. order) :-0.1938186E+00  (-0.1932803E+00)
 number of electron     503.9998407 magnetization 
 augmentation part      191.4193691 magnetization 

 DIPCOR: dipole corrections for dipol
 direction  3 min pos     1,
 dipolmoment           0.000000      0.000000     -0.000001 electrons x Angstroem
 Tr[quadrupol]    -10351.301258

 energy correction for charged system         0.000000 eV
 dipol+quadrupol energy correction           -0.000000 eV
 added-field ion interaction          0.000000 eV  (added to PSCEN)


 Broyden mixing:
  rms(total) = 0.62932E+01    rms(broyden)= 0.62931E+01
  rms(prec ) = 0.64158E+01
  weight for this iteration     100.00

 Free energy of the ion-electron system (eV)
  ---------------------------------------------------
  alpha Z        PSCENC =       805.86936440
  Ewald energy   TEWEN  =    200873.91685489
  -Hartree energ DENC   =   -243291.29575724
  -exchange      EXHF   =         0.00000000
  -V(xc)+E(xc)   XCENC  =      -327.42876335
  PAW double counting   =     40340.05962942   -38292.62782345
  entropy T*S    EENTRO =        -0.24212364
  eigenvalues    EBANDS =     -1973.21880792
  atomic energy  EATOM  =     41659.78587232
  Solvation  Ediel_sol  =         0.00000000
  ---------------------------------------------------
  free energy    TOTEN  =      -205.18155456 eV

  energy without entropy =     -204.93943092  energy(sigma->0) =     -205.06049274


--------------------------------------------------------------------------------------------------------




----------------------------------------- Iteration    1(   6)  ---------------------------------------


    POTLOK:  cpu time    0.0465: real time    0.0469
    SETDIJ:  cpu time    0.0053: real time    0.0056
    EDDIAG:  cpu time    1.5506: real time    1.5602
  RMM-DIIS:  cpu time    4.4931: real time    4.5218
    ORTHCH:  cpu time    0.3833: real time    0.3863
       DOS:  cpu time    0.0015: real time    0.0015
    CHARGE:  cpu time    0.2377: real time    0.2390
    MIXING:  cpu time    0.0023: real time    0.0023
    --------------------------------------------
      LOOP:  cpu time    6.7210: real time    6.7685

 eigenvalue-minimisations  :  3680
 total energy-change (2. order) : 0.6542982E+01  (-0.9205875E+01)
 number of electron     503.9998420 magnetization 
 augmentation part      192.0902165 magnetization 

 DIPCOR: dipole corrections for dipol
 direction  3 min pos     1,
 dipolmoment           0.000000      0.000000     -0.340803 electrons x Angstroem
 Tr[quadrupol]    -10350.577430

 energy correction for charged system         0.000000 eV
 dipol+quadrupol energy correction           -0.004093 eV
 added-field ion interaction          0.053942 eV  (added to PSCEN)


 Broyden mixing:
  rms(total) = 0.56458E+01    rms(broyden)= 0.56456E+01
  rms(prec ) = 0.58394E+01
  weight for this iteration     100.00

 eigenvalues of (default mixing * dielectric matrix)
  average eigenvalue GAMMA=   0.7272
  0.7272

 Free energy of the ion-electron system (eV)
  ---------------------------------------------------
  alpha Z        PSCENC =       805.91921339
  Ewald energy   TEWEN  =    200873.91685489
  -Hartree energ DENC   =   -242969.53145030
  -exchange      EXHF   =         0.00000000
  -V(xc)+E(xc)   XCENC  =      -339.54507901
  PAW double counting   =     43954.09914541   -41965.55434942
  entropy T*S    EENTRO =        -0.24244176
  eigenvalues    EBANDS =     -2217.48633801
  atomic energy  EATOM  =     41659.78587232
  Solvation  Ediel_sol  =         0.00000000
  ---------------------------------------------------
  free energy    TOTEN  =      -198.63857249 eV

  energy without entropy =     -198.39613073  energy(sigma->0) =     -198.51735161


--------------------------------------------------------------------------------------------------------




----------------------------------------- Iteration    1(   7)  ---------------------------------------


    POTLOK:  cpu time    0.0482: real time    0.0487
    SETDIJ:  cpu time    0.0054: real time    0.0054
    EDDIAG:  cpu time    1.5278: real time    1.5379
  RMM-DIIS:  cpu time    4.5784: real time    4.6085
    ORTHCH:  cpu time    0.3892: real time    0.3913
       DOS:  cpu time    0.0015: real time    0.0015
    CHARGE:  cpu time    0.2333: real time    0.2345
    MIXING:  cpu time    0.0022: real time    0.0023
    --------------------------------------------
      LOOP:  cpu time    6.7868: real time    6.8587

 eigenvalue-minimisations  :  3685
 total energy-change (2. order) :-0.3597789E+01  (-0.4841577E+01)
 number of electron     503.9998374 magnetization 
 augmentation part      196.2778644 magnetization 

 DIPCOR: dipole corrections for dipol
 direction  3 min pos     1,
 dipolmoment           0.000000      0.000000      0.793534 electrons x Angstroem
 Tr[quadrupol]    -10351.107017

 energy correction for charged system         0.000000 eV
 dipol+quadrupol energy correction           -0.022189 eV
 added-field ion interaction         -0.125599 eV  (added to PSCEN)


 Broyden mixing:
  rms(total) = 0.40685E+01    rms(broyden)= 0.40682E+01
  rms(prec ) = 0.45404E+01
  weight for this iteration     100.00

 eigenvalues of (default mixing * dielectric matrix)
  average eigenvalue GAMMA=   1.0007
  1.5987  0.4027

 Free energy of the ion-electron system (eV)
  ---------------------------------------------------
  alpha Z        PSCENC =       805.72157611
  Ewald energy   TEWEN  =    200873.91685489
  -Hartree energ DENC   =   -242888.71813526
  -exchange      EXHF   =         0.00000000
  -V(xc)+E(xc)   XCENC  =      -341.99994055
  PAW double counting   =     45433.00700491   -43469.64215424
  entropy T*S    EENTRO =        -0.20442654
  eigenvalues    EBANDS =     -2274.10301346
  atomic energy  EATOM  =     41659.78587232
  Solvation  Ediel_sol  =         0.00000000
  ---------------------------------------------------
  free energy    TOTEN  =      -202.23636183 eV

  energy without entropy =     -202.03193529  energy(sigma->0) =     -202.13414856


--------------------------------------------------------------------------------------------------------




----------------------------------------- Iteration    1(   8)  ---------------------------------------


    POTLOK:  cpu time    0.0457: real time    0.0460
    SETDIJ:  cpu time    0.0054: real time    0.0054
    EDDIAG:  cpu time    1.5707: real time    1.5805
  RMM-DIIS:  cpu time    4.5098: real time    4.5381
    ORTHCH:  cpu time    0.3826: real time    0.3847
       DOS:  cpu time    0.0016: real time    0.0016
    CHARGE:  cpu time    0.2394: real time    0.2408
    MIXING:  cpu time    0.0023: real time    0.0023
    --------------------------------------------
      LOOP:  cpu time    6.7583: real time    6.8021

 eigenvalue-minimisations  :  3677
 total energy-change (2. order) :-0.2740971E+02  (-0.9398686E+01)
 number of electron     503.9998375 magnetization 
 augmentation part      194.9309836 magnetization 

 DIPCOR: dipole corrections for dipol
 direction  3 min pos     1,
 dipolmoment           0.000000      0.000000     -2.184824 electrons x Angstroem
 Tr[quadrupol]    -10353.163214

 energy correction for charged system         0.000000 eV
 dipol+quadrupol energy correction           -0.168204 eV
 added-field ion interaction          0.345811 eV  (added to PSCEN)


 Broyden mixing:
  rms(total) = 0.46319E+01    rms(broyden)= 0.46316E+01
  rms(prec ) = 0.57992E+01
  weight for this iteration     100.00

 eigenvalues of (default mixing * dielectric matrix)
  average eigenvalue GAMMA=   0.9472
  2.1089  0.4650  0.2675

 Free energy of the ion-electron system (eV)
  ---------------------------------------------------
  alpha Z        PSCENC =       806.04697112
  Ewald energy   TEWEN  =    200873.91685489
  -Hartree energ DENC   =   -242891.93912939
  -exchange      EXHF   =         0.00000000
  -V(xc)+E(xc)   XCENC  =      -344.16290967
  PAW double counting   =     47510.52508681   -45575.98568096
  entropy T*S    EENTRO =        -0.32130809
  eigenvalues    EBANDS =     -2267.51182934
  atomic energy  EATOM  =     41659.78587232
  Solvation  Ediel_sol  =         0.00000000
  ---------------------------------------------------
  free energy    TOTEN  =      -229.64607231 eV

  energy without entropy =     -229.32476423  energy(sigma->0) =     -229.48541827


--------------------------------------------------------------------------------------------------------




----------------------------------------- Iteration    1(   9)  ---------------------------------------


    POTLOK:  cpu time    0.0456: real time    0.0460
    SETDIJ:  cpu time    0.0049: real time    0.0054
    EDDIAG:  cpu time    1.5346: real time    1.5450
  RMM-DIIS:  cpu time    4.4503: real time    4.5686
    ORTHCH:  cpu time    0.3835: real time    0.3853
       DOS:  cpu time    0.0015: real time    0.0015
    CHARGE:  cpu time    0.2366: real time    0.2378
    MIXING:  cpu time    0.0029: real time    0.0029
    --------------------------------------------
      LOOP:  cpu time    6.6607: real time    6.7966

 eigenvalue-minimisations  :  3679
 total energy-change (2. order) : 0.1620351E+02  (-0.5089345E+01)
 number of electron     503.9998344 magnetization 
 augmentation part      197.5596696 magnetization 

 DIPCOR: dipole corrections for dipol
 direction  3 min pos     1,
 dipolmoment           0.000000      0.000000      0.706345 electrons x Angstroem
 Tr[quadrupol]    -10353.848013

 energy correction for charged system         0.000000 eV
 dipol+quadrupol energy correction           -0.017581 eV
 added-field ion interaction         -0.111799 eV  (added to PSCEN)


 Broyden mixing:
  rms(total) = 0.39547E+01    rms(broyden)= 0.39544E+01
  rms(prec ) = 0.45686E+01
  weight for this iteration     100.00

 eigenvalues of (default mixing * dielectric matrix)
  average eigenvalue GAMMA=   0.8267
  2.2745  0.4758  0.2783  0.2783

 Free energy of the ion-electron system (eV)
  ---------------------------------------------------
  alpha Z        PSCENC =       805.73998438
  Ewald energy   TEWEN  =    200873.91685489
  -Hartree energ DENC   =   -242870.57112908
  -exchange      EXHF   =         0.00000000
  -V(xc)+E(xc)   XCENC  =      -345.80636828
  PAW double counting   =     48767.28548593   -46852.83004365
  entropy T*S    EENTRO =        -0.22371441
  eigenvalues    EBANDS =     -2250.73950919
  atomic energy  EATOM  =     41659.78587232
  Solvation  Ediel_sol  =         0.00000000
  ---------------------------------------------------
  free energy    TOTEN  =      -213.44256708 eV

  energy without entropy =     -213.21885267  energy(sigma->0) =     -213.33070988


--------------------------------------------------------------------------------------------------------




----------------------------------------- Iteration    1(  10)  ---------------------------------------


    POTLOK:  cpu time    0.0587: real time    0.0590
    SETDIJ:  cpu time    0.0055: real time    0.0056
    EDDIAG:  cpu time    1.5504: real time    1.5590
  RMM-DIIS:  cpu time    4.5343: real time    4.5584
    ORTHCH:  cpu time    0.3783: real time    0.3818
       DOS:  cpu time    0.0015: real time    0.0015
    CHARGE:  cpu time    0.2341: real time    0.2356
    MIXING:  cpu time    0.0027: real time    0.0027
    --------------------------------------------
      LOOP:  cpu time    6.7664: real time    6.8399

 eigenvalue-minimisations  :  3685
 total energy-change (2. order) : 0.1467603E+02  (-0.2355088E+01)
 number of electron     503.9998336 magnetization 
 augmentation part      199.0481587 magnetization 

 DIPCOR: dipole corrections for dipol
 direction  3 min pos     1,
 dipolmoment           0.000000      0.000000     -0.395459 electrons x Angstroem
 Tr[quadrupol]    -10352.788768

 energy correction for charged system         0.000000 eV
 dipol+quadrupol energy correction           -0.005511 eV
 added-field ion interaction          0.062593 eV  (added to PSCEN)


 Broyden mixing:
  rms(total) = 0.26606E+01    rms(broyden)= 0.26603E+01
  rms(prec ) = 0.31172E+01
  weight for this iteration     100.00

 eigenvalues of (default mixing * dielectric matrix)
  average eigenvalue GAMMA=   0.7402
  2.3081  0.4230  0.3837  0.3837  0.2022

 Free energy of the ion-electron system (eV)
  ---------------------------------------------------
  alpha Z        PSCENC =       805.92644624
  Ewald energy   TEWEN  =    200873.91685489
  -Hartree energ DENC   =   -242838.13235625
  -exchange      EXHF   =         0.00000000
  -V(xc)+E(xc)   XCENC  =      -345.78883204
  PAW double counting   =     49244.29344065   -47335.76796893
  entropy T*S    EENTRO =        -0.19796951
  eigenvalues    EBANDS =     -2262.80202463
  atomic energy  EATOM  =     41659.78587232
  Solvation  Ediel_sol  =         0.00000000
  ---------------------------------------------------
  free energy    TOTEN  =      -198.76653727 eV

  energy without entropy =     -198.56856776  energy(sigma->0) =     -198.66755252


--------------------------------------------------------------------------------------------------------




----------------------------------------- Iteration    1(  11)  ---------------------------------------


    POTLOK:  cpu time    0.0464: real time    0.0468
    SETDIJ:  cpu time    0.0062: real time    0.0063
    EDDIAG:  cpu time    1.5247: real time    1.5351
  RMM-DIIS:  cpu time    4.4987: real time    4.5260
    ORTHCH:  cpu time    0.3764: real time    0.3785
       DOS:  cpu time    0.0015: real time    0.0015
    CHARGE:  cpu time    0.2341: real time    0.2353
    MIXING:  cpu time    0.0028: real time    0.0028
    --------------------------------------------
      LOOP:  cpu time    6.6916: real time    6.7374

 eigenvalue-minimisations  :  3681
 total energy-change (2. order) : 0.6994692E+01  (-0.1471168E+01)
 number of electron     503.9998339 magnetization 
 augmentation part      199.2001526 magnetization 

 DIPCOR: dipole corrections for dipol
 direction  3 min pos     1,
 dipolmoment           0.000000      0.000000     -0.108088 electrons x Angstroem
 Tr[quadrupol]    -10353.077796

 energy correction for charged system         0.000000 eV
 dipol+quadrupol energy correction           -0.000412 eV
 added-field ion interaction          0.017108 eV  (added to PSCEN)


 Broyden mixing:
  rms(total) = 0.13345E+01    rms(broyden)= 0.13343E+01
  rms(prec ) = 0.15275E+01
  weight for this iteration     100.00

 eigenvalues of (default mixing * dielectric matrix)
  average eigenvalue GAMMA=   0.7078
  2.2515  0.6040  0.6040  0.2867  0.2867  0.2137

 Free energy of the ion-electron system (eV)
  ---------------------------------------------------
  alpha Z        PSCENC =       805.88606068
  Ewald energy   TEWEN  =    200873.91685489
  -Hartree energ DENC   =   -242869.07363263
  -exchange      EXHF   =         0.00000000
  -V(xc)+E(xc)   XCENC  =      -345.30825810
  PAW double counting   =     49380.91307413   -47471.24798287
  entropy T*S    EENTRO =        -0.20858122
  eigenvalues    EBANDS =     -2226.43525286
  atomic energy  EATOM  =     41659.78587232
  Solvation  Ediel_sol  =         0.00000000
  ---------------------------------------------------
  free energy    TOTEN  =      -191.77184565 eV

  energy without entropy =     -191.56326443  energy(sigma->0) =     -191.66755504


--------------------------------------------------------------------------------------------------------




----------------------------------------- Iteration    1(  12)  ---------------------------------------


    POTLOK:  cpu time    0.0464: real time    0.0471
    SETDIJ:  cpu time    0.0055: real time    0.0055
    EDDIAG:  cpu time    1.5715: real time    1.5800
  RMM-DIIS:  cpu time    4.5599: real time    4.5830
    ORTHCH:  cpu time    0.3770: real time    0.3787
       DOS:  cpu time    0.0015: real time    0.0015
    CHARGE:  cpu time    0.2374: real time    0.2385
    MIXING:  cpu time    0.0029: real time    0.0029
    --------------------------------------------
      LOOP:  cpu time    6.8028: real time    6.8411

 eigenvalue-minimisations  :  3681
 total energy-change (2. order) : 0.3062685E+01  (-0.6495470E+00)
 number of electron     503.9998360 magnetization 
 augmentation part      197.9740349 magnetization 

 DIPCOR: dipole corrections for dipol
 direction  3 min pos     1,
 dipolmoment           0.000000      0.000000     -0.028857 electrons x Angstroem
 Tr[quadrupol]    -10353.284358

 energy correction for charged system         0.000000 eV
 dipol+quadrupol energy correction           -0.000029 eV
 added-field ion interaction          0.004568 eV  (added to PSCEN)


 Broyden mixing:
  rms(total) = 0.96871E+00    rms(broyden)= 0.96853E+00
  rms(prec ) = 0.10758E+01
  weight for this iteration     100.00

 eigenvalues of (default mixing * dielectric matrix)
  average eigenvalue GAMMA=   0.6624
  2.2645  0.5405  0.5405  0.4466  0.3186  0.3186  0.2078

 Free energy of the ion-electron system (eV)
  ---------------------------------------------------
  alpha Z        PSCENC =       805.87390246
  Ewald energy   TEWEN  =    200873.91685489
  -Hartree energ DENC   =   -242912.47941917
  -exchange      EXHF   =         0.00000000
  -V(xc)+E(xc)   XCENC  =      -344.30074867
  PAW double counting   =     49406.81334040   -47492.27331539
  entropy T*S    EENTRO =        -0.19324926
  eigenvalues    EBANDS =     -2185.85239783
  atomic energy  EATOM  =     41659.78587232
  Solvation  Ediel_sol  =         0.00000000
  ---------------------------------------------------
  free energy    TOTEN  =      -188.70916025 eV

  energy without entropy =     -188.51591100  energy(sigma->0) =     -188.61253562


--------------------------------------------------------------------------------------------------------




----------------------------------------- Iteration    1(  13)  ---------------------------------------


    POTLOK:  cpu time    0.0454: real time    0.0459
    SETDIJ:  cpu time    0.0053: real time    0.0053
    EDDIAG:  cpu time    1.6501: real time    1.6690
  RMM-DIIS:  cpu time    5.4627: real time    5.5101
    ORTHCH:  cpu time    0.3820: real time    0.3839
       DOS:  cpu time    0.0015: real time    0.0015
    CHARGE:  cpu time    0.2343: real time    0.2355
    MIXING:  cpu time    0.0030: real time    0.0030
    --------------------------------------------
      LOOP:  cpu time    7.7851: real time    7.8651

 eigenvalue-minimisations  :  3683
 total energy-change (2. order) : 0.7812985E+00  (-0.2156595E+00)
 number of electron     503.9998361 magnetization 
 augmentation part      197.5371958 magnetization 

 DIPCOR: dipole corrections for dipol
 direction  3 min pos     1,
 dipolmoment           0.000000      0.000000     -0.013995 electrons x Angstroem
 Tr[quadrupol]    -10353.697254

 energy correction for charged system         0.000000 eV
 dipol+quadrupol energy correction           -0.000007 eV
 added-field ion interaction          0.002215 eV  (added to PSCEN)


 Broyden mixing:
  rms(total) = 0.72528E+00    rms(broyden)= 0.72513E+00
  rms(prec ) = 0.79658E+00
  weight for this iteration     100.00

 eigenvalues of (default mixing * dielectric matrix)
  average eigenvalue GAMMA=   0.6866
  2.2983  0.7780  0.6751  0.6751  0.2937  0.2937  0.2739  0.2050

 Free energy of the ion-electron system (eV)
  ---------------------------------------------------
  alpha Z        PSCENC =       805.87157242
  Ewald energy   TEWEN  =    200873.91685489
  -Hartree energ DENC   =   -242938.03467112
  -exchange      EXHF   =         0.00000000
  -V(xc)+E(xc)   XCENC  =      -343.95572916
  PAW double counting   =     49453.13519089   -47537.05873668
  entropy T*S    EENTRO =        -0.23261111
  eigenvalues    EBANDS =     -2161.35560424
  atomic energy  EATOM  =     41659.78587232
  Solvation  Ediel_sol  =         0.00000000
  ---------------------------------------------------
  free energy    TOTEN  =      -187.92786178 eV

  energy without entropy =     -187.69525068  energy(sigma->0) =     -187.81155623


--------------------------------------------------------------------------------------------------------




----------------------------------------- Iteration    1(  14)  ---------------------------------------


    POTLOK:  cpu time    0.0451: real time    0.0453
    SETDIJ:  cpu time    0.0054: real time    0.0055
    EDDIAG:  cpu time    1.5520: real time    1.5595
  RMM-DIIS:  cpu time    4.5575: real time    4.5838
    ORTHCH:  cpu time    0.3789: real time    0.3807
       DOS:  cpu time    0.0015: real time    0.0015
    CHARGE:  cpu time    0.2329: real time    0.2341
    MIXING:  cpu time    0.0031: real time    0.0031
    --------------------------------------------
      LOOP:  cpu time    6.7773: real time    6.8162

 eigenvalue-minimisations  :  3681
 total energy-change (2. order) : 0.1652597E+00  (-0.9675193E-01)
 number of electron     503.9998357 magnetization 
 augmentation part      197.7751661 magnetization 

 DIPCOR: dipole corrections for dipol
 direction  3 min pos     1,
 dipolmoment           0.000000      0.000000      0.010162 electrons x Angstroem
 Tr[quadrupol]    -10353.913220

 energy correction for charged system         0.000000 eV
 dipol+quadrupol energy correction           -0.000004 eV
 added-field ion interaction         -0.001608 eV  (added to PSCEN)


 Broyden mixing:
  rms(total) = 0.52287E+00    rms(broyden)= 0.52276E+00
  rms(prec ) = 0.57506E+00
  weight for this iteration     100.00

 eigenvalues of (default mixing * dielectric matrix)
  average eigenvalue GAMMA=   0.6690
  2.2721  0.7951  0.7951  0.7589  0.3178  0.3178  0.2034  0.2806  0.2806

 Free energy of the ion-electron system (eV)
  ---------------------------------------------------
  alpha Z        PSCENC =       805.86775220
  Ewald energy   TEWEN  =    200873.91685489
  -Hartree energ DENC   =   -242943.32228621
  -exchange      EXHF   =         0.00000000
  -V(xc)+E(xc)   XCENC  =      -343.92725301
  PAW double counting   =     49491.33153550   -47575.21483910
  entropy T*S    EENTRO =        -0.24532064
  eigenvalues    EBANDS =     -2155.95491800
  atomic energy  EATOM  =     41659.78587232
  Solvation  Ediel_sol  =         0.00000000
  ---------------------------------------------------
  free energy    TOTEN  =      -187.76260204 eV

  energy without entropy =     -187.51728141  energy(sigma->0) =     -187.63994172


--------------------------------------------------------------------------------------------------------




----------------------------------------- Iteration    1(  15)  ---------------------------------------


    POTLOK:  cpu time    0.0447: real time    0.0449
    SETDIJ:  cpu time    0.0054: real time    0.0055
    EDDIAG:  cpu time    1.5257: real time    1.5329
  RMM-DIIS:  cpu time    4.4246: real time    4.5404
    ORTHCH:  cpu time    0.3771: real time    0.3789
       DOS:  cpu time    0.0015: real time    0.0015
    CHARGE:  cpu time    0.2349: real time    0.2360
    MIXING:  cpu time    0.0033: real time    0.0033
    --------------------------------------------
      LOOP:  cpu time    6.6180: real time    6.7868

 eigenvalue-minimisations  :  3680
 total energy-change (2. order) : 0.4377330E-01  (-0.2508220E-01)
 number of electron     503.9998359 magnetization 
 augmentation part      197.6737627 magnetization 

 DIPCOR: dipole corrections for dipol
 direction  3 min pos     1,
 dipolmoment           0.000000      0.000000     -0.009151 electrons x Angstroem
 Tr[quadrupol]    -10353.997802

 energy correction for charged system         0.000000 eV
 dipol+quadrupol energy correction           -0.000003 eV
 added-field ion interaction          0.001448 eV  (added to PSCEN)


 Broyden mixing:
  rms(total) = 0.53163E+00    rms(broyden)= 0.53158E+00
  rms(prec ) = 0.58559E+00
  weight for this iteration     100.00

 eigenvalues of (default mixing * dielectric matrix)
  average eigenvalue GAMMA=   0.6792
  2.2388  1.0603  1.0603  0.5685  0.4371  0.4371  0.2846  0.2846  0.2105  0.2105

 Free energy of the ion-electron system (eV)
  ---------------------------------------------------
  alpha Z        PSCENC =       805.87080976
  Ewald energy   TEWEN  =    200873.91685489
  -Hartree energ DENC   =   -242950.27941549
  -exchange      EXHF   =         0.00000000
  -V(xc)+E(xc)   XCENC  =      -343.76821306
  PAW double counting   =     49484.29772917   -47567.08738626
  entropy T*S    EENTRO =        -0.22511941
  eigenvalues    EBANDS =     -2150.22996068
  atomic energy  EATOM  =     41659.78587232
  Solvation  Ediel_sol  =         0.00000000
  ---------------------------------------------------
  free energy    TOTEN  =      -187.71882874 eV

  energy without entropy =     -187.49370933  energy(sigma->0) =     -187.60626904


--------------------------------------------------------------------------------------------------------




----------------------------------------- Iteration    1(  16)  ---------------------------------------


    POTLOK:  cpu time    0.0456: real time    0.0467
    SETDIJ:  cpu time    0.0055: real time    0.0055
    EDDIAG:  cpu time    1.5693: real time    1.5781
  RMM-DIIS:  cpu time    4.5924: real time    4.6150
    ORTHCH:  cpu time    0.3824: real time    0.3844
       DOS:  cpu time    0.0016: real time    0.0016
    CHARGE:  cpu time    0.2355: real time    0.2376
    MIXING:  cpu time    0.0036: real time    0.0036
    --------------------------------------------
      LOOP:  cpu time    6.8366: real time    6.8765

 eigenvalue-minimisations  :  3681
 total energy-change (2. order) : 0.8047574E-01  (-0.1604379E-01)
 number of electron     503.9998360 magnetization 
 augmentation part      197.4974254 magnetization 

 DIPCOR: dipole corrections for dipol
 direction  3 min pos     1,
 dipolmoment           0.000000      0.000000     -0.028481 electrons x Angstroem
 Tr[quadrupol]    -10354.397442

 energy correction for charged system         0.000000 eV
 dipol+quadrupol energy correction           -0.000029 eV
 added-field ion interaction          0.004508 eV  (added to PSCEN)


 Broyden mixing:
  rms(total) = 0.40717E+00    rms(broyden)= 0.40714E+00
  rms(prec ) = 0.46167E+00
  weight for this iteration     100.00

 eigenvalues of (default mixing * dielectric matrix)
  average eigenvalue GAMMA=   0.7065
  2.1597  1.3417  1.3417  0.5963  0.5262  0.5262  0.2948  0.2948  0.2752  0.2028
  0.2121

 Free energy of the ion-electron system (eV)
  ---------------------------------------------------
  alpha Z        PSCENC =       805.87384362
  Ewald energy   TEWEN  =    200873.91685489
  -Hartree energ DENC   =   -242970.50333230
  -exchange      EXHF   =         0.00000000
  -V(xc)+E(xc)   XCENC  =      -343.54223458
  PAW double counting   =     49480.43354243   -47561.43269747
  entropy T*S    EENTRO =        -0.24100056
  eigenvalues    EBANDS =     -2131.92920135
  atomic energy  EATOM  =     41659.78587232
  Solvation  Ediel_sol  =         0.00000000
  ---------------------------------------------------
  free energy    TOTEN  =      -187.63835300 eV

  energy without entropy =     -187.39735244  energy(sigma->0) =     -187.51785272


--------------------------------------------------------------------------------------------------------




----------------------------------------- Iteration    1(  17)  ---------------------------------------


    POTLOK:  cpu time    0.0462: real time    0.0465
    SETDIJ:  cpu time    0.0054: real time    0.0054
    EDDIAG:  cpu time    1.5379: real time    1.5465
  RMM-DIIS:  cpu time    4.5513: real time    4.5793
    ORTHCH:  cpu time    0.3809: real time    0.3829
       DOS:  cpu time    0.0015: real time    0.0015
    CHARGE:  cpu time    0.2341: real time    0.2353
    MIXING:  cpu time    0.0037: real time    0.0037
    --------------------------------------------
      LOOP:  cpu time    6.7618: real time    6.8052

 eigenvalue-minimisations  :  3681
 total energy-change (2. order) : 0.1134333E+00  (-0.1798596E-01)
 number of electron     503.9998363 magnetization 
 augmentation part      197.3029057 magnetization 

 DIPCOR: dipole corrections for dipol
 direction  3 min pos     1,
 dipolmoment           0.000000      0.000000     -0.032471 electrons x Angstroem
 Tr[quadrupol]    -10354.718895

 energy correction for charged system         0.000000 eV
 dipol+quadrupol energy correction           -0.000037 eV
 added-field ion interaction          0.005139 eV  (added to PSCEN)


 Broyden mixing:
  rms(total) = 0.31189E+00    rms(broyden)= 0.31183E+00
  rms(prec ) = 0.36019E+00
  weight for this iteration     100.00

 eigenvalues of (default mixing * dielectric matrix)
  average eigenvalue GAMMA=   0.7360
  2.0372  1.6518  1.6518  0.7128  0.5857  0.5857  0.3050  0.3050  0.2977  0.2977
  0.2023  0.1990

 Free energy of the ion-electron system (eV)
  ---------------------------------------------------
  alpha Z        PSCENC =       805.87446661
  Ewald energy   TEWEN  =    200873.91685489
  -Hartree energ DENC   =   -242989.35379148
  -exchange      EXHF   =         0.00000000
  -V(xc)+E(xc)   XCENC  =      -343.26945129
  PAW double counting   =     49478.01440298   -47557.09950617
  entropy T*S    EENTRO =        -0.23639987
  eigenvalues    EBANDS =     -2115.15736773
  atomic energy  EATOM  =     41659.78587232
  Solvation  Ediel_sol  =         0.00000000
  ---------------------------------------------------
  free energy    TOTEN  =      -187.52491974 eV

  energy without entropy =     -187.28851988  energy(sigma->0) =     -187.40671981


--------------------------------------------------------------------------------------------------------




----------------------------------------- Iteration    1(  18)  ---------------------------------------


    POTLOK:  cpu time    0.0469: real time    0.0472
    SETDIJ:  cpu time    0.0055: real time    0.0055
    EDDIAG:  cpu time    1.5520: real time    1.5608
  RMM-DIIS:  cpu time    4.5280: real time    4.5504
    ORTHCH:  cpu time    0.3801: real time    0.3825
       DOS:  cpu time    0.0015: real time    0.0016
    CHARGE:  cpu time    0.2349: real time    0.2360
    MIXING:  cpu time    0.0038: real time    0.0039
    --------------------------------------------
      LOOP:  cpu time    6.7535: real time    6.7926

 eigenvalue-minimisations  :  3679
 total energy-change (2. order) : 0.3882503E-01  (-0.1366503E-01)
 number of electron     503.9998365 magnetization 
 augmentation part      197.2279403 magnetization 

 DIPCOR: dipole corrections for dipol
 direction  3 min pos     1,
 dipolmoment           0.000000      0.000000     -0.024267 electrons x Angstroem
 Tr[quadrupol]    -10355.099211

 energy correction for charged system         0.000000 eV
 dipol+quadrupol energy correction           -0.000021 eV
 added-field ion interaction          0.003841 eV  (added to PSCEN)


 Broyden mixing:
  rms(total) = 0.23590E+00    rms(broyden)= 0.23579E+00
  rms(prec ) = 0.26972E+00
  weight for this iteration     100.00

 eigenvalues of (default mixing * dielectric matrix)
  average eigenvalue GAMMA=   0.7075
  2.1527  1.6221  1.6221  0.7579  0.6026  0.6026  0.3012  0.3012  0.3382  0.3068
  0.2067  0.2067  0.1769

 Free energy of the ion-electron system (eV)
  ---------------------------------------------------
  alpha Z        PSCENC =       805.87318456
  Ewald energy   TEWEN  =    200873.91685489
  -Hartree energ DENC   =   -243007.21220243
  -exchange      EXHF   =         0.00000000
  -V(xc)+E(xc)   XCENC  =      -343.06189493
  PAW double counting   =     49494.27157591   -47571.98459633
  entropy T*S    EENTRO =        -0.23575596
  eigenvalues    EBANDS =     -2098.83913274
  atomic energy  EATOM  =     41659.78587232
  Solvation  Ediel_sol  =         0.00000000
  ---------------------------------------------------
  free energy    TOTEN  =      -187.48609471 eV

  energy without entropy =     -187.25033876  energy(sigma->0) =     -187.36821674


--------------------------------------------------------------------------------------------------------




----------------------------------------- Iteration    1(  19)  ---------------------------------------


    POTLOK:  cpu time    0.0475: real time    0.0479
    SETDIJ:  cpu time    0.0063: real time    0.0064
    EDDIAG:  cpu time    1.5290: real time    1.5377
  RMM-DIIS:  cpu time    4.5805: real time    4.6191
    ORTHCH:  cpu time    0.3821: real time    0.3839
       DOS:  cpu time    0.0015: real time    0.0015
    CHARGE:  cpu time    0.2318: real time    0.2328
    MIXING:  cpu time    0.0040: real time    0.0040
    --------------------------------------------
      LOOP:  cpu time    6.7836: real time    6.8380

 eigenvalue-minimisations  :  3679
 total energy-change (2. order) : 0.5659172E-01  (-0.3279609E-02)
 number of electron     503.9998364 magnetization 
 augmentation part      197.2460413 magnetization 

 DIPCOR: dipole corrections for dipol
 direction  3 min pos     1,
 dipolmoment           0.000000      0.000000     -0.019862 electrons x Angstroem
 Tr[quadrupol]    -10355.184452

 energy correction for charged system         0.000000 eV
 dipol+quadrupol energy correction           -0.000014 eV
 added-field ion interaction          0.003144 eV  (added to PSCEN)


 Broyden mixing:
  rms(total) = 0.99675E-01    rms(broyden)= 0.99642E-01
  rms(prec ) = 0.11576E+00
  weight for this iteration     100.00

 eigenvalues of (default mixing * dielectric matrix)
  average eigenvalue GAMMA=   0.7018
  2.2075  1.6540  1.6540  0.6498  0.6498  0.5702  0.5702  0.3703  0.2986  0.2986
  0.2732  0.2326  0.1997  0.1972

 Free energy of the ion-electron system (eV)
  ---------------------------------------------------
  alpha Z        PSCENC =       805.87249404
  Ewald energy   TEWEN  =    200873.91685489
  -Hartree energ DENC   =   -243010.16180969
  -exchange      EXHF   =         0.00000000
  -V(xc)+E(xc)   XCENC  =      -343.05102054
  PAW double counting   =     49504.53339369   -47582.24571633
  entropy T*S    EENTRO =        -0.23662122
  eigenvalues    EBANDS =     -2095.84295016
  atomic energy  EATOM  =     41659.78587232
  Solvation  Ediel_sol  =         0.00000000
  ---------------------------------------------------
  free energy    TOTEN  =      -187.42950299 eV

  energy without entropy =     -187.19288178  energy(sigma->0) =     -187.31119239


--------------------------------------------------------------------------------------------------------




----------------------------------------- Iteration    1(  20)  ---------------------------------------


    POTLOK:  cpu time    0.0452: real time    0.0457
    SETDIJ:  cpu time    0.0055: real time    0.0055
    EDDIAG:  cpu time    1.5771: real time    1.5878
  RMM-DIIS:  cpu time    4.5429: real time    4.5745
    ORTHCH:  cpu time    0.3797: real time    0.3816
       DOS:  cpu time    0.0015: real time    0.0015
    CHARGE:  cpu time    0.2370: real time    0.2382
    MIXING:  cpu time    0.0041: real time    0.0041
    --------------------------------------------
      LOOP:  cpu time    6.7938: real time    6.8432

 eigenvalue-minimisations  :  3683
 total energy-change (2. order) : 0.6522824E-02  (-0.7234279E-03)
 number of electron     503.9998364 magnetization 
 augmentation part      197.2253033 magnetization 

 DIPCOR: dipole corrections for dipol
 direction  3 min pos     1,
 dipolmoment           0.000000      0.000000     -0.016249 electrons x Angstroem
 Tr[quadrupol]    -10355.304762

 energy correction for charged system         0.000000 eV
 dipol+quadrupol energy correction           -0.000009 eV
 added-field ion interaction          0.002572 eV  (added to PSCEN)


 Broyden mixing:
  rms(total) = 0.73912E-01    rms(broyden)= 0.73907E-01
  rms(prec ) = 0.84154E-01
  weight for this iteration     100.00

 eigenvalues of (default mixing * dielectric matrix)
  average eigenvalue GAMMA=   0.7180
  2.2082  1.6849  1.6849  0.8545  0.8545  0.5905  0.5905  0.4888  0.3009  0.3009
  0.3030  0.3030  0.2134  0.2012  0.1913

 Free energy of the ion-electron system (eV)
  ---------------------------------------------------
  alpha Z        PSCENC =       805.87192687
  Ewald energy   TEWEN  =    200873.91685489
  -Hartree energ DENC   =   -243014.90730628
  -exchange      EXHF   =         0.00000000
  -V(xc)+E(xc)   XCENC  =      -343.02375537
  PAW double counting   =     49512.21558447   -47589.79454307
  entropy T*S    EENTRO =        -0.24012277
  eigenvalues    EBANDS =     -2091.24749123
  atomic energy  EATOM  =     41659.78587232
  Solvation  Ediel_sol  =         0.00000000
  ---------------------------------------------------
  free energy    TOTEN  =      -187.42298017 eV

  energy without entropy =     -187.18285740  energy(sigma->0) =     -187.30291879


--------------------------------------------------------------------------------------------------------




----------------------------------------- Iteration    1(  21)  ---------------------------------------


    POTLOK:  cpu time    0.0456: real time    0.0458
    SETDIJ:  cpu time    0.0053: real time    0.0053
    EDDIAG:  cpu time    1.5352: real time    1.5437
  RMM-DIIS:  cpu time    4.4274: real time    4.5474
    ORTHCH:  cpu time    0.3875: real time    0.3893
       DOS:  cpu time    0.0015: real time    0.0015
    CHARGE:  cpu time    0.3288: real time    0.3358
    MIXING:  cpu time    0.0100: real time    0.0100
    --------------------------------------------
      LOOP:  cpu time    6.7421: real time    6.8818

 eigenvalue-minimisations  :  3681
 total energy-change (2. order) : 0.3890997E-02  (-0.5006942E-03)
 number of electron     503.9998365 magnetization 
 augmentation part      197.1885380 magnetization 

 DIPCOR: dipole corrections for dipol
 direction  3 min pos     1,
 dipolmoment           0.000000      0.000000     -0.012911 electrons x Angstroem
 Tr[quadrupol]    -10355.464839

 energy correction for charged system         0.000000 eV
 dipol+quadrupol energy correction           -0.000006 eV
 added-field ion interaction          0.002043 eV  (added to PSCEN)


 Broyden mixing:
  rms(total) = 0.52382E-01    rms(broyden)= 0.52373E-01
  rms(prec ) = 0.59882E-01
  weight for this iteration     100.00

 eigenvalues of (default mixing * dielectric matrix)
  average eigenvalue GAMMA=   0.7306
  2.2739  1.6669  1.6669  1.0460  1.0460  0.5880  0.5880  0.6555  0.3010  0.3010
  0.3334  0.3334  0.2806  0.2162  0.2015  0.1917

 Free energy of the ion-electron system (eV)
  ---------------------------------------------------
  alpha Z        PSCENC =       805.87140189
  Ewald energy   TEWEN  =    200873.91685489
  -Hartree energ DENC   =   -243021.40823583
  -exchange      EXHF   =         0.00000000
  -V(xc)+E(xc)   XCENC  =      -342.97941356
  PAW double counting   =     49518.37192437   -47595.74043981
  entropy T*S    EENTRO =        -0.24117680
  eigenvalues    EBANDS =     -2084.99587665
  atomic energy  EATOM  =     41659.78587232
  Solvation  Ediel_sol  =         0.00000000
  ---------------------------------------------------
  free energy    TOTEN  =      -187.41908917 eV

  energy without entropy =     -187.17791237  energy(sigma->0) =     -187.29850077


--------------------------------------------------------------------------------------------------------




----------------------------------------- Iteration    1(  22)  ---------------------------------------


    POTLOK:  cpu time    0.0837: real time    0.0843
    SETDIJ:  cpu time    0.0090: real time    0.0091
    EDDIAG:  cpu time    2.3998: real time    2.4139
  RMM-DIIS:  cpu time    4.7603: real time    4.8171
    ORTHCH:  cpu time    0.3863: real time    0.3885
       DOS:  cpu time    0.0015: real time    0.0015
    CHARGE:  cpu time    0.2318: real time    0.2330
    MIXING:  cpu time    0.0044: real time    0.0044
    --------------------------------------------
      LOOP:  cpu time    7.8775: real time    7.9546

 eigenvalue-minimisations  :  3681
 total energy-change (2. order) : 0.2469981E-02  (-0.2136566E-03)
 number of electron     503.9998365 magnetization 
 augmentation part      197.1788777 magnetization 

 DIPCOR: dipole corrections for dipol
 direction  3 min pos     1,
 dipolmoment           0.000000      0.000000     -0.009540 electrons x Angstroem
 Tr[quadrupol]    -10355.587173

 energy correction for charged system         0.000000 eV
 dipol+quadrupol energy correction           -0.000003 eV
 added-field ion interaction          0.001510 eV  (added to PSCEN)


 Broyden mixing:
  rms(total) = 0.37168E-01    rms(broyden)= 0.37165E-01
  rms(prec ) = 0.42971E-01
  weight for this iteration     100.00

 eigenvalues of (default mixing * dielectric matrix)
  average eigenvalue GAMMA=   0.7386
  2.2789  1.6837  1.6837  1.1774  1.1774  0.7768  0.5963  0.5963  0.3987  0.3987
  0.3000  0.3000  0.2900  0.2900  0.2154  0.2014  0.1918

 Free energy of the ion-electron system (eV)
  ---------------------------------------------------
  alpha Z        PSCENC =       805.87087110
  Ewald energy   TEWEN  =    200873.91685489
  -Hartree energ DENC   =   -243025.82784046
  -exchange      EXHF   =         0.00000000
  -V(xc)+E(xc)   XCENC  =      -342.96173529
  PAW double counting   =     49522.30285627   -47599.66307779
  entropy T*S    EENTRO =        -0.24133492
  eigenvalues    EBANDS =     -2080.59908531
  atomic energy  EATOM  =     41659.78587232
  Solvation  Ediel_sol  =         0.00000000
  ---------------------------------------------------
  free energy    TOTEN  =      -187.41661919 eV

  energy without entropy =     -187.17528427  energy(sigma->0) =     -187.29595173


--------------------------------------------------------------------------------------------------------




----------------------------------------- Iteration    1(  23)  ---------------------------------------


    POTLOK:  cpu time    0.0454: real time    0.0456
    SETDIJ:  cpu time    0.0054: real time    0.0054
    EDDIAG:  cpu time    1.5202: real time    1.5279
  RMM-DIIS:  cpu time    4.5756: real time    4.5983
    ORTHCH:  cpu time    0.3778: real time    0.3818
       DOS:  cpu time    0.0016: real time    0.0016
    CHARGE:  cpu time    0.2347: real time    0.2357
    MIXING:  cpu time    0.0044: real time    0.0045
    --------------------------------------------
      LOOP:  cpu time    6.7661: real time    6.8036

 eigenvalue-minimisations  :  3683
 total energy-change (2. order) : 0.1192286E-02  (-0.1265129E-03)
 number of electron     503.9998365 magnetization 
 augmentation part      197.1760164 magnetization 

 DIPCOR: dipole corrections for dipol
 direction  3 min pos     1,
 dipolmoment           0.000000      0.000000     -0.009643 electrons x Angstroem
 Tr[quadrupol]    -10355.704860

 energy correction for charged system         0.000000 eV
 dipol+quadrupol energy correction           -0.000003 eV
[...]
    275       1.6988      0.00000
    276       1.7981      0.00000
    277       2.0488      0.00000
    278       2.0932      0.00000
    279       2.2584      0.00000
    280       2.3512      0.00000
    281       2.4149      0.00000
    282       2.5763      0.00000
    283       2.6642      0.00000
    284       2.9557      0.00000
    285       3.2137      0.00000
    286       3.2305      0.00000
    287       3.4892      0.00000
    288       3.5611      0.00000
    289       3.6046      0.00000
    290       3.8602      0.00000
    291       4.0855      0.00000
    292       4.1719      0.00000
    293       4.4346      0.00000
    294       4.5297      0.00000
    295       4.5520      0.00000
    296       4.6396      0.00000
    297       4.6872      0.00000
    298       4.8139      0.00000
    299       4.8744      0.00000
    300       4.9226      0.00000
    301       4.9392      0.00000
    302       5.0384      0.00000
    303       5.0739      0.00000
    304       5.1200      0.00000
    305       5.2422      0.00000
    306       5.2657      0.00000


--------------------------------------------------------------------------------------------------------


 soft charge-density along one line, spin component           1
         0         1         2         3         4         5         6         7         8         9
 total charge-density along one line
 
 pseudopotential strength for first ion, spin component:           1
 -8.020   0.005   0.000  -0.001   0.001  -8.168   0.005   0.000
  0.005  -7.943   0.001  -0.000  -0.001   0.005  -8.092   0.001
  0.000   0.001  -7.936  -0.002  -0.002   0.000   0.001  -8.085
 -0.001  -0.000  -0.002  -7.939   0.000  -0.001  -0.000  -0.002
  0.001  -0.001  -0.002   0.000  -8.021   0.001  -0.001  -0.002
 -8.168   0.005   0.000  -0.001   0.001  -8.299   0.005   0.000
  0.005  -8.092   0.001  -0.000  -0.001   0.005  -8.225   0.001
  0.000   0.001  -8.085  -0.002  -0.002   0.000   0.001  -8.218
 -0.001  -0.000  -0.002  -8.088   0.000  -0.001  -0.000  -0.002
  0.001  -0.001  -0.002   0.000  -8.168   0.001  -0.001  -0.002
  0.001   0.000  -0.026  -0.001  -0.001   0.001   0.000  -0.026
  0.001   0.000  -0.037  -0.002  -0.002   0.001   0.000  -0.037
  0.003  -0.002  -0.000   0.000  -0.000   0.003  -0.002  -0.000
  0.000   0.000  -0.004   0.002  -0.000   0.000   0.000  -0.004
  0.000   0.000  -0.001  -0.002   0.002   0.000   0.000  -0.001
  0.003  -0.002  -0.000   0.000  -0.000   0.003  -0.002  -0.000
  0.000   0.000  -0.004   0.002   0.000   0.000   0.000  -0.004
  0.001   0.000  -0.002  -0.002   0.002   0.001   0.000  -0.002
 total augmentation occupancy for first ion, spin component:           1
  4.231   0.066  -0.050   0.066   0.035  -2.413  -0.007   0.053  -0.083  -0.016  -0.045  -0.003  -0.082   0.006  -0.025   0.006
  0.066   4.043   0.014   0.009   0.069  -0.008  -1.767  -0.003  -0.014  -0.082   0.001  -0.003  -0.148   0.002   0.006   0.006
 -0.050   0.014   4.229  -0.068   0.125   0.053  -0.003  -2.110   0.034  -0.123   0.972  -0.071   0.002  -0.199   0.024  -0.000
  0.066   0.009  -0.068   4.102  -0.047  -0.083  -0.014   0.033  -1.800   0.030   0.053  -0.010   0.004   0.010  -0.175   0.000
  0.035   0.069   0.125  -0.047   3.918  -0.016  -0.083  -0.122   0.029  -2.125   0.102  -0.054  -0.021  -0.010   0.045   0.001
 -2.413  -0.008   0.053  -0.083  -0.016   2.475  -0.037  -0.056   0.095   0.001   0.048  -0.003   0.068  -0.005   0.021  -0.004
 -0.007  -1.767  -0.003  -0.014  -0.083  -0.037   1.466  -0.005   0.019   0.092  -0.002   0.002   0.139  -0.003  -0.005  -0.006
  0.053  -0.003  -2.110   0.033  -0.122  -0.056  -0.005   1.938  -0.007   0.119  -0.912   0.096  -0.002   0.199  -0.018   0.000
 -0.083  -0.014   0.034  -1.800   0.029   0.095   0.019  -0.007   1.478  -0.017  -0.049   0.011  -0.003  -0.007   0.165   0.000
 -0.016  -0.082  -0.123   0.030  -2.125   0.001   0.092   0.119  -0.017   2.208  -0.093   0.051   0.019   0.011  -0.040  -0.001
 -0.045   0.001   0.972   0.053   0.102   0.048  -0.002  -0.912  -0.049  -0.093   2.322  -0.466  -0.001   0.112   0.011   0.000
 -0.003  -0.003  -0.071  -0.010  -0.054  -0.003   0.002   0.096   0.011   0.051  -0.466   0.137  -0.001  -0.055  -0.013  -0.000
 -0.082  -0.148   0.002   0.004  -0.021   0.068   0.139  -0.002  -0.003   0.019  -0.001  -0.001   0.188   0.000   0.004  -0.006
  0.006   0.002  -0.199   0.010  -0.010  -0.005  -0.003   0.199  -0.007   0.011   0.112  -0.055   0.000   0.081  -0.004   0.000
 -0.025   0.006   0.024  -0.175   0.045   0.021  -0.005  -0.018   0.165  -0.040   0.011  -0.013   0.004  -0.004   0.180  -0.000
  0.006   0.006  -0.000   0.000   0.001  -0.004  -0.006   0.000   0.000  -0.001   0.000  -0.000  -0.006   0.000  -0.000   0.000
 -0.000   0.000   0.003   0.002   0.000   0.000   0.000  -0.006  -0.000  -0.000  -0.007   0.003  -0.000  -0.003   0.000   0.000
  0.001  -0.000  -0.003   0.006   0.001  -0.001   0.000   0.001  -0.006   0.001  -0.001   0.000  -0.000   0.000  -0.005   0.000


------------------------ aborting loop because EDIFF is reached ----------------------------------------


    CHARGE:  cpu time    0.2269: real time    0.2281
    FORLOC:  cpu time    0.0165: real time    0.0166
    FORNL :  cpu time    1.6385: real time    1.6468
    FORCOR:  cpu time    0.0591: real time    0.0609
    FORHAR:  cpu time    0.0256: real time    0.0256
    MIXING:  cpu time    0.0036: real time    0.0036
    OFIELD:  cpu time    0.0000: real time    0.0000

 VOLUME and BASIS-vectors are now :
 -----------------------------------------------------------------------------
  energy-cutoff  :      400.00
  volume of cell :     2567.68
      direct lattice vectors                 reciprocal lattice vectors
    11.002581515  0.000000000  0.000000000     0.090887761 -0.052474073  0.000000000
     5.501290758  9.528515099  0.000000000     0.000000000  0.104948147  0.000000000
     0.000000000  0.000000000 24.491785094     0.000000000  0.000000000  0.040830017

  length of vectors
    11.002581515 11.002581515 24.491785094     0.104948147  0.104948147  0.040830017


 FORCES acting on ions
    electron-ion (+dipol)            ewald-force                    non-local-force                 convergence-correction
 -----------------------------------------------------------------------------------------------
   0.122E+02 -.363E+01 0.232E+04   -.127E+02 0.354E+01 -.232E+04   0.425E+00 0.929E-01 0.176E+00   -.835E-03 0.147E-02 0.622E-03
   0.974E+01 0.321E+01 0.213E+02   -.953E+01 -.282E+01 -.213E+02   -.206E+00 -.405E+00 -.236E-02   -.174E-02 0.181E-02 0.209E-03
   -.187E+02 -.100E+02 0.399E+02   0.177E+02 0.987E+01 -.392E+02   0.101E+01 0.142E+00 -.659E+00   0.240E-03 0.116E-02 0.926E-03
   -.928E+01 0.117E+02 0.233E+04   0.947E+01 -.122E+02 -.233E+04   -.194E+00 0.524E+00 0.120E+00   -.105E-02 -.171E-02 -.383E-03
   0.787E+00 -.858E+01 0.744E+01   -.511E+00 0.794E+01 -.687E+01   -.288E+00 0.651E+00 -.576E+00   0.146E-02 -.138E-02 -.221E-02
   0.316E+01 0.103E+02 0.251E+02   -.386E+01 -.947E+01 -.251E+02   0.703E+00 -.856E+00 0.686E-01   0.168E-02 -.936E-03 0.103E-02
   -.123E+02 -.159E+01 0.231E+04   0.129E+02 0.222E+01 -.231E+04   -.610E+00 -.634E+00 -.202E+00   0.179E-02 -.296E-02 0.952E-03
   -.566E+01 -.442E+01 -.226E+04   0.642E+01 0.450E+01 0.226E+04   -.755E+00 -.785E-01 -.686E-01   -.173E-02 0.160E-04 -.664E-03
   0.188E+02 -.181E+02 -.230E+04   -.189E+02 0.186E+02 0.230E+04   0.738E-01 -.469E+00 -.218E+00   0.640E-04 -.655E-03 0.811E-03
   -.717E+00 0.376E+01 0.231E+04   0.857E+00 -.434E+01 -.231E+04   -.142E+00 0.567E+00 0.164E+00   -.139E-02 0.270E-03 0.138E-02
   -.927E+01 -.592E+01 -.629E+00   0.843E+01 0.630E+01 0.403E-01   0.840E+00 -.378E+00 0.594E+00   0.228E-03 0.225E-02 0.908E-03
   0.130E+02 0.540E+01 -.229E+04   -.131E+02 -.594E+01 0.229E+04   0.146E+00 0.541E+00 -.246E+00   0.166E-03 0.377E-03 0.616E-03
   0.776E+01 -.936E+01 -.121E+02   -.762E+01 0.935E+01 0.114E+02   -.144E+00 0.179E-01 0.641E+00   -.548E-03 0.852E-04 0.189E-02
   0.236E+01 -.230E+01 0.333E+02   -.331E+01 0.253E+01 -.327E+02   0.966E+00 -.215E+00 -.591E+00   -.580E-03 -.193E-02 -.998E-03
   -.562E+01 -.109E+02 0.227E+04   0.578E+01 0.110E+02 -.227E+04   -.164E+00 -.772E-01 -.125E-01   -.480E-03 0.567E-02 -.117E-03
   -.136E+02 -.116E+02 -.227E+04   0.135E+02 0.124E+02 0.226E+04   0.153E+00 -.788E+00 0.309E+00   0.820E-03 0.164E-03 -.105E-02
   -.504E+01 0.612E+01 0.619E+01   0.536E+01 -.670E+01 -.622E+01   -.292E+00 0.581E+00 0.236E-01   -.197E-02 -.353E-02 0.143E-02
   0.975E+01 -.100E+02 0.230E+01   -.845E+01 0.968E+01 -.221E+01   -.130E+01 0.315E+00 -.909E-01   -.693E-03 0.203E-02 0.596E-02
   0.180E+02 -.362E+01 0.228E+04   -.186E+02 0.397E+01 -.228E+04   0.624E+00 -.351E+00 -.363E+00   -.281E-02 -.571E-02 0.181E-02
   -.705E+01 0.118E+02 -.228E+04   0.651E+01 -.121E+02 0.228E+04   0.553E+00 0.261E+00 0.220E+00   -.245E-03 -.257E-02 -.283E-02
   -.541E+01 0.778E+01 -.269E+02   0.542E+01 -.752E+01 0.264E+02   -.195E-01 -.261E+00 0.506E+00   0.674E-03 0.806E-03 0.343E-03
   -.639E+01 0.135E+02 -.233E+04   0.658E+01 -.138E+02 0.233E+04   -.200E+00 0.311E+00 -.148E+00   0.302E-02 -.121E-02 0.728E-03
   0.684E+01 0.499E+01 -.385E+02   -.575E+01 -.545E+01 0.374E+02   -.109E+01 0.450E+00 0.111E+01   0.115E-02 -.945E-03 -.235E-02
   0.166E+01 0.762E+00 -.229E+04   -.160E+01 -.839E+00 0.229E+04   -.705E-01 0.831E-01 0.115E+00   0.192E-02 -.306E-02 -.154E-02
   0.936E+01 -.126E+02 -.198E+04   -.950E+01 0.128E+02 0.198E+04   0.144E+00 -.173E+00 0.930E+00   -.676E-04 -.113E-02 -.388E-03
   -.123E+02 0.166E+02 0.201E+04   0.124E+02 -.166E+02 -.201E+04   -.113E+00 0.801E-01 -.137E+01   0.193E-02 -.222E-02 0.459E-03
   -.474E+01 -.138E+01 0.197E+04   0.507E+01 0.139E+01 -.197E+04   -.330E+00 -.136E-01 -.180E+01   0.160E-02 0.229E-02 0.384E-03
   -.145E+01 0.636E+01 -.200E+04   0.121E+01 -.646E+01 0.200E+04   0.239E+00 0.107E+00 0.126E+01   0.224E-02 0.793E-04 0.170E-03
   -.256E+00 -.184E+01 0.200E+04   0.260E+00 0.192E+01 -.200E+04   0.625E-02 -.756E-01 -.120E+01   -.333E-02 -.128E-02 0.761E-03
   0.620E+01 0.172E+02 0.199E+04   -.630E+01 -.175E+02 -.199E+04   0.102E+00 0.290E+00 -.151E+01   -.101E-02 -.396E-02 0.116E-02
   0.522E+01 -.119E+02 0.201E+04   -.476E+01 0.120E+02 -.201E+04   -.465E+00 -.955E-01 -.172E+01   0.223E-02 -.714E-03 0.967E-04
   -.333E+01 -.144E+02 -.195E+04   0.327E+01 0.146E+02 0.194E+04   0.691E-01 -.196E+00 0.183E+01   -.261E-02 0.371E-03 0.195E-03
   -.163E+02 0.105E+01 0.199E+04   0.165E+02 -.111E+01 -.198E+04   -.167E+00 0.619E-01 -.118E+01   -.270E-03 0.156E-02 0.868E-03
   0.136E+02 -.394E+01 -.199E+04   -.134E+02 0.394E+01 0.199E+04   -.148E+00 -.535E-02 0.123E+01   -.440E-04 0.115E-02 -.285E-03
   0.633E+00 0.736E+01 0.608E+02   -.567E+00 -.720E+01 -.600E+02   -.701E-01 -.161E+00 -.826E+00   -.723E-03 -.169E-02 0.200E-02
   -.194E+01 0.310E+01 0.246E+02   0.181E+01 -.288E+01 -.246E+02   0.134E+00 -.205E+00 -.364E-01   -.232E-02 -.204E-02 -.717E-03
   0.828E+01 0.172E+02 -.197E+04   -.877E+01 -.177E+02 0.197E+04   0.499E+00 0.469E+00 0.148E+01   -.311E-02 0.160E-02 -.144E-03
   0.724E+01 -.198E+01 -.197E+04   -.741E+01 0.233E+01 0.196E+04   0.166E+00 -.359E+00 0.184E+01   -.210E-02 0.314E-02 0.111E-02
   0.733E+00 -.162E+01 0.330E+02   -.107E+01 0.158E+01 -.329E+02   0.324E+00 0.317E-01 -.817E-01   0.115E-02 0.291E-02 0.374E-02
   0.407E+01 -.966E+00 0.202E+04   -.455E+01 0.109E+01 -.202E+04   0.480E+00 -.123E+00 -.136E+01   0.207E-02 0.509E-03 -.377E-03
   -.538E+01 0.564E+01 -.538E+02   0.536E+01 -.589E+01 0.530E+02   0.224E-01 0.237E+00 0.895E+00   0.169E-02 0.442E-03 -.155E-02
   0.237E+02 -.534E+01 0.196E+04   -.242E+02 0.550E+01 -.196E+04   0.522E+00 -.167E+00 -.191E+01   -.132E-02 0.184E-02 0.158E-02
   -.146E+02 0.219E+02 -.197E+04   0.149E+02 -.222E+02 0.197E+04   -.398E+00 0.331E+00 0.185E+01   0.761E-04 0.443E-03 0.120E-02
   0.337E+01 -.379E+01 -.279E+02   -.288E+01 0.372E+01 0.275E+02   -.485E+00 0.756E-01 0.370E+00   0.656E-03 0.689E-03 0.245E-02
   0.130E+02 -.137E+02 0.200E+04   -.130E+02 0.135E+02 -.199E+04   0.536E-01 0.177E+00 -.168E+01   0.196E-02 0.384E-02 0.862E-03
   -.184E+02 0.643E+01 -.198E+04   0.187E+02 -.654E+01 0.198E+04   -.292E+00 0.116E+00 0.148E+01   -.133E-03 0.181E-02 0.185E-02
   -.208E+02 0.611E+01 0.199E+04   0.210E+02 -.600E+01 -.199E+04   -.162E+00 -.122E+00 -.132E+01   0.121E-02 0.104E-02 0.744E-03
   -.806E+00 -.146E+02 -.202E+04   0.955E+00 0.149E+02 0.201E+04   -.156E+00 -.283E+00 0.150E+01   0.165E-02 -.996E-03 -.517E-03
 -----------------------------------------------------------------------------------------------
   0.226E-01 -.360E-01 0.464E+00   0.566E-12 0.581E-12 -.114E-11   -.768E-02 0.189E-01 -.452E+00   0.583E-03 -.814E-03 0.231E-01
 
 
 POSITION                                       TOTAL-FORCE (eV/Angst)
 -----------------------------------------------------------------------------------
      5.48404      3.17176      9.62787         0.007750      0.004803     -0.004912
      6.85960      3.98039     12.22614         0.004537     -0.011689     -0.005239
      5.47490      1.58601     12.21160         0.007568      0.005111      0.001970
      6.88903      0.76736      9.62787        -0.004728     -0.003935      0.004527
     12.38639      8.71358     12.25222        -0.010885      0.006183     -0.000902
      9.59736      8.74352     12.21549         0.000798     -0.012693     -0.000750
      8.27064      7.96099      9.64806        -0.005470     -0.008017     -0.004195
      5.51566      4.77570     14.77987        -0.006429     -0.000754      0.002900
      9.61003      7.17916     14.82066        -0.000086     -0.003149     -0.000123
      6.87847      5.55109      9.62144        -0.002902     -0.008392      0.004038
      4.09419      3.97783     12.24471        -0.008810      0.012479      0.005289
      6.86723      2.36769     14.83296         0.003567      0.004670     -0.002011
      8.25928      1.57699     12.25711        -0.001930      0.011043     -0.006445
      8.22679      6.35956     12.21612         0.007092      0.009316      0.005863
     11.01269      3.18812      9.74861         0.001900      0.004076     -0.010632
      4.12839      7.17737     14.77068         0.002148     -0.005321      0.002873
     15.14995      8.69685     12.24373         0.018528     -0.001984      0.000887
     11.04276      1.57516     12.24280         0.001511     -0.000517      0.003925
      5.47985      7.95257      9.69930         0.003390     -0.002871     -0.001946
      2.73931      4.75871     14.81540         0.006466      0.001355      0.017301
      9.64197      3.96358     12.27084        -0.005755      0.000857     -0.003675
      9.64491      2.35800     14.88627        -0.005724     -0.008132     -0.007827
     11.02428      6.33847     12.28378        -0.001388     -0.004839      0.000419
     11.00072      4.76774     14.84051        -0.003580      0.003615      0.011828
      8.25225      4.76747     14.65958         0.000153     -0.001447      0.005765
     11.01232      7.92743      9.84448         0.003695      0.009141     -0.003083
     12.39369      5.56525      9.92309         0.004238     -0.004380     -0.001271
      8.24497      0.00399     14.66095         0.000221      0.009828     -0.006474
      9.63198      0.80150      9.84602         0.007041     -0.002797      0.002291
     13.74835      7.92241      9.86967        -0.003169      0.000961      0.004937
      1.39403      0.81173      9.82801        -0.001347     -0.004439      0.003749
      6.87704      7.16662     14.57219         0.005619     -0.000527     -0.006228
      8.25292      3.17061      9.84006        -0.005047      0.003606      0.002584
      5.49965      0.00673     14.63875        -0.003497     -0.001956     -0.001407
      6.87483      8.72127     12.17732        -0.005267      0.000882     -0.001827
      5.49398      6.34947     12.22124         0.002360      0.011398      0.004648
      4.11244      2.36458     14.60672         0.002587      0.007125      0.000852
      2.74015      0.02219     14.57477         0.002986     -0.002328     -0.009622
      2.73412      1.58934     12.20543        -0.008157     -0.000846     -0.000350
      4.11805      0.80242      9.80575        -0.000902      0.002919     -0.000950
     13.76432      6.33449     12.31353         0.001468     -0.009952      0.005676
      4.10546      5.55752      9.89500         0.000617      0.000100     -0.007338
      1.38663      2.37007     14.61897        -0.002690      0.001416      0.003781
     12.38741      3.96789     12.28485         0.009213      0.000774     -0.005252
      2.74836      3.17950      9.86240        -0.007046     -0.002598     -0.001030
      0.02401     -0.00057     14.61643         0.000471      0.002912      0.002718
      9.64026      5.56442      9.85817        -0.006326     -0.003568     -0.000405
     12.36953      7.17282     14.69538        -0.004790     -0.007439     -0.004928
 -----------------------------------------------------------------------------------
    total drift:                                0.015518     -0.017881      0.035791


--------------------------------------------------------------------------------------------------------



  FREE ENERGIE OF THE ION-ELECTRON SYSTEM (eV)
  ---------------------------------------------------
  free  energy   TOTEN  =      -191.40522599 eV

  energy  without entropy=     -191.19361054  energy(sigma->0) =     -191.29941827
 
 d Force = 0.4962472E-03[ 0.482E-04, 0.944E-03]  d Energy = 0.5155814E-03-0.193E-04
 d Force =-0.4130278E+01[-0.408E+01,-0.418E+01]  d Ewald  =-0.4130272E+01-0.612E-05


--------------------------------------------------------------------------------------------------------


    POTLOK:  cpu time    0.0516: real time    0.0518


--------------------------------------------------------------------------------------------------------


 stress matrix after NEB project (eV)
      0.00000      0.00000      0.00000
      0.00000      0.00000      0.00000
      0.00000      0.00000      0.00000
  FORCES: max atom, RMS     0.018655    0.009726
  FORCE total and by dimension    0.067383    0.018528
  Stress total and by dimension    0.000000    0.000000
 Conjugate gradient step on ions:
 trial-energy change:   -0.000516  1 .order   -0.000496   -0.000944   -0.000048
  (g-gl).g = 0.258E-03      g.g   = 0.284E-03  gl.gl    = 0.603E-03
 g(Force)  = 0.284E-03   g(Stress)= 0.000E+00 ortho     = 0.107E-04
 gamma     =   0.42753
 trial     =   3.27615
 opt step  =   3.43142  (harmonic =   3.45248) maximal distance =0.00647781
 next E    =  -191.405227   (d E  =  -0.00052)


--------------------------------------------------------------------------------------------------------


  
 reached required accuracy - stopping structural energy minimisation
     LOOP+:  cpu time   80.2899: real time   81.1732
    4ORBIT:  cpu time    0.0000: real time    0.0000

 total amount of memory used by VASP on root node    84353. kBytes
========================================================================

   base      :      30000. kBytes
   nonlr-proj:       4285. kBytes
   fftplans  :       4447. kBytes
   grid      :       6721. kBytes
   one-center:        124. kBytes
   wavefun   :      38776. kBytes
 
  
  
 General timing and accounting informations for this job:
 ========================================================
  
                  Total CPU time used (sec):     2218.902
                            User time (sec):     2118.287
                          System time (sec):      100.615
                         Elapsed time (sec):     2272.888
  
                   Maximum memory used (kb):      922892.
                   Average memory used (kb):           0.
  
                          Minor page faults:       864610
                          Major page faults:            0
                 Voluntary context switches:        11855
