 vasp.5.4.1 24Jun15 (build Mar 14 2019 10:18:33) complex                        
  
 executed on INTEL-19.0.2+OPENMPI date 2023.01.31  01:29:14
 running on   36 total cores
 distrk:  each k-point on   36 cores,    1 groups
 distr:  one band on NCORES_PER_BAND=   6 cores,    6 groups


--------------------------------------------------------------------------------------------------------


 INCAR:
 POTCAR:    PAW_PBE Au 04Oct2007                  
 POTCAR:    PAW_PBE Pd 04Jan2005                  
 POTCAR:    PAW_PBE Au 04Oct2007                  
  local pseudopotential read in
  partial core-charges read in
  partial kinetic energy density read in
  atomic valenz-charges read in
  non local Contribution for L=           2  read in
    real space projection operators read in
  non local Contribution for L=           2  read in
    real space projection operators read in
  non local Contribution for L=           0  read in
    real space projection operators read in
  non local Contribution for L=           0  read in
    real space projection operators read in
  non local Contribution for L=           1  read in
    real space projection operators read in
  non local Contribution for L=           1  read in
    real space projection operators read in
    PAW grid and wavefunctions read in
 
   number of l-projection  operators is LMAX  =           6
   number of lm-projection operators is LMMAX =          18
 
 POTCAR:    PAW_PBE Pd 04Jan2005                  
  local pseudopotential read in
  partial core-charges read in
  partial kinetic energy density read in
  atomic valenz-charges read in
  non local Contribution for L=           2  read in
    real space projection operators read in
  non local Contribution for L=           2  read in
    real space projection operators read in
  non local Contribution for L=           0  read in
    real space projection operators read in
  non local Contribution for L=           0  read in
    real space projection operators read in
  non local Contribution for L=           1  read in
    real space projection operators read in
  non local Contribution for L=           1  read in
    real space projection operators read in
    PAW grid and wavefunctions read in
 
   number of l-projection  operators is LMAX  =           6
   number of lm-projection operators is LMMAX =          18
 
 Optimization of the real space projectors (new method)

 maximal supplied QI-value         = 15.12
 optimisation between [QCUT,QGAM] = [ 10.13, 20.41] = [ 28.73,116.64] Ry 
 Optimized for a Real-space Cutoff    1.51 Angstroem

   l    n(q)    QCUT    max X(q) W(low)/X(q) W(high)/X(q)  e(spline) 
   2      8    10.129    60.898    0.46E-03    0.46E-03    0.14E-06
   2      8    10.129    58.894    0.47E-03    0.47E-03    0.14E-06
   0      9    10.129   109.617    0.16E-03    0.11E-03    0.54E-07
   0      9    10.129    75.026    0.15E-03    0.11E-03    0.52E-07
   1      9    10.129    16.344    0.96E-04    0.15E-03    0.14E-06
   1      9    10.129    10.160    0.81E-04    0.12E-03    0.11E-06
 Optimization of the real space projectors (new method)

 maximal supplied QI-value         = 14.36
 optimisation between [QCUT,QGAM] = [ 10.20, 20.39] = [ 29.12,116.47] Ry 
 Optimized for a Real-space Cutoff    1.51 Angstroem

   l    n(q)    QCUT    max X(q) W(low)/X(q) W(high)/X(q)  e(spline) 
   2      8    10.197    59.108    0.26E-03    0.14E-03    0.96E-07
   2      8    10.197    58.101    0.27E-03    0.14E-03    0.98E-07
   0      9    10.197   102.235    0.54E-04    0.60E-05    0.72E-07
   0      9    10.197    58.388    0.52E-04    0.60E-05    0.68E-07
   1      9    10.197    22.191    0.18E-03    0.25E-03    0.79E-07
   1      9    10.197    15.590    0.15E-03    0.21E-03    0.69E-07
  PAW_PBE Au 04Oct2007                  :
 energy of atom  1       EATOM= -926.0867
 kinetic energy error for atom=    0.0062 (will be added to EATOM!!)
  PAW_PBE Pd 04Jan2005                  :
 energy of atom  2       EATOM= -809.7530
 kinetic energy error for atom=    0.0091 (will be added to EATOM!!)
 
 
 POSCAR: Au Pd                                   
  positions in cartesian coordinates
  No initial velocities read in
 exchange correlation table for  LEXCH =        8
   RHO(1)=    0.500       N(1)  =     2000
   RHO(2)=  100.500       N(2)  =     4000

 VTST: version 3.2, (02/03/18)

 CHAIN: initializing optimizer
 
 OPT: Using VASP Conjugate-Gradient optimizer
 CHAIN: Read ICHAIN            0
 
 POSCAR: Au Pd                                   
  positions in cartesian coordinates
  No initial velocities read in
 


--------------------------------------------------------------------------------------------------------


 ion  position               nearest neighbor table
   1  0.750  0.000  0.592-  17 2.75  11 2.75  13 2.75  28 2.75  46 2.75  48 2.75  47 2.75  32 2.75
                            22 2.75
   2  0.833  0.583  0.408-  31 2.75  10 2.75  14 2.75   8 2.75  42 2.75  12 2.75   4 2.75   5 2.75
                             3 2.75
   3  0.667  0.667  0.500-  12 2.75   9 2.75  44 2.75   7 2.75  22 2.75  43 2.75   5 2.75  31 2.75
                            45 2.75  42 2.75   2 2.75  48 2.75
   4  0.083  0.583  0.408-  33 2.75  10 2.75  26 2.75   8 2.75  34 2.75  18 2.75   2 2.75  16 2.75
                            31 2.75
   5  0.917  0.417  0.500-  14 2.75   6 2.75   9 2.75   3 2.75  27 2.75  29 2.75  31 2.75  16 2.75
                             7 2.75   2 2.75  30 2.75   8 2.75
   6  0.000  0.250  0.592-   5 2.75  27 2.75  15 2.75   9 2.75  30 2.75  32 2.75  25 2.75  13 2.75
                            29 2.75
   7  0.667  0.417  0.500-  37 2.75  13 2.75  41 2.75  29 2.75   3 2.75  17 2.75  45 2.75   5 2.75
                            38 2.75  12 2.75   9 2.75  14 2.75
   8  0.083  0.333  0.408-  16 2.75   4 2.75   2 2.75  24 2.75  36 2.75  26 2.75  14 2.75  27 2.75
                             5 2.75
   9  0.750  0.500  0.592-   3 2.75   5 2.75   6 2.75  13 2.75  44 2.75  48 2.75  30 2.75  41 2.75
                             7 2.75
  10  0.833  0.833  0.408-  11 2.75   4 2.75   2 2.75  35 2.75  40 2.75  34 2.75  42 2.75  31 2.75
                            22 2.75
  11  0.917  0.917  0.500-  10 2.75  28 2.75   1 2.75  17 2.75  29 2.75  31 2.75  33 2.75  21 2.75
                            22 2.75  40 2.75  34 2.75  32 2.75
  12  0.583  0.583  0.408-   3 2.75  14 2.75  20 2.75  37 2.75  42 2.75  18 2.75   2 2.75   7 2.75
                            45 2.75
  13  0.750  0.250  0.592-   7 2.75  29 2.75   9 2.75   1 2.75  32 2.75  41 2.75   6 2.75  46 2.75
                            17 2.75
  14  0.833  0.333  0.408-   5 2.75   2 2.75  12 2.75  36 2.75  40 2.75  37 2.75   8 2.75  29 2.75
                             7 2.75
  15  0.250  0.000  0.592-  27 2.75  43 2.75   6 2.75  39 2.75  25 2.75  44 2.75  32 2.75  47 2.75
                            21 2.75
  16  0.167  0.417  0.500-   8 2.75  25 2.75  30 2.75  27 2.75  23 2.75  31 2.75  33 2.75   5 2.75
                            38 2.75   4 2.75  26 2.75  19 2.75
  17  0.667  0.167  0.500-  35 2.75   1 2.75  46 2.75  22 2.75   7 2.75  38 2.75  11 2.75  29 2.75
                            23 2.75  37 2.75  40 2.75  13 2.75
  18  0.333  0.583  0.408-  45 2.75  26 2.75  34 2.75  37 2.75  20 2.75  12 2.75   4 2.75  38 2.75
                            33 2.75
  19  0.250  0.500  0.592-  33 2.75  38 2.75  25 2.75  28 2.75  39 2.75  46 2.75  41 2.75  30 2.75
                            16 2.75
  20  0.333  0.833  0.408-  43 2.75  18 2.75  24 2.75  36 2.75  12 2.75  42 2.75  34 2.75  45 2.75
                            21 2.75
  21  0.167  0.917  0.500-  34 2.75  39 2.75  32 2.75  33 2.75  29 2.75  27 2.75  45 2.75  43 2.75
                            11 2.75  36 2.75  20 2.75  15 2.75
  22  0.667  0.917  0.500-  42 2.75  48 2.75  47 2.75  31 2.75   3 2.75  17 2.75  23 2.75  11 2.75
                            43 2.75  35 2.75  10 2.75   1 2.75
  23  0.417  0.167  0.500-  24 2.75  47 2.75  25 2.75  22 2.75  38 2.75  43 2.75  16 2.75  27 2.75
                            17 2.75  26 2.75  46 2.75  35 2.75
  24  0.333  0.083  0.408-  23 2.75  20 2.75   8 2.75  26 2.75  42 2.75  36 2.75  35 2.75  43 2.75
                            27 2.75
  25  0.250  0.250  0.592-  16 2.75  23 2.75  19 2.75  15 2.75  30 2.75  47 2.75  46 2.75   6 2.75
                            27 2.75
  26  0.333  0.333  0.408-  38 2.75  18 2.75  24 2.75  35 2.75   4 2.75  37 2.75   8 2.75  23 2.75
                            16 2.75
  27  0.167  0.167  0.500-  36 2.75  15 2.75   6 2.75  16 2.75  21 2.75   5 2.75  43 2.75  23 2.75
                            29 2.75   8 2.75  25 2.75  24 2.75
  28  0.000  0.750  0.592-  11 2.75  33 2.75  19 2.75  30 2.75  32 2.75   1 2.75  39 2.75  48 2.75
                            31 2.75
  29  0.917  0.167  0.500-  40 2.75  32 2.75  13 2.75   5 2.75  21 2.75   7 2.75  11 2.75  17 2.75
                            27 2.75  14 2.75  36 2.75   6 2.75
  30  0.000  0.500  0.592-  31 2.75  16 2.75  25 2.75  28 2.75   6 2.75  48 2.75   9 2.75  19 2.75
                             5 2.75
  31  0.917  0.667  0.500-   2 2.75  30 2.75  48 2.75  16 2.75  22 2.75   5 2.75  11 2.75  33 2.75
                             3 2.75  10 2.75  28 2.75   4 2.75
  32  0.000  0.000  0.592-  29 2.75  21 2.75   6 2.75  28 2.75  13 2.75  39 2.75   1 2.75  15 2.75
                            11 2.75
  33  0.167  0.667  0.500-   4 2.75  19 2.75  28 2.75  11 2.75  21 2.75  16 2.75  38 2.75  31 2.75
                            45 2.75  34 2.75  39 2.75  18 2.75
  34  0.083  0.833  0.408-  21 2.75  18 2.75   4 2.75  36 2.75  40 2.75  20 2.75  10 2.75  33 2.75
                            11 2.75
  35  0.583  0.083  0.408-  17 2.75  10 2.75  26 2.75  37 2.75  42 2.75  40 2.75  24 2.75  22 2.75
                            23 2.75
  36  0.083  0.083  0.408-  27 2.75  14 2.75  20 2.75   8 2.75  34 2.75  24 2.75  40 2.75  21 2.75
                            29 2.75
  37  0.583  0.333  0.408-   7 2.75  12 2.75  18 2.75  35 2.75  40 2.75  14 2.75  26 2.75  17 2.75
                            38 2.75
  38  0.417  0.417  0.500-  26 2.75  46 2.75  19 2.75  17 2.75  33 2.75  45 2.75  23 2.75  16 2.75
                             7 2.75  18 2.75  37 2.75  41 2.75
  39  0.250  0.750  0.592-  21 2.75  45 2.75  15 2.75  32 2.75  41 2.75  19 2.75  44 2.75  28 2.75
                            33 2.75
  40  0.833  0.083  0.408-  29 2.75  14 2.75  10 2.75  34 2.75  37 2.75  36 2.75  35 2.75  11 2.75
                            17 2.75
  41  0.500  0.500  0.592-  45 2.75   7 2.75  39 2.75  44 2.75  13 2.75  46 2.75   9 2.75  19 2.75
                            38 2.75
  42  0.583  0.833  0.408-  22 2.75  12 2.75   2 2.75  24 2.75  35 2.75  20 2.75  10 2.75   3 2.75
                            43 2.75
  43  0.417  0.917  0.500-  20 2.75  44 2.75  15 2.75  23 2.75  27 2.75   3 2.75  45 2.75  21 2.75
                            22 2.75  24 2.75  42 2.75  47 2.75
  44  0.500  0.750  0.592-  43 2.75   3 2.75  15 2.75  41 2.75   9 2.75  47 2.75  39 2.75  48 2.75
                            45 2.75
  45  0.417  0.667  0.500-  18 2.75  41 2.75  39 2.75  38 2.75   7 2.75  21 2.75  43 2.75   3 2.75
                            33 2.75  20 2.75  12 2.75  44 2.75
  46  0.500  0.250  0.592-  38 2.75  17 2.75  19 2.75   1 2.75  41 2.75  47 2.75  25 2.75  13 2.75
                            23 2.75
  47  0.500  0.000  0.592-  23 2.75  22 2.75  25 2.75  44 2.75  46 2.75  48 2.75   1 2.75  15 2.75
                            43 2.75
  48  0.750  0.750  0.592-  22 2.75  31 2.75   1 2.75  30 2.75   9 2.75  47 2.75  44 2.75  28 2.75
                             3 2.75
 
  LATTYP: Found a hexagonal cell.
 ALAT       =    11.0025815153
 C/A-ratio  =     2.2260035120
  
  Lattice vectors:
  
 A1 = (   5.5012907576,  -9.5285150994,   0.0000000000)
 A2 = ( -11.0025815153,   0.0000000000,   0.0000000000)
 A3 = (   0.0000000000,   0.0000000000, -24.4917850943)


Analysis of symmetry for initial positions (statically):
=====================================================================
 Subroutine PRICEL returns:
 Original cell was already a primitive cell.
 

 Routine SETGRP: Setting up the symmetry group for a 
 hexagonal supercell.


 Subroutine GETGRP returns: Found  1 space group operations
 (whereof  1 operations were pure point group operations)
 out of a pool of 24 trial point group operations.


The static configuration has the point symmetry C_1 .


Analysis of symmetry for dynamics (positions and initial velocities):
=====================================================================
 Subroutine PRICEL returns:
 Original cell was already a primitive cell.
 

 Routine SETGRP: Setting up the symmetry group for a 
 hexagonal supercell.


 Subroutine GETGRP returns: Found  1 space group operations
 (whereof  1 operations were pure point group operations)
 out of a pool of 24 trial point group operations.


The dynamic configuration has the point symmetry C_1 .


Analysis of constrained symmetry for selective dynamics:
=====================================================================
 Subroutine PRICEL returns:
 Original cell was already a primitive cell.
 

 Routine SETGRP: Setting up the symmetry group for a 
 hexagonal supercell.


 Subroutine GETGRP returns: Found  1 space group operations
 (whereof  1 operations were pure point group operations)
 out of a pool of 24 trial point group operations.


The constrained configuration has the point symmetry C_1 .
 
 
 KPOINTS: Automatic mesh                          

Automatic generation of k-mesh.
Space group operators:
 irot       det(A)        alpha          n_x          n_y          n_z        tau_x        tau_y        tau_z
    1     1.000000     0.000000     1.000000     0.000000     0.000000     0.000000     0.000000     0.000000
 
 Subroutine IBZKPT returns following result:
 ===========================================
 
 Found      6 irreducible k-points:
 
 Following reciprocal coordinates:
            Coordinates               Weight
  0.250000  0.250000  0.000000     16.000000
  0.000000  0.250000  0.000000     16.000000
 -0.250000  0.000000  0.000000     16.000000
 -0.250000  0.250000  0.000000     16.000000
  0.500000 -0.250000  0.000000     16.000000
 -0.250000  0.500000  0.000000     16.000000
 
 Following cartesian coordinates:
            Coordinates               Weight
  0.022722  0.013119  0.000000     16.000000
  0.000000  0.026237  0.000000     16.000000
 -0.022722  0.013119  0.000000     16.000000
 -0.022722  0.039356  0.000000     16.000000
  0.045444 -0.052474  0.000000     16.000000
 -0.022722  0.065593  0.000000     16.000000
 


--------------------------------------------------------------------------------------------------------




 Dimension of arrays:
   k-points           NKPTS =      6   k-points in BZ     NKDIM =      6   number of bands    NBANDS=    306
   number of dos      NEDOS =    301   number of ions     NIONS =     48
   non local maximal  LDIM  =      6   non local SUM 2l+1 LMDIM =     18
   total plane-waves  NPLWV = 349920
   max r-space proj   IRMAX =   2009   max aug-charges    IRDMAX=   8532
   dimension x,y,z NGX =    54 NGY =   54 NGZ =  120
   dimension x,y,z NGXF=   108 NGYF=  108 NGZF=  240
   support grid    NGXF=   108 NGYF=  108 NGZF=  240
   ions per type =              24  24
 NGX,Y,Z   is equivalent  to a cutoff of   8.16,  8.16,  8.15 a.u.
 NGXF,Y,Z  is equivalent  to a cutoff of  16.32, 16.32, 16.29 a.u.


 I would recommend the setting:
   dimension x,y,z NGX =    54 NGY =   54 NGZ =  120
 SYSTEM =  unknown system                          
 POSCAR =  Au Pd                                   

 Startparameter for this run:
   NWRITE =      1    write-flag & timer
   PREC   = normal    normal or accurate (medium, high low for compatibility)
   ISTART =      0    job   : 0-new  1-cont  2-samecut
   ICHARG =      2    charge: 1-file 2-atom 10-const
   ISPIN  =      1    spin polarized calculation?
   LNONCOLLINEAR =      F non collinear calculations
   LSORBIT =      F    spin-orbit coupling
   INIWAV =      1    electr: 0-lowe 1-rand  2-diag
   LASPH  =      F    aspherical Exc in radial PAW
   METAGGA=      F    non-selfconsistent MetaGGA calc.

 Electronic Relaxation 1
   ENCUT  =  400.0 eV  29.40 Ry    5.42 a.u.  17.94 17.94 39.94*2*pi/ulx,y,z
   ENINI  =  400.0     initial cutoff
   ENAUG  =  416.2 eV  augmentation charge cutoff
   NELM   =    500;   NELMIN=  2; NELMDL= -5     # of ELM steps 
   EDIFF  = 0.1E-05   stopping-criterion for ELM
   LREAL  =      T    real-space projection
   NLSPLINE    = F    spline interpolate recip. space projectors
   LCOMPAT=      F    compatible to vasp.4.4
   GGA_COMPAT  = T    GGA compatible to vasp.4.4-vasp.4.6
   LMAXPAW     = -100 max onsite density
   LMAXMIX     =    2 max onsite mixed and CHGCAR
   VOSKOWN=      1    Vosko Wilk Nusair interpolation
   ROPT   =   -0.00050  -0.00050
 Ionic relaxation
   EDIFFG = -.2E-01   stopping-criterion for IOM
   NSW    =    500    number of steps for IOM
   NBLOCK =      1;   KBLOCK =    500    inner block; outer block 
   IBRION =      2    ionic relax: 0-MD 1-quasi-New 2-CG
   NFREE  =      2    steps in history (QN), initial steepest desc. (CG)
   ISIF   =      0    stress and relaxation
   IWAVPR =     11    prediction:  0-non 1-charg 2-wave 3-comb
   ISYM   =      2    0-nonsym 1-usesym 2-fastsym
   LCORR  =      T    Harris-Foulkes like correction to forces

   POTIM  = 0.3500    time-step for ionic-motion
   TEIN   =    0.0    initial temperature
   TEBEG  =    0.0;   TEEND  =   0.0 temperature during run
   SMASS  =  -3.00    Nose mass-parameter (am)
   estimated Nose-frequenzy (Omega)   =  0.10E-29 period in steps =****** mass=  -0.277E-26a.u.
   SCALEE = 1.0000    scale energy and forces
   NPACO  =    256;   APACO  = 16.0  distance and # of slots for P.C.
   PSTRESS=    0.0 pullay stress

  Mass of Ions in am
   POMASS = 196.97106.42
  Ionic Valenz
   ZVAL   =  11.00 10.00
  Atomic Wigner-Seitz radii
   RWIGS  =  -1.00 -1.00
  virtual crystal weights 
   VCA    =   1.00  1.00
   NELECT =     504.0000    total number of electrons
   NUPDOWN=      -1.0000    fix difference up-down

 DOS related values:
   EMIN   =  10.00;   EMAX   =-10.00  energy-range for DOS
   EFERMI =   0.00
   ISMEAR =     0;   SIGMA  =   0.10  broadening in eV -4-tet -1-fermi 0-gaus

 Electronic relaxation 2 (details)
   IALGO  =     68    algorithm
   LDIAG  =      T    sub-space diagonalisation (order eigenvalues)
   LSUBROT=      F    optimize rotation matrix (better conditioning)
   TURBO    =      0    0=normal 1=particle mesh
   IRESTART =      0    0=no restart 2=restart with 2 vectors
   NREBOOT  =      0    no. of reboots
   NMIN     =      0    reboot dimension
   EREF     =   0.00    reference energy to select bands
   IMIX   =      4    mixing-type and parameters
     AMIX     =   0.40;   BMIX     =  1.00
     AMIX_MAG =   1.60;   BMIX_MAG =  1.00
     AMIN     =   0.10
     WC   =   100.;   INIMIX=   1;  MIXPRE=   1;  MAXMIX= -45

 Intra band minimization:
   WEIMIN = 0.0010     energy-eigenvalue tresh-hold
   EBREAK =  0.82E-09  absolut break condition
   DEPER  =   0.30     relativ break condition  

   TIME   =   0.40     timestep for ELM

  volume/ion in A,a.u.               =      53.49       360.99
  Fermi-wavevector in a.u.,A,eV,Ry     =   0.951418  1.797920 12.315955  0.905197
  Thomas-Fermi vector in A             =   2.079887
 
 Write flags
   LWAVE  =      F    write WAVECAR
   LCHARG =      F    write CHGCAR
   LVTOT  =      F    write LOCPOT, total local potential
   LVHAR  =      F    write LOCPOT, Hartree potential only
   LELF   =      F    write electronic localiz. function (ELF)
   LORBIT =      0    0 simple, 1 ext, 2 COOP (PROOUT)


 Dipole corrections
   LMONO  =      F    monopole corrections only (constant potential shift)
   LDIPOL =      T    correct potential (dipole corrections)
   IDIPOL =      3    1-x, 2-y, 3-z, 4-all directions 
   EPSILON=  1.0000000 bulk dielectric constant

 Exchange correlation treatment:
   GGA     =    PE    GGA type
   LEXCH   =     8    internal setting for exchange type
   VOSKOWN=      1    Vosko Wilk Nusair interpolation
   LHFCALC =     F    Hartree Fock is set to
   LHFONE  =     F    Hartree Fock one center treatment
   AEXX    =    0.0000 exact exchange contribution

 Linear response parameters
   LEPSILON=     F    determine dielectric tensor
   LRPA    =     F    only Hartree local field effects (RPA)
   LNABLA  =     F    use nabla operator in PAW spheres
   LVEL    =     F    velocity operator in full k-point grid
   LINTERFAST=   F  fast interpolation
   KINTER  =     0    interpolate to denser k-point grid
   CSHIFT  =0.1000    complex shift for real part using Kramers Kronig
   OMEGAMAX=  -1.0    maximum frequency
   DEG_THRESHOLD= 0.2000000E-02 threshold for treating states as degnerate
   RTIME   =    0.100 relaxation time in fs

 Orbital magnetization related:
   ORBITALMAG=     F  switch on orbital magnetization
   LCHIMAG   =     F  perturbation theory with respect to B field
   DQ        =  0.001000  dq finite difference perturbation B field



--------------------------------------------------------------------------------------------------------


 conjugate gradient relaxation of ions
   using selective dynamics as specified on POSCAR
   WARNING: If single coordinates had been selected the selection of coordinates
            is made according to the corresponding   d i r e c t   coordinates!
            Don't support selection of single cartesian coordinates -- sorry ...
  !
 charge density and potential will be updated during run
 non-spin polarized calculation
 RMM-DIIS sequential band-by-band and
  variant of blocked Davidson during initial phase
 perform sub-space diagonalisation
    before iterative eigenvector-optimisation
 modified Broyden-mixing scheme, WC =      100.0
 initial mixing is a Kerker type mixing with AMIX =  0.4000 and BMIX =      1.0000
 Hartree-type preconditioning will be used
 using additional bands           54
 real space projection scheme for non local part
 use partial core corrections
 calculate Harris-corrections to forces 
   (improved forces if not selfconsistent)
 use gradient corrections 
 use of overlap-Matrix (Vanderbilt PP)
 Gauss-broadening in eV      SIGMA  =   0.10


--------------------------------------------------------------------------------------------------------


  energy-cutoff  :      400.00
  volume of cell :     2567.68
      direct lattice vectors                 reciprocal lattice vectors
    11.002581515  0.000000000  0.000000000     0.090887761 -0.052474073  0.000000000
     5.501290758  9.528515099  0.000000000     0.000000000  0.104948147  0.000000000
     0.000000000  0.000000000 24.491785094     0.000000000  0.000000000  0.040830017

  length of vectors
    11.002581515 11.002581515 24.491785094     0.104948147  0.104948147  0.040830017


 
 k-points in units of 2pi/SCALE and weight: Automatic mesh                          
   0.02272194  0.01311852  0.00000000       0.167
   0.00000000  0.02623704  0.00000000       0.167
  -0.02272194  0.01311852  0.00000000       0.167
  -0.02272194  0.03935555  0.00000000       0.167
   0.04544388 -0.05247407  0.00000000       0.167
  -0.02272194  0.06559259  0.00000000       0.167
 
 k-points in reciprocal lattice and weights: Automatic mesh                          
   0.25000000  0.25000000  0.00000000       0.167
   0.00000000  0.25000000  0.00000000       0.167
  -0.25000000  0.00000000  0.00000000       0.167
  -0.25000000  0.25000000  0.00000000       0.167
   0.50000000 -0.25000000  0.00000000       0.167
  -0.25000000  0.50000000  0.00000000       0.167
 
 position of ions in fractional coordinates (direct lattice) 
   0.75000000  0.00000000  0.59169983
   0.83333333  0.58333333  0.40830017
   0.66666667  0.66666667  0.50000000
   0.08333333  0.58333333  0.40830017
   0.91666667  0.41666667  0.50000000
   0.00000000  0.25000000  0.59169983
   0.66666667  0.41666667  0.50000000
   0.08333333  0.33333333  0.40830017
   0.75000000  0.50000000  0.59169983
   0.83333333  0.83333333  0.40830017
   0.91666667  0.91666667  0.50000000
   0.58333333  0.58333333  0.40830017
   0.75000000  0.25000000  0.59169983
   0.83333333  0.33333333  0.40830017
   0.25000000  0.00000000  0.59169983
   0.16666667  0.41666667  0.50000000
   0.66666667  0.16666667  0.50000000
   0.33333333  0.58333333  0.40830017
   0.25000000  0.50000000  0.59169983
   0.33333333  0.83333333  0.40830017
   0.16666667  0.91666667  0.50000000
   0.66666667  0.91666667  0.50000000
   0.41666667  0.16666667  0.50000000
   0.33333333  0.08333333  0.40830017
   0.25000000  0.25000000  0.59169983
   0.33333333  0.33333333  0.40830017
   0.16666667  0.16666667  0.50000000
   0.00000000  0.75000000  0.59169983
   0.91666667  0.16666667  0.50000000
   0.00000000  0.50000000  0.59169983
   0.91666667  0.66666667  0.50000000
   0.00000000  0.00000000  0.59169983
   0.16666667  0.66666667  0.50000000
   0.08333333  0.83333333  0.40830017
   0.58333333  0.08333333  0.40830017
   0.08333333  0.08333333  0.40830017
   0.58333333  0.33333333  0.40830017
   0.41666667  0.41666667  0.50000000
   0.25000000  0.75000000  0.59169983
   0.83333333  0.08333333  0.40830017
   0.50000000  0.50000000  0.59169983
   0.58333333  0.83333333  0.40830017
   0.41666667  0.91666667  0.50000000
   0.50000000  0.75000000  0.59169983
   0.41666667  0.66666667  0.50000000
   0.50000000  0.25000000  0.59169983
   0.50000000  0.00000000  0.59169983
   0.75000000  0.75000000  0.59169983
 
 position of ions in cartesian coordinates  (Angst):
   8.25193614  0.00000000 14.49178509
  12.37790420  5.55830047 10.00000000
  11.00258152  6.35234340 12.24589255
   4.12596807  5.55830047 10.00000000
  12.37790420  3.97021462 12.24589255
   1.37532269  2.38212877 14.49178509
   9.62725883  3.97021462 12.24589255
   2.75064538  3.17617170 10.00000000
  11.00258152  4.76425755 14.49178509
  13.75322689  7.94042925 10.00000000
  15.12854958  8.73447217 12.24589255
   9.62725883  5.55830047 10.00000000
   9.62725883  2.38212877 14.49178509
  11.00258152  3.17617170 10.00000000
   2.75064538  0.00000000 14.49178509
   4.12596807  3.97021462 12.24589255
   8.25193614  1.58808585 12.24589255
   6.87661345  5.55830047 10.00000000
   5.50129076  4.76425755 14.49178509
   8.25193614  7.94042925 10.00000000
   6.87661345  8.73447217 12.24589255
  12.37790420  8.73447217 12.24589255
   5.50129076  1.58808585 12.24589255
   4.12596807  0.79404292 10.00000000
   4.12596807  2.38212877 14.49178509
   5.50129076  3.17617170 10.00000000
   2.75064538  1.58808585 12.24589255
   4.12596807  7.14638632 14.49178509
  11.00258152  1.58808585 12.24589255
   2.75064538  4.76425755 14.49178509
  13.75322689  6.35234340 12.24589255
   0.00000000  0.00000000 14.49178509
   5.50129076  6.35234340 12.24589255
   5.50129076  7.94042925 10.00000000
   6.87661345  0.79404292 10.00000000
   1.37532269  0.79404292 10.00000000
   8.25193614  3.17617170 10.00000000
   6.87661345  3.97021462 12.24589255
   6.87661345  7.14638632 14.49178509
   9.62725883  0.79404292 10.00000000
   8.25193614  4.76425755 14.49178509
  11.00258152  7.94042925 10.00000000
   9.62725883  8.73447217 12.24589255
   9.62725883  7.14638632 14.49178509
   8.25193614  6.35234340 12.24589255
   6.87661345  2.38212877 14.49178509
   5.50129076  0.00000000 14.49178509
  12.37790420  7.14638632 14.49178509
 


--------------------------------------------------------------------------------------------------------


 k-point  1 :   0.2500 0.2500 0.0000  plane waves:   46635
 k-point  2 :   0.0000 0.2500 0.0000  plane waves:   46635
 k-point  3 :  -0.2500 0.0000 0.0000  plane waves:   46635
 k-point  4 :  -0.2500 0.2500 0.0000  plane waves:   46644
 k-point  5 :   0.5000-0.2500 0.0000  plane waves:   46644
 k-point  6 :  -0.2500 0.5000 0.0000  plane waves:   46644

 maximum and minimum number of plane-waves per node :      7818     7732

 maximum number of plane-waves:     46644
 maximum index in each direction: 
   IXMAX=   18   IYMAX=   18   IZMAX=   39
   IXMIN=  -18   IYMIN=  -18   IZMIN=  -39

 WARNING: aliasing errors must be expected set NGX to  74 to avoid them
 WARNING: aliasing errors must be expected set NGY to  74 to avoid them
 WARNING: aliasing errors must be expected set NGZ to 158 to avoid them
 aliasing errors are usually negligible using standard VASP settings
 and one can safely disregard these warnings

 real space projection operators:
  total allocation   :      12803.06 KBytes
  max/ min on nodes  :       2145.66       2127.94


 parallel 3D FFT for wavefunctions:
    minimum data exchange during FFTs selected (reduces bandwidth)
 parallel 3D FFT for charge:
    minimum data exchange during FFTs selected (reduces bandwidth)


 total amount of memory used by VASP on root node    84353. kBytes
========================================================================

   base      :      30000. kBytes
   nonlr-proj:       4285. kBytes
   fftplans  :       4447. kBytes
   grid      :       6721. kBytes
   one-center:        124. kBytes
   wavefun   :      38776. kBytes
 
     INWAV:  cpu time    0.0000: real time    0.0000
 Broyden mixing: mesh for mixing (old mesh)
   NGX = 35   NGY = 35   NGZ = 79
  (NGX  =108   NGY  =108   NGZ  =240)
  gives a total of  96775 points

 initial charge density was supplied:
 charge density of overlapping atoms calculated
 number of electron     504.0000000 magnetization 
 keeping initial charge density in first step


--------------------------------------------------------------------------------------------------------


 Maximum index for non-local projection operator          355
 Maximum index for augmentation-charges          437 (set IRDMAX)


--------------------------------------------------------------------------------------------------------


 First call to EWALD:  gamma=   0.129
 Maximum number of real-space cells 4x 4x 2
 Maximum number of reciprocal cells 2x 2x 5

 FEWALD executed in parallel
    FEWALD:  cpu time    0.0022: real time    0.0025


----------------------------------------- Iteration    1(   1)  ---------------------------------------


    POTLOK:  cpu time    0.0465: real time    0.0467
    SETDIJ:  cpu time    0.0061: real time    0.0061
     EDDAV:  cpu time    6.7531: real time    6.7729
       DOS:  cpu time    0.0015: real time    0.0015
    --------------------------------------------
      LOOP:  cpu time    6.8099: real time    6.8342

 eigenvalue-minimisations  :  3672
 total energy-change (2. order) : 0.3200845E+04  (-0.1897531E+05)
 number of electron     504.0000000 magnetization 
 augmentation part      504.0000000 magnetization 

 DIPCOR: dipole corrections for dipol
 direction  3 min pos     1,
 dipolmoment           0.000000      0.000000      0.000002 electrons x Angstroem
 Tr[quadrupol]    -10254.623962

 energy correction for charged system         0.000000 eV
 dipol+quadrupol energy correction           -0.000000 eV
 added-field ion interaction          0.000001 eV  (added to PSCEN)


 Free energy of the ion-electron system (eV)
  ---------------------------------------------------
  alpha Z        PSCENC =       805.86936534
  Ewald energy   TEWEN  =    200399.46291588
  -Hartree energ DENC   =   -242814.52939650
  -exchange      EXHF   =         0.00000000
  -V(xc)+E(xc)   XCENC  =      -327.56406345
  PAW double counting   =     40340.05962942   -38292.62782345
  entropy T*S    EENTRO =        -0.12656172
  eigenvalues    EBANDS =      1430.51483647
  atomic energy  EATOM  =     41659.78587232
  Solvation  Ediel_sol  =         0.00000000
  ---------------------------------------------------
  free energy    TOTEN  =      3200.84477431 eV

  energy without entropy =     3200.97133603  energy(sigma->0) =     3200.90805517


--------------------------------------------------------------------------------------------------------




----------------------------------------- Iteration    1(   2)  ---------------------------------------


     EDDAV:  cpu time    7.9536: real time    7.9752
       DOS:  cpu time    0.0015: real time    0.0015
    --------------------------------------------
      LOOP:  cpu time    7.9558: real time    7.9794

 eigenvalue-minimisations  :  4380
 total energy-change (2. order) :-0.3184976E+04  (-0.2927181E+04)
 number of electron     504.0000000 magnetization 
 augmentation part      504.0000000 magnetization 

 DIPCOR: dipole corrections for dipol
 direction  3 min pos     1,
 dipolmoment           0.000000      0.000000      0.000002 electrons x Angstroem
 Tr[quadrupol]    -10254.623962

 energy correction for charged system         0.000000 eV
 dipol+quadrupol energy correction           -0.000000 eV
 added-field ion interaction          0.000001 eV  (added to PSCEN)


 Free energy of the ion-electron system (eV)
  ---------------------------------------------------
  alpha Z        PSCENC =       805.86936534
  Ewald energy   TEWEN  =    200399.46291588
  -Hartree energ DENC   =   -242814.52939650
  -exchange      EXHF   =         0.00000000
  -V(xc)+E(xc)   XCENC  =      -327.56406345
  PAW double counting   =     40340.05962942   -38292.62782345
  entropy T*S    EENTRO =        -0.12559482
  eigenvalues    EBANDS =     -1754.46243313
  atomic energy  EATOM  =     41659.78587232
  Solvation  Ediel_sol  =         0.00000000
  ---------------------------------------------------
  free energy    TOTEN  =        15.86847161 eV

  energy without entropy =       15.99406644  energy(sigma->0) =       15.93126902


--------------------------------------------------------------------------------------------------------




----------------------------------------- Iteration    1(   3)  ---------------------------------------


     EDDAV:  cpu time    7.8109: real time    7.8323
       DOS:  cpu time    0.0015: real time    0.0015
    --------------------------------------------
      LOOP:  cpu time    7.8130: real time    7.8384

 eigenvalue-minimisations  :  4128
 total energy-change (2. order) :-0.2158102E+03  (-0.2002347E+03)
 number of electron     504.0000000 magnetization 
 augmentation part      504.0000000 magnetization 

 DIPCOR: dipole corrections for dipol
 direction  3 min pos     1,
 dipolmoment           0.000000      0.000000      0.000002 electrons x Angstroem
 Tr[quadrupol]    -10254.623962

 energy correction for charged system         0.000000 eV
 dipol+quadrupol energy correction           -0.000000 eV
 added-field ion interaction          0.000001 eV  (added to PSCEN)


 Free energy of the ion-electron system (eV)
  ---------------------------------------------------
  alpha Z        PSCENC =       805.86936534
  Ewald energy   TEWEN  =    200399.46291588
  -Hartree energ DENC   =   -242814.52939650
  -exchange      EXHF   =         0.00000000
  -V(xc)+E(xc)   XCENC  =      -327.56406345
  PAW double counting   =     40340.05962942   -38292.62782345
  entropy T*S    EENTRO =        -0.20941895
  eigenvalues    EBANDS =     -1970.18885816
  atomic energy  EATOM  =     41659.78587232
  Solvation  Ediel_sol  =         0.00000000
  ---------------------------------------------------
  free energy    TOTEN  =      -199.94177755 eV

  energy without entropy =     -199.73235860  energy(sigma->0) =     -199.83706807


--------------------------------------------------------------------------------------------------------




----------------------------------------- Iteration    1(   4)  ---------------------------------------


     EDDAV:  cpu time    8.0663: real time    8.1614
       DOS:  cpu time    0.0015: real time    0.0016
    --------------------------------------------
      LOOP:  cpu time    8.0686: real time    8.1660

 eigenvalue-minimisations  :  4284
 total energy-change (2. order) :-0.5861106E+01  (-0.5795304E+01)
 number of electron     504.0000000 magnetization 
 augmentation part      504.0000000 magnetization 

 DIPCOR: dipole corrections for dipol
 direction  3 min pos     1,
 dipolmoment           0.000000      0.000000      0.000002 electrons x Angstroem
 Tr[quadrupol]    -10254.623962

 energy correction for charged system         0.000000 eV
 dipol+quadrupol energy correction           -0.000000 eV
 added-field ion interaction          0.000001 eV  (added to PSCEN)


 Free energy of the ion-electron system (eV)
  ---------------------------------------------------
  alpha Z        PSCENC =       805.86936534
  Ewald energy   TEWEN  =    200399.46291588
  -Hartree energ DENC   =   -242814.52939650
  -exchange      EXHF   =         0.00000000
  -V(xc)+E(xc)   XCENC  =      -327.56406345
  PAW double counting   =     40340.05962942   -38292.62782345
  entropy T*S    EENTRO =        -0.21357393
  eigenvalues    EBANDS =     -1976.04580880
  atomic energy  EATOM  =     41659.78587232
  Solvation  Ediel_sol  =         0.00000000
  ---------------------------------------------------
  free energy    TOTEN  =      -205.80288317 eV

  energy without entropy =     -205.58930924  energy(sigma->0) =     -205.69609620


--------------------------------------------------------------------------------------------------------




----------------------------------------- Iteration    1(   5)  ---------------------------------------


     EDDAV:  cpu time    8.3001: real time    8.3426
       DOS:  cpu time    0.0016: real time    0.0016
    CHARGE:  cpu time    0.2370: real time    0.2375
    MIXING:  cpu time    0.0021: real time    0.0022
    --------------------------------------------
      LOOP:  cpu time    8.5413: real time    8.5878

 eigenvalue-minimisations  :  4464
 total energy-change (2. order) :-0.1924114E+00  (-0.1918182E+00)
 number of electron     503.9998406 magnetization 
 augmentation part      191.3354498 magnetization 

 DIPCOR: dipole corrections for dipol
 direction  3 min pos     1,
 dipolmoment           0.000000      0.000000      0.000002 electrons x Angstroem
 Tr[quadrupol]    -10254.623962

 energy correction for charged system         0.000000 eV
 dipol+quadrupol energy correction           -0.000000 eV
 added-field ion interaction          0.000001 eV  (added to PSCEN)


 Broyden mixing:
  rms(total) = 0.62508E+01    rms(broyden)= 0.62507E+01
  rms(prec ) = 0.63731E+01
  weight for this iteration     100.00

 Free energy of the ion-electron system (eV)
  ---------------------------------------------------
  alpha Z        PSCENC =       805.86936534
  Ewald energy   TEWEN  =    200399.46291588
  -Hartree energ DENC   =   -242814.52939650
  -exchange      EXHF   =         0.00000000
  -V(xc)+E(xc)   XCENC  =      -327.56406345
  PAW double counting   =     40340.05962942   -38292.62782345
  entropy T*S    EENTRO =        -0.21318070
  eigenvalues    EBANDS =     -1976.23861347
  atomic energy  EATOM  =     41659.78587232
  Solvation  Ediel_sol  =         0.00000000
  ---------------------------------------------------
  free energy    TOTEN  =      -205.99529460 eV

  energy without entropy =     -205.78211390  energy(sigma->0) =     -205.88870425


--------------------------------------------------------------------------------------------------------




----------------------------------------- Iteration    1(   6)  ---------------------------------------


    POTLOK:  cpu time    0.0431: real time    0.0433
    SETDIJ:  cpu time    0.0063: real time    0.0063
    EDDIAG:  cpu time    1.2188: real time    1.2283
  RMM-DIIS:  cpu time    3.3190: real time    3.3272
    ORTHCH:  cpu time    0.2932: real time    0.2939
       DOS:  cpu time    0.0014: real time    0.0015
    CHARGE:  cpu time    0.2349: real time    0.2368
    MIXING:  cpu time    0.0021: real time    0.0021
    --------------------------------------------
      LOOP:  cpu time    5.1196: real time    5.1437

 eigenvalue-minimisations  :  3678
 total energy-change (2. order) : 0.3287380E+01  (-0.9403856E+01)
 number of electron     503.9998422 magnetization 
 augmentation part      191.5824120 magnetization 

 DIPCOR: dipole corrections for dipol
 direction  3 min pos     1,
 dipolmoment           0.000000      0.000000      1.016903 electrons x Angstroem
 Tr[quadrupol]    -10255.345208

 energy correction for charged system         0.000000 eV
 dipol+quadrupol energy correction           -0.036439 eV
 added-field ion interaction          0.482862 eV  (added to PSCEN)


 Broyden mixing:
  rms(total) = 0.56263E+01    rms(broyden)= 0.56262E+01
  rms(prec ) = 0.59928E+01
  weight for this iteration     100.00

 eigenvalues of (default mixing * dielectric matrix)
  average eigenvalue GAMMA=   0.7061
  0.7061

 Free energy of the ion-electron system (eV)
  ---------------------------------------------------
  alpha Z        PSCENC =       806.31578742
  Ewald energy   TEWEN  =    200399.46291588
  -Hartree energ DENC   =   -242542.33782096
  -exchange      EXHF   =         0.00000000
  -V(xc)+E(xc)   XCENC  =      -339.98754112
  PAW double counting   =     43929.64475591   -41941.34337392
  entropy T*S    EENTRO =        -0.23665698
  eigenvalues    EBANDS =     -2174.01185331
  atomic energy  EATOM  =     41659.78587232
  Solvation  Ediel_sol  =         0.00000000
  ---------------------------------------------------
  free energy    TOTEN  =      -202.70791476 eV

  energy without entropy =     -202.47125777  energy(sigma->0) =     -202.58958627


--------------------------------------------------------------------------------------------------------




----------------------------------------- Iteration    1(   7)  ---------------------------------------


    POTLOK:  cpu time    0.0419: real time    0.0429
    SETDIJ:  cpu time    0.0062: real time    0.0062
    EDDIAG:  cpu time    1.2142: real time    1.2203
  RMM-DIIS:  cpu time    3.3283: real time    3.3365
    ORTHCH:  cpu time    0.2876: real time    0.2883
       DOS:  cpu time    0.0015: real time    0.0015
    CHARGE:  cpu time    0.2360: real time    0.2365
    MIXING:  cpu time    0.0020: real time    0.0020
    --------------------------------------------
      LOOP:  cpu time    5.1183: real time    5.1383

 eigenvalue-minimisations  :  3681
 total energy-change (2. order) :-0.2072330E+02  (-0.6421178E+01)
 number of electron     503.9998383 magnetization 
 augmentation part      193.4722440 magnetization 

 DIPCOR: dipole corrections for dipol
 direction  3 min pos     1,
 dipolmoment           0.000000      0.000000     -1.681571 electrons x Angstroem
 Tr[quadrupol]    -10255.236994

 energy correction for charged system         0.000000 eV
 dipol+quadrupol energy correction           -0.099640 eV
 added-field ion interaction         -0.798470 eV  (added to PSCEN)


 Broyden mixing:
  rms(total) = 0.54107E+01    rms(broyden)= 0.54105E+01
  rms(prec ) = 0.65762E+01
  weight for this iteration     100.00

 eigenvalues of (default mixing * dielectric matrix)
  average eigenvalue GAMMA=   0.7687
  1.2424  0.2950

 Free energy of the ion-electron system (eV)
  ---------------------------------------------------
  alpha Z        PSCENC =       804.97125451
  Ewald energy   TEWEN  =    200399.46291588
  -Hartree energ DENC   =   -242444.94440086
  -exchange      EXHF   =         0.00000000
  -V(xc)+E(xc)   XCENC  =      -342.31134018
  PAW double counting   =     45228.24940317   -43263.54979055
  entropy T*S    EENTRO =        -0.27469283
  eigenvalues    EBANDS =     -2264.82043446
  atomic energy  EATOM  =     41659.78587232
  Solvation  Ediel_sol  =         0.00000000
  ---------------------------------------------------
  free energy    TOTEN  =      -223.43121300 eV

  energy without entropy =     -223.15652017  energy(sigma->0) =     -223.29386658


--------------------------------------------------------------------------------------------------------




----------------------------------------- Iteration    1(   8)  ---------------------------------------


    POTLOK:  cpu time    0.0423: real time    0.0425
    SETDIJ:  cpu time    0.0052: real time    0.0054
    EDDIAG:  cpu time    1.2322: real time    1.2352
  RMM-DIIS:  cpu time    3.3199: real time    3.3279
    ORTHCH:  cpu time    0.2864: real time    0.2871
       DOS:  cpu time    0.0015: real time    0.0015
    CHARGE:  cpu time    0.2373: real time    0.2379
    MIXING:  cpu time    0.0020: real time    0.0020
    --------------------------------------------
      LOOP:  cpu time    5.1276: real time    5.1423

 eigenvalue-minimisations  :  3681
 total energy-change (2. order) : 0.8195515E+01  (-0.8696062E+01)
 number of electron     503.9998351 magnetization 
 augmentation part      197.5614484 magnetization 

 DIPCOR: dipole corrections for dipol
 direction  3 min pos     1,
 dipolmoment           0.000000      0.000000      1.361958 electrons x Angstroem
 Tr[quadrupol]    -10255.873340

 energy correction for charged system         0.000000 eV
 dipol+quadrupol energy correction           -0.065363 eV
 added-field ion interaction          0.646706 eV  (added to PSCEN)


 Broyden mixing:
  rms(total) = 0.39071E+01    rms(broyden)= 0.39067E+01
  rms(prec ) = 0.45013E+01
  weight for this iteration     100.00

 eigenvalues of (default mixing * dielectric matrix)
  average eigenvalue GAMMA=   0.8818
  1.9854  0.4404  0.2196

 Free energy of the ion-electron system (eV)
  ---------------------------------------------------
  alpha Z        PSCENC =       806.45070745
  Ewald energy   TEWEN  =    200399.46291588
  -Hartree energ DENC   =   -242380.73337269
  -exchange      EXHF   =         0.00000000
  -V(xc)+E(xc)   XCENC  =      -344.68701414
  PAW double counting   =     46595.50713692   -44655.89524316
  entropy T*S    EENTRO =        -0.22661262
  eigenvalues    EBANDS =     -2294.90008834
  atomic energy  EATOM  =     41659.78587232
  Solvation  Ediel_sol  =         0.00000000
  ---------------------------------------------------
  free energy    TOTEN  =      -215.23569839 eV

  energy without entropy =     -215.00908577  energy(sigma->0) =     -215.12239208


--------------------------------------------------------------------------------------------------------




----------------------------------------- Iteration    1(   9)  ---------------------------------------


    POTLOK:  cpu time    0.0418: real time    0.0419
    SETDIJ:  cpu time    0.0057: real time    0.0059
    EDDIAG:  cpu time    1.2136: real time    1.2165
  RMM-DIIS:  cpu time    3.3416: real time    3.3499
    ORTHCH:  cpu time    0.2877: real time    0.2884
       DOS:  cpu time    0.0014: real time    0.0014
    CHARGE:  cpu time    0.2379: real time    0.2384
    MIXING:  cpu time    0.0022: real time    0.0022
    --------------------------------------------
      LOOP:  cpu time    5.1325: real time    5.1480

 eigenvalue-minimisations  :  3682
 total energy-change (2. order) : 0.6556380E+01  (-0.4539228E+01)
 number of electron     503.9998329 magnetization 
 augmentation part      198.9463265 magnetization 

 DIPCOR: dipole corrections for dipol
 direction  3 min pos     1,
 dipolmoment           0.000000      0.000000     -0.100082 electrons x Angstroem
 Tr[quadrupol]    -10256.050796

 energy correction for charged system         0.000000 eV
 dipol+quadrupol energy correction           -0.000353 eV
 added-field ion interaction         -0.047523 eV  (added to PSCEN)


 Broyden mixing:
  rms(total) = 0.34089E+01    rms(broyden)= 0.34085E+01
  rms(prec ) = 0.37990E+01
  weight for this iteration     100.00

 eigenvalues of (default mixing * dielectric matrix)
  average eigenvalue GAMMA=   0.8120
  2.2374  0.2521  0.3793  0.3793

 Free energy of the ion-electron system (eV)
  ---------------------------------------------------
  alpha Z        PSCENC =       805.82148867
  Ewald energy   TEWEN  =    200399.46291588
  -Hartree energ DENC   =   -242343.70635531
  -exchange      EXHF   =         0.00000000
  -V(xc)+E(xc)   XCENC  =      -346.40221186
  PAW double counting   =     48414.32327571   -46501.14531457
  entropy T*S    EENTRO =        -0.19173730
  eigenvalues    EBANDS =     -2296.62725208
  atomic energy  EATOM  =     41659.78587232
  Solvation  Ediel_sol  =         0.00000000
  ---------------------------------------------------
  free energy    TOTEN  =      -208.67931854 eV

  energy without entropy =     -208.48758124  energy(sigma->0) =     -208.58344989


--------------------------------------------------------------------------------------------------------




----------------------------------------- Iteration    1(  10)  ---------------------------------------


    POTLOK:  cpu time    0.0411: real time    0.0420
    SETDIJ:  cpu time    0.0058: real time    0.0058
    EDDIAG:  cpu time    1.2038: real time    1.2077
  RMM-DIIS:  cpu time    3.3929: real time    3.4011
    ORTHCH:  cpu time    0.2871: real time    0.2878
       DOS:  cpu time    0.0014: real time    0.0014
    CHARGE:  cpu time    0.2343: real time    0.2348
    MIXING:  cpu time    0.0022: real time    0.0022
    --------------------------------------------
      LOOP:  cpu time    5.1694: real time    5.1865

 eigenvalue-minimisations  :  3684
 total energy-change (2. order) : 0.1150604E+02  (-0.1918533E+01)
 number of electron     503.9998337 magnetization 
 augmentation part      199.3938962 magnetization 

 DIPCOR: dipole corrections for dipol
 direction  3 min pos     1,
 dipolmoment           0.000000      0.000000      0.462577 electrons x Angstroem
 Tr[quadrupol]    -10255.706074

 energy correction for charged system         0.000000 eV
 dipol+quadrupol energy correction           -0.007540 eV
 added-field ion interaction          0.219648 eV  (added to PSCEN)


 Broyden mixing:
  rms(total) = 0.20375E+01    rms(broyden)= 0.20373E+01
  rms(prec ) = 0.23729E+01
  weight for this iteration     100.00

 eigenvalues of (default mixing * dielectric matrix)
  average eigenvalue GAMMA=   0.7611
  2.2958  0.4816  0.4816  0.2237  0.3228

 Free energy of the ion-electron system (eV)
  ---------------------------------------------------
  alpha Z        PSCENC =       806.08147249
  Ewald energy   TEWEN  =    200399.46291588
  -Hartree energ DENC   =   -242341.67291870
  -exchange      EXHF   =         0.00000000
  -V(xc)+E(xc)   XCENC  =      -346.30958378
  PAW double counting   =     49074.27175490   -47167.75641746
  entropy T*S    EENTRO =        -0.16613189
  eigenvalues    EBANDS =     -2280.87024491
  atomic energy  EATOM  =     41659.78587232
  Solvation  Ediel_sol  =         0.00000000
  ---------------------------------------------------
  free energy    TOTEN  =      -197.17328116 eV

  energy without entropy =     -197.00714927  energy(sigma->0) =     -197.09021521


--------------------------------------------------------------------------------------------------------




----------------------------------------- Iteration    1(  11)  ---------------------------------------


    POTLOK:  cpu time    0.0411: real time    0.0412
    SETDIJ:  cpu time    0.0050: real time    0.0055
    EDDIAG:  cpu time    1.2093: real time    1.2349
  RMM-DIIS:  cpu time    3.2688: real time    3.3407
    ORTHCH:  cpu time    0.2869: real time    0.2876
       DOS:  cpu time    0.0015: real time    0.0015
    CHARGE:  cpu time    0.2321: real time    0.2326
    MIXING:  cpu time    0.0024: real time    0.0024
    --------------------------------------------
      LOOP:  cpu time    5.0478: real time    5.1498

 eigenvalue-minimisations  :  3680
 total energy-change (2. order) : 0.5164531E+01  (-0.1135012E+01)
 number of electron     503.9998343 magnetization 
 augmentation part      198.9692533 magnetization 

 DIPCOR: dipole corrections for dipol
 direction  3 min pos     1,
 dipolmoment           0.000000      0.000000      0.245712 electrons x Angstroem
 Tr[quadrupol]    -10256.491467

 energy correction for charged system         0.000000 eV
 dipol+quadrupol energy correction           -0.002127 eV
 added-field ion interaction          0.116673 eV  (added to PSCEN)


 Broyden mixing:
  rms(total) = 0.12924E+01    rms(broyden)= 0.12921E+01
  rms(prec ) = 0.14699E+01
  weight for this iteration     100.00

 eigenvalues of (default mixing * dielectric matrix)
  average eigenvalue GAMMA=   0.7191
  2.2633  0.5969  0.5969  0.2319  0.3127  0.3127

 Free energy of the ion-electron system (eV)
  ---------------------------------------------------
  alpha Z        PSCENC =       805.98390971
  Ewald energy   TEWEN  =    200399.46291588
  -Hartree energ DENC   =   -242393.15575781
  -exchange      EXHF   =         0.00000000
  -V(xc)+E(xc)   XCENC  =      -345.77747367
  PAW double counting   =     49251.56036621   -47343.67269012
  entropy T*S    EENTRO =        -0.22488683
  eigenvalues    EBANDS =     -2225.97100589
  atomic energy  EATOM  =     41659.78587232
  Solvation  Ediel_sol  =         0.00000000
  ---------------------------------------------------
  free energy    TOTEN  =      -192.00875020 eV

  energy without entropy =     -191.78386337  energy(sigma->0) =     -191.89630679


--------------------------------------------------------------------------------------------------------




----------------------------------------- Iteration    1(  12)  ---------------------------------------


    POTLOK:  cpu time    0.0411: real time    0.0412
    SETDIJ:  cpu time    0.0053: real time    0.0054
    EDDIAG:  cpu time    1.2153: real time    1.2193
  RMM-DIIS:  cpu time    3.3155: real time    3.3236
    ORTHCH:  cpu time    0.2851: real time    0.2867
       DOS:  cpu time    0.0014: real time    0.0014
    CHARGE:  cpu time    0.2329: real time    0.2335
    MIXING:  cpu time    0.0026: real time    0.0026
    --------------------------------------------
      LOOP:  cpu time    5.0999: real time    5.1175

 eigenvalue-minimisations  :  3680
 total energy-change (2. order) : 0.3022337E+01  (-0.4511841E+00)
 number of electron     503.9998355 magnetization 
 augmentation part      198.0889004 magnetization 

 DIPCOR: dipole corrections for dipol
 direction  3 min pos     1,
 dipolmoment           0.000000      0.000000      0.183944 electrons x Angstroem
 Tr[quadrupol]    -10256.770335

 energy correction for charged system         0.000000 eV
 dipol+quadrupol energy correction           -0.001192 eV
 added-field ion interaction          0.087343 eV  (added to PSCEN)


 Broyden mixing:
  rms(total) = 0.73841E+00    rms(broyden)= 0.73830E+00
  rms(prec ) = 0.79874E+00
  weight for this iteration     100.00

 eigenvalues of (default mixing * dielectric matrix)
  average eigenvalue GAMMA=   0.6877
  2.2509  0.5785  0.5785  0.5589  0.2253  0.3108  0.3108

 Free energy of the ion-electron system (eV)
  ---------------------------------------------------
  alpha Z        PSCENC =       805.95551515
  Ewald energy   TEWEN  =    200399.46291588
  -Hartree energ DENC   =   -242435.96504330
  -exchange      EXHF   =         0.00000000
  -V(xc)+E(xc)   XCENC  =      -344.87788578
  PAW double counting   =     49300.68021151   -47388.55486806
  entropy T*S    EENTRO =        -0.22618922
  eigenvalues    EBANDS =     -2185.24694167
  atomic energy  EATOM  =     41659.78587232
  Solvation  Ediel_sol  =         0.00000000
  ---------------------------------------------------
  free energy    TOTEN  =      -188.98641317 eV

  energy without entropy =     -188.76022395  energy(sigma->0) =     -188.87331856


--------------------------------------------------------------------------------------------------------




----------------------------------------- Iteration    1(  13)  ---------------------------------------


    POTLOK:  cpu time    0.0414: real time    0.0417
    SETDIJ:  cpu time    0.0061: real time    0.0061
    EDDIAG:  cpu time    1.2071: real time    1.2149
  RMM-DIIS:  cpu time    3.3111: real time    3.3224
    ORTHCH:  cpu time    0.2799: real time    0.2807
       DOS:  cpu time    0.0016: real time    0.0016
    CHARGE:  cpu time    0.2377: real time    0.2383
    MIXING:  cpu time    0.0028: real time    0.0028
    --------------------------------------------
      LOOP:  cpu time    5.0885: real time    5.1131

 eigenvalue-minimisations  :  3681
 total energy-change (2. order) : 0.2777933E+00  (-0.1191102E+00)
 number of electron     503.9998359 magnetization 
 augmentation part      197.6439627 magnetization 

 DIPCOR: dipole corrections for dipol
 direction  3 min pos     1,
 dipolmoment           0.000000      0.000000      0.164649 electrons x Angstroem
 Tr[quadrupol]    -10257.074830

 energy correction for charged system         0.000000 eV
 dipol+quadrupol energy correction           -0.000955 eV
 added-field ion interaction          0.078181 eV  (added to PSCEN)


 Broyden mixing:
  rms(total) = 0.61591E+00    rms(broyden)= 0.61583E+00
  rms(prec ) = 0.65924E+00
  weight for this iteration     100.00

 eigenvalues of (default mixing * dielectric matrix)
  average eigenvalue GAMMA=   0.7234
  2.2420  0.8498  0.8498  0.6924  0.3243  0.3243  0.2301  0.2746

 Free energy of the ion-electron system (eV)
  ---------------------------------------------------
  alpha Z        PSCENC =       805.94659001
  Ewald energy   TEWEN  =    200399.46291588
  -Hartree energ DENC   =   -242458.69610402
  -exchange      EXHF   =         0.00000000
  -V(xc)+E(xc)   XCENC  =      -344.48943884
  PAW double counting   =     49321.59978120   -47407.31582027
  entropy T*S    EENTRO =        -0.22873799
  eigenvalues    EBANDS =     -2164.77367821
  atomic energy  EATOM  =     41659.78587232
  Solvation  Ediel_sol  =         0.00000000
  ---------------------------------------------------
  free energy    TOTEN  =      -188.70861991 eV

  energy without entropy =     -188.47988192  energy(sigma->0) =     -188.59425092


--------------------------------------------------------------------------------------------------------




----------------------------------------- Iteration    1(  14)  ---------------------------------------


    POTLOK:  cpu time    0.0415: real time    0.0416
    SETDIJ:  cpu time    0.0055: real time    0.0055
    EDDIAG:  cpu time    1.2123: real time    1.2153
  RMM-DIIS:  cpu time    3.3246: real time    3.3328
    ORTHCH:  cpu time    0.2795: real time    0.2802
       DOS:  cpu time    0.0015: real time    0.0015
    CHARGE:  cpu time    0.2339: real time    0.2344
    MIXING:  cpu time    0.0028: real time    0.0028
    --------------------------------------------
      LOOP:  cpu time    5.1023: real time    5.1183

 eigenvalue-minimisations  :  3679
 total energy-change (2. order) :-0.1451827E+00  (-0.6678998E-01)
 number of electron     503.9998359 magnetization 
 augmentation part      197.4862850 magnetization 

 DIPCOR: dipole corrections for dipol
 direction  3 min pos     1,
 dipolmoment           0.000000      0.000000      0.126023 electrons x Angstroem
 Tr[quadrupol]    -10257.470744

 energy correction for charged system         0.000000 eV
 dipol+quadrupol energy correction           -0.000560 eV
 added-field ion interaction          0.059840 eV  (added to PSCEN)


 Broyden mixing:
  rms(total) = 0.63667E+00    rms(broyden)= 0.63660E+00
  rms(prec ) = 0.73087E+00
  weight for this iteration     100.00

 eigenvalues of (default mixing * dielectric matrix)
  average eigenvalue GAMMA=   0.7305
  2.2046  1.0683  1.0683  0.7052  0.3780  0.3780  0.2745  0.2745  0.2234

 Free energy of the ion-electron system (eV)
  ---------------------------------------------------
  alpha Z        PSCENC =       805.92864491
  Ewald energy   TEWEN  =    200399.46291588
  -Hartree energ DENC   =   -242479.79871322
  -exchange      EXHF   =         0.00000000
  -V(xc)+E(xc)   XCENC  =      -344.18385189
  PAW double counting   =     49340.10775251   -47423.68242432
  entropy T*S    EENTRO =        -0.23879692
  eigenvalues    EBANDS =     -2146.23520184
  atomic energy  EATOM  =     41659.78587232
  Solvation  Ediel_sol  =         0.00000000
  ---------------------------------------------------
  free energy    TOTEN  =      -188.85380256 eV

  energy without entropy =     -188.61500565  energy(sigma->0) =     -188.73440411


--------------------------------------------------------------------------------------------------------




----------------------------------------- Iteration    1(  15)  ---------------------------------------


    POTLOK:  cpu time    0.0417: real time    0.0418
    SETDIJ:  cpu time    0.0054: real time    0.0054
    EDDIAG:  cpu time    1.2112: real time    1.2142
  RMM-DIIS:  cpu time    3.3618: real time    3.3700
    ORTHCH:  cpu time    0.2782: real time    0.2788
       DOS:  cpu time    0.0014: real time    0.0014
    CHARGE:  cpu time    0.2324: real time    0.2330
    MIXING:  cpu time    0.0029: real time    0.0030
    --------------------------------------------
      LOOP:  cpu time    5.1359: real time    5.1502

 eigenvalue-minimisations  :  3680
 total energy-change (2. order) : 0.4066262E-01  (-0.4862984E-01)
 number of electron     503.9998359 magnetization 
 augmentation part      197.3997160 magnetization 

 DIPCOR: dipole corrections for dipol
 direction  3 min pos     1,
 dipolmoment           0.000000      0.000000      0.130213 electrons x Angstroem
 Tr[quadrupol]    -10257.738944

 energy correction for charged system         0.000000 eV
 dipol+quadrupol energy correction           -0.000597 eV
 added-field ion interaction          0.061830 eV  (added to PSCEN)


 Broyden mixing:
  rms(total) = 0.58275E+00    rms(broyden)= 0.58270E+00
  rms(prec ) = 0.67341E+00
  weight for this iteration     100.00

 eigenvalues of (default mixing * dielectric matrix)
  average eigenvalue GAMMA=   0.7376
  2.1563  1.3109  1.3109  0.5335  0.5335  0.5007  0.2894  0.2894  0.2259  0.2259

 Free energy of the ion-electron system (eV)
  ---------------------------------------------------
  alpha Z        PSCENC =       805.93059645
  Ewald energy   TEWEN  =    200399.46291588
  -Hartree energ DENC   =   -242494.76082504
  -exchange      EXHF   =         0.00000000
  -V(xc)+E(xc)   XCENC  =      -343.93680323
  PAW double counting   =     49343.98272388   -47425.71438300
  entropy T*S    EENTRO =        -0.24043924
  eigenvalues    EBANDS =     -2133.32279795
  atomic energy  EATOM  =     41659.78587232
  Solvation  Ediel_sol  =         0.00000000
  ---------------------------------------------------
  free energy    TOTEN  =      -188.81313994 eV

  energy without entropy =     -188.57270070  energy(sigma->0) =     -188.69292032


--------------------------------------------------------------------------------------------------------




----------------------------------------- Iteration    1(  16)  ---------------------------------------


    POTLOK:  cpu time    0.0412: real time    0.0413
    SETDIJ:  cpu time    0.0052: real time    0.0053
    EDDIAG:  cpu time    1.2114: real time    1.2144
  RMM-DIIS:  cpu time    3.3647: real time    3.3796
    ORTHCH:  cpu time    0.2784: real time    0.2791
       DOS:  cpu time    0.0014: real time    0.0014
    CHARGE:  cpu time    0.2335: real time    0.2343
    MIXING:  cpu time    0.0032: real time    0.0032
    --------------------------------------------
      LOOP:  cpu time    5.1398: real time    5.1612

 eigenvalue-minimisations  :  3680
 total energy-change (2. order) : 0.2718687E+00  (-0.2585391E-01)
 number of electron     503.9998360 magnetization 
 augmentation part      197.3628186 magnetization 

 DIPCOR: dipole corrections for dipol
 direction  3 min pos     1,
 dipolmoment           0.000000      0.000000      0.130841 electrons x Angstroem
 Tr[quadrupol]    -10258.103015

 energy correction for charged system         0.000000 eV
 dipol+quadrupol energy correction           -0.000603 eV
 added-field ion interaction          0.062128 eV  (added to PSCEN)


 Broyden mixing:
  rms(total) = 0.35800E+00    rms(broyden)= 0.35796E+00
  rms(prec ) = 0.42396E+00
  weight for this iteration     100.00

 eigenvalues of (default mixing * dielectric matrix)
  average eigenvalue GAMMA=   0.7304
  2.1440  1.4533  1.4533  0.5949  0.5949  0.4288  0.3145  0.3145  0.2227  0.2570
  0.2570

 Free energy of the ion-electron system (eV)
  ---------------------------------------------------
  alpha Z        PSCENC =       805.93088911
  Ewald energy   TEWEN  =    200399.46291588
  -Hartree energ DENC   =   -242512.82316355
  -exchange      EXHF   =         0.00000000
  -V(xc)+E(xc)   XCENC  =      -343.71235210
  PAW double counting   =     49355.91482857   -47435.90628561
  entropy T*S    EENTRO =        -0.24091837
  eigenvalues    EBANDS =     -2116.95305746
  atomic energy  EATOM  =     41659.78587232
  Solvation  Ediel_sol  =         0.00000000
  ---------------------------------------------------
  free energy    TOTEN  =      -188.54127121 eV

  energy without entropy =     -188.30035284  energy(sigma->0) =     -188.42081202


--------------------------------------------------------------------------------------------------------




----------------------------------------- Iteration    1(  17)  ---------------------------------------


    POTLOK:  cpu time    0.0411: real time    0.0412
    SETDIJ:  cpu time    0.0053: real time    0.0053
    EDDIAG:  cpu time    1.2010: real time    1.2039
  RMM-DIIS:  cpu time    3.3675: real time    3.3794
    ORTHCH:  cpu time    0.2784: real time    0.2791
       DOS:  cpu time    0.0016: real time    0.0016
    CHARGE:  cpu time    0.2362: real time    0.2367
    MIXING:  cpu time    0.0032: real time    0.0032
    --------------------------------------------
      LOOP:  cpu time    5.1350: real time    5.1532

 eigenvalue-minimisations  :  3679
 total energy-change (2. order) : 0.9065852E-01  (-0.1256317E-01)
 number of electron     503.9998361 magnetization 
 augmentation part      197.3234379 magnetization 

 DIPCOR: dipole corrections for dipol
 direction  3 min pos     1,
 dipolmoment           0.000000      0.000000      0.105497 electrons x Angstroem
 Tr[quadrupol]    -10258.323125

 energy correction for charged system         0.000000 eV
 dipol+quadrupol energy correction           -0.000392 eV
 added-field ion interaction          0.050094 eV  (added to PSCEN)


 Broyden mixing:
  rms(total) = 0.23629E+00    rms(broyden)= 0.23624E+00
  rms(prec ) = 0.27861E+00
  weight for this iteration     100.00

 eigenvalues of (default mixing * dielectric matrix)
  average eigenvalue GAMMA=   0.7358
  2.1460  1.6152  1.6152  0.6550  0.6550  0.4241  0.4112  0.3153  0.3153  0.2493
  0.2254  0.2031

 Free energy of the ion-electron system (eV)
  ---------------------------------------------------
  alpha Z        PSCENC =       805.91906598
  Ewald energy   TEWEN  =    200399.46291588
  -Hartree energ DENC   =   -242523.73448892
  -exchange      EXHF   =         0.00000000
  -V(xc)+E(xc)   XCENC  =      -343.60064877
  PAW double counting   =     49368.73345569   -47447.91906011
  entropy T*S    EENTRO =        -0.24934965
  eigenvalues    EBANDS =     -2106.84837512
  atomic energy  EATOM  =     41659.78587232
  Solvation  Ediel_sol  =         0.00000000
  ---------------------------------------------------
  free energy    TOTEN  =      -188.45061269 eV

  energy without entropy =     -188.20126305  energy(sigma->0) =     -188.32593787


--------------------------------------------------------------------------------------------------------




----------------------------------------- Iteration    1(  18)  ---------------------------------------


    POTLOK:  cpu time    0.0411: real time    0.0412
    SETDIJ:  cpu time    0.0053: real time    0.0053
    EDDIAG:  cpu time    1.1937: real time    1.1966
  RMM-DIIS:  cpu time    3.3459: real time    3.3541
    ORTHCH:  cpu time    0.2782: real time    0.2789
       DOS:  cpu time    0.0015: real time    0.0015
    CHARGE:  cpu time    0.2282: real time    0.2330
    MIXING:  cpu time    0.0033: real time    0.0035
    --------------------------------------------
      LOOP:  cpu time    5.0979: real time    5.1167

 eigenvalue-minimisations  :  3681
 total energy-change (2. order) : 0.5888274E-01  (-0.6024636E-02)
 number of electron     503.9998362 magnetization 
 augmentation part      197.2443600 magnetization 

 DIPCOR: dipole corrections for dipol
 direction  3 min pos     1,
 dipolmoment           0.000000      0.000000      0.081342 electrons x Angstroem
 Tr[quadrupol]    -10258.572446

 energy correction for charged system         0.000000 eV
 dipol+quadrupol energy correction           -0.000233 eV
 added-field ion interaction          0.038624 eV  (added to PSCEN)


 Broyden mixing:
  rms(total) = 0.12193E+00    rms(broyden)= 0.12189E+00
  rms(prec ) = 0.13827E+00
  weight for this iteration     100.00

 eigenvalues of (default mixing * dielectric matrix)
  average eigenvalue GAMMA=   0.7125
  2.1728  1.6468  1.6468  0.6695  0.6695  0.4404  0.4404  0.3147  0.3147  0.2910
  0.2290  0.2290  0.1976

 Free energy of the ion-electron system (eV)
  ---------------------------------------------------
  alpha Z        PSCENC =       805.90775543
  Ewald energy   TEWEN  =    200399.46291588
  -Hartree energ DENC   =   -242536.29009496
  -exchange      EXHF   =         0.00000000
  -V(xc)+E(xc)   XCENC  =      -343.46269434
  PAW double counting   =     49387.38123501   -47465.69212158
  entropy T*S    EENTRO =        -0.24575421
  eigenvalues    EBANDS =     -2095.23884349
  atomic energy  EATOM  =     41659.78587232
  Solvation  Ediel_sol  =         0.00000000
  ---------------------------------------------------
  free energy    TOTEN  =      -188.39172995 eV

  energy without entropy =     -188.14597574  energy(sigma->0) =     -188.26885284


--------------------------------------------------------------------------------------------------------




----------------------------------------- Iteration    1(  19)  ---------------------------------------


    POTLOK:  cpu time    0.0406: real time    0.0462
    SETDIJ:  cpu time    0.0053: real time    0.0055
    EDDIAG:  cpu time    1.1906: real time    1.2639
  RMM-DIIS:  cpu time    3.3946: real time    3.4038
    ORTHCH:  cpu time    0.2775: real time    0.2782
       DOS:  cpu time    0.0015: real time    0.0015
    CHARGE:  cpu time    0.2323: real time    0.2329
    MIXING:  cpu time    0.0035: real time    0.0035
    --------------------------------------------
      LOOP:  cpu time    5.1467: real time    5.2391

 eigenvalue-minimisations  :  3684
 total energy-change (2. order) : 0.1676102E-01  (-0.1507397E-02)
 number of electron     503.9998363 magnetization 
 augmentation part      197.1993571 magnetization 

 DIPCOR: dipole corrections for dipol
 direction  3 min pos     1,
 dipolmoment           0.000000      0.000000      0.069538 electrons x Angstroem
 Tr[quadrupol]    -10258.697580

 energy correction for charged system         0.000000 eV
 dipol+quadrupol energy correction           -0.000170 eV
 added-field ion interaction          0.033019 eV  (added to PSCEN)


 Broyden mixing:
  rms(total) = 0.64335E-01    rms(broyden)= 0.64324E-01
  rms(prec ) = 0.70280E-01
  weight for this iteration     100.00

 eigenvalues of (default mixing * dielectric matrix)
  average eigenvalue GAMMA=   0.7186
  2.1967  1.6725  1.6725  0.7257  0.7257  0.5508  0.5508  0.3968  0.3118  0.3118
  0.2795  0.2265  0.2431  0.1959

 Free energy of the ion-electron system (eV)
  ---------------------------------------------------
  alpha Z        PSCENC =       805.90221314
  Ewald energy   TEWEN  =    200399.46291588
  -Hartree energ DENC   =   -242542.01729686
  -exchange      EXHF   =         0.00000000
  -V(xc)+E(xc)   XCENC  =      -343.41079509
  PAW double counting   =     49395.67166469   -47473.68593841
  entropy T*S    EENTRO =        -0.24990289
  eigenvalues    EBANDS =     -2089.83370171
  atomic energy  EATOM  =     41659.78587232
  Solvation  Ediel_sol  =         0.00000000
  ---------------------------------------------------
  free energy    TOTEN  =      -188.37496893 eV

  energy without entropy =     -188.12506604  energy(sigma->0) =     -188.25001748


--------------------------------------------------------------------------------------------------------




----------------------------------------- Iteration    1(  20)  ---------------------------------------


    POTLOK:  cpu time    0.0411: real time    0.0412
    SETDIJ:  cpu time    0.0054: real time    0.0054
    EDDIAG:  cpu time    1.2068: real time    1.2098
  RMM-DIIS:  cpu time    3.3128: real time    3.3208
    ORTHCH:  cpu time    0.2793: real time    0.2799
       DOS:  cpu time    0.0015: real time    0.0015
    CHARGE:  cpu time    0.2331: real time    0.2337
    MIXING:  cpu time    0.0037: real time    0.0037
    --------------------------------------------
      LOOP:  cpu time    5.0844: real time    5.0987

 eigenvalue-minimisations  :  3682
 total energy-change (2. order) : 0.2313688E-02  (-0.4232755E-03)
 number of electron     503.9998363 magnetization 
 augmentation part      197.1636320 magnetization 

 DIPCOR: dipole corrections for dipol
 direction  3 min pos     1,
 dipolmoment           0.000000      0.000000      0.062564 electrons x Angstroem
 Tr[quadrupol]    -10258.824636

 energy correction for charged system         0.000000 eV
 dipol+quadrupol energy correction           -0.000138 eV
 added-field ion interaction          0.029707 eV  (added to PSCEN)


 Broyden mixing:
  rms(total) = 0.54834E-01    rms(broyden)= 0.54831E-01
  rms(prec ) = 0.60738E-01
  weight for this iteration     100.00

 eigenvalues of (default mixing * dielectric matrix)
  average eigenvalue GAMMA=   0.7399
  2.1813  1.7298  1.7298  0.9165  0.9165  0.6041  0.6041  0.5146  0.3264  0.3264
  0.2964  0.2964  0.2308  0.2308  0.1953

 Free energy of the ion-electron system (eV)
  ---------------------------------------------------
  alpha Z        PSCENC =       805.89893385
  Ewald energy   TEWEN  =    200399.46291588
  -Hartree energ DENC   =   -242547.37810648
  -exchange      EXHF   =         0.00000000
  -V(xc)+E(xc)   XCENC  =      -343.37662725
  PAW double counting   =     49401.14297150   -47478.98257792
  entropy T*S    EENTRO =        -0.25023192
  eigenvalues    EBANDS =     -2084.67580523
  atomic energy  EATOM  =     41659.78587232
  Solvation  Ediel_sol  =         0.00000000
  ---------------------------------------------------
  free energy    TOTEN  =      -188.37265524 eV

  energy without entropy =     -188.12242332  energy(sigma->0) =     -188.24753928


--------------------------------------------------------------------------------------------------------




----------------------------------------- Iteration    1(  21)  ---------------------------------------


    POTLOK:  cpu time    0.0415: real time    0.0416
    SETDIJ:  cpu time    0.0054: real time    0.0054
    EDDIAG:  cpu time    1.2007: real time    1.2092
  RMM-DIIS:  cpu time    3.3137: real time    3.3218
    ORTHCH:  cpu time    0.2794: real time    0.2801
       DOS:  cpu time    0.0015: real time    0.0015
    CHARGE:  cpu time    0.2352: real time    0.2357
    MIXING:  cpu time    0.0039: real time    0.0039
    --------------------------------------------
      LOOP:  cpu time    5.0819: real time    5.1023

 eigenvalue-minimisations  :  3682
 total energy-change (2. order) : 0.1427039E-02  (-0.3960474E-03)
 number of electron     503.9998363 magnetization 
 augmentation part      197.1348561 magnetization 

 DIPCOR: dipole corrections for dipol
 direction  3 min pos     1,
 dipolmoment           0.000000      0.000000      0.056866 electrons x Angstroem
 Tr[quadrupol]    -10258.985244

 energy correction for charged system         0.000000 eV
 dipol+quadrupol energy correction           -0.000114 eV
 added-field ion interaction          0.027002 eV  (added to PSCEN)


 Broyden mixing:
  rms(total) = 0.48479E-01    rms(broyden)= 0.48475E-01
  rms(prec ) = 0.55557E-01
  weight for this iteration     100.00

 eigenvalues of (default mixing * dielectric matrix)
  average eigenvalue GAMMA=   0.7743
  2.2903  2.0098  2.0098  0.8991  0.8991  0.8371  0.6135  0.6135  0.3165  0.3165
  0.3322  0.3322  0.2580  0.2393  0.2264  0.1952

 Free energy of the ion-electron system (eV)
  ---------------------------------------------------
  alpha Z        PSCENC =       805.89625246
  Ewald energy   TEWEN  =    200399.46291588
  -Hartree energ DENC   =   -242553.88950917
  -exchange      EXHF   =         0.00000000
  -V(xc)+E(xc)   XCENC  =      -343.33937996
  PAW double counting   =     49405.68996846   -47483.38141381
  entropy T*S    EENTRO =        -0.25063159
  eigenvalues    EBANDS =     -2078.34530280
  atomic energy  EATOM  =     41659.78587232
  Solvation  Ediel_sol  =         0.00000000
  ---------------------------------------------------
  free energy    TOTEN  =      -188.37122820 eV

  energy without entropy =     -188.12059662  energy(sigma->0) =     -188.24591241


--------------------------------------------------------------------------------------------------------




----------------------------------------- Iteration    1(  22)  ---------------------------------------


    POTLOK:  cpu time    0.0414: real time    0.0423
    SETDIJ:  cpu time    0.0056: real time    0.0056
    EDDIAG:  cpu time    1.1943: real time    1.1982
  RMM-DIIS:  cpu time    3.3440: real time    3.3521
    ORTHCH:  cpu time    0.2788: real time    0.2796
       DOS:  cpu time    0.0014: real time    0.0014
    CHARGE:  cpu time    0.2333: real time    0.2339
    MIXING:  cpu time    0.0041: real time    0.0041
    --------------------------------------------
      LOOP:  cpu time    5.1036: real time    5.1216

 eigenvalue-minimisations  :  3680
 total energy-change (2. order) : 0.1342254E-02  (-0.2698552E-03)
 number of electron     503.9998363 magnetization 
 augmentation part      197.1263733 magnetization 

 DIPCOR: dipole corrections for dipol
 direction  3 min pos     1,
 dipolmoment           0.000000      0.000000      0.051056 electrons x Angstroem
 Tr[quadrupol]    -10259.163135

 energy correction for charged system         0.000000 eV
 dipol+quadrupol energy correction           -0.000092 eV
 added-field ion interaction          0.024243 eV  (added to PSCEN)


 Broyden mixing:
  rms(total) = 0.35136E-01    rms(broyden)= 0.35132E-01
  rms(prec ) = 0.41329E-01
  weight for this iteration     100.00

 eigenvalues of (default mixing * dielectric matrix)
  average eigenvalue GAMMA=   0.7894
  2.3313  2.2149  2.2149  1.2058  0.7925  0.7925  0.6384  0.6384  0.3852  0.3852
  0.3143  0.3143  0.2683  0.2683  0.2297  0.2297  0.1951

 Free energy of the ion-electron system (eV)
  ---------------------------------------------------
  alpha Z        PSCENC =       805.89351561
  Ewald energy   TEWEN  =    200399.46291588
  -Hartree energ DENC   =   -242560.48543053
  -exchange      EXHF   =         0.00000000
  -V(xc)+E(xc)   XCENC  =      -343.31743156
  PAW double counting   =     49410.65568350   -47488.33354168
  entropy T*S    EENTRO =        -0.25055247
  eigenvalues    EBANDS =     -2071.78091702
  atomic energy  EATOM  =     41659.78587232
  Solvation  Ediel_sol  =         0.00000000
  ---------------------------------------------------
  free energy    TOTEN  =      -188.36988595 eV

  energy without entropy =     -188.11933348  energy(sigma->0) =     -188.24460971


--------------------------------------------------------------------------------------------------------




----------------------------------------- Iteration    1(  23)  ---------------------------------------


    POTLOK:  cpu time    0.0430: real time    0.0434
    SETDIJ:  cpu time    0.0055: real time    0.0055
    EDDIAG:  cpu time    1.2016: real time    1.2046
  RMM-DIIS:  cpu time    3.3576: real time    3.3657
[...]
    275       1.7592      0.00000
    276       1.8223      0.00000
    277       2.1513      0.00000
    278       2.2283      0.00000
    279       2.3002      0.00000
    280       2.3738      0.00000
    281       2.4941      0.00000
    282       2.5967      0.00000
    283       2.6883      0.00000
    284       2.9563      0.00000
    285       3.1761      0.00000
    286       3.2646      0.00000
    287       3.4994      0.00000
    288       3.6846      0.00000
    289       3.7434      0.00000
    290       3.9585      0.00000
    291       4.1009      0.00000
    292       4.2029      0.00000
    293       4.4982      0.00000
    294       4.5830      0.00000
    295       4.6069      0.00000
    296       4.6225      0.00000
    297       4.7199      0.00000
    298       4.8288      0.00000
    299       4.8782      0.00000
    300       4.9583      0.00000
    301       4.9735      0.00000
    302       5.0498      0.00000
    303       5.0732      0.00000
    304       5.1012      0.00000
    305       5.2182      0.00000
    306       5.2526      0.00000


--------------------------------------------------------------------------------------------------------


 soft charge-density along one line, spin component           1
         0         1         2         3         4         5         6         7         8         9
 total charge-density along one line
 
 pseudopotential strength for first ion, spin component:           1
 -8.000  -0.002   0.003  -0.005   0.000  -8.148  -0.002   0.003
 -0.002  -7.917  -0.001  -0.002   0.002  -0.002  -8.067  -0.001
  0.003  -0.001  -7.909   0.000  -0.002   0.003  -0.001  -8.059
 -0.005  -0.002   0.000  -7.914   0.000  -0.004  -0.002   0.000
  0.000   0.002  -0.002   0.000  -8.000   0.000   0.002  -0.002
 -8.148  -0.002   0.003  -0.004   0.000  -8.279  -0.002   0.003
 -0.002  -8.067  -0.001  -0.002   0.002  -0.002  -8.200  -0.001
  0.003  -0.001  -8.059   0.000  -0.002   0.003  -0.001  -8.192
 -0.004  -0.002   0.000  -8.064   0.000  -0.004  -0.002   0.000
  0.000   0.002  -0.002   0.000  -8.148   0.000   0.002  -0.002
  0.002   0.002  -0.027   0.001  -0.001   0.002   0.002  -0.026
  0.002   0.003  -0.039   0.001  -0.002   0.002   0.003  -0.038
  0.002   0.003  -0.001   0.000  -0.002   0.002   0.003  -0.001
  0.000   0.002   0.005   0.001  -0.000   0.000   0.002   0.005
  0.002   0.000  -0.001   0.003   0.001   0.002   0.000  -0.001
  0.002   0.003  -0.002   0.000  -0.003   0.002   0.002  -0.002
  0.000   0.002   0.005   0.002  -0.000   0.000   0.002   0.005
  0.002   0.000  -0.001   0.003   0.001   0.002   0.000  -0.001
 total augmentation occupancy for first ion, spin component:           1
  4.034  -0.018  -0.117   0.059  -0.109  -2.245  -0.004   0.121  -0.093   0.109  -0.114   0.052  -0.044  -0.011   0.007   0.003
 -0.018   4.083   0.039  -0.014   0.064  -0.004  -1.793  -0.031   0.004  -0.065  -0.074   0.017   0.159   0.015  -0.013  -0.005
 -0.117   0.039   4.224   0.008   0.057   0.121  -0.030  -2.100  -0.003  -0.065   0.950  -0.059   0.026   0.196   0.010  -0.002
  0.059  -0.014   0.008   4.143   0.046  -0.092   0.004  -0.003  -1.848  -0.033  -0.030   0.006  -0.013   0.005   0.178   0.000
 -0.109   0.064   0.057   0.046   3.882   0.109  -0.066  -0.065  -0.033  -2.106   0.062  -0.024   0.037   0.006   0.025  -0.004
 -2.245  -0.004   0.121  -0.092   0.109   2.331   0.022  -0.125   0.117  -0.109   0.105  -0.050   0.037   0.011  -0.009  -0.002
 -0.004  -1.793  -0.030   0.004  -0.066   0.022   1.478   0.024   0.004   0.066   0.066  -0.016  -0.150  -0.015   0.013   0.006
  0.121  -0.031  -2.100  -0.003  -0.065  -0.125   0.024   1.925  -0.001   0.071  -0.890   0.081  -0.021  -0.197  -0.008   0.001
 -0.093   0.004  -0.003  -1.848  -0.033   0.117   0.004  -0.001   1.530   0.023   0.030  -0.007   0.013  -0.005  -0.168  -0.000
  0.109  -0.065  -0.065  -0.033  -2.106  -0.109   0.066   0.071   0.023   2.202  -0.053   0.022  -0.031  -0.006  -0.023   0.002
 -0.114  -0.074   0.950  -0.030   0.062   0.105   0.066  -0.890   0.030  -0.053   2.309  -0.449   0.004  -0.114   0.003  -0.000
  0.052   0.017  -0.059   0.006  -0.024  -0.050  -0.016   0.081  -0.007   0.022  -0.449   0.128  -0.010   0.056  -0.007   0.000
 -0.044   0.159   0.026  -0.013   0.037   0.037  -0.150  -0.021   0.013  -0.031   0.004  -0.010   0.187   0.004   0.005  -0.005
 -0.011   0.015   0.196   0.005   0.006   0.011  -0.015  -0.197  -0.005  -0.006  -0.114   0.056   0.004   0.082   0.001  -0.000
  0.007  -0.013   0.010   0.178   0.025  -0.009   0.013  -0.008  -0.168  -0.023   0.003  -0.007   0.005   0.001   0.181  -0.000
  0.003  -0.005  -0.002   0.000  -0.004  -0.002   0.006   0.001  -0.000   0.002  -0.000   0.000  -0.005  -0.000  -0.000   0.000
  0.000   0.002  -0.002   0.001  -0.000  -0.000  -0.000   0.006  -0.000   0.000   0.007  -0.003  -0.000  -0.003  -0.000   0.000
  0.002   0.000  -0.001  -0.006   0.000  -0.000  -0.000   0.001   0.006   0.001  -0.000   0.000  -0.000  -0.000  -0.005   0.000


------------------------ aborting loop because EDIFF is reached ----------------------------------------


    CHARGE:  cpu time    0.2220: real time    0.2225
    FORLOC:  cpu time    0.0165: real time    0.0165
    FORNL :  cpu time    1.3022: real time    1.3053
    FORCOR:  cpu time    0.0571: real time    0.0583
    FORHAR:  cpu time    0.0246: real time    0.0246
    MIXING:  cpu time    0.0030: real time    0.0030
    OFIELD:  cpu time    0.0000: real time    0.0000

 VOLUME and BASIS-vectors are now :
 -----------------------------------------------------------------------------
  energy-cutoff  :      400.00
  volume of cell :     2567.68
      direct lattice vectors                 reciprocal lattice vectors
    11.002581515  0.000000000  0.000000000     0.090887761 -0.052474073  0.000000000
     5.501290758  9.528515099  0.000000000     0.000000000  0.104948147  0.000000000
     0.000000000  0.000000000 24.491785094     0.000000000  0.000000000  0.040830017

  length of vectors
    11.002581515 11.002581515 24.491785094     0.104948147  0.104948147  0.040830017


 FORCES acting on ions
    electron-ion (+dipol)            ewald-force                    non-local-force                 convergence-correction
 -----------------------------------------------------------------------------------------------
   0.431E+01 0.375E+01 -.230E+04   -.458E+01 -.420E+01 0.230E+04   0.268E+00 0.455E+00 -.143E+00   -.337E-02 0.186E-02 0.701E-02
   0.428E+01 -.632E+01 0.220E+04   -.439E+01 0.711E+01 -.220E+04   0.553E-01 -.603E+00 0.121E+00   -.171E-02 0.140E-03 -.160E-02
   -.436E+00 0.760E+01 -.469E+02   0.162E+00 -.669E+01 0.475E+02   0.273E+00 -.896E+00 -.633E+00   -.401E-02 0.276E-03 -.398E-02
   -.109E+02 -.283E+01 0.221E+04   0.115E+02 0.304E+01 -.221E+04   -.354E+00 -.150E+00 -.330E+00   0.518E-03 -.286E-02 -.246E-02
   0.108E+02 0.877E+01 -.100E+03   -.103E+02 -.907E+01 0.101E+03   -.484E+00 0.300E+00 -.520E+00   -.210E-02 -.457E-02 -.675E-02
   -.100E+02 0.114E+02 -.228E+04   0.104E+02 -.117E+02 0.228E+04   -.407E+00 0.352E+00 0.244E+00   -.448E-03 0.462E-03 -.687E-02
   -.855E+01 0.106E+02 -.560E+02   0.752E+01 -.106E+02 0.561E+02   0.102E+01 -.196E-02 -.156E+00   -.101E-02 -.125E-02 -.649E-02
   -.566E+00 0.164E+02 0.221E+04   0.749E+00 -.172E+02 -.221E+04   -.129E+00 0.458E+00 0.293E+00   0.120E-02 -.930E-03 -.123E-02
   0.478E+01 -.136E+02 -.235E+04   -.485E+01 0.147E+02 0.235E+04   0.817E-01 -.108E+01 -.182E+00   -.357E-02 0.228E-02 -.486E-02
   -.149E+01 -.219E+02 0.222E+04   0.147E+01 0.225E+02 -.222E+04   0.150E-01 -.347E+00 -.923E-01   -.302E-02 0.199E-02 -.183E-02
   0.473E+01 -.106E+02 -.496E+01   -.402E+01 0.102E+02 0.510E+01   -.710E+00 0.416E+00 -.137E+00   -.167E-02 0.157E-02 -.416E-02
   0.300E+01 0.306E+01 0.221E+04   -.307E+01 -.283E+01 -.221E+04   0.261E-01 -.215E+00 0.116E+00   -.123E-02 -.886E-03 0.877E-04
   0.130E+02 0.685E+01 -.229E+04   -.134E+02 -.709E+01 0.229E+04   0.363E+00 0.245E+00 0.103E-01   -.305E-02 0.206E-02 -.308E-02
   0.110E+02 0.261E+02 0.221E+04   -.115E+02 -.274E+02 -.221E+04   0.297E+00 0.913E+00 -.196E-01   -.229E-02 0.125E-03 -.269E-03
   -.314E+01 0.942E+01 -.226E+04   0.372E+01 -.985E+01 0.226E+04   -.582E+00 0.443E+00 0.405E+00   0.976E-03 -.183E-02 -.183E-02
   -.342E+01 0.271E+00 -.396E+02   0.359E+01 -.533E-01 0.402E+02   -.165E+00 -.214E+00 -.559E+00   0.383E-02 -.257E-02 -.457E-02
   -.892E+01 0.306E+01 0.274E+02   0.909E+01 -.241E+01 -.285E+02   -.191E+00 -.641E+00 0.109E+01   -.111E-02 0.176E-02 -.221E-02
   0.388E+01 0.111E+02 0.222E+04   -.428E+01 -.117E+02 -.222E+04   0.280E+00 0.434E+00 -.626E+00   0.246E-02 -.442E-02 -.669E-03
   -.506E+01 -.135E+01 -.227E+04   0.545E+01 0.157E+01 0.227E+04   -.392E+00 -.218E+00 0.373E+00   -.361E-03 -.138E-02 -.957E-03
   0.216E+01 -.110E+02 0.222E+04   -.217E+01 0.115E+02 -.222E+04   -.139E-01 -.291E+00 -.395E+00   0.309E-02 -.380E-03 0.430E-03
   -.137E+01 -.848E+01 0.117E+02   0.142E+01 0.863E+01 -.116E+02   -.388E-01 -.156E+00 -.752E-02   0.408E-02 0.181E-02 -.299E-02
   -.716E+01 -.631E+01 -.124E+02   0.641E+01 0.581E+01 0.125E+02   0.744E+00 0.491E+00 -.933E-01   -.266E-03 0.321E-02 -.334E-02
   -.102E+01 -.940E-01 0.722E+01   0.753E+00 0.236E+00 -.665E+01   0.268E+00 -.141E+00 -.562E+00   0.319E-02 -.684E-03 -.774E-02
   -.726E+01 0.594E+00 0.222E+04   0.769E+01 -.769E+00 -.222E+04   -.319E+00 0.146E+00 -.250E+00   0.274E-02 0.446E-04 -.554E-04
   -.126E+02 0.859E+00 -.201E+04   0.127E+02 -.110E+01 0.201E+04   -.677E-01 0.250E+00 0.168E+01   0.166E-02 -.110E-02 -.374E-02
   -.189E+02 0.109E+02 0.202E+04   0.195E+02 -.110E+02 -.202E+04   -.380E+00 0.412E-01 -.152E+01   0.281E-02 -.166E-02 -.695E-03
   0.781E+01 0.279E+01 -.264E+02   -.805E+01 -.301E+01 0.265E+02   0.235E+00 0.235E+00 -.668E-01   -.867E-03 -.299E-02 -.298E-02
   -.101E+02 0.189E+01 -.199E+04   0.100E+02 -.199E+01 0.199E+04   0.119E+00 0.988E-01 0.177E+01   -.139E-03 -.407E-03 -.347E-02
   0.796E+00 -.441E+01 -.864E+01   -.483E+00 0.406E+01 0.812E+01   -.308E+00 0.354E+00 0.527E+00   0.108E-02 0.154E-02 -.449E-02
   -.158E+02 -.756E+01 -.204E+04   0.159E+02 0.801E+01 0.203E+04   -.737E-01 -.451E+00 0.170E+01   -.541E-03 -.157E-02 -.270E-02
   -.161E+01 -.107E+01 -.339E+02   0.192E+01 0.105E+01 0.352E+02   -.304E+00 0.272E-01 -.128E+01   -.704E-03 0.126E-02 -.601E-02
   -.174E+01 0.138E+02 -.199E+04   0.168E+01 -.141E+02 0.199E+04   0.692E-01 0.244E+00 0.138E+01   0.136E-03 0.503E-03 -.315E-02
   0.564E+00 0.214E+01 -.545E+01   -.425E+00 -.203E+01 0.589E+01   -.155E+00 -.958E-01 -.442E+00   0.368E-02 -.300E-02 -.179E-02
   0.244E+01 -.197E+02 0.203E+04   -.244E+01 0.200E+02 -.202E+04   -.861E-02 -.584E-01 -.138E+01   0.581E-03 0.397E-03 -.157E-02
   -.636E+01 -.981E+01 0.203E+04   0.637E+01 0.995E+01 -.203E+04   0.295E-01 -.223E-01 -.142E+01   -.852E-03 0.230E-02 -.710E-03
   0.176E+02 0.148E+01 0.202E+04   -.179E+02 -.149E+01 -.202E+04   0.151E+00 -.264E-01 -.173E+01   0.812E-03 0.126E-02 -.439E-03
   0.962E+01 0.191E+02 0.203E+04   -.100E+02 -.193E+02 -.203E+04   0.247E+00 0.586E-01 -.143E+01   -.183E-02 -.348E-03 -.299E-03
   0.465E+00 0.282E+01 0.121E+02   -.222E+00 -.252E+01 -.121E+02   -.253E+00 -.293E+00 0.257E-01   0.184E-02 -.142E-02 -.497E-02
   0.514E+01 0.167E+01 -.199E+04   -.504E+01 -.189E+01 0.199E+04   -.957E-01 0.221E+00 0.180E+01   0.108E-02 -.861E-03 -.387E-02
   -.422E+01 -.298E+01 0.203E+04   0.433E+01 0.310E+01 -.203E+04   -.315E-01 -.108E+00 -.157E+01   -.245E-02 0.307E-02 -.777E-03
   0.167E+02 -.676E+01 -.200E+04   -.170E+02 0.703E+01 0.200E+04   0.288E+00 -.268E+00 0.176E+01   -.151E-04 0.561E-04 -.590E-02
   -.285E+01 -.139E+02 0.202E+04   0.283E+01 0.141E+02 -.202E+04   0.631E-01 -.131E+00 -.129E+01   -.649E-03 0.144E-02 -.294E-03
   0.247E+01 -.502E+01 -.141E+02   -.247E+01 0.475E+01 0.146E+02   -.583E-02 0.262E+00 -.484E+00   0.140E-03 -.581E-03 -.284E-02
   0.900E+01 -.909E+01 -.201E+04   -.917E+01 0.914E+01 0.201E+04   0.162E+00 -.484E-01 0.169E+01   0.720E-03 -.681E-03 -.676E-02
   0.106E+01 0.833E+00 -.217E+02   -.137E+01 -.859E+00 0.229E+02   0.306E+00 0.312E-01 -.122E+01   0.235E-02 -.177E-02 -.682E-02
   0.933E+01 -.396E+01 -.197E+04   -.949E+01 0.410E+01 0.197E+04   0.166E+00 -.144E+00 0.125E+01   -.353E-03 -.138E-03 -.303E-02
   0.230E+01 -.220E+01 -.201E+04   -.244E+01 0.217E+01 0.201E+04   0.142E+00 0.314E-01 0.154E+01   0.580E-03 -.171E-04 -.356E-02
   -.361E+01 -.817E+01 -.202E+04   0.382E+01 0.809E+01 0.202E+04   -.197E+00 0.706E-01 0.151E+01   -.368E-02 0.105E-02 -.335E-02
 -----------------------------------------------------------------------------------------------
   0.607E-02 0.197E-01 -.647E+00   0.439E-12 -.568E-13 0.159E-11   0.682E-02 -.184E-01 0.754E+00   -.173E-02 -.786E-02 -.135E+00
 
 
 POSITION                                       TOTAL-FORCE (eV/Angst)
 -----------------------------------------------------------------------------------
      8.24655     -0.02068     15.02421        -0.001270      0.006410     -0.013263
     12.37790      5.55830     10.00000        -0.059051      0.184967     -0.150187
     10.98140      6.37475     12.50073        -0.004642      0.014764     -0.000435
      4.12597      5.55830     10.00000         0.215484      0.052027     -0.123802
     12.37677      3.96689     12.56113        -0.005323     -0.006602      0.006120
      1.39241      2.36795     15.01117         0.009953     -0.006021      0.006851
      9.59540      3.97702     12.50043        -0.004564      0.005957      0.010989
      2.75065      3.17617     10.00000         0.055650     -0.273061     -0.184048
     11.00401      4.79263     15.09420         0.001986     -0.001328      0.014880
     13.75323      7.94043     10.00000        -0.003877      0.268052     -0.234089
     15.14137      8.72936     12.44523        -0.003387     -0.013490     -0.001462
      9.62726      5.55830     10.00000        -0.046595      0.011620     -0.213994
      9.61751      2.37282     15.03267         0.004716      0.003285      0.003947
     11.00258      3.17617     10.00000        -0.179522     -0.420185     -0.081029
      2.77266     -0.02156     14.94162         0.001327      0.004438      0.002903
      4.13296      3.98539     12.49062         0.006773      0.001664     -0.002585
      8.25637      1.60409     12.40013        -0.016900      0.004529      0.000225
      6.87661      5.55830     10.00000        -0.117377     -0.194808     -0.080504
      5.52210      4.77180     14.93788         0.000728      0.000942      0.002201
      8.25194      7.94043     10.00000        -0.016536      0.169504     -0.153812
      6.87604      8.74856     12.42912         0.009343     -0.003102      0.004060
     12.35863      8.73534     12.45570        -0.009142      0.000397     -0.007570
      5.48385      1.59767     12.43898         0.000623      0.000520     -0.005141
      4.12597      0.79404     10.00000         0.116191     -0.029075     -0.152428
      4.14197      2.37244     14.85560        -0.003448      0.010524      0.003598
      5.50129      3.17617     10.00000         0.176690     -0.057247      0.187450
      2.73018      1.58404     12.47761        -0.002095      0.009496      0.000517
      4.12931      7.14293     14.82659         0.011123     -0.004920      0.006396
     11.00539      1.59197     12.44918         0.004737      0.009679      0.004630
      2.76792      4.78418     14.89724         0.008982     -0.000166      0.013746
     13.75899      6.35510     12.48772         0.004515      0.009494     -0.008589
      0.00327     -0.02211     14.84921         0.009257     -0.000350     -0.001649
      5.51026      6.35265     12.44456        -0.013018      0.003693     -0.002331
      5.50129      7.94043     10.00000        -0.007824      0.234330      0.160097
      6.87661      0.79404     10.00000         0.038488      0.121888      0.104210
      1.37532      0.79404     10.00000        -0.166940     -0.037081      0.261083
      8.25194      3.17617     10.00000        -0.130681     -0.222245      0.172464
      6.87013      4.00035     12.42581        -0.007813      0.002890     -0.004746
      6.88518      7.14351     14.81325         0.006030      0.001507      0.005144
      9.62726      0.79404     10.00000         0.070112      0.014128      0.215012
      8.24783      4.77650     14.85115         0.004541      0.000963      0.001924
     11.00258      7.94043     10.00000         0.036911      0.124521      0.214865
      9.60362      8.73792     12.46192        -0.006202     -0.006062     -0.004326
      9.62833      7.14384     14.84934        -0.002494     -0.003424      0.011677
      8.22778      6.36096     12.46735         0.003318      0.003585      0.005784
      6.87911      2.37764     14.81453         0.009049     -0.000101     -0.002960
      5.50620     -0.00231     14.85158        -0.000503      0.004426      0.000941
     12.38631      7.14519     14.86890         0.002675     -0.000931      0.007237
 -----------------------------------------------------------------------------------
    total drift:                                0.011165     -0.006569     -0.028506


--------------------------------------------------------------------------------------------------------



  FREE ENERGIE OF THE ION-ELECTRON SYSTEM (eV)
  ---------------------------------------------------
  free  energy   TOTEN  =      -191.92968962 eV

  energy  without entropy=     -191.70977387  energy(sigma->0) =     -191.81973175
 
 d Force = 0.7859015E-03[ 0.277E-03, 0.129E-02]  d Energy = 0.7821403E-03 0.376E-05
 d Force = 0.3389714E+02[ 0.339E+02, 0.339E+02]  d Ewald  = 0.3389714E+02-0.893E-06


--------------------------------------------------------------------------------------------------------


    POTLOK:  cpu time    0.0481: real time    0.0483


--------------------------------------------------------------------------------------------------------


 stress matrix after NEB project (eV)
      0.00000      0.00000      0.00000
      0.00000      0.00000      0.00000
      0.00000      0.00000      0.00000
  FORCES: max atom, RMS     0.017498    0.009157
  FORCE total and by dimension    0.063442    0.016900
  Stress total and by dimension    0.000000    0.000000
 Conjugate gradient step on ions:
 trial-energy change:   -0.000782  1 .order   -0.000786   -0.001294   -0.000277
  (g-gl).g = 0.417E-03      g.g   = 0.488E-03  gl.gl    = 0.113E-02
 g(Force)  = 0.488E-03   g(Stress)= 0.000E+00 ortho     = 0.634E-04
 gamma     =   0.37007
 trial     =   2.52979
 opt step  =   3.21974  (harmonic =   3.21974) maximal distance =0.00480476
 next E    =  -191.929731   (d E  =  -0.00082)


--------------------------------------------------------------------------------------------------------


  
 reached required accuracy - stopping structural energy minimisation
     LOOP+:  cpu time   55.7895: real time   56.0879
    4ORBIT:  cpu time    0.0000: real time    0.0000

 total amount of memory used by VASP on root node    84353. kBytes
========================================================================

   base      :      30000. kBytes
   nonlr-proj:       4285. kBytes
   fftplans  :       4447. kBytes
   grid      :       6721. kBytes
   one-center:        124. kBytes
   wavefun   :      38776. kBytes
 
  
  
 General timing and accounting informations for this job:
 ========================================================
  
                  Total CPU time used (sec):     1327.877
                            User time (sec):     1262.824
                          System time (sec):       65.053
                         Elapsed time (sec):     1335.870
  
                   Maximum memory used (kb):      768436.
                   Average memory used (kb):           0.
  
                          Minor page faults:       623809
                          Major page faults:            0
                 Voluntary context switches:         9046
