<?xml version="1.0" encoding="ISO-8859-1"?>
<modeling>
 <generator>
  <i name="program" type="string">vasp </i>
  <i name="version" type="string">5.4.1  </i>
  <i name="subversion" type="string">24Jun15 (build Mar 14 2019 10:18:33) complex                          parallel </i>
  <i name="platform" type="string">INTEL-19.0.2+OPENMPI-3.1.3 </i>
  <i name="date" type="string">2023 01 31 </i>
  <i name="time" type="string">01:29:14 </i>
 </generator>
 <incar>
  <i type="int" name="ISTART">     0</i>
  <i type="string" name="PREC">normal</i>
  <i type="string" name="ALGO"> Fast</i>
  <i type="int" name="NELM">   500</i>
  <i type="int" name="IBRION">     2</i>
  <i type="int" name="NFREE">     2</i>
  <i name="EDIFF">      0.00000100</i>
  <i name="EDIFFG">     -0.02000000</i>
  <i type="int" name="NSW">   500</i>
  <i type="int" name="ISIF">     0</i>
  <i type="int" name="ISYM">     2</i>
  <i name="ENCUT">    400.00000000</i>
  <i name="POTIM">      0.35000000</i>
  <i type="string" name="LREAL"> Auto</i>
  <i type="logical" name="LPLANE"> T  </i>
  <i type="int" name="ISMEAR">     0</i>
  <i name="SIGMA">      0.10000000</i>
  <i type="int" name="NWRITE">     1</i>
  <i type="logical" name="LWAVE"> F  </i>
  <i type="logical" name="LCHARG"> F  </i>
  <i type="logical" name="LVTOT"> F  </i>
  <i type="logical" name="LORBIT"> F  </i>
  <i type="logical" name="LAECHG"> F  </i>
  <v type="int" name="KPOINT_BSE">    -1     0     0     0</v>
  <i type="int" name="NELM">   500</i>
  <i type="string" name="GGA"> PE          ! optPBE-vdW XC-functional</i>
  <i type="int" name="VOSKOWN">     1</i>
  <i type="logical" name="LDIPOL"> T  </i>
  <i type="logical" name="LMONO"> F  </i>
  <i type="int" name="IDIPOL">     3</i>
  <v name="DIPOL">      0.00000000      0.00000000      0.50000000</v>
 </incar>
 <kpoints>
  <generation param="Monkhorst-Pack">
   <v type="int" name="divisions">       2        2        1 </v>
   <v name="usershift">      0.00000000       0.00000000       0.00000000 </v>
   <v name="genvec1">      0.50000000      -0.00000000       0.00000000 </v>
   <v name="genvec2">      0.00000000       0.50000000       0.00000000 </v>
   <v name="genvec3">      0.00000000       0.00000000       1.00000000 </v>
   <v name="shift">      0.50000000       0.50000000       0.00000000 </v>
  </generation>
  <varray name="kpointlist" >
   <v>       0.25000000       0.25000000       0.00000000 </v>
   <v>       0.00000000       0.25000000       0.00000000 </v>
   <v>      -0.25000000       0.00000000       0.00000000 </v>
   <v>      -0.25000000       0.25000000       0.00000000 </v>
   <v>       0.50000000      -0.25000000       0.00000000 </v>
   <v>      -0.25000000       0.50000000       0.00000000 </v>
  </varray>
  <varray name="weights" >
   <v>       0.16666667 </v>
   <v>       0.16666667 </v>
   <v>       0.16666667 </v>
   <v>       0.16666667 </v>
   <v>       0.16666667 </v>
   <v>       0.16666667 </v>
  </varray>
 </kpoints>
 <parameters>
  <separator name="general" >
   <i type="string" name="SYSTEM">unknown system</i>
   <i type="logical" name="LCOMPAT"> F  </i>
  </separator>
  <separator name="electronic" >
   <i type="string" name="PREC">normal</i>
   <i name="ENMAX">    400.00000000</i>
   <i name="ENAUG">    416.23000000</i>
   <i name="EDIFF">      0.00000100</i>
   <i type="int" name="IALGO">    68</i>
   <i type="int" name="IWAVPR">    11</i>
   <i type="int" name="NBANDS">   306</i>
   <i name="NELECT">    504.00000000</i>
   <i type="int" name="TURBO">     0</i>
   <i type="int" name="IRESTART">     0</i>
   <i type="int" name="NREBOOT">     0</i>
   <i type="int" name="NMIN">     0</i>
   <i name="EREF">      0.00000000</i>
   <separator name="electronic smearing" >
    <i type="int" name="ISMEAR">     0</i>
    <i name="SIGMA">      0.10000000</i>
    <i name="KSPACING">      0.50000000</i>
    <i type="logical" name="KGAMMA"> T  </i>
   </separator>
   <separator name="electronic projectors" >
    <i type="logical" name="LREAL"> T  </i>
    <v name="ROPT">     -0.00050000     -0.00050000</v>
    <i type="int" name="LMAXPAW">  -100</i>
    <i type="int" name="LMAXMIX">     2</i>
    <i type="logical" name="NLSPLINE"> F  </i>
   </separator>
   <separator name="electronic startup" >
    <i type="int" name="ISTART">     0</i>
    <i type="int" name="ICHARG">     2</i>
    <i type="int" name="INIWAV">     1</i>
   </separator>
   <separator name="electronic spin" >
    <i type="int" name="ISPIN">     1</i>
    <i type="logical" name="LNONCOLLINEAR"> F  </i>
    <v name="MAGMOM">      1.00000000      1.00000000      1.00000000      1.00000000      1.00000000      1.00000000      1.00000000      1.00000000      1.00000000      1.00000000      1.00000000      1.00000000      1.00000000      1.00000000      1.00000000      1.00000000      1.00000000      1.00000000      1.00000000      1.00000000
      1.00000000      1.00000000      1.00000000      1.00000000      1.00000000      1.00000000      1.00000000      1.00000000      1.00000000      1.00000000      1.00000000      1.00000000      1.00000000      1.00000000      1.00000000      1.00000000      1.00000000      1.00000000      1.00000000      1.00000000
      1.00000000      1.00000000      1.00000000      1.00000000      1.00000000      1.00000000      1.00000000      1.00000000</v>
    <i name="NUPDOWN">     -1.00000000</i>
    <i type="logical" name="LSORBIT"> F  </i>
    <v name="SAXIS">      0.00000000      0.00000000      1.00000000</v>
    <i type="logical" name="LSPIRAL"> F  </i>
    <v name="QSPIRAL">      0.00000000      0.00000000      0.00000000</v>
    <i type="logical" name="LZEROZ"> F  </i>
   </separator>
   <separator name="electronic exchange-correlation" >
    <i type="logical" name="LASPH"> F  </i>
    <i type="logical" name="LMETAGGA"> F  </i>
   </separator>
   <separator name="electronic convergence" >
    <i type="int" name="NELM">   500</i>
    <i type="int" name="NELMDL">    -5</i>
    <i type="int" name="NELMIN">     2</i>
    <i name="ENINI">    400.00000000</i>
    <separator name="electronic convergence detail" >
     <i type="logical" name="LDIAG"> T  </i>
     <i type="logical" name="LSUBROT"> F  </i>
     <i name="WEIMIN">      0.00100000</i>
     <i name="EBREAK">      0.00000000</i>
     <i name="DEPER">      0.30000000</i>
     <i type="int" name="NRMM">     4</i>
     <i name="TIME">      0.40000000</i>
    </separator>
   </separator>
   <separator name="electronic mixer" >
    <i name="AMIX">      0.40000000</i>
    <i name="BMIX">      1.00000000</i>
    <i name="AMIN">      0.10000000</i>
    <i name="AMIX_MAG">      1.60000000</i>
    <i name="BMIX_MAG">      1.00000000</i>
    <separator name="electronic mixer details" >
     <i type="int" name="IMIX">     4</i>
     <i type="logical" name="MIXFIRST"> F  </i>
     <i type="int" name="MAXMIX">   -45</i>
     <i name="WC">    100.00000000</i>
     <i type="int" name="INIMIX">     1</i>
     <i type="int" name="MIXPRE">     1</i>
     <i type="int" name="MREMOVE">     5</i>
    </separator>
   </separator>
   <separator name="electronic dipolcorrection" >
    <i type="logical" name="LDIPOL"> T  </i>
    <i type="logical" name="LMONO"> F  </i>
    <i type="int" name="IDIPOL">     3</i>
    <i name="EPSILON">      1.00000000</i>
    <v name="DIPOL">      0.00000000      0.00000000      0.50000000</v>
    <i name="EFIELD">      0.00000000</i>
   </separator>
  </separator>
  <separator name="grids" >
   <i type="int" name="NGX">    54</i>
   <i type="int" name="NGY">    54</i>
   <i type="int" name="NGZ">   120</i>
   <i type="int" name="NGXF">   108</i>
   <i type="int" name="NGYF">   108</i>
   <i type="int" name="NGZF">   240</i>
   <i type="logical" name="ADDGRID"> F  </i>
  </separator>
  <separator name="ionic" >
   <i type="int" name="NSW">   500</i>
   <i type="int" name="IBRION">     2</i>
   <i type="int" name="ISIF">     0</i>
   <i name="PSTRESS">      0.00000000</i>
   <i name="EDIFFG">     -0.02000000</i>
   <i type="int" name="NFREE">     2</i>
   <i name="POTIM">      0.35000000</i>
   <i name="SMASS">     -3.00000000</i>
   <i name="SCALEE">      1.00000000</i>
  </separator>
  <separator name="ionic md" >
   <i name="TEBEG">      0.00010000</i>
   <i name="TEEND">      0.00010000</i>
   <i type="int" name="NBLOCK">     1</i>
   <i type="int" name="KBLOCK">   500</i>
   <i type="int" name="NPACO">   256</i>
   <i name="APACO">     16.00000000</i>
  </separator>
  <separator name="symmetry" >
   <i type="int" name="ISYM">     2</i>
   <i name="SYMPREC">      0.00001000</i>
  </separator>
  <separator name="dos" >
   <i type="logical" name="LORBIT"> F  </i>
   <v name="RWIGS">     -1.00000000     -1.00000000</v>
   <i type="int" name="NEDOS">   301</i>
   <i name="EMIN">     10.00000000</i>
   <i name="EMAX">    -10.00000000</i>
   <i name="EFERMI">      0.00000000</i>
  </separator>
  <separator name="writing" >
   <i type="int" name="NWRITE">     1</i>
   <i type="logical" name="LWAVE"> F  </i>
   <i type="logical" name="LCHARG"> F  </i>
   <i type="logical" name="LPARD"> F  </i>
   <i type="logical" name="LVTOT"> F  </i>
   <i type="logical" name="LVHAR"> F  </i>
   <i type="logical" name="LELF"> F  </i>
   <i type="logical" name="LOPTICS"> F  </i>
   <v name="STM">      0.00000000      0.00000000      0.00000000      0.00000000      0.00000000      0.00000000      0.00000000</v>
  </separator>
  <separator name="performance" >
   <i type="int" name="NPAR">     6</i>
   <i type="int" name="NSIM">     4</i>
   <i type="int" name="NBLK">    -1</i>
   <i type="logical" name="LPLANE"> T  </i>
   <i type="logical" name="LSCALAPACK"> T  </i>
   <i type="logical" name="LSCAAWARE"> F  </i>
   <i type="logical" name="LSCALU"> F  </i>
   <i type="logical" name="LASYNC"> F  </i>
   <i type="logical" name="LORBITALREAL"> F  </i>
  </separator>
  <separator name="miscellaneous" >
   <i type="int" name="IDIOT">     3</i>
   <i type="logical" name="LMUSIC"> F  </i>
   <v name="POMASS">    196.96600000    106.42000000</v>
   <v name="DARWINR">      0.00000000      0.00000000</v>
   <v name="DARWINV">      1.00000000      1.00000000</v>
   <i type="logical" name="LCORR"> T  </i>
  </separator>
  <i type="logical" name="GGA_COMPAT"> T  </i>
  <i type="logical" name="LBERRY"> F  </i>
  <i type="int" name="ICORELEVEL">     0</i>
  <i type="logical" name="LDAU"> F  </i>
  <i type="int" name="I_CONSTRAINED_M">     0</i>
  <separator name="electronic exchange-correlation" >
   <i type="string" name="GGA">PE</i>
   <i type="int" name="VOSKOWN">     1</i>
   <i type="logical" name="LHFCALC"> F  </i>
   <i type="string" name="PRECFOCK"></i>
   <i type="logical" name="LSYMGRAD"> F  </i>
   <i type="logical" name="LHFONE"> F  </i>
   <i type="logical" name="LRHFCALC"> F  </i>
   <i type="logical" name="LTHOMAS"> F  </i>
   <i type="logical" name="LMODELHF"> F  </i>
   <i name="ENCUT4O">     -1.00000000</i>
   <i type="int" name="EXXOEP">     0</i>
   <i type="int" name="FOURORBIT">     0</i>
   <i name="AEXX">      0.00000000</i>
   <i name="HFALPHA">      0.00000000</i>
   <i name="MCALPHA">      0.00000000</i>
   <i name="ALDAX">      1.00000000</i>
   <i name="AGGAX">      1.00000000</i>
   <i name="ALDAC">      1.00000000</i>
   <i name="AGGAC">      1.00000000</i>
   <i type="int" name="NKREDX">     1</i>
   <i type="int" name="NKREDY">     1</i>
   <i type="int" name="NKREDZ">     1</i>
   <i type="logical" name="SHIFTRED"> F  </i>
   <i type="logical" name="ODDONLY"> F  </i>
   <i type="logical" name="EVENONLY"> F  </i>
   <i type="int" name="LMAXFOCK">     0</i>
   <i type="int" name="NMAXFOCKAE">     0</i>
   <i type="logical" name="LFOCKAEDFT"> F  </i>
   <i name="HFSCREEN">      0.00000000</i>
   <i name="HFSCREENC">      0.00000000</i>
   <i type="int" name="NBANDSGWLOW">     0</i>
  </separator>
  <separator name="vdW DFT" >
   <i type="logical" name="LUSE_VDW"> F  </i>
   <i name="Zab_VDW">     -0.84910000</i>
   <i name="PARAM1">      0.12340000</i>
   <i name="PARAM2">      1.00000000</i>
   <i name="PARAM3">      0.00000000</i>
  </separator>
  <separator name="model GW" >
   <i type="int" name="MODEL_GW">     0</i>
   <i name="MODEL_EPS0">     32.09595293</i>
   <i name="MODEL_ALPHA">      1.00000000</i>
  </separator>
  <separator name="linear response parameters" >
   <i type="logical" name="LEPSILON"> F  </i>
   <i type="logical" name="LRPA"> F  </i>
   <i type="logical" name="LNABLA"> F  </i>
   <i type="logical" name="LVEL"> F  </i>
   <i type="int" name="KINTER">     0</i>
   <i name="CSHIFT">      0.10000000</i>
   <i name="OMEGAMAX">     -1.00000000</i>
   <i name="DEG_THRESHOLD">      0.00200000</i>
  </separator>
  <separator name="orbital magnetization" >
   <i type="logical" name="NUCIND"> F  </i>
   <v name="MAGPOS">      0.00000000      0.00000000      0.00000000</v>
   <i type="logical" name="LNICSALL"> T  </i>
   <i type="logical" name="ORBITALMAG"> F  </i>
   <i type="logical" name="LMAGBLOCH"> F  </i>
   <i type="logical" name="LCHIMAG"> F  </i>
   <i type="logical" name="LGAUGE"> T  </i>
   <i type="int" name="MAGATOM">     0</i>
   <v name="MAGDIPOL">      0.00000000      0.00000000      0.00000000</v>
   <v name="AVECCONST">      0.00000000      0.00000000      0.00000000</v>
  </separator>
  <separator name="response functions" >
   <i type="logical" name="LADDER"> F  </i>
   <i type="logical" name="LFXC"> F  </i>
   <i type="logical" name="LHARTREE"> T  </i>
   <i type="int" name="IBSE">     0</i>
   <v type="int" name="KPOINT">    -1     0     0     0</v>
   <i type="logical" name="LTCTE"> F  </i>
   <i type="logical" name="LTETE"> F  </i>
   <i type="logical" name="LTRIPLET"> F  </i>
   <i type="logical" name="LFXCEPS"> F  </i>
   <i type="logical" name="LFXHEG"> F  </i>
   <i type="int" name="NATURALO">     0</i>
   <i type="logical" name="L2ORDER"> F  </i>
   <i type="logical" name="LUSEW"> F  </i>
   <i name="ENCUTGW">     -2.00000000</i>
   <i name="ENCUTGWSOFT">     -2.00000000</i>
   <i name="ENCUTLF">     -1.00000000</i>
   <i type="int" name="LMAXMP2">    -1</i>
   <i name="SCISSOR">      0.00000000</i>
   <i type="int" name="NOMEGA">     0</i>
   <i type="int" name="NOMEGAR">     0</i>
   <i type="int" name="NBANDSGW">    -1</i>
   <i type="int" name="NBANDSO">    -1</i>
   <i type="int" name="NBANDSV">    -1</i>
   <i type="int" name="NELM">   500</i>
   <i type="int" name="NELMHF">     1</i>
   <i type="int" name="DIM">     3</i>
   <i type="int" name="ANTIRES">     0</i>
   <i name="OMEGAMAX">    -30.00000000</i>
   <i name="OMEGAMIN">    -30.00000000</i>
   <i name="OMEGATL">   -200.00000000</i>
   <i type="int" name="OMEGAGRID">     0</i>
   <i name="CSHIFT">     -0.10000000</i>
   <i type="logical" name="SELFENERGY"> F  </i>
   <i type="logical" name="LSPECTRAL"> F  </i>
   <i type="logical" name="LSPECTRALGW"> F  </i>
   <i type="logical" name="LSINGLES"> F  </i>
   <i type="logical" name="LFERMIGW"> F  </i>
   <i type="logical" name="ODDONLYGW"> F  </i>
   <i type="logical" name="EVENONLYGW"> F  </i>
   <i type="int" name="NKREDLFX">     1</i>
   <i type="int" name="NKREDLFY">     1</i>
   <i type="int" name="NKREDLFZ">     1</i>
   <i type="int" name="MAXMEM">  1800</i>
   <i type="int" name="TELESCOPE">     0</i>
   <i type="int" name="TAUPAR">     1</i>
   <i type="int" name="OMEGAPAR">    -1</i>
   <i name="LAMBDA">      1.00000000</i>
  </separator>
  <separator name="External order field" >
   <i name="OFIELD_KAPPA">      0.00000000</i>
   <v name="OFIELD_K">      0.00000000      0.00000000      0.00000000</v>
   <i name="OFIELD_Q6_NEAR">      0.00000000</i>
   <i name="OFIELD_Q6_FAR">      0.00000000</i>
   <i name="OFIELD_A">      0.00000000</i>
  </separator>
 </parameters>
 <atominfo>
  <atoms>      48 </atoms>
  <types>       2 </types>
  <array name="atoms" >
   <dimension dim="1">ion</dimension>
   <field type="string">element</field>
   <field type="int">atomtype</field>
   <set>
    <rc><c>Au</c><c>   1</c></rc>
    <rc><c>Au</c><c>   1</c></rc>
    <rc><c>Au</c><c>   1</c></rc>
    <rc><c>Au</c><c>   1</c></rc>
    <rc><c>Au</c><c>   1</c></rc>
    <rc><c>Au</c><c>   1</c></rc>
    <rc><c>Au</c><c>   1</c></rc>
    <rc><c>Au</c><c>   1</c></rc>
    <rc><c>Au</c><c>   1</c></rc>
    <rc><c>Au</c><c>   1</c></rc>
    <rc><c>Au</c><c>   1</c></rc>
    <rc><c>Au</c><c>   1</c></rc>
    <rc><c>Au</c><c>   1</c></rc>
    <rc><c>Au</c><c>   1</c></rc>
    <rc><c>Au</c><c>   1</c></rc>
    <rc><c>Au</c><c>   1</c></rc>
    <rc><c>Au</c><c>   1</c></rc>
    <rc><c>Au</c><c>   1</c></rc>
    <rc><c>Au</c><c>   1</c></rc>
    <rc><c>Au</c><c>   1</c></rc>
    <rc><c>Au</c><c>   1</c></rc>
    <rc><c>Au</c><c>   1</c></rc>
    <rc><c>Au</c><c>   1</c></rc>
    <rc><c>Au</c><c>   1</c></rc>
    <rc><c>Pd</c><c>   2</c></rc>
    <rc><c>Pd</c><c>   2</c></rc>
    <rc><c>Pd</c><c>   2</c></rc>
    <rc><c>Pd</c><c>   2</c></rc>
    <rc><c>Pd</c><c>   2</c></rc>
    <rc><c>Pd</c><c>   2</c></rc>
    <rc><c>Pd</c><c>   2</c></rc>
    <rc><c>Pd</c><c>   2</c></rc>
    <rc><c>Pd</c><c>   2</c></rc>
    <rc><c>Pd</c><c>   2</c></rc>
    <rc><c>Pd</c><c>   2</c></rc>
    <rc><c>Pd</c><c>   2</c></rc>
    <rc><c>Pd</c><c>   2</c></rc>
    <rc><c>Pd</c><c>   2</c></rc>
    <rc><c>Pd</c><c>   2</c></rc>
    <rc><c>Pd</c><c>   2</c></rc>
    <rc><c>Pd</c><c>   2</c></rc>
    <rc><c>Pd</c><c>   2</c></rc>
    <rc><c>Pd</c><c>   2</c></rc>
    <rc><c>Pd</c><c>   2</c></rc>
    <rc><c>Pd</c><c>   2</c></rc>
    <rc><c>Pd</c><c>   2</c></rc>
    <rc><c>Pd</c><c>   2</c></rc>
    <rc><c>Pd</c><c>   2</c></rc>
   </set>
  </array>
  <array name="atomtypes" >
   <dimension dim="1">type</dimension>
   <field type="int">atomspertype</field>
   <field type="string">element</field>
   <field>mass</field>
   <field>valence</field>
   <field type="string">pseudopotential</field>
   <set>
    <rc><c>  24</c><c>Au</c><c>    196.96600000</c><c>     11.00000000</c><c>  PAW_PBE Au 04Oct2007                  </c></rc>
    <rc><c>  24</c><c>Pd</c><c>    106.42000000</c><c>     10.00000000</c><c>  PAW_PBE Pd 04Jan2005                  </c></rc>
   </set>
  </array>
 </atominfo>
 <structure name="initialpos" >
  <crystal>
   <varray name="basis" >
    <v>      11.00258152       0.00000000       0.00000000 </v>
    <v>       5.50129076       9.52851510       0.00000000 </v>
    <v>       0.00000000       0.00000000      24.49178509 </v>
   </varray>
   <i name="volume">   2567.67623402 </i>
   <varray name="rec_basis" >
    <v>       0.09088776      -0.05247407       0.00000000 </v>
    <v>       0.00000000       0.10494815       0.00000000 </v>
    <v>       0.00000000       0.00000000       0.04083002 </v>
   </varray>
  </crystal>
  <varray name="positions" >
   <v>       0.75000000       0.00000000       0.59169983 </v>
   <v>       0.83333333       0.58333333       0.40830017 </v>
   <v>       0.66666667       0.66666667       0.50000000 </v>
   <v>       0.08333333       0.58333333       0.40830017 </v>
   <v>       0.91666667       0.41666667       0.50000000 </v>
   <v>       0.00000000       0.25000000       0.59169983 </v>
   <v>       0.66666667       0.41666667       0.50000000 </v>
   <v>       0.08333333       0.33333333       0.40830017 </v>
   <v>       0.75000000       0.50000000       0.59169983 </v>
   <v>       0.83333333       0.83333333       0.40830017 </v>
   <v>       0.91666667       0.91666667       0.50000000 </v>
   <v>       0.58333333       0.58333333       0.40830017 </v>
   <v>       0.75000000       0.25000000       0.59169983 </v>
   <v>       0.83333333       0.33333333       0.40830017 </v>
   <v>       0.25000000       0.00000000       0.59169983 </v>
   <v>       0.16666667       0.41666667       0.50000000 </v>
   <v>       0.66666667       0.16666667       0.50000000 </v>
   <v>       0.33333333       0.58333333       0.40830017 </v>
   <v>       0.25000000       0.50000000       0.59169983 </v>
   <v>       0.33333333       0.83333333       0.40830017 </v>
   <v>       0.16666667       0.91666667       0.50000000 </v>
   <v>       0.66666667       0.91666667       0.50000000 </v>
   <v>       0.41666667       0.16666667       0.50000000 </v>
   <v>       0.33333333       0.08333333       0.40830017 </v>
   <v>       0.25000000       0.25000000       0.59169983 </v>
   <v>       0.33333333       0.33333333       0.40830017 </v>
   <v>       0.16666667       0.16666667       0.50000000 </v>
   <v>       0.00000000       0.75000000       0.59169983 </v>
   <v>       0.91666667       0.16666667       0.50000000 </v>
   <v>       0.00000000       0.50000000       0.59169983 </v>
   <v>       0.91666667       0.66666667       0.50000000 </v>
   <v>       0.00000000       0.00000000       0.59169983 </v>
   <v>       0.16666667       0.66666667       0.50000000 </v>
   <v>       0.08333333       0.83333333       0.40830017 </v>
   <v>       0.58333333       0.08333333       0.40830017 </v>
   <v>       0.08333333       0.08333333       0.40830017 </v>
   <v>       0.58333333       0.33333333       0.40830017 </v>
   <v>       0.41666667       0.41666667       0.50000000 </v>
   <v>       0.25000000       0.75000000       0.59169983 </v>
   <v>       0.83333333       0.08333333       0.40830017 </v>
   <v>       0.50000000       0.50000000       0.59169983 </v>
   <v>       0.58333333       0.83333333       0.40830017 </v>
   <v>       0.41666667       0.91666667       0.50000000 </v>
   <v>       0.50000000       0.75000000       0.59169983 </v>
   <v>       0.41666667       0.66666667       0.50000000 </v>
   <v>       0.50000000       0.25000000       0.59169983 </v>
   <v>       0.50000000       0.00000000       0.59169983 </v>
   <v>       0.75000000       0.75000000       0.59169983 </v>
  </varray>
  <varray name="selective"  type="logical" >
   <v type="logical" >  T  T  T </v>
   <v type="logical" >  F  F  F </v>
   <v type="logical" >  T  T  T </v>
   <v type="logical" >  F  F  F </v>
   <v type="logical" >  T  T  T </v>
   <v type="logical" >  T  T  T </v>
   <v type="logical" >  T  T  T </v>
   <v type="logical" >  F  F  F </v>
   <v type="logical" >  T  T  T </v>
   <v type="logical" >  F  F  F </v>
   <v type="logical" >  T  T  T </v>
   <v type="logical" >  F  F  F </v>
   <v type="logical" >  T  T  T </v>
   <v type="logical" >  F  F  F </v>
   <v type="logical" >  T  T  T </v>
   <v type="logical" >  T  T  T </v>
   <v type="logical" >  T  T  T </v>
   <v type="logical" >  F  F  F </v>
   <v type="logical" >  T  T  T </v>
   <v type="logical" >  F  F  F </v>
   <v type="logical" >  T  T  T </v>
   <v type="logical" >  T  T  T </v>
   <v type="logical" >  T  T  T </v>
   <v type="logical" >  F  F  F </v>
   <v type="logical" >  T  T  T </v>
   <v type="logical" >  F  F  F </v>
   <v type="logical" >  T  T  T </v>
   <v type="logical" >  T  T  T </v>
   <v type="logical" >  T  T  T </v>
   <v type="logical" >  T  T  T </v>
   <v type="logical" >  T  T  T </v>
   <v type="logical" >  T  T  T </v>
   <v type="logical" >  T  T  T </v>
   <v type="logical" >  F  F  F </v>
   <v type="logical" >  F  F  F </v>
   <v type="logical" >  F  F  F </v>
   <v type="logical" >  F  F  F </v>
   <v type="logical" >  T  T  T </v>
   <v type="logical" >  T  T  T </v>
   <v type="logical" >  F  F  F </v>
   <v type="logical" >  T  T  T </v>
   <v type="logical" >  F  F  F </v>
   <v type="logical" >  T  T  T </v>
   <v type="logical" >  T  T  T </v>
   <v type="logical" >  T  T  T </v>
   <v type="logical" >  T  T  T </v>
   <v type="logical" >  T  T  T </v>
   <v type="logical" >  T  T  T </v>
  </varray>
  <nose>
   <v>      -3.00000000       0.00000000       0.00010000       0.00010000 </v>
  </nose>
 </structure>
 <calculation>
  <scstep>
   <time name="dav">    6.75    6.77</time>
   <time name="total">    6.81    6.83</time>
   <dipole>
    <v name="dipole">      0.00000000       0.00000000       0.00000222 </v>
    <i name="Tr[quadrupol]"> -10254.62396221 </i>
    <i name="Echarged">      0.00000000 </i>
    <i name="Edipol_quadrupol">      0.00000000 </i>
    <i name="Eion">      0.00000000 </i>
   </dipole>
   <energy>
    <i name="alphaZ">    805.86936534 </i>
    <i name="ewald"> 200399.46291588 </i>
    <i name="hartreedc">-242814.52939650 </i>
    <i name="XCdc">   -327.56406345 </i>
    <i name="pawpsdc">  40340.05962942 </i>
    <i name="pawaedc"> -38292.62782345 </i>
    <i name="eentropy">     -0.12656172 </i>
    <i name="bandstr">   1430.51483647 </i>
    <i name="atom">  41659.78587232 </i>
    <i name="e_fr_energy">   3200.84477431 </i>
    <i name="e_wo_entrp">   3200.97133603 </i>
    <i name="e_0_energy">   3200.90805517 </i>
   </energy>
  </scstep>
  <scstep>
   <time name="dav">    7.95    7.98</time>
   <time name="total">    7.96    7.98</time>
   <dipole>
    <v name="dipole">      0.00000000       0.00000000       0.00000222 </v>
    <i name="Tr[quadrupol]"> -10254.62396221 </i>
    <i name="Echarged">      0.00000000 </i>
    <i name="Edipol_quadrupol">      0.00000000 </i>
    <i name="Eion">      0.00000000 </i>
   </dipole>
   <energy>
    <i name="e_fr_energy">     15.86847161 </i>
    <i name="e_wo_entrp">     15.99406644 </i>
    <i name="e_0_energy">     15.93126902 </i>
   </energy>
  </scstep>
  <scstep>
   <time name="dav">    7.81    7.83</time>
   <time name="total">    7.81    7.84</time>
   <dipole>
    <v name="dipole">      0.00000000       0.00000000       0.00000222 </v>
    <i name="Tr[quadrupol]"> -10254.62396221 </i>
    <i name="Echarged">      0.00000000 </i>
    <i name="Edipol_quadrupol">      0.00000000 </i>
    <i name="Eion">      0.00000000 </i>
   </dipole>
   <energy>
    <i name="e_fr_energy">   -199.94177755 </i>
    <i name="e_wo_entrp">   -199.73235860 </i>
    <i name="e_0_energy">   -199.83706807 </i>
   </energy>
  </scstep>
  <scstep>
   <time name="dav">    8.07    8.16</time>
   <time name="total">    8.07    8.17</time>
   <dipole>
    <v name="dipole">      0.00000000       0.00000000       0.00000222 </v>
    <i name="Tr[quadrupol]"> -10254.62396221 </i>
    <i name="Echarged">      0.00000000 </i>
    <i name="Edipol_quadrupol">      0.00000000 </i>
    <i name="Eion">      0.00000000 </i>
   </dipole>
   <energy>
    <i name="e_fr_energy">   -205.80288317 </i>
    <i name="e_wo_entrp">   -205.58930924 </i>
    <i name="e_0_energy">   -205.69609620 </i>
   </energy>
  </scstep>
  <scstep>
   <time name="dav">    8.30    8.34</time>
   <time name="total">    8.54    8.59</time>
   <dipole>
    <v name="dipole">      0.00000000       0.00000000       0.00000222 </v>
    <i name="Tr[quadrupol]"> -10254.62396221 </i>
    <i name="Echarged">      0.00000000 </i>
    <i name="Edipol_quadrupol">      0.00000000 </i>
    <i name="Eion">      0.00000000 </i>
   </dipole>
   <energy>
    <i name="e_fr_energy">   -205.99529460 </i>
    <i name="e_wo_entrp">   -205.78211390 </i>
    <i name="e_0_energy">   -205.88870425 </i>
   </energy>
  </scstep>
  <scstep>
   <time name="diag">    1.22    1.23</time>
   <time name="diis">    3.32    3.33</time>
   <time name="orth">    0.29    0.29</time>
   <time name="total">    5.12    5.14</time>
   <dipole>
    <v name="dipole">      0.00000000       0.00000000       1.01690331 </v>
    <i name="Tr[quadrupol]"> -10255.34520758 </i>
    <i name="Echarged">      0.00000000 </i>
    <i name="Edipol_quadrupol">      0.00000000 </i>
    <i name="Eion">      0.00000000 </i>
   </dipole>
   <energy>
    <i name="e_fr_energy">   -202.70791476 </i>
    <i name="e_wo_entrp">   -202.47125777 </i>
    <i name="e_0_energy">   -202.58958627 </i>
   </energy>
  </scstep>
  <scstep>
   <time name="diag">    1.21    1.22</time>
   <time name="diis">    3.33    3.34</time>
   <time name="orth">    0.29    0.29</time>
   <time name="total">    5.12    5.14</time>
   <dipole>
    <v name="dipole">      0.00000000       0.00000000      -1.68157145 </v>
    <i name="Tr[quadrupol]"> -10255.23699360 </i>
    <i name="Echarged">      0.00000000 </i>
    <i name="Edipol_quadrupol">      0.00000000 </i>
    <i name="Eion">      0.00000000 </i>
   </dipole>
   <energy>
    <i name="e_fr_energy">   -223.43121300 </i>
    <i name="e_wo_entrp">   -223.15652017 </i>
    <i name="e_0_energy">   -223.29386658 </i>
   </energy>
  </scstep>
  <scstep>
   <time name="diag">    1.23    1.24</time>
   <time name="diis">    3.32    3.33</time>
   <time name="orth">    0.29    0.29</time>
   <time name="total">    5.13    5.14</time>
   <dipole>
    <v name="dipole">      0.00000000       0.00000000       1.36195780 </v>
    <i name="Tr[quadrupol]"> -10255.87333997 </i>
    <i name="Echarged">      0.00000000 </i>
    <i name="Edipol_quadrupol">      0.00000000 </i>
    <i name="Eion">      0.00000000 </i>
   </dipole>
   <energy>
    <i name="e_fr_energy">   -215.23569839 </i>
    <i name="e_wo_entrp">   -215.00908577 </i>
    <i name="e_0_energy">   -215.12239208 </i>
   </energy>
  </scstep>
  <scstep>
   <time name="diag">    1.21    1.22</time>
   <time name="diis">    3.34    3.35</time>
   <time name="orth">    0.29    0.29</time>
   <time name="total">    5.13    5.15</time>
   <dipole>
    <v name="dipole">      0.00000000       0.00000000      -0.10008237 </v>
    <i name="Tr[quadrupol]"> -10256.05079639 </i>
    <i name="Echarged">      0.00000000 </i>
    <i name="Edipol_quadrupol">      0.00000000 </i>
    <i name="Eion">      0.00000000 </i>
   </dipole>
   <energy>
    <i name="e_fr_energy">   -208.67931854 </i>
    <i name="e_wo_entrp">   -208.48758124 </i>
    <i name="e_0_energy">   -208.58344989 </i>
   </energy>
  </scstep>
  <scstep>
   <time name="diag">    1.20    1.21</time>
   <time name="diis">    3.39    3.40</time>
   <time name="orth">    0.29    0.29</time>
   <time name="total">    5.17    5.19</time>
   <dipole>
    <v name="dipole">      0.00000000       0.00000000       0.46257750 </v>
    <i name="Tr[quadrupol]"> -10255.70607400 </i>
    <i name="Echarged">      0.00000000 </i>
    <i name="Edipol_quadrupol">      0.00000000 </i>
    <i name="Eion">      0.00000000 </i>
   </dipole>
   <energy>
    <i name="e_fr_energy">   -197.17328116 </i>
    <i name="e_wo_entrp">   -197.00714927 </i>
    <i name="e_0_energy">   -197.09021521 </i>
   </energy>
  </scstep>
  <scstep>
   <time name="diag">    1.21    1.23</time>
   <time name="diis">    3.27    3.34</time>
   <time name="orth">    0.29    0.29</time>
   <time name="total">    5.05    5.15</time>
   <dipole>
    <v name="dipole">      0.00000000       0.00000000       0.24571217 </v>
    <i name="Tr[quadrupol]"> -10256.49146681 </i>
    <i name="Echarged">      0.00000000 </i>
    <i name="Edipol_quadrupol">      0.00000000 </i>
    <i name="Eion">      0.00000000 </i>
   </dipole>
   <energy>
    <i name="e_fr_energy">   -192.00875020 </i>
    <i name="e_wo_entrp">   -191.78386337 </i>
    <i name="e_0_energy">   -191.89630679 </i>
   </energy>
  </scstep>
  <scstep>
   <time name="diag">    1.22    1.22</time>
   <time name="diis">    3.32    3.32</time>
   <time name="orth">    0.29    0.29</time>
   <time name="total">    5.10    5.12</time>
   <dipole>
    <v name="dipole">      0.00000000       0.00000000       0.18394399 </v>
    <i name="Tr[quadrupol]"> -10256.77033546 </i>
    <i name="Echarged">      0.00000000 </i>
    <i name="Edipol_quadrupol">      0.00000000 </i>
    <i name="Eion">      0.00000000 </i>
   </dipole>
   <energy>
    <i name="e_fr_energy">   -188.98641317 </i>
    <i name="e_wo_entrp">   -188.76022395 </i>
    <i name="e_0_energy">   -188.87331856 </i>
   </energy>
  </scstep>
  <scstep>
   <time name="diag">    1.21    1.21</time>
   <time name="diis">    3.31    3.32</time>
   <time name="orth">    0.28    0.28</time>
   <time name="total">    5.09    5.11</time>
   <dipole>
    <v name="dipole">      0.00000000       0.00000000       0.16464855 </v>
    <i name="Tr[quadrupol]"> -10257.07483036 </i>
    <i name="Echarged">      0.00000000 </i>
    <i name="Edipol_quadrupol">      0.00000000 </i>
    <i name="Eion">      0.00000000 </i>
   </dipole>
   <energy>
    <i name="e_fr_energy">   -188.70861991 </i>
    <i name="e_wo_entrp">   -188.47988192 </i>
    <i name="e_0_energy">   -188.59425092 </i>
   </energy>
  </scstep>
  <scstep>
   <time name="diag">    1.21    1.22</time>
   <time name="diis">    3.32    3.33</time>
   <time name="orth">    0.28    0.28</time>
   <time name="total">    5.10    5.12</time>
   <dipole>
    <v name="dipole">      0.00000000       0.00000000       0.12602314 </v>
    <i name="Tr[quadrupol]"> -10257.47074368 </i>
    <i name="Echarged">      0.00000000 </i>
    <i name="Edipol_quadrupol">      0.00000000 </i>
    <i name="Eion">      0.00000000 </i>
   </dipole>
   <energy>
    <i name="e_fr_energy">   -188.85380256 </i>
    <i name="e_wo_entrp">   -188.61500565 </i>
    <i name="e_0_energy">   -188.73440411 </i>
   </energy>
  </scstep>
  <scstep>
   <time name="diag">    1.21    1.21</time>
   <time name="diis">    3.36    3.37</time>
   <time name="orth">    0.28    0.28</time>
   <time name="total">    5.14    5.15</time>
   <dipole>
    <v name="dipole">      0.00000000       0.00000000       0.13021274 </v>
    <i name="Tr[quadrupol]"> -10257.73894357 </i>
    <i name="Echarged">      0.00000000 </i>
    <i name="Edipol_quadrupol">      0.00000000 </i>
    <i name="Eion">      0.00000000 </i>
   </dipole>
   <energy>
    <i name="e_fr_energy">   -188.81313994 </i>
    <i name="e_wo_entrp">   -188.57270070 </i>
    <i name="e_0_energy">   -188.69292032 </i>
   </energy>
  </scstep>
  <scstep>
   <time name="diag">    1.21    1.21</time>
   <time name="diis">    3.36    3.38</time>
   <time name="orth">    0.28    0.28</time>
   <time name="total">    5.14    5.16</time>
   <dipole>
    <v name="dipole">      0.00000000       0.00000000       0.13084124 </v>
    <i name="Tr[quadrupol]"> -10258.10301491 </i>
    <i name="Echarged">      0.00000000 </i>
    <i name="Edipol_quadrupol">      0.00000000 </i>
    <i name="Eion">      0.00000000 </i>
   </dipole>
   <energy>
    <i name="e_fr_energy">   -188.54127121 </i>
    <i name="e_wo_entrp">   -188.30035284 </i>
    <i name="e_0_energy">   -188.42081202 </i>
   </energy>
  </scstep>
  <scstep>
   <time name="diag">    1.20    1.20</time>
   <time name="diis">    3.37    3.38</time>
   <time name="orth">    0.28    0.28</time>
   <time name="total">    5.13    5.15</time>
   <dipole>
    <v name="dipole">      0.00000000       0.00000000       0.10549733 </v>
    <i name="Tr[quadrupol]"> -10258.32312543 </i>
    <i name="Echarged">      0.00000000 </i>
    <i name="Edipol_quadrupol">      0.00000000 </i>
    <i name="Eion">      0.00000000 </i>
   </dipole>
   <energy>
    <i name="e_fr_energy">   -188.45061269 </i>
    <i name="e_wo_entrp">   -188.20126305 </i>
    <i name="e_0_energy">   -188.32593787 </i>
   </energy>
  </scstep>
  <scstep>
   <time name="diag">    1.19    1.20</time>
   <time name="diis">    3.35    3.35</time>
   <time name="orth">    0.28    0.28</time>
   <time name="total">    5.10    5.12</time>
   <dipole>
    <v name="dipole">      0.00000000       0.00000000       0.08134248 </v>
    <i name="Tr[quadrupol]"> -10258.57244646 </i>
    <i name="Echarged">      0.00000000 </i>
    <i name="Edipol_quadrupol">      0.00000000 </i>
    <i name="Eion">      0.00000000 </i>
   </dipole>
   <energy>
    <i name="e_fr_energy">   -188.39172995 </i>
    <i name="e_wo_entrp">   -188.14597574 </i>
    <i name="e_0_energy">   -188.26885284 </i>
   </energy>
  </scstep>
  <scstep>
   <time name="diag">    1.19    1.26</time>
   <time name="diis">    3.39    3.40</time>
   <time name="orth">    0.28    0.28</time>
   <time name="total">    5.15    5.24</time>
   <dipole>
    <v name="dipole">      0.00000000       0.00000000       0.06953829 </v>
    <i name="Tr[quadrupol]"> -10258.69757960 </i>
    <i name="Echarged">      0.00000000 </i>
    <i name="Edipol_quadrupol">      0.00000000 </i>
    <i name="Eion">      0.00000000 </i>
   </dipole>
   <energy>
    <i name="e_fr_energy">   -188.37496893 </i>
    <i name="e_wo_entrp">   -188.12506604 </i>
    <i name="e_0_energy">   -188.25001748 </i>
   </energy>
  </scstep>
  <scstep>
   <time name="diag">    1.21    1.21</time>
   <time name="diis">    3.31    3.32</time>
   <time name="orth">    0.28    0.28</time>
   <time name="total">    5.08    5.10</time>
   <dipole>
    <v name="dipole">      0.00000000       0.00000000       0.06256376 </v>
    <i name="Tr[quadrupol]"> -10258.82463564 </i>
    <i name="Echarged">      0.00000000 </i>
    <i name="Edipol_quadrupol">      0.00000000 </i>
    <i name="Eion">      0.00000000 </i>
   </dipole>
   <energy>
    <i name="e_fr_energy">   -188.37265524 </i>
    <i name="e_wo_entrp">   -188.12242332 </i>
    <i name="e_0_energy">   -188.24753928 </i>
   </energy>
  </scstep>
  <scstep>
   <time name="diag">    1.20    1.21</time>
   <time name="diis">    3.31    3.32</time>
   <time name="orth">    0.28    0.28</time>
   <time name="total">    5.08    5.10</time>
   <dipole>
    <v name="dipole">      0.00000000       0.00000000       0.05686627 </v>
    <i name="Tr[quadrupol]"> -10258.98524372 </i>
    <i name="Echarged">      0.00000000 </i>
    <i name="Edipol_quadrupol">      0.00000000 </i>
    <i name="Eion">      0.00000000 </i>
   </dipole>
   <energy>
    <i name="e_fr_energy">   -188.37122820 </i>
    <i name="e_wo_entrp">   -188.12059662 </i>
    <i name="e_0_energy">   -188.24591241 </i>
   </energy>
  </scstep>
  <scstep>
   <time name="diag">    1.19    1.20</time>
   <time name="diis">    3.34    3.35</time>
   <time name="orth">    0.28    0.28</time>
   <time name="total">    5.10    5.12</time>
   <dipole>
    <v name="dipole">      0.00000000       0.00000000       0.05105594 </v>
    <i name="Tr[quadrupol]"> -10259.16313486 </i>
    <i name="Echarged">      0.00000000 </i>
    <i name="Edipol_quadrupol">      0.00000000 </i>
    <i name="Eion">      0.00000000 </i>
   </dipole>
   <energy>
    <i name="e_fr_energy">   -188.36988595 </i>
    <i name="e_wo_entrp">   -188.11933348 </i>
    <i name="e_0_energy">   -188.24460971 </i>
   </energy>
  </scstep>
  <scstep>
   <time name="diag">    1.20    1.20</time>
   <time name="diis">    3.36    3.37</time>
   <time name="orth">    0.28    0.28</time>
   <time name="total">    5.12    5.14</time>
   <dipole>
    <v name="dipole">      0.00000000       0.00000000       0.04818645 </v>
    <i name="Tr[quadrupol]"> -10259.29956607 </i>
    <i name="Echarged">      0.00000000 </i>
    <i name="Edipol_quadrupol">      0.00000000 </i>
    <i name="Eion">      0.00000000 </i>
   </dipole>
   <energy>
    <i name="e_fr_energy">   -188.36865406 </i>
    <i name="e_wo_entrp">   -188.11860226 </i>
    <i name="e_0_energy">   -188.24362816 </i>
   </energy>
  </scstep>
  <scstep>
   <time name="diag">    1.21    1.21</time>
   <time name="diis">    3.35    3.36</time>
   <time name="orth">    0.28    0.28</time>
   <time name="total">    5.12    5.14</time>
   <dipole>
    <v name="dipole">      0.00000000       0.00000000       0.04263975 </v>
    <i name="Tr[quadrupol]"> -10259.40187556 </i>
    <i name="Echarged">      0.00000000 </i>
    <i name="Edipol_quadrupol">      0.00000000 </i>
    <i name="Eion">      0.00000000 </i>
   </dipole>
   <energy>
    <i name="e_fr_energy">   -188.36846437 </i>
    <i name="e_wo_entrp">   -188.11779615 </i>
    <i name="e_0_energy">   -188.24313026 </i>
   </energy>
  </scstep>
  <scstep>
   <time name="diag">    1.20    1.21</time>
   <time name="diis">    3.33    3.34</time>
   <time name="orth">    0.28    0.28</time>
   <time name="total">    5.11    5.12</time>
   <dipole>
    <v name="dipole">      0.00000000       0.00000000       0.03878526 </v>
    <i name="Tr[quadrupol]"> -10259.46210831 </i>
    <i name="Echarged">      0.00000000 </i>
    <i name="Edipol_quadrupol">      0.00000000 </i>
    <i name="Eion">      0.00000000 </i>
   </dipole>
   <energy>
    <i name="e_fr_energy">   -188.36870059 </i>
    <i name="e_wo_entrp">   -188.11811542 </i>
    <i name="e_0_energy">   -188.24340801 </i>
   </energy>
  </scstep>
  <scstep>
   <time name="diag">    1.20    1.20</time>
   <time name="diis">    3.28    3.34</time>
   <time name="orth">    0.27    0.30</time>
   <time name="total">    5.03    5.13</time>
   <dipole>
    <v name="dipole">      0.00000000       0.00000000       0.03592537 </v>
    <i name="Tr[quadrupol]"> -10259.53171064 </i>
    <i name="Echarged">      0.00000000 </i>
    <i name="Edipol_quadrupol">      0.00000000 </i>
    <i name="Eion">      0.00000000 </i>
   </dipole>
   <energy>
    <i name="e_fr_energy">   -188.36894320 </i>
    <i name="e_wo_entrp">   -188.11847494 </i>
    <i name="e_0_energy">   -188.24370907 </i>
   </energy>
  </scstep>
  <scstep>
   <time name="diag">    1.20    1.21</time>
   <time name="diis">    3.48    3.48</time>
   <time name="orth">    0.28    0.28</time>
   <time name="total">    5.24    5.26</time>
   <dipole>
    <v name="dipole">      0.00000000       0.00000000       0.03334123 </v>
    <i name="Tr[quadrupol]"> -10259.61604841 </i>
    <i name="Echarged">      0.00000000 </i>
    <i name="Edipol_quadrupol">      0.00000000 </i>
    <i name="Eion">      0.00000000 </i>
   </dipole>
   <energy>
    <i name="e_fr_energy">   -188.36938015 </i>
    <i name="e_wo_entrp">   -188.11888275 </i>
    <i name="e_0_energy">   -188.24413145 </i>
   </energy>
  </scstep>
  <scstep>
   <time name="diag">    1.21    1.21</time>
   <time name="diis">    3.30    3.34</time>
   <time name="orth">    0.28    0.28</time>
   <time name="total">    5.07    5.12</time>
   <dipole>
    <v name="dipole">      0.00000000       0.00000000       0.03185019 </v>
    <i name="Tr[quadrupol]"> -10259.67172074 </i>
    <i name="Echarged">      0.00000000 </i>
    <i name="Edipol_quadrupol">      0.00000000 </i>
    <i name="Eion">      0.00000000 </i>
   </dipole>
   <energy>
    <i name="e_fr_energy">   -188.36981229 </i>
    <i name="e_wo_entrp">   -188.11935987 </i>
    <i name="e_0_energy">   -188.24458608 </i>
   </energy>
  </scstep>
  <scstep>
   <time name="diag">    1.20    1.20</time>
   <time name="diis">    3.49    3.50</time>
   <time name="orth">    0.28    0.28</time>
   <time name="total">    5.26    5.27</time>
   <dipole>
    <v name="dipole">      0.00000000       0.00000000       0.02893955 </v>
    <i name="Tr[quadrupol]"> -10259.74224989 </i>
    <i name="Echarged">      0.00000000 </i>
    <i name="Edipol_quadrupol">      0.00000000 </i>
    <i name="Eion">      0.00000000 </i>
   </dipole>
   <energy>
    <i name="e_fr_energy">   -188.37045211 </i>
    <i name="e_wo_entrp">   -188.11997692 </i>
    <i name="e_0_energy">   -188.24521452 </i>
   </energy>
  </scstep>
  <scstep>
   <time name="diag">    1.19    1.20</time>
   <time name="diis">    3.27    3.28</time>
   <time name="orth">    0.28    0.28</time>
   <time name="total">    5.03    5.04</time>
   <dipole>
    <v name="dipole">      0.00000000       0.00000000       0.02658270 </v>
    <i name="Tr[quadrupol]"> -10259.79141788 </i>
    <i name="Echarged">      0.00000000 </i>
    <i name="Edipol_quadrupol">      0.00000000 </i>
    <i name="Eion">      0.00000000 </i>
   </dipole>
   <energy>
    <i name="e_fr_energy">   -188.37092657 </i>
    <i name="e_wo_entrp">   -188.12040259 </i>
    <i name="e_0_energy">   -188.24566458 </i>
   </energy>
  </scstep>
  <scstep>
   <time name="diag">    1.20    1.21</time>
   <time name="diis">    3.45    3.46</time>
   <time name="orth">    0.28    0.28</time>
   <time name="total">    5.22    5.24</time>
   <dipole>
    <v name="dipole">      0.00000000       0.00000000       0.02238498 </v>
    <i name="Tr[quadrupol]"> -10259.88298866 </i>
    <i name="Echarged">      0.00000000 </i>
    <i name="Edipol_quadrupol">      0.00000000 </i>
    <i name="Eion">      0.00000000 </i>
   </dipole>
   <energy>
    <i name="e_fr_energy">   -188.37168565 </i>
    <i name="e_wo_entrp">   -188.12115082 </i>
    <i name="e_0_energy">   -188.24641824 </i>
   </energy>
  </scstep>
  <scstep>
   <time name="diag">    1.21    1.21</time>
   <time name="diis">    2.84    2.85</time>
   <time name="orth">    0.28    0.28</time>
   <time name="total">    4.62    4.63</time>
   <dipole>
    <v name="dipole">      0.00000000       0.00000000       0.02124406 </v>
    <i name="Tr[quadrupol]"> -10259.90423097 </i>
    <i name="Echarged">      0.00000000 </i>
    <i name="Edipol_quadrupol">      0.00000000 </i>
    <i name="Eion">      0.00000000 </i>
   </dipole>
   <energy>
    <i name="e_fr_energy">   -188.37185246 </i>
    <i name="e_wo_entrp">   -188.12130312 </i>
    <i name="e_0_energy">   -188.24657779 </i>
   </energy>
  </scstep>
  <scstep>
   <time name="diag">    1.20    1.20</time>
   <time name="diis">    2.54    2.54</time>
   <time name="orth">    0.28    0.28</time>
   <time name="total">    4.30    4.32</time>
   <dipole>
    <v name="dipole">      0.00000000       0.00000000       0.02005398 </v>
    <i name="Tr[quadrupol]"> -10259.92419489 </i>
    <i name="Echarged">      0.00000000 </i>
    <i name="Edipol_quadrupol">      0.00000000 </i>
    <i name="Eion">      0.00000000 </i>
   </dipole>
   <energy>
    <i name="e_fr_energy">   -188.37200816 </i>
    <i name="e_wo_entrp">   -188.12148353 </i>
    <i name="e_0_energy">   -188.24674584 </i>
   </energy>
  </scstep>
  <scstep>
   <time name="diag">    1.19    1.20</time>
   <time name="diis">    2.20    2.20</time>
   <time name="orth">    0.28    0.28</time>
   <time name="total">    3.96    3.98</time>
   <dipole>
    <v name="dipole">      0.00000000       0.00000000       0.01937400 </v>
    <i name="Tr[quadrupol]"> -10259.93398341 </i>
    <i name="Echarged">      0.00000000 </i>
    <i name="Edipol_quadrupol">      0.00000000 </i>
    <i name="Eion">      0.00000000 </i>
   </dipole>
   <energy>
    <i name="e_fr_energy">   -188.37208073 </i>
    <i name="e_wo_entrp">   -188.12157046 </i>
    <i name="e_0_energy">   -188.24682560 </i>
   </energy>
  </scstep>
  <scstep>
   <time name="diag">    1.19    1.26</time>
   <time name="diis">    2.10    2.10</time>
   <time name="orth">    0.28    0.28</time>
   <time name="total">    3.85    3.94</time>
   <dipole>
    <v name="dipole">      0.00000000       0.00000000       0.01862857 </v>
    <i name="Tr[quadrupol]"> -10259.94284998 </i>
    <i name="Echarged">      0.00000000 </i>
    <i name="Edipol_quadrupol">      0.00000000 </i>
    <i name="Eion">      0.00000000 </i>
   </dipole>
   <energy>
    <i name="e_fr_energy">   -188.37214478 </i>
    <i name="e_wo_entrp">   -188.12162464 </i>
    <i name="e_0_energy">   -188.24688471 </i>
   </energy>
  </scstep>
  <scstep>
   <time name="diag">    1.22    1.22</time>
   <time name="diis">    2.08    2.09</time>
   <time name="orth">    0.28    0.28</time>
   <time name="total">    3.87    3.88</time>
   <dipole>
    <v name="dipole">      0.00000000       0.00000000       0.01783118 </v>
    <i name="Tr[quadrupol]"> -10259.95065485 </i>
    <i name="Echarged">      0.00000000 </i>
    <i name="Edipol_quadrupol">      0.00000000 </i>
    <i name="Eion">      0.00000000 </i>
   </dipole>
   <energy>
    <i name="e_fr_energy">   -188.37219766 </i>
    <i name="e_wo_entrp">   -188.12168328 </i>
    <i name="e_0_energy">   -188.24694047 </i>
   </energy>
  </scstep>
  <scstep>
   <time name="diag">    1.20    1.21</time>
   <time name="diis">    2.06    2.06</time>
   <time name="orth">    0.28    0.28</time>
   <time name="total">    3.83    3.84</time>
   <dipole>
    <v name="dipole">      0.00000000       0.00000000       0.01721457 </v>
    <i name="Tr[quadrupol]"> -10259.95641927 </i>
    <i name="Echarged">      0.00000000 </i>
    <i name="Edipol_quadrupol">      0.00000000 </i>
    <i name="Eion">      0.00000000 </i>
   </dipole>
   <energy>
    <i name="e_fr_energy">   -188.37222389 </i>
    <i name="e_wo_entrp">   -188.12170796 </i>
    <i name="e_0_energy">   -188.24696592 </i>
   </energy>
  </scstep>
  <scstep>
   <time name="diag">    1.19    1.20</time>
   <time name="diis">    1.81    1.81</time>
   <time name="orth">    0.28    0.28</time>
   <time name="total">    3.57    3.58</time>
   <dipole>
    <v name="dipole">      0.00000000       0.00000000       0.01678344 </v>
    <i name="Tr[quadrupol]"> -10259.96074801 </i>
    <i name="Echarged">      0.00000000 </i>
    <i name="Edipol_quadrupol">      0.00000000 </i>
    <i name="Eion">      0.00000000 </i>
   </dipole>
   <energy>
    <i name="e_fr_energy">   -188.37223405 </i>
    <i name="e_wo_entrp">   -188.12172109 </i>
    <i name="e_0_energy">   -188.24697757 </i>
   </energy>
  </scstep>
  <scstep>
   <time name="diag">    1.20    1.21</time>
   <time name="diis">    1.76    1.76</time>
   <time name="orth">    0.28    0.28</time>
   <time name="total">    3.53    3.54</time>
   <dipole>
    <v name="dipole">      0.00000000       0.00000000       0.01646858 </v>
    <i name="Tr[quadrupol]"> -10259.96401751 </i>
    <i name="Echarged">      0.00000000 </i>
    <i name="Edipol_quadrupol">      0.00000000 </i>
    <i name="Eion">      0.00000000 </i>
   </dipole>
   <energy>
    <i name="e_fr_energy">   -188.37223817 </i>
    <i name="e_wo_entrp">   -188.12172338 </i>
    <i name="e_0_energy">   -188.24698078 </i>
   </energy>
  </scstep>
  <scstep>
   <time name="diag">    1.21    1.21</time>
   <time name="diis">    1.65    1.65</time>
   <time name="orth">    0.28    0.28</time>
   <time name="total">    3.43    3.44</time>
   <dipole>
    <v name="dipole">      0.00000000       0.00000000       0.01616057 </v>
    <i name="Tr[quadrupol]"> -10259.96723778 </i>
    <i name="Echarged">      0.00000000 </i>
    <i name="Edipol_quadrupol">      0.00000000 </i>
    <i name="Eion">      0.00000000 </i>
   </dipole>
   <energy>
    <i name="e_fr_energy">   -188.37224033 </i>
    <i name="e_wo_entrp">   -188.12172659 </i>
    <i name="e_0_energy">   -188.24698346 </i>
   </energy>
  </scstep>
  <scstep>
   <time name="diag">    1.20    1.20</time>
   <time name="diis">    1.47    1.47</time>
   <time name="orth">    0.28    0.28</time>
   <time name="total">    3.24    3.25</time>
   <dipole>
    <v name="dipole">      0.00000000       0.00000000       0.01600567 </v>
    <i name="Tr[quadrupol]"> -10259.96897012 </i>
    <i name="Echarged">      0.00000000 </i>
    <i name="Edipol_quadrupol">      0.00000000 </i>
    <i name="Eion">      0.00000000 </i>
   </dipole>
   <energy>
    <i name="e_fr_energy">   -188.37224153 </i>
    <i name="e_wo_entrp">   -188.12172688 </i>
    <i name="e_0_energy">   -188.24698421 </i>
   </energy>
  </scstep>
  <scstep>
   <time name="diag">    1.19    1.20</time>
   <time name="diis">    1.48    1.49</time>
   <time name="orth">    0.28    0.28</time>
   <time name="total">    3.23    3.26</time>
   <dipole>
    <v name="dipole">      0.00000000       0.00000000       0.01580524 </v>
    <i name="Tr[quadrupol]"> -10259.97133546 </i>
    <i name="Echarged">      0.00000000 </i>
    <i name="Edipol_quadrupol">      0.00000000 </i>
    <i name="Eion">      0.00000000 </i>
   </dipole>
   <energy>
    <i name="e_fr_energy">   -188.37224289 </i>
    <i name="e_wo_entrp">   -188.12172888 </i>
    <i name="e_0_energy">   -188.24698589 </i>
   </energy>
  </scstep>
  <scstep>
   <time name="diag">    1.20    1.21</time>
   <time name="diis">    1.42    1.42</time>
   <time name="orth">    0.28    0.28</time>
   <time name="total">    3.19    3.20</time>
   <dipole>
    <v name="dipole">      0.00000000       0.00000000       0.01562750 </v>
    <i name="Tr[quadrupol]"> -10259.97357518 </i>
    <i name="Echarged">      0.00000000 </i>
    <i name="Edipol_quadrupol">      0.00000000 </i>
    <i name="Eion">      0.00000000 </i>
   </dipole>
   <energy>
    <i name="e_fr_energy">   -188.37224401 </i>
    <i name="e_wo_entrp">   -188.12172983 </i>
    <i name="e_0_energy">   -188.24698692 </i>
   </energy>
  </scstep>
  <scstep>
   <time name="diag">    1.21    1.21</time>
   <time name="diis">    1.34    1.34</time>
   <time name="orth">    0.28    0.28</time>
   <time name="total">    2.88    2.88</time>
   <dipole>
    <v name="dipole">      0.00000000       0.00000000       0.01553419 </v>
    <i name="Tr[quadrupol]"> -10259.97484574 </i>
    <i name="Echarged">      0.00000000 </i>
    <i name="Edipol_quadrupol">      0.00000000 </i>
    <i name="Eion">      0.00000000 </i>
   </dipole>
   <energy>
    <i name="alphaZ">    805.87673197 </i>
    <i name="ewald"> 200399.46291588 </i>
    <i name="hartreedc">-242588.41262653 </i>
    <i name="XCdc">   -343.23165927 </i>
    <i name="pawpsdc">  49406.42727156 </i>
    <i name="pawaedc"> -47484.03368366 </i>
    <i name="eentropy">     -0.25051388 </i>
    <i name="bandstr">  -2043.99655280 </i>
    <i name="atom">  41659.78587232 </i>
    <i name="e_fr_energy">   -188.37224443 </i>
    <i name="e_wo_entrp">   -188.12173054 </i>
    <i name="e_0_energy">   -188.24698748 </i>
   </energy>
  </scstep>
  <structure>
   <crystal>
    <varray name="basis" >
     <v>      11.00258152       0.00000000       0.00000000 </v>
     <v>       5.50129076       9.52851510       0.00000000 </v>
     <v>       0.00000000       0.00000000      24.49178509 </v>
    </varray>
    <i name="volume">   2567.67623402 </i>
    <varray name="rec_basis" >
     <v>       0.09088776      -0.05247407       0.00000000 </v>
     <v>       0.00000000       0.10494815       0.00000000 </v>
     <v>       0.00000000       0.00000000       0.04083002 </v>
    </varray>
   </crystal>
   <varray name="positions" >
    <v>       0.75000000       0.00000000       0.59169983 </v>
    <v>       0.83333333       0.58333333       0.40830017 </v>
    <v>       0.66666667       0.66666667       0.50000000 </v>
    <v>       0.08333333       0.58333333       0.40830017 </v>
    <v>       0.91666667       0.41666667       0.50000000 </v>
    <v>       0.00000000       0.25000000       0.59169983 </v>
    <v>       0.66666667       0.41666667       0.50000000 </v>
    <v>       0.08333333       0.33333333       0.40830017 </v>
    <v>       0.75000000       0.50000000       0.59169983 </v>
    <v>       0.83333333       0.83333333       0.40830017 </v>
    <v>       0.91666667       0.91666667       0.50000000 </v>
    <v>       0.58333333       0.58333333       0.40830017 </v>
    <v>       0.75000000       0.25000000       0.59169983 </v>
    <v>       0.83333333       0.33333333       0.40830017 </v>
    <v>       0.25000000       0.00000000       0.59169983 </v>
    <v>       0.16666667       0.41666667       0.50000000 </v>
    <v>       0.66666667       0.16666667       0.50000000 </v>
    <v>       0.33333333       0.58333333       0.40830017 </v>
    <v>       0.25000000       0.50000000       0.59169983 </v>
    <v>       0.33333333       0.83333333       0.40830017 </v>
    <v>       0.16666667       0.91666667       0.50000000 </v>
    <v>       0.66666667       0.91666667       0.50000000 </v>
    <v>       0.41666667       0.16666667       0.50000000 </v>
    <v>       0.33333333       0.08333333       0.40830017 </v>
    <v>       0.25000000       0.25000000       0.59169983 </v>
    <v>       0.33333333       0.33333333       0.40830017 </v>
    <v>       0.16666667       0.16666667       0.50000000 </v>
    <v>       0.00000000       0.75000000       0.59169983 </v>
    <v>       0.91666667       0.16666667       0.50000000 </v>
    <v>       0.00000000       0.50000000       0.59169983 </v>
    <v>       0.91666667       0.66666667       0.50000000 </v>
    <v>       0.00000000       0.00000000       0.59169983 </v>
    <v>       0.16666667       0.66666667       0.50000000 </v>
    <v>       0.08333333       0.83333333       0.40830017 </v>
    <v>       0.58333333       0.08333333       0.40830017 </v>
    <v>       0.08333333       0.08333333       0.40830017 </v>
    <v>       0.58333333       0.33333333       0.40830017 </v>
    <v>       0.41666667       0.41666667       0.50000000 </v>
    <v>       0.25000000       0.75000000       0.59169983 </v>
    <v>       0.83333333       0.08333333       0.40830017 </v>
    <v>       0.50000000       0.50000000       0.59169983 </v>
    <v>       0.58333333       0.83333333       0.40830017 </v>
    <v>       0.41666667       0.91666667       0.50000000 </v>
    <v>       0.50000000       0.75000000       0.59169983 </v>
    <v>       0.41666667       0.66666667       0.50000000 </v>
    <v>       0.50000000       0.25000000       0.59169983 </v>
    <v>       0.50000000       0.00000000       0.59169983 </v>
    <v>       0.75000000       0.75000000       0.59169983 </v>
   </varray>
  </structure>
  <varray name="forces" >
   <v>      -0.10267410      -0.23729897       1.80210631 </v>
   <v>       0.02186729       0.29562110      -1.67122164 </v>
   <v>      -0.15702588       0.73855817       0.37896670 </v>
   <v>       0.29480774       0.14477057      -1.38145134 </v>
   <v>       0.41181745      -0.16822167       0.34012519 </v>
   <v>       0.23520525      -0.17516352       1.40449678 </v>
   <v>      -0.74807379      -0.01483057       0.01287780 </v>
   <v>       0.10529125      -0.40289275      -1.64823254 </v>
   <v>       0.00306443       0.42126624       1.77713100 </v>
   <v>       0.02674989       0.26602185      -1.57113049 </v>
   <v>       0.53864663      -0.26284686      -0.00276529 </v>
   <v>      -0.17118320       0.06678444      -1.60962604 </v>
   <v>      -0.11918353      -0.07851761       1.66128053 </v>
   <v>      -0.23542873      -0.61555049      -1.59569515 </v>
   <v>       0.24603725      -0.16013063       1.29854149 </v>
   <v>       0.17880288       0.04378320       0.32871525 </v>
   <v>      -0.04887954       0.36907983      -0.53718305 </v>
   <v>      -0.14315321      -0.23355226      -1.12527527 </v>
   <v>       0.14736243       0.13542187       1.25016385 </v>
   <v>      -0.01448630       0.18322656      -1.29293684 </v>
   <v>      -0.09275465      -0.00103134       0.02361109 </v>
   <v>      -0.49527663      -0.22392827       0.03336696 </v>
   <v>      -0.09687478       0.06328983       0.22278864 </v>
   <v>       0.11367715      -0.05932251      -1.36794374 </v>
   <v>       0.06878980      -0.11660235       0.84829007 </v>
   <v>       0.27487016      -0.03743761      -0.89084675 </v>
   <v>      -0.11549132      -0.19069183       0.04229366 </v>
   <v>      -0.04339802      -0.08867738       0.70894006 </v>
   <v>       0.18518707      -0.32690684      -0.23447773 </v>
   <v>       0.10894174       0.25933687       0.86506688 </v>
   <v>       0.21943282       0.03543069       0.51506865 </v>
   <v>       0.01908203      -0.21598677       0.88993774 </v>
   <v>       0.12004291       0.09163828       0.19783956 </v>
   <v>      -0.01977366       0.17826339      -0.80979544 </v>
   <v>       0.08295488       0.15085467      -0.97861427 </v>
   <v>      -0.15889007      -0.02175070      -0.72710913 </v>
   <v>      -0.19686067      -0.26042539      -0.81862630 </v>
   <v>       0.11743251       0.18593300      -0.00973071 </v>
   <v>       0.06519561      -0.12637121       0.63672610 </v>
   <v>       0.05607578       0.06337054      -0.85674290 </v>
   <v>      -0.21149201       0.22254433       0.71607154 </v>
   <v>       0.00519294       0.17732243      -0.89810577 </v>
   <v>       0.00875636      -0.13886790       0.21519711 </v>
   <v>      -0.08516906       0.02633885       0.70357377 </v>
   <v>      -0.22315838       0.02284882       0.51185514 </v>
   <v>      -0.15418445       0.06219929       0.88829813 </v>
   <v>      -0.10310434       0.00261365       0.87199881 </v>
   <v>       0.08123207      -0.04951306       0.88218160 </v>
  </varray>
  <energy>
   <i name="e_fr_energy">   -188.37224443 </i>
   <i name="e_wo_entrp">   -188.24698748 </i>
   <i name="e_0_energy">     -0.25051388 </i>
  </energy>
  <time name="totalsc">  222.25  223.46</time>
 </calculation>
 <calculation>
  <scstep>
   <time name="dav">    6.85    6.94</time>
   <time name="total">    7.13    7.23</time>
   <dipole>
    <v name="dipole">      0.00000000       0.00000000       0.01544444 </v>
    <i name="Tr[quadrupol]"> -10255.32647987 </i>
    <i name="Echarged">      0.00000000 </i>
    <i name="Edipol_quadrupol">      0.00000000 </i>
    <i name="Eion">      0.00000000 </i>
   </dipole>
   <energy>
    <i name="alphaZ">    805.86924891 </i>
    <i name="ewald"> 199104.68243287 </i>
    <i name="hartreedc">-241301.78407444 </i>
    <i name="XCdc">   -344.31105707 </i>
    <i name="pawpsdc">  49406.42558752 </i>
    <i name="pawaedc"> -47484.03205154 </i>
    <i name="eentropy">     -0.24713334 </i>
    <i name="bandstr">  -2035.30978173 </i>
    <i name="atom">  41659.78587232 </i>
    <i name="e_fr_energy">   -188.92095653 </i>
    <i name="e_wo_entrp">   -188.67382319 </i>
    <i name="e_0_energy">   -188.79738986 </i>
   </energy>
  </scstep>
  <scstep>
   <time name="diag">    1.21    1.22</time>
   <time name="diis">    3.35    3.36</time>
   <time name="orth">    0.28    0.28</time>
   <time name="total">    5.12    5.14</time>
   <dipole>
    <v name="dipole">      0.00000000       0.00000000       0.06905340 </v>
    <i name="Tr[quadrupol]"> -10255.17741847 </i>
    <i name="Echarged">      0.00000000 </i>
    <i name="Edipol_quadrupol">      0.00000000 </i>
    <i name="Eion">      0.00000000 </i>
   </dipole>
   <energy>
    <i name="e_fr_energy">   -189.13029606 </i>
    <i name="e_wo_entrp">   -188.88638276 </i>
    <i name="e_0_energy">   -189.00833941 </i>
   </energy>
  </scstep>
  <scstep>
   <time name="diag">    1.20    1.20</time>
   <time name="diis">    3.39    3.40</time>
   <time name="orth">    0.28    0.28</time>
   <time name="total">    5.15    5.17</time>
   <dipole>
    <v name="dipole">      0.00000000       0.00000000      -0.07710799 </v>
    <i name="Tr[quadrupol]"> -10255.31957005 </i>
    <i name="Echarged">      0.00000000 </i>
    <i name="Edipol_quadrupol">      0.00000000 </i>
    <i name="Eion">      0.00000000 </i>
   </dipole>
   <energy>
    <i name="e_fr_energy">   -189.25592631 </i>
    <i name="e_wo_entrp">   -188.99823749 </i>
    <i name="e_0_energy">   -189.12708190 </i>
   </energy>
  </scstep>
  <scstep>
   <time name="diag">    1.20    1.21</time>
   <time name="diis">    3.35    3.35</time>
   <time name="orth">    0.28    0.28</time>
   <time name="total">    5.11    5.13</time>
   <dipole>
    <v name="dipole">      0.00000000       0.00000000       0.02925836 </v>
    <i name="Tr[quadrupol]"> -10255.39045790 </i>
    <i name="Echarged">      0.00000000 </i>
    <i name="Edipol_quadrupol">      0.00000000 </i>
    <i name="Eion">      0.00000000 </i>
   </dipole>
   <energy>
    <i name="e_fr_energy">   -189.12003766 </i>
    <i name="e_wo_entrp">   -188.87183905 </i>
    <i name="e_0_energy">   -188.99593835 </i>
   </energy>
  </scstep>
  <scstep>
   <time name="diag">    1.21    1.21</time>
   <time name="diis">    3.35    3.36</time>
   <time name="orth">    0.28    0.28</time>
   <time name="total">    5.12    5.14</time>
   <dipole>
    <v name="dipole">      0.00000000       0.00000000       0.01133908 </v>
    <i name="Tr[quadrupol]"> -10255.32440503 </i>
    <i name="Echarged">      0.00000000 </i>
    <i name="Edipol_quadrupol">      0.00000000 </i>
    <i name="Eion">      0.00000000 </i>
   </dipole>
   <energy>
    <i name="e_fr_energy">   -189.10759265 </i>
    <i name="e_wo_entrp">   -188.86352199 </i>
    <i name="e_0_energy">   -188.98555732 </i>
   </energy>
  </scstep>
  <scstep>
   <time name="diag">    1.20    1.20</time>
   <time name="diis">    3.34    3.34</time>
   <time name="orth">    0.28    0.28</time>
   <time name="total">    5.10    5.12</time>
   <dipole>
    <v name="dipole">      0.00000000       0.00000000       0.03363571 </v>
    <i name="Tr[quadrupol]"> -10255.35911568 </i>
    <i name="Echarged">      0.00000000 </i>
    <i name="Edipol_quadrupol">      0.00000000 </i>
    <i name="Eion">      0.00000000 </i>
   </dipole>
   <energy>
    <i name="e_fr_energy">   -189.10511269 </i>
    <i name="e_wo_entrp">   -188.85701660 </i>
    <i name="e_0_energy">   -188.98106465 </i>
   </energy>
  </scstep>
  <scstep>
   <time name="diag">    1.20    1.20</time>
   <time name="diis">    3.35    3.37</time>
   <time name="orth">    0.28    0.28</time>
   <time name="total">    5.12    5.14</time>
   <dipole>
    <v name="dipole">      0.00000000       0.00000000       0.03067798 </v>
    <i name="Tr[quadrupol]"> -10255.34872273 </i>
    <i name="Echarged">      0.00000000 </i>
    <i name="Edipol_quadrupol">      0.00000000 </i>
    <i name="Eion">      0.00000000 </i>
   </dipole>
   <energy>
    <i name="e_fr_energy">   -189.10098764 </i>
    <i name="e_wo_entrp">   -188.85477134 </i>
    <i name="e_0_energy">   -188.97787949 </i>
   </energy>
  </scstep>
  <scstep>
   <time name="diag">    1.20    1.21</time>
   <time name="diis">    3.33    3.34</time>
   <time name="orth">    0.28    0.30</time>
   <time name="total">    5.10    5.16</time>
   <dipole>
    <v name="dipole">      0.00000000       0.00000000       0.02323674 </v>
    <i name="Tr[quadrupol]"> -10255.33484193 </i>
    <i name="Echarged">      0.00000000 </i>
    <i name="Edipol_quadrupol">      0.00000000 </i>
    <i name="Eion">      0.00000000 </i>
   </dipole>
   <energy>
    <i name="e_fr_energy">   -189.09971515 </i>
    <i name="e_wo_entrp">   -188.85182260 </i>
    <i name="e_0_energy">   -188.97576887 </i>
   </energy>
  </scstep>
  <scstep>
   <time name="diag">    1.20    1.23</time>
   <time name="diis">    3.37    3.38</time>
   <time name="orth">    0.28    0.28</time>
   <time name="total">    5.14    5.19</time>
   <dipole>
    <v name="dipole">      0.00000000       0.00000000       0.02223340 </v>
    <i name="Tr[quadrupol]"> -10255.33255561 </i>
    <i name="Echarged">      0.00000000 </i>
    <i name="Edipol_quadrupol">      0.00000000 </i>
    <i name="Eion">      0.00000000 </i>
   </dipole>
   <energy>
    <i name="e_fr_energy">   -189.09933143 </i>
    <i name="e_wo_entrp">   -188.85196984 </i>
    <i name="e_0_energy">   -188.97565063 </i>
   </energy>
  </scstep>
  <scstep>
   <time name="diag">    1.20    1.21</time>
   <time name="diis">    3.30    3.33</time>
   <time name="orth">    0.28    0.28</time>
   <time name="total">    5.06    5.11</time>
   <dipole>
    <v name="dipole">      0.00000000       0.00000000       0.02305460 </v>
    <i name="Tr[quadrupol]"> -10255.33177992 </i>
    <i name="Echarged">      0.00000000 </i>
    <i name="Edipol_quadrupol">      0.00000000 </i>
    <i name="Eion">      0.00000000 </i>
   </dipole>
   <energy>
    <i name="e_fr_energy">   -189.09921660 </i>
    <i name="e_wo_entrp">   -188.85156064 </i>
    <i name="e_0_energy">   -188.97538862 </i>
   </energy>
  </scstep>
  <scstep>
   <time name="diag">    1.20    1.21</time>
   <time name="diis">    3.31    3.32</time>
   <time name="orth">    0.28    0.28</time>
   <time name="total">    5.08    5.10</time>
   <dipole>
    <v name="dipole">      0.00000000       0.00000000       0.02295211 </v>
    <i name="Tr[quadrupol]"> -10255.33147397 </i>
    <i name="Echarged">      0.00000000 </i>
    <i name="Edipol_quadrupol">      0.00000000 </i>
    <i name="Eion">      0.00000000 </i>
   </dipole>
   <energy>
    <i name="e_fr_energy">   -189.09917869 </i>
    <i name="e_wo_entrp">   -188.85152561 </i>
    <i name="e_0_energy">   -188.97535215 </i>
   </energy>
  </scstep>
  <scstep>
   <time name="diag">    1.20    1.21</time>
   <time name="diis">    3.35    3.36</time>
   <time name="orth">    0.28    0.28</time>
   <time name="total">    5.12    5.13</time>
   <dipole>
    <v name="dipole">      0.00000000       0.00000000       0.02267536 </v>
    <i name="Tr[quadrupol]"> -10255.33408000 </i>
    <i name="Echarged">      0.00000000 </i>
    <i name="Edipol_quadrupol">      0.00000000 </i>
    <i name="Eion">      0.00000000 </i>
   </dipole>
   <energy>
    <i name="e_fr_energy">   -189.09918125 </i>
    <i name="e_wo_entrp">   -188.85151462 </i>
    <i name="e_0_energy">   -188.97534793 </i>
   </energy>
  </scstep>
  <scstep>
   <time name="diag">    1.20    1.21</time>
   <time name="diis">    3.23    3.24</time>
   <time name="orth">    0.28    0.28</time>
   <time name="total">    5.00    5.02</time>
   <dipole>
    <v name="dipole">      0.00000000       0.00000000       0.02261877 </v>
    <i name="Tr[quadrupol]"> -10255.33611621 </i>
    <i name="Echarged">      0.00000000 </i>
    <i name="Edipol_quadrupol">      0.00000000 </i>
    <i name="Eion">      0.00000000 </i>
   </dipole>
   <energy>
    <i name="e_fr_energy">   -189.09917426 </i>
    <i name="e_wo_entrp">   -188.85153671 </i>
    <i name="e_0_energy">   -188.97535548 </i>
   </energy>
  </scstep>
  <scstep>
   <time name="diag">    1.20    1.21</time>
   <time name="diis">    2.73    2.74</time>
   <time name="orth">    0.28    0.28</time>
   <time name="total">    4.27    4.28</time>
   <dipole>
    <v name="dipole">      0.00000000       0.00000000       0.02268362 </v>
    <i name="Tr[quadrupol]"> -10255.33861621 </i>
    <i name="Echarged">      0.00000000 </i>
    <i name="Edipol_quadrupol">      0.00000000 </i>
    <i name="Eion">      0.00000000 </i>
   </dipole>
   <energy>
    <i name="alphaZ">    805.86918904 </i>
    <i name="ewald"> 199104.68243287 </i>
    <i name="hartreedc">-241302.46403842 </i>
    <i name="XCdc">   -344.27601405 </i>
    <i name="pawpsdc">  49186.66439328 </i>
    <i name="pawaedc"> -47262.75956660 </i>
    <i name="eentropy">     -0.24763067 </i>
    <i name="bandstr">  -2036.35381164 </i>
    <i name="atom">  41659.78587232 </i>
    <i name="e_fr_energy">   -189.09917388 </i>
    <i name="e_wo_entrp">   -188.85154321 </i>
    <i name="e_0_energy">   -188.97535854 </i>
   </energy>
  </scstep>
  <structure>
   <crystal>
    <varray name="basis" >
     <v>      11.00258152       0.00000000       0.00000000 </v>
     <v>       5.50129076       9.52851510       0.00000000 </v>
     <v>       0.00000000       0.00000000      24.49178509 </v>
    </varray>
    <i name="volume">   2567.67623402 </i>
    <varray name="rec_basis" >
     <v>       0.09088776      -0.05247407       0.00000000 </v>
     <v>       0.00000000       0.10494815       0.00000000 </v>
     <v>       0.00000000       0.00000000       0.04083002 </v>
    </varray>
   </crystal>
   <varray name="positions" >
    <v>       0.75010537      -0.00084101       0.59418462 </v>
    <v>       0.83333333       0.58333333       0.40830017 </v>
    <v>       0.66487596       0.66928418       0.50052253 </v>
    <v>       0.08333333       0.58333333       0.40830017 </v>
    <v>       0.91822874       0.41607047       0.50046897 </v>
    <v>       0.00103230       0.24937921       0.59363638 </v>
    <v>       0.66439691       0.41661411       0.50001776 </v>
    <v>       0.08333333       0.33333333       0.40830017 </v>
    <v>       0.74926290       0.50149300       0.59415018 </v>
    <v>       0.83333333       0.83333333       0.40830017 </v>
    <v>       0.91878569       0.91573512       0.49999619 </v>
    <v>       0.58333333       0.58333333       0.40830017 </v>
    <v>       0.74977333       0.24972173       0.59399044 </v>
    <v>       0.83333333       0.33333333       0.40830017 </v>
    <v>       0.25103891      -0.00056752       0.59349029 </v>
    <v>       0.16713787       0.41682184       0.50045324 </v>
    <v>       0.66586262       0.16797472       0.49925932 </v>
    <v>       0.33333333       0.58333333       0.40830017 </v>
    <v>       0.25021232       0.50047995       0.59342359 </v>
    <v>       0.33333333       0.83333333       0.40830017 </v>
    <v>       0.16638381       0.91666301       0.50003256 </v>
    <v>       0.66554334       0.91587305       0.50004601 </v>
    <v>       0.41625718       0.16689097       0.50030719 </v>
    <v>       0.33333333       0.08333333       0.40830017 </v>
    <v>       0.25041776       0.24958675       0.59286947 </v>
    <v>       0.33333333       0.33333333       0.40830017 </v>
    <v>       0.16665011       0.16599084       0.50005832 </v>
    <v>       0.00002394       0.74968572       0.59267733 </v>
    <v>       0.91781435       0.16550808       0.49967670 </v>
    <v>      -0.00012518       0.50091911       0.59289261 </v>
    <v>       0.91727738       0.66679224       0.50071019 </v>
    <v>       0.00044131      -0.00076548       0.59292690 </v>
    <v>       0.16687272       0.66699144       0.50027279 </v>
    <v>       0.08333333       0.83333333       0.40830017 </v>
    <v>       0.58333333       0.08333333       0.40830017 </v>
    <v>       0.08333333       0.08333333       0.40830017 </v>
    <v>       0.58333333       0.33333333       0.40830017 </v>
    <v>       0.41669762       0.41732563       0.49998658 </v>
    <v>       0.25042404       0.74955213       0.59257776 </v>
    <v>       0.83333333       0.08333333       0.40830017 </v>
    <v>       0.49895652       0.50078872       0.59268717 </v>
    <v>       0.58333333       0.83333333       0.40830017 </v>
    <v>       0.41693962       0.91617451       0.50029672 </v>
    <v>       0.49969192       0.75009335       0.59266994 </v>
    <v>       0.41594124       0.66674764       0.50070576 </v>
    <v>       0.49941655       0.25022044       0.59292464 </v>
    <v>       0.49967891       0.00000926       0.59290216 </v>
    <v>       0.75033706       0.74982452       0.59291620 </v>
   </varray>
  </structure>
  <varray name="forces" >
   <v>      -0.07384638      -0.11535339       1.16409605 </v>
   <v>       0.00138575       0.29580314      -1.48420959 </v>
   <v>      -0.11262056       0.12349509       0.45988724 </v>
   <v>       0.27877399       0.14000530      -1.29541510 </v>
   <v>      -0.00140730      -0.02953578       0.57650372 </v>
   <v>       0.08881036      -0.08289240       1.05524962 </v>
   <v>      -0.16222007       0.05428619       0.41772914 </v>
   <v>       0.12386116      -0.38512453      -1.58463913 </v>
   <v>      -0.02485805       0.18412574       1.21127265 </v>
   <v>       0.01994964       0.25746915      -1.47024409 </v>
   <v>       0.08019431      -0.04653727       0.29592990 </v>
   <v>      -0.14684741       0.09504911      -1.49364749 </v>
   <v>      -0.06226264      -0.04614167       1.14168914 </v>
   <v>      -0.22426286      -0.55646976      -1.47010393 </v>
   <v>       0.13284450      -0.13313842       0.99318431 </v>
   <v>       0.19461206       0.03872899       0.44137613 </v>
   <v>       0.00470929      -0.03212704       0.09155782 </v>
   <v>      -0.13194097      -0.20803923      -1.09668975 </v>
   <v>       0.08326040       0.07037812       0.98953064 </v>
   <v>      -0.00709021       0.15977052      -1.23367654 </v>
   <v>       0.09096304       0.01470301       0.25852709 </v>
   <v>      -0.04527100       0.05334878       0.31296166 </v>
   <v>      -0.05117751       0.04257704       0.33806149 </v>
   <v>       0.12616180      -0.06472938      -1.31785891 </v>
   <v>       0.04656925      -0.05322647       0.69068741 </v>
   <v>       0.25933741      -0.04032473      -0.84546172 </v>
   <v>      -0.08153331      -0.19085335       0.27331041 </v>
   <v>      -0.01154201      -0.03537706       0.62849981 </v>
   <v>       0.06226886      -0.07771104       0.16943002 </v>
   <v>       0.07710681       0.13344569       0.73821508 </v>
   <v>       0.11601454       0.03681712       0.46024069 </v>
   <v>       0.01319084      -0.13958954       0.69383807 </v>
   <v>       0.10392609      -0.01895042       0.29697719 </v>
   <v>      -0.00500527       0.15940559      -0.84962264 </v>
   <v>       0.04849294       0.12955591      -0.96743994 </v>
   <v>      -0.14005443      -0.03136394      -0.75768193 </v>
   <v>      -0.20939206      -0.22351571      -0.93686227 </v>
   <v>      -0.06791542       0.15441235       0.18011763 </v>
   <v>       0.03273604      -0.03364444       0.57219491 </v>
   <v>       0.05653916       0.03438243      -0.87902739 </v>
   <v>      -0.09680170       0.10788294       0.62925355 </v>
   <v>      -0.01312971       0.16889547      -0.93594747 </v>
   <v>      -0.14646913       0.00093446       0.30878482 </v>
   <v>      -0.05912840       0.02332068       0.66119051 </v>
   <v>      -0.15064625       0.05802588       0.43626031 </v>
   <v>      -0.05523875       0.00313004       0.66022443 </v>
   <v>      -0.01818226       0.00303281       0.71075092 </v>
   <v>       0.05713536       0.00166400       0.76099551 </v>
  </varray>
  <energy>
   <i name="e_fr_energy">   -189.09917388 </i>
   <i name="e_wo_entrp">   -188.97535854 </i>
   <i name="e_0_energy">     -0.24763067 </i>
  </energy>
  <time name="totalsc">   75.06   75.50</time>
 </calculation>
 <calculation>
  <scstep>
   <time name="dav">    6.88    6.89</time>
   <time name="total">    7.16    7.18</time>
   <dipole>
    <v name="dipole">      0.00000000       0.00000000       0.02266902 </v>
    <i name="Tr[quadrupol]"> -10242.09249897 </i>
    <i name="Echarged">      0.00000000 </i>
    <i name="Edipol_quadrupol">      0.00000000 </i>
    <i name="Eion">      0.00000000 </i>
   </dipole>
   <energy>
    <i name="alphaZ">    805.83642597 </i>
    <i name="ewald"> 195263.13064112 </i>
    <i name="hartreedc">-237482.22117031 </i>
    <i name="XCdc">   -346.98090884 </i>
    <i name="pawpsdc">  49186.56331503 </i>
    <i name="pawaedc"> -47262.65794987 </i>
    <i name="eentropy">     -0.23844847 </i>
    <i name="bandstr">  -2011.49702231 </i>
    <i name="atom">  41659.78587232 </i>
    <i name="e_fr_energy">   -188.27924536 </i>
    <i name="e_wo_entrp">   -188.04079689 </i>
    <i name="e_0_energy">   -188.16002112 </i>
   </energy>
  </scstep>
  <scstep>
   <time name="diag">    1.19    1.27</time>
   <time name="diis">    3.35    3.36</time>
   <time name="orth">    0.28    0.28</time>
   <time name="total">    5.11    5.21</time>
   <dipole>
    <v name="dipole">      0.00000000       0.00000000       0.15169124 </v>
    <i name="Tr[quadrupol]"> -10241.58440870 </i>
    <i name="Echarged">      0.00000000 </i>
    <i name="Edipol_quadrupol">      0.00000000 </i>
    <i name="Eion">      0.00000000 </i>
   </dipole>
   <energy>
    <i name="e_fr_energy">   -190.12794151 </i>
    <i name="e_wo_entrp">   -189.89633966 </i>
    <i name="e_0_energy">   -190.01214059 </i>
   </energy>
  </scstep>
  <scstep>
   <time name="diag">    1.21    1.21</time>
   <time name="diis">    3.44    3.45</time>
   <time name="orth">    0.28    0.28</time>
   <time name="total">    5.21    5.22</time>
   <dipole>
    <v name="dipole">      0.00000000       0.00000000      -0.19600331 </v>
    <i name="Tr[quadrupol]"> -10242.08850875 </i>
    <i name="Echarged">      0.00000000 </i>
    <i name="Edipol_quadrupol">      0.00000000 </i>
    <i name="Eion">      0.00000000 </i>
   </dipole>
   <energy>
    <i name="e_fr_energy">   -190.87275096 </i>
    <i name="e_wo_entrp">   -190.64181177 </i>
    <i name="e_0_energy">   -190.75728136 </i>
   </energy>
  </scstep>
  <scstep>
   <time name="diag">    1.21    1.21</time>
   <time name="diis">    3.36    3.37</time>
   <time name="orth">    0.28    0.28</time>
   <time name="total">    5.14    5.15</time>
   <dipole>
    <v name="dipole">      0.00000000       0.00000000       0.07841569 </v>
    <i name="Tr[quadrupol]"> -10242.15375809 </i>
    <i name="Echarged">      0.00000000 </i>
    <i name="Edipol_quadrupol">      0.00000000 </i>
    <i name="Eion">      0.00000000 </i>
   </dipole>
   <energy>
[...]
       <r>    -9.3596     0.0000     0.0000 </r>
       <r>    -9.3055     0.0000     0.0000 </r>
       <r>    -9.2515     0.0000     0.0000 </r>
       <r>    -9.1974     0.0000     0.0000 </r>
       <r>    -9.1434     0.0002     0.0000 </r>
       <r>    -9.0893     0.0039     0.0002 </r>
       <r>    -9.0352     0.0503     0.0029 </r>
       <r>    -8.9812     0.3747     0.0232 </r>
       <r>    -8.9271     1.5980     0.1096 </r>
       <r>    -8.8731     3.9135     0.3211 </r>
       <r>    -8.8190     5.5746     0.6225 </r>
       <r>    -8.7650     5.0099     0.8933 </r>
       <r>    -8.7109     4.1747     1.1190 </r>
       <r>    -8.6568     4.9810     1.3882 </r>
       <r>    -8.6028     5.4695     1.6839 </r>
       <r>    -8.5487     3.8253     1.8907 </r>
       <r>    -8.4947     1.5850     1.9763 </r>
       <r>    -8.4406     0.4192     1.9990 </r>
       <r>    -8.3866     0.2959     2.0150 </r>
       <r>    -8.3325     0.9774     2.0678 </r>
       <r>    -8.2784     2.4981     2.2029 </r>
       <r>    -8.2244     4.3013     2.4354 </r>
       <r>    -8.1703     5.2126     2.7172 </r>
       <r>    -8.1163     5.1212     2.9940 </r>
       <r>    -8.0622     5.7374     3.3041 </r>
       <r>    -8.0082     7.7202     3.7215 </r>
       <r>    -7.9541     9.0516     4.2108 </r>
       <r>    -7.9001     8.1944     4.6537 </r>
       <r>    -7.8460     6.4407     5.0019 </r>
       <r>    -7.7919     5.6257     5.3060 </r>
       <r>    -7.7379     5.5463     5.6058 </r>
       <r>    -7.6838     5.3004     5.8923 </r>
       <r>    -7.6298     6.0829     6.2212 </r>
       <r>    -7.5757     9.2612     6.7218 </r>
       <r>    -7.5217    12.0877     7.3752 </r>
       <r>    -7.4676    11.2245     7.9820 </r>
       <r>    -7.4135     8.2381     8.4273 </r>
       <r>    -7.3595     6.6444     8.7865 </r>
       <r>    -7.3054     8.2397     9.2319 </r>
       <r>    -7.2514    12.7653     9.9219 </r>
       <r>    -7.1973    17.8718    10.8880 </r>
       <r>    -7.1433    21.8002    12.0665 </r>
       <r>    -7.0892    24.6662    13.3998 </r>
       <r>    -7.0351    26.7622    14.8465 </r>
       <r>    -6.9811    28.7418    16.4002 </r>
       <r>    -6.9270    31.5762    18.1071 </r>
       <r>    -6.8730    36.2273    20.0654 </r>
       <r>    -6.8189    42.2920    22.3516 </r>
       <r>    -6.7649    46.0123    24.8389 </r>
       <r>    -6.7108    44.3584    27.2367 </r>
       <r>    -6.6568    39.6524    29.3802 </r>
       <r>    -6.6027    37.2275    31.3926 </r>
       <r>    -6.5486    40.6554    33.5903 </r>
       <r>    -6.4946    47.9529    36.1825 </r>
       <r>    -6.4405    54.8710    39.1486 </r>
       <r>    -6.3865    60.5060    42.4194 </r>
       <r>    -6.3324    65.6742    45.9695 </r>
       <r>    -6.2784    70.5245    49.7818 </r>
       <r>    -6.2243    74.1693    53.7912 </r>
       <r>    -6.1702    75.1923    57.8558 </r>
       <r>    -6.1162    75.2025    61.9210 </r>
       <r>    -6.0621    77.5038    66.1106 </r>
       <r>    -6.0081    81.0436    70.4915 </r>
       <r>    -5.9540    81.8458    74.9158 </r>
       <r>    -5.9000    79.1689    79.1955 </r>
       <r>    -5.8459    75.7955    83.2927 </r>
       <r>    -5.7918    73.8876    87.2868 </r>
       <r>    -5.7378    73.0845    91.2375 </r>
       <r>    -5.6837    72.3454    95.1483 </r>
       <r>    -5.6297    71.8385    99.0316 </r>
       <r>    -5.5756    71.8479   102.9155 </r>
       <r>    -5.5216    71.2859   106.7690 </r>
       <r>    -5.4675    69.4601   110.5237 </r>
       <r>    -5.4134    67.8047   114.1890 </r>
       <r>    -5.3594    68.3988   117.8864 </r>
       <r>    -5.3053    71.4556   121.7491 </r>
       <r>    -5.2513    75.7378   125.8432 </r>
       <r>    -5.1972    80.3674   130.1876 </r>
       <r>    -5.1432    84.2918   134.7441 </r>
       <r>    -5.0891    86.0247   139.3944 </r>
       <r>    -5.0351    85.1844   143.9991 </r>
       <r>    -4.9810    83.9435   148.5368 </r>
       <r>    -4.9269    84.6495   153.1127 </r>
       <r>    -4.8729    86.0865   157.7663 </r>
       <r>    -4.8188    86.1747   162.4246 </r>
       <r>    -4.7648    85.4641   167.0445 </r>
       <r>    -4.7107    85.1868   171.6494 </r>
       <r>    -4.6567    84.4888   176.2166 </r>
       <r>    -4.6026    82.3524   180.6683 </r>
       <r>    -4.5485    79.9982   184.9927 </r>
       <r>    -4.4945    79.0871   189.2679 </r>
       <r>    -4.4404    80.4153   193.6149 </r>
       <r>    -4.3864    83.4623   198.1266 </r>
       <r>    -4.3323    85.7906   202.7641 </r>
       <r>    -4.2783    86.1253   207.4197 </r>
       <r>    -4.2242    85.4406   212.0384 </r>
       <r>    -4.1701    84.4494   216.6034 </r>
       <r>    -4.1161    83.8488   221.1360 </r>
       <r>    -4.0620    84.6577   225.7123 </r>
       <r>    -4.0080    86.8971   230.4097 </r>
       <r>    -3.9539    89.1415   235.2284 </r>
       <r>    -3.8999    90.9387   240.1442 </r>
       <r>    -3.8458    93.2897   245.1872 </r>
       <r>    -3.7917    95.3717   250.3426 </r>
       <r>    -3.7377    95.8206   255.5224 </r>
       <r>    -3.6836    94.4473   260.6279 </r>
       <r>    -3.6296    92.5069   265.6285 </r>
       <r>    -3.5755    92.3084   270.6184 </r>
       <r>    -3.5215    94.1209   275.7062 </r>
       <r>    -3.4674    96.6718   280.9320 </r>
       <r>    -3.4134    98.8924   286.2778 </r>
       <r>    -3.3593    99.6974   291.6671 </r>
       <r>    -3.3052    98.5530   296.9945 </r>
       <r>    -3.2512    96.2145   302.1956 </r>
       <r>    -3.1971    94.2856   307.2923 </r>
       <r>    -3.1431    93.4705   312.3450 </r>
       <r>    -3.0890    92.8620   317.3648 </r>
       <r>    -3.0350    91.2162   322.2957 </r>
       <r>    -2.9809    88.6755   327.0892 </r>
       <r>    -2.9268    86.9220   331.7879 </r>
       <r>    -2.8728    87.8911   336.5390 </r>
       <r>    -2.8187    91.5346   341.4870 </r>
       <r>    -2.7647    95.1749   346.6319 </r>
       <r>    -2.7106    96.7740   351.8632 </r>
       <r>    -2.6566    96.8674   357.0995 </r>
       <r>    -2.6025    96.9742   362.3416 </r>
       <r>    -2.5484    97.1288   367.5920 </r>
       <r>    -2.4944    96.0367   372.7835 </r>
       <r>    -2.4403    94.2615   377.8789 </r>
       <r>    -2.3863    92.9190   382.9018 </r>
       <r>    -2.3322    91.3710   387.8410 </r>
       <r>    -2.2782    89.4097   392.6742 </r>
       <r>    -2.2241    88.2923   397.4470 </r>
       <r>    -2.1700    88.3536   402.2231 </r>
       <r>    -2.1160    88.5056   407.0074 </r>
       <r>    -2.0619    88.9563   411.8161 </r>
       <r>    -2.0079    90.4535   416.7057 </r>
       <r>    -1.9538    93.0154   421.7338 </r>
       <r>    -1.8998    97.3032   426.9937 </r>
       <r>    -1.8457   102.9227   432.5574 </r>
       <r>    -1.7917   107.4828   438.3675 </r>
       <r>    -1.7376   108.9742   444.2583 </r>
       <r>    -1.6835   107.7883   450.0850 </r>
       <r>    -1.6295   106.4286   455.8381 </r>
       <r>    -1.5754   106.0976   461.5734 </r>
       <r>    -1.5214   105.4023   467.2711 </r>
       <r>    -1.4673   103.1124   472.8450 </r>
       <r>    -1.4133    99.8861   478.2445 </r>
       <r>    -1.3592    96.7354   483.4737 </r>
       <r>    -1.3051    93.5377   488.5301 </r>
       <r>    -1.2511    89.3056   493.3576 </r>
       <r>    -1.1970    81.6869   497.7734 </r>
       <r>    -1.1430    68.4128   501.4715 </r>
       <r>    -1.0889    51.0734   504.2324 </r>
       <r>    -1.0349    34.7950   506.1133 </r>
       <r>    -0.9808    23.7579   507.3976 </r>
       <r>    -0.9267    18.0295   508.3722 </r>
       <r>    -0.8727    14.4101   509.1511 </r>
       <r>    -0.8186    11.4051   509.7677 </r>
       <r>    -0.7646    10.3182   510.3254 </r>
       <r>    -0.7105    11.1374   510.9275 </r>
       <r>    -0.6565    11.8088   511.5658 </r>
       <r>    -0.6024    12.6276   512.2484 </r>
       <r>    -0.5483    16.1621   513.1221 </r>
       <r>    -0.4943    21.3487   514.2761 </r>
       <r>    -0.4402    24.3203   515.5908 </r>
       <r>    -0.3862    23.0073   516.8345 </r>
       <r>    -0.3321    19.1899   517.8718 </r>
       <r>    -0.2781    17.9649   518.8430 </r>
       <r>    -0.2240    20.3992   519.9457 </r>
       <r>    -0.1700    20.7385   521.0667 </r>
       <r>    -0.1159    15.8325   521.9226 </r>
       <r>    -0.0618    10.1293   522.4701 </r>
       <r>    -0.0078     8.2155   522.9142 </r>
       <r>     0.0463     9.6999   523.4386 </r>
       <r>     0.1003    12.2189   524.0991 </r>
       <r>     0.1544    14.5078   524.8833 </r>
       <r>     0.2084    15.8447   525.7398 </r>
       <r>     0.2625    16.1362   526.6121 </r>
       <r>     0.3166    16.4766   527.5028 </r>
       <r>     0.3706    17.2398   528.4347 </r>
       <r>     0.4247    18.4830   529.4338 </r>
       <r>     0.4787    20.7066   530.5532 </r>
       <r>     0.5328    23.3411   531.8149 </r>
       <r>     0.5868    25.1672   533.1754 </r>
       <r>     0.6409    25.7903   534.5695 </r>
       <r>     0.6950    24.9375   535.9175 </r>
       <r>     0.7490    22.1121   537.1129 </r>
       <r>     0.8031    18.6545   538.1213 </r>
       <r>     0.8571    16.0670   538.9898 </r>
       <r>     0.9112    13.7929   539.7354 </r>
       <r>     0.9652    11.3974   540.3515 </r>
       <r>     1.0193     9.6800   540.8748 </r>
       <r>     1.0734     9.4955   541.3880 </r>
       <r>     1.1274     9.8711   541.9216 </r>
       <r>     1.1815     8.5844   542.3857 </r>
       <r>     1.2355     6.2533   542.7237 </r>
       <r>     1.2896     5.1954   543.0046 </r>
       <r>     1.3436     5.4773   543.3006 </r>
       <r>     1.3977     6.8790   543.6725 </r>
       <r>     1.4517    10.1334   544.2203 </r>
       <r>     1.5058    14.2160   544.9888 </r>
       <r>     1.5599    16.4392   545.8774 </r>
       <r>     1.6139    15.8682   546.7352 </r>
       <r>     1.6680    14.1812   547.5018 </r>
       <r>     1.7220    13.7377   548.2444 </r>
       <r>     1.7761    15.6785   549.0919 </r>
       <r>     1.8301    17.9111   550.0601 </r>
       <r>     1.8842    16.8488   550.9709 </r>
       <r>     1.9383    12.4794   551.6455 </r>
       <r>     1.9923     8.8313   552.1229 </r>
       <r>     2.0464     8.8818   552.6030 </r>
       <r>     2.1004    11.6053   553.2304 </r>
       <r>     2.1545    14.9535   554.0387 </r>
       <r>     2.2085    18.4222   555.0345 </r>
       <r>     2.2626    22.1839   556.2337 </r>
       <r>     2.3167    25.3676   557.6050 </r>
       <r>     2.3707    26.2640   559.0248 </r>
       <r>     2.4248    23.9005   560.3167 </r>
       <r>     2.4788    19.7808   561.3860 </r>
       <r>     2.5329    17.7278   562.3443 </r>
       <r>     2.5869    19.2750   563.3863 </r>
       <r>     2.6410    22.5582   564.6057 </r>
       <r>     2.6951    24.9003   565.9517 </r>
       <r>     2.7491    23.6071   567.2278 </r>
       <r>     2.8032    17.9200   568.1965 </r>
       <r>     2.8572    10.9353   568.7877 </r>
       <r>     2.9113     6.8646   569.1587 </r>
       <r>     2.9653     6.1559   569.4915 </r>
       <r>     3.0194     5.6798   569.7985 </r>
       <r>     3.0734     4.5427   570.0441 </r>
       <r>     3.1275     4.7489   570.3008 </r>
       <r>     3.1816     6.8778   570.6726 </r>
       <r>     3.2356     9.7557   571.2000 </r>
       <r>     3.2897    11.6987   571.8324 </r>
       <r>     3.3437    11.0617   572.4303 </r>
       <r>     3.3978     8.7271   572.9021 </r>
       <r>     3.4518     8.5644   573.3650 </r>
       <r>     3.5059    11.6594   573.9953 </r>
       <r>     3.5600    14.4594   574.7769 </r>
       <r>     3.6140    16.2451   575.6551 </r>
       <r>     3.6681    19.2926   576.6980 </r>
       <r>     3.7221    21.8219   577.8776 </r>
       <r>     3.7762    20.6009   578.9912 </r>
       <r>     3.8302    16.6337   579.8904 </r>
       <r>     3.8843    13.1869   580.6032 </r>
       <r>     3.9384    12.2714   581.2666 </r>
       <r>     3.9924    13.8021   582.0127 </r>
       <r>     4.0465    14.8337   582.8145 </r>
       <r>     4.1005    13.1058   583.5230 </r>
       <r>     4.1546    10.8517   584.1096 </r>
       <r>     4.2086    10.5229   584.6784 </r>
       <r>     4.2627    10.7291   585.2584 </r>
       <r>     4.3167     9.6464   585.7798 </r>
       <r>     4.3708     8.6875   586.2495 </r>
       <r>     4.4249     9.7111   586.7744 </r>
       <r>     4.4789    12.5734   587.4541 </r>
       <r>     4.5330    17.7053   588.4112 </r>
       <r>     4.5870    24.9014   589.7573 </r>
       <r>     4.6411    29.6360   591.3593 </r>
       <r>     4.6951    28.1022   592.8784 </r>
       <r>     4.7492    23.4704   594.1471 </r>
       <r>     4.8033    21.5471   595.3119 </r>
       <r>     4.8573    23.4736   596.5808 </r>
       <r>     4.9114    25.4282   597.9554 </r>
       <r>     4.9654    26.9720   599.4134 </r>
       <r>     5.0195    31.0843   601.0937 </r>
       <r>     5.0735    36.1515   603.0479 </r>
       <r>     5.1276    37.7630   605.0893 </r>
       <r>     5.1817    35.6983   607.0190 </r>
       <r>     5.2357    32.0366   608.7508 </r>
       <r>     5.2898    26.0959   610.1614 </r>
       <r>     5.3438    17.8775   611.1278 </r>
       <r>     5.3979     9.9966   611.6682 </r>
       <r>     5.4519     4.4025   611.9062 </r>
       <r>     5.5060     1.4018   611.9820 </r>
       <r>     5.5601     0.2929   611.9978 </r>
       <r>     5.6141     0.0375   611.9998 </r>
       <r>     5.6682     0.0028   612.0000 </r>
       <r>     5.7222     0.0001   612.0000 </r>
       <r>     5.7763     0.0000   612.0000 </r>
       <r>     5.8303     0.0000   612.0000 </r>
       <r>     5.8844     0.0000   612.0000 </r>
       <r>     5.9384     0.0000   612.0000 </r>
       <r>     5.9925     0.0000   612.0000 </r>
       <r>     6.0466     0.0000   612.0000 </r>
       <r>     6.1006     0.0000   612.0000 </r>
       <r>     6.1547     0.0000   612.0000 </r>
       <r>     6.2087     0.0000   612.0000 </r>
       <r>     6.2628     0.0000   612.0000 </r>
       <r>     6.3168     0.0000   612.0000 </r>
       <r>     6.3709     0.0000   612.0000 </r>
      </set>
     </set>
    </array>
   </total>
  </dos>
 </calculation>
 <structure name="finalpos" >
  <crystal>
   <varray name="basis" >
    <v>      11.00258152       0.00000000       0.00000000 </v>
    <v>       5.50129076       9.52851510       0.00000000 </v>
    <v>       0.00000000       0.00000000      24.49178509 </v>
   </varray>
   <i name="volume">   2567.67623402 </i>
   <varray name="rec_basis" >
    <v>       0.09088776      -0.05247407       0.00000000 </v>
    <v>       0.00000000       0.10494815       0.00000000 </v>
    <v>       0.00000000       0.00000000       0.04083002 </v>
   </varray>
  </crystal>
  <varray name="positions" >
   <v>       0.75059536      -0.00217018       0.61343885 </v>
   <v>       0.83333333       0.58333333       0.40830017 </v>
   <v>       0.66356550       0.66901792       0.51040510 </v>
   <v>       0.08333333       0.58333333       0.40830017 </v>
   <v>       0.91673831       0.41631761       0.51287116 </v>
   <v>       0.00229727       0.24851174       0.61290619 </v>
   <v>       0.66341454       0.41738060       0.51039296 </v>
   <v>       0.08333333       0.33333333       0.40830017 </v>
   <v>       0.74864091       0.50297723       0.61629652 </v>
   <v>       0.83333333       0.83333333       0.40830017 </v>
   <v>       0.91809979       0.91612999       0.50813886 </v>
   <v>       0.58333333       0.58333333       0.40830017 </v>
   <v>       0.74960202       0.24902328       0.61378409 </v>
   <v>       0.83333333       0.33333333       0.40830017 </v>
   <v>       0.25313255      -0.00226266       0.61006667 </v>
   <v>       0.16650592       0.41825920       0.50999231 </v>
   <v>       0.66622948       0.16834620       0.50629771 </v>
   <v>       0.33333333       0.58333333       0.40830017 </v>
   <v>       0.25149510       0.50079204       0.60991394 </v>
   <v>       0.33333333       0.83333333       0.40830017 </v>
   <v>       0.16587549       0.91814542       0.50748135 </v>
   <v>       0.66486999       0.91675728       0.50856643 </v>
   <v>       0.41457883       0.16767246       0.50788380 </v>
   <v>       0.33333333       0.08333333       0.40830017 </v>
   <v>       0.25196283       0.24898296       0.60655440 </v>
   <v>       0.33333333       0.33333333       0.40830017 </v>
   <v>       0.16501883       0.16624229       0.50946091 </v>
   <v>       0.00048535       0.74963700       0.60536981 </v>
   <v>       0.91671822       0.16707397       0.50830029 </v>
   <v>       0.00052427       0.50209116       0.60825452 </v>
   <v>       0.91704573       0.66695591       0.50987383 </v>
   <v>       0.00145752      -0.00232060       0.60629358 </v>
   <v>       0.16746575       0.66669902       0.50811168 </v>
   <v>       0.08333333       0.83333333       0.40830017 </v>
   <v>       0.58333333       0.08333333       0.40830017 </v>
   <v>       0.08333333       0.08333333       0.40830017 </v>
   <v>       0.58333333       0.33333333       0.40830017 </v>
   <v>       0.41449593       0.41982983       0.50734591 </v>
   <v>       0.25092947       0.74969789       0.60482537 </v>
   <v>       0.83333333       0.08333333       0.40830017 </v>
   <v>       0.49898494       0.50128453       0.60637250 </v>
   <v>       0.58333333       0.83333333       0.40830017 </v>
   <v>       0.41433687       0.91702898       0.50882058 </v>
   <v>       0.50023092       0.74973277       0.60629885 </v>
   <v>       0.41401862       0.66757123       0.50904192 </v>
   <v>       0.50046203       0.24952904       0.60487734 </v>
   <v>       0.50056774      -0.00024255       0.60639024 </v>
   <v>       0.75082640       0.74987492       0.60709742 </v>
  </varray>
  <varray name="selective"  type="logical" >
   <v type="logical" >  T  T  T </v>
   <v type="logical" >  F  F  F </v>
   <v type="logical" >  T  T  T </v>
   <v type="logical" >  F  F  F </v>
   <v type="logical" >  T  T  T </v>
   <v type="logical" >  T  T  T </v>
   <v type="logical" >  T  T  T </v>
   <v type="logical" >  F  F  F </v>
   <v type="logical" >  T  T  T </v>
   <v type="logical" >  F  F  F </v>
   <v type="logical" >  T  T  T </v>
   <v type="logical" >  F  F  F </v>
   <v type="logical" >  T  T  T </v>
   <v type="logical" >  F  F  F </v>
   <v type="logical" >  T  T  T </v>
   <v type="logical" >  T  T  T </v>
   <v type="logical" >  T  T  T </v>
   <v type="logical" >  F  F  F </v>
   <v type="logical" >  T  T  T </v>
   <v type="logical" >  F  F  F </v>
   <v type="logical" >  T  T  T </v>
   <v type="logical" >  T  T  T </v>
   <v type="logical" >  T  T  T </v>
   <v type="logical" >  F  F  F </v>
   <v type="logical" >  T  T  T </v>
   <v type="logical" >  F  F  F </v>
   <v type="logical" >  T  T  T </v>
   <v type="logical" >  T  T  T </v>
   <v type="logical" >  T  T  T </v>
   <v type="logical" >  T  T  T </v>
   <v type="logical" >  T  T  T </v>
   <v type="logical" >  T  T  T </v>
   <v type="logical" >  T  T  T </v>
   <v type="logical" >  F  F  F </v>
   <v type="logical" >  F  F  F </v>
   <v type="logical" >  F  F  F </v>
   <v type="logical" >  F  F  F </v>
   <v type="logical" >  T  T  T </v>
   <v type="logical" >  T  T  T </v>
   <v type="logical" >  F  F  F </v>
   <v type="logical" >  T  T  T </v>
   <v type="logical" >  F  F  F </v>
   <v type="logical" >  T  T  T </v>
   <v type="logical" >  T  T  T </v>
   <v type="logical" >  T  T  T </v>
   <v type="logical" >  T  T  T </v>
   <v type="logical" >  T  T  T </v>
   <v type="logical" >  T  T  T </v>
  </varray>
  <nose>
   <v>      -3.00000000       0.00000000       0.00010000       0.00010000 </v>
  </nose>
 </structure>
</modeling>
