unknown system                          
           1
    11.002582    0.000000    0.000000
     5.501291    9.528515    0.000000
     0.000000    0.000000   24.491785
   Au   Pd
  24  24
Direct configuration=     1
   0.75000000  0.00000000  0.59169983
   0.83333333  0.58333333  0.40830017
   0.66666667  0.66666667  0.50000000
   0.08333333  0.58333333  0.40830017
   0.91666667  0.41666667  0.50000000
   0.00000000  0.25000000  0.59169983
   0.66666667  0.41666667  0.50000000
   0.08333333  0.33333333  0.40830017
   0.75000000  0.50000000  0.59169983
   0.83333333  0.83333333  0.40830017
   0.91666667  0.91666667  0.50000000
   0.58333333  0.58333333  0.40830017
   0.75000000  0.25000000  0.59169983
   0.83333333  0.33333333  0.40830017
   0.25000000  0.00000000  0.59169983
   0.16666667  0.41666667  0.50000000
   0.66666667  0.16666667  0.50000000
   0.33333333  0.58333333  0.40830017
   0.25000000  0.50000000  0.59169983
   0.33333333  0.83333333  0.40830017
   0.16666667  0.91666667  0.50000000
   0.66666667  0.91666667  0.50000000
   0.41666667  0.16666667  0.50000000
   0.33333333  0.08333333  0.40830017
   0.25000000  0.25000000  0.59169983
   0.33333333  0.33333333  0.40830017
   0.16666667  0.16666667  0.50000000
   0.00000000  0.75000000  0.59169983
   0.91666667  0.16666667  0.50000000
   0.00000000  0.50000000  0.59169983
   0.91666667  0.66666667  0.50000000
   0.00000000  0.00000000  0.59169983
   0.16666667  0.66666667  0.50000000
   0.08333333  0.83333333  0.40830017
   0.58333333  0.08333333  0.40830017
   0.08333333  0.08333333  0.40830017
   0.58333333  0.33333333  0.40830017
   0.41666667  0.41666667  0.50000000
   0.25000000  0.75000000  0.59169983
   0.83333333  0.08333333  0.40830017
   0.50000000  0.50000000  0.59169983
   0.58333333  0.83333333  0.40830017
   0.41666667  0.91666667  0.50000000
   0.50000000  0.75000000  0.59169983
   0.41666667  0.66666667  0.50000000
   0.50000000  0.25000000  0.59169983
   0.50000000  0.00000000  0.59169983
   0.75000000  0.75000000  0.59169983
Direct configuration=     2
   0.75010537 -0.00084101  0.59418462
   0.83333333  0.58333333  0.40830017
   0.66487596  0.66928418  0.50052253
   0.08333333  0.58333333  0.40830017
   0.91822874  0.41607047  0.50046897
   0.00103230  0.24937921  0.59363638
   0.66439691  0.41661411  0.50001776
   0.08333333  0.33333333  0.40830017
   0.74926290  0.50149300  0.59415018
   0.83333333  0.83333333  0.40830017
   0.91878569  0.91573512  0.49999619
   0.58333333  0.58333333  0.40830017
   0.74977333  0.24972173  0.59399044
   0.83333333  0.33333333  0.40830017
   0.25103891 -0.00056752  0.59349029
   0.16713787  0.41682184  0.50045324
   0.66586262  0.16797472  0.49925932
   0.33333333  0.58333333  0.40830017
   0.25021232  0.50047995  0.59342359
   0.33333333  0.83333333  0.40830017
   0.16638381  0.91666301  0.50003256
   0.66554334  0.91587305  0.50004601
   0.41625718  0.16689097  0.50030719
   0.33333333  0.08333333  0.40830017
   0.25041776  0.24958675  0.59286947
   0.33333333  0.33333333  0.40830017
   0.16665011  0.16599084  0.50005832
   0.00002394  0.74968572  0.59267733
   0.91781435  0.16550808  0.49967670
  -0.00012518  0.50091911  0.59289261
   0.91727738  0.66679224  0.50071019
   0.00044131 -0.00076548  0.59292690
   0.16687272  0.66699144  0.50027279
   0.08333333  0.83333333  0.40830017
   0.58333333  0.08333333  0.40830017
   0.08333333  0.08333333  0.40830017
   0.58333333  0.33333333  0.40830017
   0.41669762  0.41732563  0.49998658
   0.25042404  0.74955213  0.59257776
   0.83333333  0.08333333  0.40830017
   0.49895652  0.50078872  0.59268717
   0.58333333  0.83333333  0.40830017
   0.41693962  0.91617451  0.50029672
   0.49969192  0.75009335  0.59266994
   0.41594124  0.66674764  0.50070576
   0.49941655  0.25022044  0.59292464
   0.49967891  0.00000926  0.59290216
   0.75033706  0.74982452  0.59291620
Direct configuration=     3
   0.75042148 -0.00336403  0.60163898
   0.83333333  0.58333333  0.40830017
   0.65950383  0.67713672  0.50209011
   0.08333333  0.58333333  0.40830017
   0.92291496  0.41428190  0.50187589
   0.00412922  0.24751682  0.59944605
   0.65758764  0.41645642  0.50007102
   0.08333333  0.33333333  0.40830017
   0.74705162  0.50597201  0.60150123
   0.83333333  0.83333333  0.40830017
   0.92514277  0.91294046  0.49998475
   0.58333333  0.58333333  0.40830017
   0.74909332  0.24888691  0.60086228
   0.83333333  0.33333333  0.40830017
   0.25415565 -0.00227007  0.59886167
   0.16855150  0.41728735  0.50181296
   0.66345047  0.17189887  0.49703728
   0.33333333  0.58333333  0.40830017
   0.25084929  0.50191979  0.59859485
   0.33333333  0.83333333  0.40830017
   0.16553522  0.91665205  0.50013022
   0.66217336  0.91349218  0.50018403
   0.41502872  0.16756388  0.50122875
   0.33333333  0.08333333  0.40830017
   0.25167103  0.24834701  0.59637840
   0.33333333  0.33333333  0.40830017
   0.16660043  0.16396336  0.50023326
   0.00009576  0.74874288  0.59560984
   0.92125739  0.16203233  0.49870679
  -0.00050074  0.50367645  0.59647093
   0.91910952  0.66716894  0.50284076
   0.00176522 -0.00306190  0.59660810
   0.16749089  0.66796576  0.50109114
   0.08333333  0.83333333  0.40830017
   0.58333333  0.08333333  0.40830017
   0.08333333  0.08333333  0.40830017
   0.58333333  0.33333333  0.40830017
   0.41679047  0.41930252  0.49994633
   0.25169615  0.74820852  0.59521156
   0.83333333  0.08333333  0.40830017
   0.49582607  0.50315486  0.59564918
   0.58333333  0.83333333  0.40830017
   0.41775849  0.91469803  0.50118688
   0.49876768  0.75037339  0.59558025
   0.41376498  0.66699058  0.50282303
   0.49766619  0.25088176  0.59659906
   0.49871566  0.00003705  0.59650916
   0.75134825  0.74929809  0.59656532
Direct configuration=     4
   0.75025794 -0.00357214  0.60375921
   0.83333333  0.58333333  0.40830017
   0.66023095  0.67462486  0.50321793
   0.08333333  0.58333333  0.40830017
   0.92157025  0.41460204  0.50342836
   0.00409865  0.24748226  0.60138007
   0.65863444  0.41733882  0.50147937
   0.08333333  0.33333333  0.40830017
   0.74685055  0.50603606  0.60368999
   0.83333333  0.83333333  0.40830017
   0.92350537  0.91347607  0.50102780
   0.58333333  0.58333333  0.40830017
   0.74900608  0.24886828  0.60291924
   0.83333333  0.33333333  0.40830017
   0.25456689 -0.00284813  0.60070910
   0.16949830  0.41749562  0.50297668
   0.66439520  0.16994811  0.49806776
   0.33333333  0.58333333  0.40830017
   0.25084697  0.50195133  0.60046630
   0.33333333  0.83333333  0.40830017
   0.16696854  0.91664213  0.50108026
   0.66287187  0.91546926  0.50123704
   0.41490953  0.16767950  0.50218499
   0.33333333  0.08333333  0.40830017
   0.25181634  0.24837909  0.59765889
   0.33333333  0.33333333  0.40830017
   0.16700861  0.16302224  0.50119131
   0.00016277  0.74885965  0.59685921
   0.92076781  0.16265758  0.49959443
  -0.00034027  0.50379262  0.59792851
   0.91917743  0.66736799  0.50376810
   0.00208468 -0.00360551  0.59788687
   0.16829982  0.66711385  0.50187782
   0.08333333  0.83333333  0.40830017
   0.58333333  0.08333333  0.40830017
   0.08333333  0.08333333  0.40830017
   0.58333333  0.33333333  0.40830017
   0.41496292  0.41999557  0.50068491
   0.25148710  0.74857779  0.59639139
   0.83333333  0.08333333  0.40830017
   0.49592206  0.50314986  0.59692855
   0.58333333  0.83333333  0.40830017
   0.41558992  0.91570044  0.50202257
   0.49858079  0.75044544  0.59697549
   0.41307799  0.66754181  0.50365626
   0.49784205  0.25068020  0.59774036
   0.49899592  0.00001729  0.59785889
   0.75136769  0.74958537  0.59804395
Direct configuration=     5
   0.74976733 -0.00419648  0.61011990
   0.83333333  0.58333333  0.40830017
   0.66241233  0.66708930  0.50660137
   0.08333333  0.58333333  0.40830017
   0.91753610  0.41556247  0.50808578
   0.00400692  0.24737856  0.60718213
   0.66177486  0.41998600  0.50570442
   0.08333333  0.33333333  0.40830017
   0.74624737  0.50622819  0.61025627
   0.83333333  0.83333333  0.40830017
   0.91859317  0.91508291  0.50415695
   0.58333333  0.58333333  0.40830017
   0.74874434  0.24881242  0.60909009
   0.83333333  0.33333333  0.40830017
   0.25580060 -0.00458233  0.60625139
   0.17233869  0.41812044  0.50646784
   0.66722941  0.16409584  0.50115923
   0.33333333  0.58333333  0.40830017
   0.25084002  0.50204595  0.60608063
   0.33333333  0.83333333  0.40830017
   0.17126850  0.91661237  0.50393036
   0.66496739  0.92140048  0.50439606
   0.41455195  0.16802634  0.50505372
   0.33333333  0.08333333  0.40830017
   0.25225225  0.24847534  0.60150037
   0.33333333  0.33333333  0.40830017
   0.16823315  0.16019888  0.50406545
   0.00036381  0.74920998  0.60060730
   0.91929907  0.16453335  0.50225735
   0.00014112  0.50414112  0.60230125
   0.91938116  0.66796513  0.50655012
   0.00304304 -0.00523633  0.60172319
   0.17072661  0.66455812  0.50423785
   0.08333333  0.83333333  0.40830017
   0.58333333  0.08333333  0.40830017
   0.08333333  0.08333333  0.40830017
   0.58333333  0.33333333  0.40830017
   0.40948028  0.42207473  0.50290064
   0.25085993  0.74968562  0.59993085
   0.83333333  0.08333333  0.40830017
   0.49621006  0.50313485  0.60076668
   0.58333333  0.83333333  0.40830017
   0.40908422  0.91870769  0.50452967
   0.49802013  0.75066161  0.60116121
   0.41101702  0.66919549  0.50615593
   0.49836963  0.25007552  0.60116427
   0.49983673 -0.00004200  0.60190805
   0.75142600  0.75044720  0.60247983
Direct configuration=     6
   0.74974716 -0.00314325  0.61188097
   0.83333333  0.58333333  0.40830017
   0.66316757  0.66796645  0.50803799
   0.08333333  0.58333333  0.40830017
   0.91774667  0.41538353  0.51000759
   0.00318436  0.24764860  0.60879985
   0.66287201  0.41796573  0.50769336
   0.08333333  0.33333333  0.40830017
   0.74698271  0.50480269  0.61225774
   0.83333333  0.83333333  0.40830017
   0.91913098  0.91544993  0.50582396
   0.58333333  0.58333333  0.40830017
   0.74896648  0.24878383  0.61060684
   0.83333333  0.33333333  0.40830017
   0.25469055 -0.00372831  0.60804267
   0.16931576  0.41780686  0.50788082
   0.66734982  0.16656460  0.50337179
   0.33333333  0.58333333  0.40830017
   0.25083043  0.50168536  0.60792367
   0.33333333  0.83333333  0.40830017
   0.16817048  0.91675157  0.50539176
   0.66484122  0.91922915  0.50613018
   0.41463100  0.16757313  0.50621686
   0.33333333  0.08333333  0.40830017
   0.25176954  0.24876125  0.60283016
   0.33333333  0.33333333  0.40830017
   0.16666558  0.16314063  0.50579784
   0.00057629  0.74967157  0.60196032
   0.91794146  0.16562164  0.50419994
   0.00036258  0.50318467  0.60380829
   0.91844344  0.66748356  0.50747989
   0.00256407 -0.00455288  0.60275666
   0.16929129  0.66605774  0.50543697
   0.08333333  0.83333333  0.40830017
   0.58333333  0.08333333  0.40830017
   0.08333333  0.08333333  0.40830017
   0.58333333  0.33333333  0.40830017
   0.41245664  0.42066065  0.50426185
   0.25014328  0.75013855  0.60140130
   0.83333333  0.08333333  0.40830017
   0.49746320  0.50205202  0.60211338
   0.58333333  0.83333333  0.40830017
   0.41215656  0.91805139  0.50588005
   0.49885960  0.75043583  0.60263932
   0.41223299  0.66845336  0.50690484
   0.49943540  0.24983345  0.60208144
   0.50049189 -0.00040417  0.60309416
   0.75074735  0.75067905  0.60370995
Direct configuration=     7
   0.74972611 -0.00204448  0.61371821
   0.83333333  0.58333333  0.40830017
   0.66395547  0.66888155  0.50953675
   0.08333333  0.58333333  0.40830017
   0.91796635  0.41519686  0.51201252
   0.00232622  0.24793032  0.61048755
   0.66401662  0.41585809  0.50976831
   0.08333333  0.33333333  0.40830017
   0.74774987  0.50331553  0.61434578
   0.83333333  0.83333333  0.40830017
   0.91969205  0.91583283  0.50756306
   0.58333333  0.58333333  0.40830017
   0.74919822  0.24875401  0.61218918
   0.83333333  0.33333333  0.40830017
   0.25353248 -0.00283735  0.60991142
   0.16616208  0.41747971  0.50935491
   0.66747544  0.16914013  0.50568005
   0.33333333  0.58333333  0.40830017
   0.25082042  0.50130918  0.60984643
   0.33333333  0.83333333  0.40830017
   0.16493847  0.91689678  0.50691636
   0.66470958  0.91696391  0.50793931
   0.41471347  0.16710032  0.50743031
   0.33333333  0.08333333  0.40830017
   0.25126597  0.24905953  0.60421746
   0.33333333  0.33333333  0.40830017
   0.16503020  0.16620962  0.50760517
   0.00079796  0.75015313  0.60337185
   0.91652512  0.16675699  0.50622655
   0.00059362  0.50218685  0.60538051
   0.91746516  0.66698115  0.50844988
   0.00206439 -0.00383986  0.60383482
   0.16779388  0.66762223  0.50668796
   0.08333333  0.83333333  0.40830017
   0.58333333  0.08333333  0.40830017
   0.08333333  0.08333333  0.40830017
   0.58333333  0.33333333  0.40830017
   0.41556173  0.41918541  0.50568194
   0.24939562  0.75061107  0.60293535
   0.83333333  0.08333333  0.40830017
   0.49877054  0.50092236  0.60351833
   0.58333333  0.83333333  0.40830017
   0.41536177  0.91736671  0.50728883
   0.49973538  0.75020027  0.60418135
   0.41350154  0.66767912  0.50768613
   0.50054728  0.24958091  0.60303828
   0.50117540 -0.00078201  0.60433157
   0.75003934  0.75092093  0.60499327
Direct configuration=     8
   0.74972761 -0.00212310  0.61358674
   0.83333333  0.58333333  0.40830017
   0.66389909  0.66881607  0.50942950
   0.08333333  0.58333333  0.40830017
   0.91795063  0.41521021  0.51186905
   0.00238763  0.24791016  0.61036678
   0.66393471  0.41600890  0.50961983
   0.08333333  0.33333333  0.40830017
   0.74769497  0.50342195  0.61419636
   0.83333333  0.83333333  0.40830017
   0.91965190  0.91580543  0.50743861
   0.58333333  0.58333333  0.40830017
   0.74918164  0.24875615  0.61207595
   0.83333333  0.33333333  0.40830017
   0.25361535 -0.00290111  0.60977770
   0.16638775  0.41750312  0.50924942
   0.66746645  0.16895583  0.50551488
   0.33333333  0.58333333  0.40830017
   0.25082114  0.50133610  0.60970884
   0.33333333  0.83333333  0.40830017
   0.16516974  0.91688639  0.50680727
   0.66471900  0.91712600  0.50780985
   0.41470757  0.16713416  0.50734347
   0.33333333  0.08333333  0.40830017
   0.25130200  0.24903819  0.60411819
   0.33333333  0.33333333  0.40830017
   0.16514722  0.16599001  0.50747584
   0.00078210  0.75011867  0.60327084
   0.91662647  0.16667575  0.50608153
   0.00057708  0.50225825  0.60526800
   0.91753517  0.66701710  0.50838047
   0.00210014 -0.00389088  0.60375767
   0.16790103  0.66751028  0.50659844
   0.08333333  0.83333333  0.40830017
   0.58333333  0.08333333  0.40830017
   0.08333333  0.08333333  0.40830017
   0.58333333  0.33333333  0.40830017
   0.41533953  0.41929097  0.50558032
   0.24944912  0.75057726  0.60282558
   0.83333333  0.08333333  0.40830017
   0.49867699  0.50100320  0.60341779
   0.58333333  0.83333333  0.40830017
   0.41513242  0.91741570  0.50718802
   0.49967271  0.75021713  0.60407101
   0.41341077  0.66773453  0.50763023
   0.50046772  0.24959898  0.60296981
   0.50112649 -0.00075497  0.60424303
   0.75009001  0.75090362  0.60490144
Direct configuration=     9
   0.75012980 -0.00182089  0.61396004
   0.83333333  0.58333333  0.40830017
   0.66419953  0.66872361  0.50977216
   0.08333333  0.58333333  0.40830017
   0.91702061  0.41559641  0.51229402
   0.00209991  0.24780233  0.61100650
   0.66441445  0.41653197  0.51009220
   0.08333333  0.33333333  0.40830017
   0.74823921  0.50288501  0.61490132
   0.83333333  0.83333333  0.40830017
   0.91801829  0.91611675  0.50781586
   0.58333333  0.58333333  0.40830017
   0.74975156  0.24855003  0.61264596
   0.83333333  0.33333333  0.40830017
   0.25308592 -0.00225171  0.61010802
   0.16629767  0.41805344  0.50951087
   0.66701855  0.16848031  0.50625810
   0.33333333  0.58333333  0.40830017
   0.25113268  0.50097849  0.61004809
   0.33333333  0.83333333  0.40830017
   0.16558262  0.91797691  0.50715091
   0.66545792  0.91660688  0.50821160
   0.41502811  0.16743403  0.50748687
   0.33333333  0.08333333  0.40830017
   0.25140613  0.24890529  0.60487015
   0.33333333  0.33333333  0.40830017
   0.16485204  0.16601594  0.50825537
   0.00049224  0.74994386  0.60393696
   0.91676166  0.16707288  0.50696576
   0.00031630  0.50222142  0.60623399
   0.91708049  0.66706028  0.50864168
   0.00131884 -0.00257519  0.60445581
   0.16756616  0.66649192  0.50715526
   0.08333333  0.83333333  0.40830017
   0.58333333  0.08333333  0.40830017
   0.08333333  0.08333333  0.40830017
   0.58333333  0.33333333  0.40830017
   0.41530288  0.41904833  0.50620907
   0.25010946  0.75004448  0.60353765
   0.83333333  0.08333333  0.40830017
   0.49856496  0.50109759  0.60414317
   0.58333333  0.83333333  0.40830017
   0.41520096  0.91691355  0.50776324
   0.49978105  0.75000716  0.60471943
   0.41444214  0.66743722  0.50790738
   0.50050850  0.24968507  0.60342331
   0.50082116 -0.00054371  0.60488230
   0.75039398  0.75045018  0.60552759
Direct configuration=    10
   0.75037500 -0.00163664  0.61418764
   0.83333333  0.58333333  0.40830017
   0.66438270  0.66866724  0.50998108
   0.08333333  0.58333333  0.40830017
   0.91645357  0.41583187  0.51255313
   0.00192449  0.24773659  0.61139654
   0.66470694  0.41685088  0.51038020
   0.08333333  0.33333333  0.40830017
   0.74857103  0.50255763  0.61533112
   0.83333333  0.83333333  0.40830017
   0.91702228  0.91630656  0.50804586
   0.58333333  0.58333333  0.40830017
   0.75009904  0.24842436  0.61299349
   0.83333333  0.33333333  0.40830017
   0.25276313 -0.00185577  0.61030942
   0.16624275  0.41838897  0.50967027
   0.66674547  0.16819038  0.50671124
   0.33333333  0.58333333  0.40830017
   0.25132263  0.50076045  0.61025492
   0.33333333  0.83333333  0.40830017
   0.16583434  0.91864179  0.50736043
   0.66590844  0.91629037  0.50845654
   0.41522354  0.16761687  0.50757431
   0.33333333  0.08333333  0.40830017
   0.25146962  0.24882427  0.60532861
   0.33333333  0.33333333  0.40830017
   0.16467207  0.16603175  0.50873065
   0.00031551  0.74983728  0.60434309
   0.91684409  0.16731501  0.50750486
   0.00015731  0.50219897  0.60682294
   0.91680328  0.66708660  0.50880095
   0.00084248 -0.00177301  0.60488147
   0.16736199  0.66587104  0.50749475
   0.08333333  0.83333333  0.40830017
   0.58333333  0.08333333  0.40830017
   0.08333333  0.08333333  0.40830017
   0.58333333  0.33333333  0.40830017
   0.41528053  0.41890040  0.50659242
   0.25051206  0.74971965  0.60397180
   0.83333333  0.08333333  0.40830017
   0.49849666  0.50115513  0.60458542
   0.58333333  0.83333333  0.40830017
   0.41524275  0.91660739  0.50811395
   0.49984711  0.74987914  0.60511477
   0.41507096  0.66725596  0.50807635
   0.50053336  0.24973756  0.60369981
   0.50063501 -0.00041491  0.60527207
   0.75057931  0.75017372  0.60590936
Direct configuration=    11
   0.75046293 -0.00193417  0.61419124
   0.83333333  0.58333333  0.40830017
   0.66418403  0.66880631  0.50999475
   0.08333333  0.58333333  0.40830017
   0.91659988  0.41615272  0.51253428
   0.00216281  0.24798166  0.61179022
   0.66418909  0.41717201  0.51030947
   0.08333333  0.33333333  0.40830017
   0.74854406  0.50273464  0.61564457
   0.83333333  0.83333333  0.40830017
   0.91751690  0.91621642  0.50802609
   0.58333333  0.58333333  0.40830017
   0.74982787  0.24878238  0.61327758
   0.83333333  0.33333333  0.40830017
   0.25293520 -0.00207056  0.61026128
   0.16657132  0.41827625  0.50970328
   0.66655028  0.16803672  0.50667976
   0.33333333  0.58333333  0.40830017
   0.25130902  0.50064223  0.61019483
   0.33333333  0.83333333  0.40830017
   0.16622605  0.91818972  0.50739953
   0.66541395  0.91659903  0.50845100
   0.41499685  0.16751891  0.50747085
   0.33333333  0.08333333  0.40830017
   0.25161138  0.24887212  0.60568873
   0.33333333  0.33333333  0.40830017
   0.16513523  0.16601262  0.50900348
   0.00025640  0.74967969  0.60464643
   0.91687827  0.16698877  0.50774049
   0.00017615  0.50214510  0.60732758
   0.91694783  0.66679928  0.50895684
   0.00100151 -0.00191065  0.60530674
   0.16740903  0.66609429  0.50774083
   0.08333333  0.83333333  0.40830017
   0.58333333  0.08333333  0.40830017
   0.08333333  0.08333333  0.40830017
   0.58333333  0.33333333  0.40830017
   0.41486543  0.41938384  0.50680084
   0.25082802  0.74961069  0.60417622
   0.83333333  0.08333333  0.40830017
   0.49840718  0.50138683  0.60507807
   0.58333333  0.83333333  0.40830017
   0.41484742  0.91672948  0.50834932
   0.49977647  0.74980580  0.60544251
   0.41478654  0.66734642  0.50823881
   0.50036593  0.24976720  0.60408963
   0.50044599 -0.00021585  0.60563949
   0.75084293  0.74998045  0.60631111
Direct configuration=    12
   0.75056372 -0.00227526  0.61419537
   0.83333333  0.58333333  0.40830017
   0.66395628  0.66896574  0.51001042
   0.08333333  0.58333333  0.40830017
   0.91676761  0.41652052  0.51251267
   0.00243601  0.24826260  0.61224151
   0.66359544  0.41754013  0.51022838
   0.08333333  0.33333333  0.40830017
   0.74851314  0.50293754  0.61600389
   0.83333333  0.83333333  0.40830017
   0.91808390  0.91611308  0.50800342
   0.58333333  0.58333333  0.40830017
   0.74951701  0.24919279  0.61360324
   0.83333333  0.33333333  0.40830017
   0.25313245 -0.00231678  0.61020609
   0.16694798  0.41814704  0.50974113
   0.66632652  0.16786058  0.50664368
   0.33333333  0.58333333  0.40830017
   0.25129343  0.50050672  0.61012594
   0.33333333  0.83333333  0.40830017
   0.16667508  0.91767149  0.50744435
   0.66484711  0.91695286  0.50844464
   0.41473698  0.16740663  0.50735226
   0.33333333  0.08333333  0.40830017
   0.25177388  0.24892697  0.60610155
   0.33333333  0.33333333  0.40830017
   0.16566618  0.16599070  0.50931624
   0.00018864  0.74949903  0.60499417
   0.91691746  0.16661477  0.50801061
   0.00019775  0.50208334  0.60790608
   0.91711354  0.66646990  0.50913555
   0.00118382 -0.00206843  0.60579425
   0.16746295  0.66635022  0.50802293
   0.08333333  0.83333333  0.40830017
   0.58333333  0.08333333  0.40830017
   0.08333333  0.08333333  0.40830017
   0.58333333  0.33333333  0.40830017
   0.41438959  0.41993803  0.50703977
   0.25119021  0.74948579  0.60441055
   0.83333333  0.08333333  0.40830017
   0.49830462  0.50165244  0.60564282
   0.58333333  0.83333333  0.40830017
   0.41439423  0.91686943  0.50861914
   0.49969549  0.74972171  0.60581821
   0.41446048  0.66745012  0.50842504
   0.50017399  0.24980119  0.60453651
   0.50022932  0.00001233  0.60606068
   0.75114513  0.74975889  0.60677166
Direct configuration=    13
   0.75046142 -0.00225799  0.61403648
   0.83333333  0.58333333  0.40830017
   0.66360626  0.66929941  0.51013932
   0.08333333  0.58333333  0.40830017
   0.91708095  0.41605578  0.51257525
   0.00240591  0.24847466  0.61244816
   0.66349912  0.41722770  0.51022419
   0.08333333  0.33333333  0.40830017
   0.74840374  0.50309306  0.61610734
   0.83333333  0.83333333  0.40830017
   0.91844477  0.91575415  0.50803187
   0.58333333  0.58333333  0.40830017
   0.74934390  0.24928825  0.61368469
   0.83333333  0.33333333  0.40830017
   0.25314219 -0.00236638  0.61016416
   0.16689366  0.41808652  0.50982421
   0.66616335  0.16829581  0.50654862
   0.33333333  0.58333333  0.40830017
   0.25114877  0.50068204  0.61004643
   0.33333333  0.83333333  0.40830017
   0.16633279  0.91772403  0.50744956
   0.66484241  0.91675643  0.50849867
   0.41470363  0.16753503  0.50746926
   0.33333333  0.08333333  0.40830017
   0.25185095  0.24898292  0.60626603
   0.33333333  0.33333333  0.40830017
   0.16529661  0.16616101  0.50938954
   0.00040128  0.74944731  0.60508573
   0.91693637  0.16685782  0.50809247
   0.00038523  0.50201350  0.60805581
   0.91711425  0.66686648  0.50935059
   0.00138415 -0.00231690  0.60598099
   0.16739579  0.66663958  0.50810925
   0.08333333  0.83333333  0.40830017
   0.58333333  0.08333333  0.40830017
   0.08333333  0.08333333  0.40830017
   0.58333333  0.33333333  0.40830017
   0.41450120  0.41987876  0.50713851
   0.25094737  0.74956157  0.60453499
   0.83333333  0.08333333  0.40830017
   0.49858111  0.50152402  0.60591293
   0.58333333  0.83333333  0.40830017
   0.41450515  0.91682499  0.50871557
   0.50003320  0.74964709  0.60595533
   0.41427230  0.66747855  0.50857001
   0.50026075  0.24964933  0.60468969
   0.50041895 -0.00008373  0.60618989
   0.75093823  0.74979956  0.60688210
Direct configuration=    14
   0.75043978 -0.00225434  0.61400285
   0.83333333  0.58333333  0.40830017
   0.66353219  0.66937002  0.51016660
   0.08333333  0.58333333  0.40830017
   0.91714726  0.41595743  0.51258849
   0.00239954  0.24851953  0.61249189
   0.66347873  0.41716158  0.51022330
   0.08333333  0.33333333  0.40830017
   0.74838059  0.50312597  0.61612923
   0.83333333  0.83333333  0.40830017
   0.91852114  0.91567820  0.50803789
   0.58333333  0.58333333  0.40830017
   0.74930727  0.24930845  0.61370193
   0.83333333  0.33333333  0.40830017
   0.25314425 -0.00237688  0.61015529
   0.16688216  0.41807372  0.50984179
   0.66612882  0.16838791  0.50652850
   0.33333333  0.58333333  0.40830017
   0.25111816  0.50071914  0.61002961
   0.33333333  0.83333333  0.40830017
   0.16626036  0.91773515  0.50745066
   0.66484142  0.91671487  0.50851010
   0.41469657  0.16756220  0.50749402
   0.33333333  0.08333333  0.40830017
   0.25186726  0.24899476  0.60630084
   0.33333333  0.33333333  0.40830017
   0.16521840  0.16619705  0.50940505
   0.00044628  0.74943637  0.60510511
   0.91694037  0.16690926  0.50810979
   0.00042490  0.50199872  0.60808750
   0.91711440  0.66695040  0.50939609
   0.00142654 -0.00236948  0.60602051
   0.16738157  0.66670081  0.50812751
   0.08333333  0.83333333  0.40830017
   0.58333333  0.08333333  0.40830017
   0.08333333  0.08333333  0.40830017
   0.58333333  0.33333333  0.40830017
   0.41452481  0.41986622  0.50715940
   0.25089598  0.74957761  0.60456133
   0.83333333  0.08333333  0.40830017
   0.49863962  0.50149685  0.60597009
   0.58333333  0.83333333  0.40830017
   0.41452862  0.91681558  0.50873597
   0.50010466  0.74963130  0.60598434
   0.41423248  0.66748457  0.50860069
   0.50027911  0.24961720  0.60472210
   0.50045908 -0.00010406  0.60621724
   0.75089444  0.74980817  0.60690547
Direct configuration=    15
   0.75046087 -0.00219648  0.61375664
   0.83333333  0.58333333  0.40830017
   0.66355344  0.66909367  0.51030438
   0.08333333  0.58333333  0.40830017
   0.91695352  0.41603004  0.51270854
   0.00229140  0.24858721  0.61268633
   0.66353462  0.41722583  0.51027880
   0.08333333  0.33333333  0.40830017
   0.74843532  0.50312871  0.61618945
   0.83333333  0.83333333  0.40830017
   0.91825862  0.91588589  0.50808308
   0.58333333  0.58333333  0.40830017
   0.74939025  0.24918849  0.61374177
   0.83333333  0.33333333  0.40830017
   0.25314631 -0.00236018  0.61010708
   0.16671137  0.41820891  0.50992589
   0.66623435  0.16832043  0.50641869
   0.33333333  0.58333333  0.40830017
   0.25120160  0.50081840  0.60996062
   0.33333333  0.83333333  0.40830017
   0.16601685  0.91803941  0.50745373
   0.66495390  0.91679853  0.50855420
   0.41471755  0.16761715  0.50768512
   0.33333333  0.08333333  0.40830017
   0.25195318  0.24899102  0.60642859
   0.33333333  0.33333333  0.40830017
   0.16506071  0.16611010  0.50943342
   0.00051566  0.74950421  0.60521561
   0.91687618  0.16702489  0.50819166
   0.00050121  0.50201487  0.60815938
   0.91710422  0.66702487  0.50963913
   0.00144785 -0.00241007  0.60616023
   0.16750849  0.66664473  0.50813506
   0.08333333  0.83333333  0.40830017
   0.58333333  0.08333333  0.40830017
   0.08333333  0.08333333  0.40830017
   0.58333333  0.33333333  0.40830017
   0.41449081  0.41986148  0.50725526
   0.25080545  0.74963143  0.60468891
   0.83333333  0.08333333  0.40830017
   0.49882880  0.50138387  0.60617361
   0.58333333  0.83333333  0.40830017
   0.41439148  0.91695253  0.50878725
   0.50028002  0.74965113  0.60612223
   0.41412717  0.66747798  0.50879106
   0.50035892  0.24952743  0.60481045
   0.50058231 -0.00019398  0.60630720
   0.75076730  0.74984708  0.60698744
Direct configuration=    16
   0.75047159 -0.00216708  0.61363154
   0.83333333  0.58333333  0.40830017
   0.66356424  0.66895326  0.51037438
   0.08333333  0.58333333  0.40830017
   0.91685508  0.41606693  0.51276953
   0.00223646  0.24862159  0.61278512
   0.66356301  0.41725848  0.51030700
   0.08333333  0.33333333  0.40830017
   0.74846312  0.50313011  0.61622004
   0.83333333  0.83333333  0.40830017
   0.91812523  0.91599141  0.50810603
   0.58333333  0.58333333  0.40830017
   0.74943241  0.24912754  0.61376201
   0.83333333  0.33333333  0.40830017
   0.25314735 -0.00235170  0.61008259
   0.16662459  0.41827760  0.50996862
   0.66628798  0.16828615  0.50636290
   0.33333333  0.58333333  0.40830017
   0.25124400  0.50086882  0.60992558
   0.33333333  0.83333333  0.40830017
   0.16589312  0.91819399  0.50745529
   0.66501104  0.91684104  0.50857661
   0.41472821  0.16764507  0.50778221
   0.33333333  0.08333333  0.40830017
   0.25199683  0.24898912  0.60649350
   0.33333333  0.33333333  0.40830017
   0.16498059  0.16606592  0.50944784
   0.00055091  0.74953868  0.60527176
   0.91684357  0.16708365  0.50823326
   0.00053997  0.50202307  0.60819590
   0.91709905  0.66706271  0.50976261
   0.00145868 -0.00243070  0.60623122
   0.16757298  0.66661624  0.50813890
   0.08333333  0.83333333  0.40830017
   0.58333333  0.08333333  0.40830017
   0.08333333  0.08333333  0.40830017
   0.58333333  0.33333333  0.40830017
   0.41447354  0.41985907  0.50730396
   0.25075945  0.74965877  0.60475373
   0.83333333  0.08333333  0.40830017
   0.49892491  0.50132646  0.60627702
   0.58333333  0.83333333  0.40830017
   0.41432180  0.91702212  0.50881331
   0.50036912  0.74966120  0.60619229
   0.41407367  0.66747464  0.50888778
   0.50039947  0.24948182  0.60485534
   0.50064492 -0.00023967  0.60635291
   0.75070271  0.74986685  0.60702908
Direct configuration=    17
   0.75059536 -0.00217018  0.61343885
   0.83333333  0.58333333  0.40830017
   0.66356550  0.66901792  0.51040510
   0.08333333  0.58333333  0.40830017