  48  48   0   0
  0.5349325E+02  0.1100258E-08  0.1100258E-08  0.2449179E-08  0.3500000E-15
  1.000000000000000E-004
  CAR 
 unknown system                          
      6.37717816     -9.65156727  301     -1.10340514      1.00000000
     -9.652  0.0000E+00  0.0000E+00
     -9.598  0.0000E+00  0.0000E+00
     -9.545  0.0000E+00  0.0000E+00
     -9.491  0.0000E+00  0.0000E+00
     -9.438  0.0000E+00  0.0000E+00
     -9.384  0.0000E+00  0.0000E+00
     -9.331  0.0000E+00  0.0000E+00
     -9.278  0.0000E+00  0.0000E+00
     -9.224  0.8312E-17  0.4441E-18
     -9.171  0.3163E-14  0.1695E-15
     -9.117  0.6897E-12  0.3702E-13
     -9.064  0.8585E-10  0.4624E-11
     -9.010  0.6111E-08  0.3311E-09
     -8.957  0.2492E-06  0.1365E-07
     -8.904  0.5837E-05  0.3255E-06
     -8.850  0.7868E-04  0.4529E-05
     -8.797  0.6118E-03  0.3722E-04
     -8.743  0.2751E-02  0.1842E-03
     -8.690  0.7170E-02  0.5673E-03
     -8.636  0.1091E-01  0.1150E-02
     -8.583  0.1014E-01  0.1692E-02
     -8.530  0.7676E-02  0.2102E-02
     -8.476  0.8693E-02  0.2566E-02
     -8.423  0.1105E-01  0.3156E-02
     -8.369  0.9392E-02  0.3658E-02
     -8.316  0.4739E-02  0.3911E-02
     -8.262  0.1425E-02  0.3988E-02
     -8.209  0.4862E-03  0.4014E-02
     -8.156  0.1272E-02  0.4082E-02
     -8.102  0.4001E-02  0.4295E-02
     -8.049  0.8651E-02  0.4758E-02
     -7.995  0.1411E-01  0.5512E-02
     -7.942  0.1987E-01  0.6573E-02
     -7.888  0.2437E-01  0.7875E-02
     -7.835  0.2359E-01  0.9135E-02
     -7.782  0.1881E-01  0.1014E-01
     -7.728  0.1509E-01  0.1095E-01
     -7.675  0.1196E-01  0.1159E-01
     -7.621  0.9422E-02  0.1209E-01
     -7.568  0.1192E-01  0.1273E-01
     -7.514  0.1864E-01  0.1372E-01
     -7.461  0.2192E-01  0.1489E-01
     -7.408  0.1966E-01  0.1594E-01
     -7.354  0.1809E-01  0.1691E-01
     -7.301  0.1950E-01  0.1795E-01
     -7.247  0.2053E-01  0.1905E-01
     -7.194  0.2048E-01  0.2014E-01
     -7.140  0.2165E-01  0.2130E-01
     -7.087  0.2572E-01  0.2267E-01
     -7.034  0.3313E-01  0.2444E-01
     -6.980  0.4239E-01  0.2671E-01
     -6.927  0.4879E-01  0.2931E-01
     -6.873  0.5178E-01  0.3208E-01
     -6.820  0.5875E-01  0.3522E-01
     -6.766  0.7349E-01  0.3915E-01
     -6.713  0.9055E-01  0.4398E-01
     -6.660  0.1047E+00  0.4958E-01
     -6.606  0.1142E+00  0.5568E-01
     -6.553  0.1170E+00  0.6193E-01
     -6.499  0.1129E+00  0.6796E-01
     -6.446  0.1079E+00  0.7373E-01
     -6.392  0.1102E+00  0.7962E-01
     -6.339  0.1201E+00  0.8603E-01
     -6.286  0.1309E+00  0.9303E-01
     -6.232  0.1396E+00  0.1005E+00
     -6.179  0.1477E+00  0.1084E+00
     -6.125  0.1565E+00  0.1167E+00
     -6.072  0.1642E+00  0.1255E+00
     -6.018  0.1694E+00  0.1346E+00
     -5.965  0.1696E+00  0.1436E+00
     -5.912  0.1624E+00  0.1523E+00
     -5.858  0.1514E+00  0.1604E+00
     -5.805  0.1428E+00  0.1680E+00
     -5.751  0.1372E+00  0.1754E+00
     -5.698  0.1344E+00  0.1825E+00
     -5.644  0.1356E+00  0.1898E+00
     -5.591  0.1387E+00  0.1972E+00
     -5.538  0.1401E+00  0.2047E+00
     -5.484  0.1398E+00  0.2122E+00
     -5.431  0.1410E+00  0.2197E+00
     -5.377  0.1465E+00  0.2275E+00
     -5.324  0.1545E+00  0.2358E+00
     -5.270  0.1594E+00  0.2443E+00
     -5.217  0.1596E+00  0.2528E+00
     -5.164  0.1597E+00  0.2614E+00
     -5.110  0.1618E+00  0.2700E+00
     -5.057  0.1635E+00  0.2787E+00
     -5.003  0.1655E+00  0.2876E+00
     -4.950  0.1687E+00  0.2966E+00
     -4.896  0.1710E+00  0.3057E+00
     -4.843  0.1728E+00  0.3150E+00
     -4.790  0.1747E+00  0.3243E+00
     -4.736  0.1757E+00  0.3337E+00
     -4.683  0.1754E+00  0.3430E+00
     -4.629  0.1741E+00  0.3524E+00
     -4.576  0.1735E+00  0.3616E+00
     -4.522  0.1744E+00  0.3709E+00
     -4.469  0.1751E+00  0.3803E+00
     -4.416  0.1744E+00  0.3896E+00
     -4.362  0.1730E+00  0.3989E+00
     -4.309  0.1727E+00  0.4081E+00
     -4.255  0.1760E+00  0.4175E+00
     -4.202  0.1822E+00  0.4272E+00
     -4.148  0.1866E+00  0.4372E+00
     -4.095  0.1878E+00  0.4472E+00
     -4.042  0.1886E+00  0.4573E+00
     -3.988  0.1901E+00  0.4675E+00
     -3.935  0.1925E+00  0.4777E+00
     -3.881  0.1951E+00  0.4882E+00
     -3.828  0.1961E+00  0.4986E+00
     -3.774  0.1974E+00  0.5092E+00
     -3.721  0.2029E+00  0.5200E+00
     -3.668  0.2107E+00  0.5313E+00
     -3.614  0.2144E+00  0.5427E+00
     -3.561  0.2134E+00  0.5541E+00
     -3.507  0.2119E+00  0.5655E+00
     -3.454  0.2097E+00  0.5767E+00
     -3.400  0.2040E+00  0.5876E+00
     -3.347  0.1962E+00  0.5981E+00
     -3.293  0.1887E+00  0.6081E+00
     -3.240  0.1819E+00  0.6179E+00
     -3.187  0.1774E+00  0.6273E+00
     -3.133  0.1758E+00  0.6367E+00
     -3.080  0.1769E+00  0.6462E+00
     -3.026  0.1812E+00  0.6559E+00
     -2.973  0.1865E+00  0.6658E+00
     -2.919  0.1892E+00  0.6759E+00
     -2.866  0.1885E+00  0.6860E+00
     -2.813  0.1854E+00  0.6959E+00
     -2.759  0.1817E+00  0.7056E+00
     -2.706  0.1788E+00  0.7152E+00
     -2.652  0.1757E+00  0.7246E+00
     -2.599  0.1724E+00  0.7338E+00
     -2.545  0.1681E+00  0.7428E+00
     -2.492  0.1633E+00  0.7515E+00
     -2.439  0.1622E+00  0.7602E+00
     -2.385  0.1673E+00  0.7691E+00
     -2.332  0.1758E+00  0.7785E+00
     -2.278  0.1827E+00  0.7882E+00
     -2.225  0.1862E+00  0.7982E+00
     -2.171  0.1885E+00  0.8083E+00
     -2.118  0.1930E+00  0.8186E+00
     -2.065  0.1989E+00  0.8292E+00
     -2.011  0.2044E+00  0.8401E+00
     -1.958  0.2086E+00  0.8513E+00
     -1.904  0.2082E+00  0.8624E+00
     -1.851  0.2026E+00  0.8732E+00
     -1.797  0.1973E+00  0.8838E+00
     -1.744  0.1963E+00  0.8942E+00
     -1.691  0.1984E+00  0.9048E+00
     -1.637  0.1989E+00  0.9155E+00
     -1.584  0.1963E+00  0.9260E+00
     -1.530  0.1931E+00  0.9363E+00
     -1.477  0.1919E+00  0.9465E+00
     -1.423  0.1919E+00  0.9568E+00
     -1.370  0.1902E+00  0.9669E+00
     -1.317  0.1847E+00  0.9768E+00
     -1.263  0.1737E+00  0.9861E+00
     -1.210  0.1575E+00  0.9945E+00
     -1.156  0.1381E+00  0.1002E+01
     -1.103  0.1154E+00  0.1008E+01
     -1.049  0.8890E-01  0.1013E+01
     -0.996  0.6038E-01  0.1016E+01
     -0.943  0.3648E-01  0.1018E+01
     -0.889  0.2421E-01  0.1019E+01
     -0.836  0.2154E-01  0.1020E+01
     -0.782  0.2079E-01  0.1022E+01
     -0.729  0.1830E-01  0.1023E+01
     -0.675  0.1618E-01  0.1023E+01
     -0.622  0.1755E-01  0.1024E+01
     -0.569  0.2281E-01  0.1026E+01
     -0.515  0.3126E-01  0.1027E+01
     -0.462  0.4131E-01  0.1029E+01
     -0.408  0.4649E-01  0.1032E+01
     -0.355  0.4218E-01  0.1034E+01
     -0.301  0.3520E-01  0.1036E+01
     -0.248  0.3594E-01  0.1038E+01
     -0.195  0.4228E-01  0.1040E+01
     -0.141  0.4294E-01  0.1042E+01
     -0.088  0.3508E-01  0.1044E+01
     -0.034  0.2628E-01  0.1046E+01
      0.019  0.2423E-01  0.1047E+01
      0.073  0.3010E-01  0.1049E+01
      0.126  0.3746E-01  0.1051E+01
      0.179  0.3900E-01  0.1053E+01
      0.233  0.3491E-01  0.1055E+01
      0.286  0.2941E-01  0.1056E+01
      0.340  0.2643E-01  0.1058E+01
      0.393  0.2984E-01  0.1059E+01
      0.447  0.3748E-01  0.1061E+01
      0.500  0.4147E-01  0.1063E+01
      0.553  0.3966E-01  0.1066E+01
      0.607  0.3819E-01  0.1068E+01
      0.660  0.4114E-01  0.1070E+01
      0.714  0.4526E-01  0.1072E+01
      0.767  0.4479E-01  0.1075E+01
      0.821  0.3705E-01  0.1077E+01
      0.874  0.2679E-01  0.1078E+01
      0.927  0.2164E-01  0.1079E+01
      0.981  0.2203E-01  0.1080E+01
      1.034  0.2353E-01  0.1082E+01
      1.088  0.2324E-01  0.1083E+01
      1.141  0.2052E-01  0.1084E+01
      1.195  0.1654E-01  0.1085E+01
      1.248  0.1258E-01  0.1085E+01
      1.301  0.1041E-01  0.1086E+01
      1.355  0.1279E-01  0.1087E+01
      1.408  0.1996E-01  0.1088E+01
      1.462  0.2870E-01  0.1089E+01
      1.515  0.3440E-01  0.1091E+01
      1.569  0.3388E-01  0.1093E+01
      1.622  0.2963E-01  0.1095E+01
      1.675  0.2750E-01  0.1096E+01
      1.729  0.3030E-01  0.1098E+01
      1.782  0.3502E-01  0.1100E+01
      1.836  0.3542E-01  0.1101E+01
      1.889  0.2890E-01  0.1103E+01
      1.943  0.2025E-01  0.1104E+01
      1.996  0.1568E-01  0.1105E+01
      2.049  0.1466E-01  0.1106E+01
      2.103  0.1638E-01  0.1107E+01
      2.156  0.2360E-01  0.1108E+01
      2.210  0.3406E-01  0.1110E+01
      2.263  0.4132E-01  0.1112E+01
      2.317  0.4316E-01  0.1114E+01
      2.370  0.4344E-01  0.1116E+01
      2.423  0.4556E-01  0.1119E+01
      2.477  0.4843E-01  0.1121E+01
      2.530  0.5046E-01  0.1124E+01
      2.584  0.5141E-01  0.1127E+01
      2.637  0.5052E-01  0.1130E+01
      2.691  0.4626E-01  0.1132E+01
      2.744  0.3894E-01  0.1134E+01
      2.797  0.3137E-01  0.1136E+01
      2.851  0.2481E-01  0.1137E+01
      2.904  0.1946E-01  0.1138E+01
      2.958  0.1586E-01  0.1139E+01
      3.011  0.1280E-01  0.1140E+01
      3.065  0.1125E-01  0.1140E+01
      3.118  0.1390E-01  0.1141E+01
      3.171  0.1988E-01  0.1142E+01
      3.225  0.2516E-01  0.1143E+01
      3.278  0.2481E-01  0.1145E+01
      3.332  0.1930E-01  0.1146E+01
      3.385  0.1530E-01  0.1147E+01
      3.439  0.1583E-01  0.1148E+01
      3.492  0.1918E-01  0.1149E+01
      3.545  0.2493E-01  0.1150E+01
      3.599  0.3197E-01  0.1152E+01
      3.652  0.3608E-01  0.1154E+01
      3.706  0.3617E-01  0.1155E+01
      3.759  0.3584E-01  0.1157E+01
      3.813  0.3409E-01  0.1159E+01
      3.866  0.2765E-01  0.1161E+01
      3.919  0.2046E-01  0.1162E+01
      3.973  0.2030E-01  0.1163E+01
      4.026  0.2759E-01  0.1164E+01
      4.080  0.3201E-01  0.1166E+01
      4.133  0.2842E-01  0.1168E+01
      4.187  0.2486E-01  0.1169E+01
      4.240  0.2462E-01  0.1170E+01
      4.293  0.2143E-01  0.1171E+01
      4.347  0.1699E-01  0.1172E+01
      4.400  0.1940E-01  0.1173E+01
      4.454  0.2686E-01  0.1175E+01
      4.507  0.3304E-01  0.1176E+01
      4.561  0.3982E-01  0.1179E+01
      4.614  0.4966E-01  0.1181E+01
      4.667  0.5622E-01  0.1184E+01
      4.721  0.5391E-01  0.1187E+01
      4.774  0.4799E-01  0.1190E+01
      4.828  0.4642E-01  0.1192E+01
      4.881  0.4979E-01  0.1195E+01
      4.935  0.5471E-01  0.1198E+01
      4.988  0.6060E-01  0.1201E+01
      5.041  0.6755E-01  0.1205E+01
      5.095  0.7023E-01  0.1208E+01
      5.148  0.6516E-01  0.1212E+01
      5.202  0.5886E-01  0.1215E+01
      5.255  0.5556E-01  0.1218E+01
      5.309  0.4921E-01  0.1221E+01
      5.362  0.3535E-01  0.1222E+01
      5.415  0.1901E-01  0.1223E+01
      5.469  0.7336E-02  0.1224E+01
      5.522  0.1951E-02  0.1224E+01
      5.576  0.3426E-03  0.1224E+01
      5.629  0.3812E-04  0.1224E+01
      5.683  0.2601E-05  0.1224E+01
      5.736  0.1062E-06  0.1224E+01
      5.789  0.2551E-08  0.1224E+01
      5.843  0.3566E-10  0.1224E+01
      5.896  0.2878E-12  0.1224E+01
      5.950  0.1334E-14  0.1224E+01
      6.003  0.2771E-17  0.1224E+01
      6.057  0.0000E+00  0.1224E+01
      6.110  0.0000E+00  0.1224E+01
      6.163  0.0000E+00  0.1224E+01
      6.217  0.0000E+00  0.1224E+01
      6.270  0.0000E+00  0.1224E+01
      6.324  0.0000E+00  0.1224E+01
      6.377  0.0000E+00  0.1224E+01
