 vasp.5.4.1 24Jun15 (build Mar 14 2019 10:18:33) complex                        
  
 executed on INTEL-19.0.2+OPENMPI date 2022.07.15  22:29:14
 running on   36 total cores
 distrk:  each k-point on   36 cores,    1 groups
 distr:  one band on NCORES_PER_BAND=   6 cores,    6 groups


--------------------------------------------------------------------------------------------------------


 INCAR:
 POTCAR:    PAW_PBE Au 04Oct2007                  
 POTCAR:    PAW_PBE Pd 04Jan2005                  
 POTCAR:    PAW_PBE Au 04Oct2007                  
  local pseudopotential read in
  partial core-charges read in
  partial kinetic energy density read in
  atomic valenz-charges read in
  non local Contribution for L=           2  read in
    real space projection operators read in
  non local Contribution for L=           2  read in
    real space projection operators read in
  non local Contribution for L=           0  read in
    real space projection operators read in
  non local Contribution for L=           0  read in
    real space projection operators read in
  non local Contribution for L=           1  read in
    real space projection operators read in
  non local Contribution for L=           1  read in
    real space projection operators read in
    PAW grid and wavefunctions read in
 
   number of l-projection  operators is LMAX  =           6
   number of lm-projection operators is LMMAX =          18
 
 POTCAR:    PAW_PBE Pd 04Jan2005                  
  local pseudopotential read in
  partial core-charges read in
  partial kinetic energy density read in
  atomic valenz-charges read in
  non local Contribution for L=           2  read in
    real space projection operators read in
  non local Contribution for L=           2  read in
    real space projection operators read in
  non local Contribution for L=           0  read in
    real space projection operators read in
  non local Contribution for L=           0  read in
    real space projection operators read in
  non local Contribution for L=           1  read in
    real space projection operators read in
  non local Contribution for L=           1  read in
    real space projection operators read in
    PAW grid and wavefunctions read in
 
   number of l-projection  operators is LMAX  =           6
   number of lm-projection operators is LMMAX =          18
 
 Optimization of the real space projectors (new method)

 maximal supplied QI-value         = 15.12
 optimisation between [QCUT,QGAM] = [ 10.13, 20.41] = [ 28.73,116.64] Ry 
 Optimized for a Real-space Cutoff    1.51 Angstroem

   l    n(q)    QCUT    max X(q) W(low)/X(q) W(high)/X(q)  e(spline) 
   2      8    10.129    60.898    0.46E-03    0.46E-03    0.14E-06
   2      8    10.129    58.894    0.47E-03    0.47E-03    0.14E-06
   0      9    10.129   109.617    0.16E-03    0.11E-03    0.54E-07
   0      9    10.129    75.026    0.15E-03    0.11E-03    0.52E-07
   1      9    10.129    16.344    0.96E-04    0.15E-03    0.14E-06
   1      9    10.129    10.160    0.81E-04    0.12E-03    0.11E-06
 Optimization of the real space projectors (new method)

 maximal supplied QI-value         = 14.36
 optimisation between [QCUT,QGAM] = [ 10.20, 20.39] = [ 29.12,116.47] Ry 
 Optimized for a Real-space Cutoff    1.51 Angstroem

   l    n(q)    QCUT    max X(q) W(low)/X(q) W(high)/X(q)  e(spline) 
   2      8    10.197    59.108    0.26E-03    0.14E-03    0.96E-07
   2      8    10.197    58.101    0.27E-03    0.14E-03    0.98E-07
   0      9    10.197   102.235    0.54E-04    0.60E-05    0.72E-07
   0      9    10.197    58.388    0.52E-04    0.60E-05    0.68E-07
   1      9    10.197    22.191    0.18E-03    0.25E-03    0.79E-07
   1      9    10.197    15.590    0.15E-03    0.21E-03    0.69E-07
  PAW_PBE Au 04Oct2007                  :
 energy of atom  1       EATOM= -926.0867
 kinetic energy error for atom=    0.0062 (will be added to EATOM!!)
  PAW_PBE Pd 04Jan2005                  :
 energy of atom  2       EATOM= -809.7530
 kinetic energy error for atom=    0.0091 (will be added to EATOM!!)
 
 
 POSCAR: Au Pd                                   
  positions in cartesian coordinates
  No initial velocities read in
 exchange correlation table for  LEXCH =        8
   RHO(1)=    0.500       N(1)  =     2000
   RHO(2)=  100.500       N(2)  =     4000

 VTST: version 3.2, (02/03/18)

 CHAIN: initializing optimizer
 
 OPT: Using VASP Conjugate-Gradient optimizer
 CHAIN: Read ICHAIN            0
 
 POSCAR: Au Pd                                   
  positions in cartesian coordinates
  No initial velocities read in
 


--------------------------------------------------------------------------------------------------------


 ion  position               nearest neighbor table
   1  0.083  0.083  0.408-  45 2.75  13 2.75  23 2.75  32 2.75   7 2.75  44 2.75  30 2.75  43 2.75
                            19 2.75
   2  0.833  0.833  0.408-  22 2.75  11 2.75   5 2.75  28 2.75  30 2.75   8 2.75  23 2.75  37 2.75
                            12 2.75
   3  0.750  0.500  0.592-   4 2.75  31 2.75  29 2.75  17 2.75  34 2.75  35 2.75  24 2.75  36 2.75
                             6 2.75
   4  0.667  0.667  0.500-  39 2.75   3 2.75  35 2.75  31 2.75   6 2.75  12 2.75  47 2.75  37 2.75
                            38 2.75   8 2.75   5 2.75  17 2.75
   5  0.833  0.583  0.408-  37 2.75   7 2.75   8 2.75  32 2.75   2 2.75  28 2.75  39 2.75  31 2.75
                             4 2.75
   6  0.667  0.417  0.500-  41 2.75  29 2.75  36 2.75   4 2.75  19 2.75  38 2.75  26 2.75  31 2.75
                             9 2.75  39 2.75   7 2.75   3 2.75
   7  0.833  0.333  0.408-  31 2.75   5 2.75  30 2.75   1 2.75  39 2.75  32 2.75  41 2.75  19 2.75
                             6 2.75
   8  0.583  0.833  0.408-  12 2.75  11 2.75   5 2.75  39 2.75  44 2.75   2 2.75  13 2.75   4 2.75
                            47 2.75
   9  0.417  0.417  0.500-  25 2.75  40 2.75  14 2.75  38 2.75  26 2.75  42 2.75  46 2.75   6 2.75
                            20 2.75  15 2.75  36 2.75  41 2.75
  10  0.500  0.000  0.592-  42 2.75  12 2.75  17 2.75  35 2.75  40 2.75  16 2.75  27 2.75  18 2.75
                            47 2.75
  11  0.583  0.083  0.408-  26 2.75   8 2.75  25 2.75   2 2.75  41 2.75  30 2.75  44 2.75  12 2.75
                            42 2.75
  12  0.667  0.917  0.500-   8 2.75  17 2.75  10 2.75   4 2.75  26 2.75  37 2.75  42 2.75  22 2.75
                            47 2.75  11 2.75  27 2.75   2 2.75
  13  0.333  0.833  0.408-  47 2.75  15 2.75  39 2.75  44 2.75   1 2.75  23 2.75   8 2.75  38 2.75
                            43 2.75
  14  0.250  0.500  0.592-  46 2.75   9 2.75  21 2.75  40 2.75  16 2.75  48 2.75  36 2.75  24 2.75
                            20 2.75
  15  0.333  0.583  0.408-  38 2.75  23 2.75  25 2.75  13 2.75  41 2.75  39 2.75  28 2.75   9 2.75
                            46 2.75
  16  0.250  0.250  0.592-  20 2.75  42 2.75  18 2.75  10 2.75  24 2.75  14 2.75  40 2.75  34 2.75
                            45 2.75
  17  0.750  0.750  0.592-  12 2.75  37 2.75   3 2.75  24 2.75  27 2.75  10 2.75  35 2.75  21 2.75
                             4 2.75
  18  0.250  0.000  0.592-  45 2.75  47 2.75  35 2.75  16 2.75  34 2.75  48 2.75  33 2.75  10 2.75
                            43 2.75
  19  0.917  0.167  0.500-  30 2.75  33 2.75  29 2.75  22 2.75  31 2.75   6 2.75  43 2.75  26 2.75
                            45 2.75   7 2.75   1 2.75  34 2.75
  20  0.167  0.417  0.500-  32 2.75  16 2.75  24 2.75  37 2.75  42 2.75  45 2.75  46 2.75  31 2.75
                             9 2.75  28 2.75  25 2.75  14 2.75
  21  0.000  0.750  0.592-  22 2.75  46 2.75  24 2.75  27 2.75  33 2.75  14 2.75  17 2.75  48 2.75
                            37 2.75
  22  0.917  0.917  0.500-   2 2.75  21 2.75  27 2.75  26 2.75  19 2.75  37 2.75  46 2.75  43 2.75
                            12 2.75  30 2.75  33 2.75  23 2.75
  23  0.083  0.833  0.408-  43 2.75  15 2.75  28 2.75  30 2.75   1 2.75   2 2.75  13 2.75  46 2.75
                            22 2.75
  24  0.000  0.500  0.592-  37 2.75  20 2.75  16 2.75  21 2.75  34 2.75  17 2.75   3 2.75  14 2.75
                            31 2.75
  25  0.333  0.333  0.408-   9 2.75  11 2.75  15 2.75  28 2.75  44 2.75  41 2.75  32 2.75  42 2.75
                            20 2.75
  26  0.667  0.167  0.500-  11 2.75  27 2.75  40 2.75  12 2.75  22 2.75   9 2.75   6 2.75  19 2.75
                            42 2.75  41 2.75  30 2.75  29 2.75
  27  0.750  0.000  0.592-  26 2.75  22 2.75  17 2.75  21 2.75  29 2.75  40 2.75  33 2.75  10 2.75
                            12 2.75
  28  0.083  0.583  0.408-  46 2.75  23 2.75  25 2.75  32 2.75   2 2.75   5 2.75  15 2.75  20 2.75
                            37 2.75
  29  0.750  0.250  0.592-   6 2.75  19 2.75   3 2.75  27 2.75  33 2.75  36 2.75  34 2.75  40 2.75
                            26 2.75
  30  0.833  0.083  0.408-  19 2.75   7 2.75   2 2.75  23 2.75  41 2.75  11 2.75   1 2.75  22 2.75
                            26 2.75
  31  0.917  0.417  0.500-   7 2.75  34 2.75   3 2.75  19 2.75   4 2.75  37 2.75  45 2.75  20 2.75
                             6 2.75   5 2.75  32 2.75  24 2.75
  32  0.083  0.333  0.408-  20 2.75   5 2.75   1 2.75  28 2.75  44 2.75   7 2.75  25 2.75  45 2.75
                            31 2.75
  33  0.000  0.000  0.592-  19 2.75  43 2.75  29 2.75  34 2.75  21 2.75  48 2.75  18 2.75  27 2.75
                            22 2.75
  34  0.000  0.250  0.592-  31 2.75  45 2.75  24 2.75   3 2.75  33 2.75  18 2.75  29 2.75  16 2.75
                            19 2.75
  35  0.500  0.750  0.592-  47 2.75   4 2.75  10 2.75  18 2.75  36 2.75   3 2.75  17 2.75  48 2.75
                            38 2.75
  36  0.500  0.500  0.592-  38 2.75   6 2.75  35 2.75  29 2.75  40 2.75  48 2.75  14 2.75   3 2.75
                             9 2.75
  37  0.917  0.667  0.500-   5 2.75  24 2.75  17 2.75  20 2.75  22 2.75  12 2.75  31 2.75   4 2.75
                            46 2.75   2 2.75  21 2.75  28 2.75
  38  0.417  0.667  0.500-  15 2.75  36 2.75  48 2.75   9 2.75  43 2.75  47 2.75   6 2.75   4 2.75
                            46 2.75  13 2.75  35 2.75  39 2.75
  39  0.583  0.583  0.408-   4 2.75   7 2.75   8 2.75  13 2.75  41 2.75  15 2.75   5 2.75   6 2.75
                            38 2.75
  40  0.500  0.250  0.592-   9 2.75  26 2.75  14 2.75  10 2.75  27 2.75  36 2.75  29 2.75  16 2.75
                            42 2.75
  41  0.583  0.333  0.408-   6 2.75  11 2.75  15 2.75  30 2.75  39 2.75   7 2.75  25 2.75  26 2.75
                             9 2.75
  42  0.417  0.167  0.500-  44 2.75  10 2.75  16 2.75   9 2.75  20 2.75  12 2.75  47 2.75  45 2.75
                            26 2.75  25 2.75  40 2.75  11 2.75
  43  0.167  0.917  0.500-  23 2.75  48 2.75  33 2.75  38 2.75  45 2.75  46 2.75  19 2.75  47 2.75
                            22 2.75   1 2.75  18 2.75  13 2.75
  44  0.333  0.083  0.408-  42 2.75  13 2.75  25 2.75  32 2.75   8 2.75   1 2.75  11 2.75  47 2.75
                            45 2.75
  45  0.167  0.167  0.500-   1 2.75  18 2.75  34 2.75  31 2.75  20 2.75  43 2.75  47 2.75  19 2.75
                            42 2.75  32 2.75  44 2.75  16 2.75
  46  0.167  0.667  0.500-  28 2.75  14 2.75  21 2.75   9 2.75  22 2.75  20 2.75  43 2.75  38 2.75
                            37 2.75  23 2.75  15 2.75  48 2.75
  47  0.417  0.917  0.500-  13 2.75  35 2.75  18 2.75   4 2.75  38 2.75  42 2.75  45 2.75  43 2.75
                            12 2.75  44 2.75  10 2.75   8 2.75
  48  0.250  0.750  0.592-  43 2.75  38 2.75  33 2.75  36 2.75  14 2.75  18 2.75  35 2.75  21 2.75
                            46 2.75
 
  LATTYP: Found a hexagonal cell.
 ALAT       =    11.0025815153
 C/A-ratio  =     2.2260035120
  
  Lattice vectors:
  
 A1 = (   5.5012907576,  -9.5285150994,   0.0000000000)
 A2 = ( -11.0025815153,   0.0000000000,   0.0000000000)
 A3 = (   0.0000000000,   0.0000000000, -24.4917850943)


Analysis of symmetry for initial positions (statically):
=====================================================================
 Subroutine PRICEL returns:
 Original cell was already a primitive cell.
 

 Routine SETGRP: Setting up the symmetry group for a 
 hexagonal supercell.


 Subroutine GETGRP returns: Found  1 space group operations
 (whereof  1 operations were pure point group operations)
 out of a pool of 24 trial point group operations.


The static configuration has the point symmetry C_1 .


Analysis of symmetry for dynamics (positions and initial velocities):
=====================================================================
 Subroutine PRICEL returns:
 Original cell was already a primitive cell.
 

 Routine SETGRP: Setting up the symmetry group for a 
 hexagonal supercell.


 Subroutine GETGRP returns: Found  1 space group operations
 (whereof  1 operations were pure point group operations)
 out of a pool of 24 trial point group operations.


The dynamic configuration has the point symmetry C_1 .
 
 
 KPOINTS: Automatic mesh                          

Automatic generation of k-mesh.
Space group operators:
 irot       det(A)        alpha          n_x          n_y          n_z        tau_x        tau_y        tau_z
    1     1.000000     0.000000     1.000000     0.000000     0.000000     0.000000     0.000000     0.000000
 
 Subroutine IBZKPT returns following result:
 ===========================================
 
 Found      6 irreducible k-points:
 
 Following reciprocal coordinates:
            Coordinates               Weight
  0.250000  0.250000  0.000000     16.000000
  0.000000  0.250000  0.000000     16.000000
 -0.250000  0.000000  0.000000     16.000000
 -0.250000  0.250000  0.000000     16.000000
  0.500000 -0.250000  0.000000     16.000000
 -0.250000  0.500000  0.000000     16.000000
 
 Following cartesian coordinates:
            Coordinates               Weight
  0.022722  0.013119  0.000000     16.000000
  0.000000  0.026237  0.000000     16.000000
 -0.022722  0.013119  0.000000     16.000000
 -0.022722  0.039356  0.000000     16.000000
  0.045444 -0.052474  0.000000     16.000000
 -0.022722  0.065593  0.000000     16.000000
 


--------------------------------------------------------------------------------------------------------




 Dimension of arrays:
   k-points           NKPTS =      6   k-points in BZ     NKDIM =      6   number of bands    NBANDS=    306
   number of dos      NEDOS =    301   number of ions     NIONS =     48
   non local maximal  LDIM  =      6   non local SUM 2l+1 LMDIM =     18
   total plane-waves  NPLWV = 349920
   max r-space proj   IRMAX =   2009   max aug-charges    IRDMAX=   8532
   dimension x,y,z NGX =    54 NGY =   54 NGZ =  120
   dimension x,y,z NGXF=   108 NGYF=  108 NGZF=  240
   support grid    NGXF=   108 NGYF=  108 NGZF=  240
   ions per type =              24  24
 NGX,Y,Z   is equivalent  to a cutoff of   8.16,  8.16,  8.15 a.u.
 NGXF,Y,Z  is equivalent  to a cutoff of  16.32, 16.32, 16.29 a.u.


 I would recommend the setting:
   dimension x,y,z NGX =    54 NGY =   54 NGZ =  120
 SYSTEM =  unknown system                          
 POSCAR =  Au Pd                                   

 Startparameter for this run:
   NWRITE =      1    write-flag & timer
   PREC   = normal    normal or accurate (medium, high low for compatibility)
   ISTART =      0    job   : 0-new  1-cont  2-samecut
   ICHARG =      2    charge: 1-file 2-atom 10-const
   ISPIN  =      1    spin polarized calculation?
   LNONCOLLINEAR =      F non collinear calculations
   LSORBIT =      F    spin-orbit coupling
   INIWAV =      1    electr: 0-lowe 1-rand  2-diag
   LASPH  =      F    aspherical Exc in radial PAW
   METAGGA=      F    non-selfconsistent MetaGGA calc.

 Electronic Relaxation 1
   ENCUT  =  400.0 eV  29.40 Ry    5.42 a.u.  17.94 17.94 39.94*2*pi/ulx,y,z
   ENINI  =  400.0     initial cutoff
   ENAUG  =  416.2 eV  augmentation charge cutoff
   NELM   =    500;   NELMIN=  2; NELMDL= -5     # of ELM steps 
   EDIFF  = 0.1E-05   stopping-criterion for ELM
   LREAL  =      T    real-space projection
   NLSPLINE    = F    spline interpolate recip. space projectors
   LCOMPAT=      F    compatible to vasp.4.4
   GGA_COMPAT  = T    GGA compatible to vasp.4.4-vasp.4.6
   LMAXPAW     = -100 max onsite density
   LMAXMIX     =    2 max onsite mixed and CHGCAR
   VOSKOWN=      1    Vosko Wilk Nusair interpolation
   ROPT   =   -0.00050  -0.00050
 Ionic relaxation
   EDIFFG = -.2E-01   stopping-criterion for IOM
   NSW    =    500    number of steps for IOM
   NBLOCK =      1;   KBLOCK =    500    inner block; outer block 
   IBRION =      2    ionic relax: 0-MD 1-quasi-New 2-CG
   NFREE  =      2    steps in history (QN), initial steepest desc. (CG)
   ISIF   =      0    stress and relaxation
   IWAVPR =     11    prediction:  0-non 1-charg 2-wave 3-comb
   ISYM   =      2    0-nonsym 1-usesym 2-fastsym
   LCORR  =      T    Harris-Foulkes like correction to forces

   POTIM  = 0.3500    time-step for ionic-motion
   TEIN   =    0.0    initial temperature
   TEBEG  =    0.0;   TEEND  =   0.0 temperature during run
   SMASS  =  -3.00    Nose mass-parameter (am)
   estimated Nose-frequenzy (Omega)   =  0.10E-29 period in steps =****** mass=  -0.277E-26a.u.
   SCALEE = 1.0000    scale energy and forces
   NPACO  =    256;   APACO  = 16.0  distance and # of slots for P.C.
   PSTRESS=    0.0 pullay stress

  Mass of Ions in am
   POMASS = 196.97106.42
  Ionic Valenz
   ZVAL   =  11.00 10.00
  Atomic Wigner-Seitz radii
   RWIGS  =  -1.00 -1.00
  virtual crystal weights 
   VCA    =   1.00  1.00
   NELECT =     504.0000    total number of electrons
   NUPDOWN=      -1.0000    fix difference up-down

 DOS related values:
   EMIN   =  10.00;   EMAX   =-10.00  energy-range for DOS
   EFERMI =   0.00
   ISMEAR =     0;   SIGMA  =   0.10  broadening in eV -4-tet -1-fermi 0-gaus

 Electronic relaxation 2 (details)
   IALGO  =     68    algorithm
   LDIAG  =      T    sub-space diagonalisation (order eigenvalues)
   LSUBROT=      F    optimize rotation matrix (better conditioning)
   TURBO    =      0    0=normal 1=particle mesh
   IRESTART =      0    0=no restart 2=restart with 2 vectors
   NREBOOT  =      0    no. of reboots
   NMIN     =      0    reboot dimension
   EREF     =   0.00    reference energy to select bands
   IMIX   =      4    mixing-type and parameters
     AMIX     =   0.40;   BMIX     =  1.00
     AMIX_MAG =   1.60;   BMIX_MAG =  1.00
     AMIN     =   0.10
     WC   =   100.;   INIMIX=   1;  MIXPRE=   1;  MAXMIX= -45

 Intra band minimization:
   WEIMIN = 0.0010     energy-eigenvalue tresh-hold
   EBREAK =  0.82E-09  absolut break condition
   DEPER  =   0.30     relativ break condition  

   TIME   =   0.40     timestep for ELM

  volume/ion in A,a.u.               =      53.49       360.99
  Fermi-wavevector in a.u.,A,eV,Ry     =   0.951418  1.797920 12.315955  0.905197
  Thomas-Fermi vector in A             =   2.079887
 
 Write flags
   LWAVE  =      F    write WAVECAR
   LCHARG =      F    write CHGCAR
   LVTOT  =      F    write LOCPOT, total local potential
   LVHAR  =      F    write LOCPOT, Hartree potential only
   LELF   =      F    write electronic localiz. function (ELF)
   LORBIT =      0    0 simple, 1 ext, 2 COOP (PROOUT)


 Dipole corrections
   LMONO  =      F    monopole corrections only (constant potential shift)
   LDIPOL =      T    correct potential (dipole corrections)
   IDIPOL =      3    1-x, 2-y, 3-z, 4-all directions 
   EPSILON=  1.0000000 bulk dielectric constant

 Exchange correlation treatment:
   GGA     =    PE    GGA type
   LEXCH   =     8    internal setting for exchange type
   VOSKOWN=      1    Vosko Wilk Nusair interpolation
   LHFCALC =     F    Hartree Fock is set to
   LHFONE  =     F    Hartree Fock one center treatment
   AEXX    =    0.0000 exact exchange contribution

 Linear response parameters
   LEPSILON=     F    determine dielectric tensor
   LRPA    =     F    only Hartree local field effects (RPA)
   LNABLA  =     F    use nabla operator in PAW spheres
   LVEL    =     F    velocity operator in full k-point grid
   LINTERFAST=   F  fast interpolation
   KINTER  =     0    interpolate to denser k-point grid
   CSHIFT  =0.1000    complex shift for real part using Kramers Kronig
   OMEGAMAX=  -1.0    maximum frequency
   DEG_THRESHOLD= 0.2000000E-02 threshold for treating states as degnerate
   RTIME   =    0.100 relaxation time in fs

 Orbital magnetization related:
   ORBITALMAG=     F  switch on orbital magnetization
   LCHIMAG   =     F  perturbation theory with respect to B field
   DQ        =  0.001000  dq finite difference perturbation B field



--------------------------------------------------------------------------------------------------------


 conjugate gradient relaxation of ions
 charge density and potential will be updated during run
 non-spin polarized calculation
 RMM-DIIS sequential band-by-band and
  variant of blocked Davidson during initial phase
 perform sub-space diagonalisation
    before iterative eigenvector-optimisation
 modified Broyden-mixing scheme, WC =      100.0
 initial mixing is a Kerker type mixing with AMIX =  0.4000 and BMIX =      1.0000
 Hartree-type preconditioning will be used
 using additional bands           54
 real space projection scheme for non local part
 use partial core corrections
 calculate Harris-corrections to forces 
   (improved forces if not selfconsistent)
 use gradient corrections 
 use of overlap-Matrix (Vanderbilt PP)
 Gauss-broadening in eV      SIGMA  =   0.10


--------------------------------------------------------------------------------------------------------


  energy-cutoff  :      400.00
  volume of cell :     2567.68
      direct lattice vectors                 reciprocal lattice vectors
    11.002581515  0.000000000  0.000000000     0.090887761 -0.052474073  0.000000000
     5.501290758  9.528515099  0.000000000     0.000000000  0.104948147  0.000000000
     0.000000000  0.000000000 24.491785094     0.000000000  0.000000000  0.040830017

  length of vectors
    11.002581515 11.002581515 24.491785094     0.104948147  0.104948147  0.040830017


 
 k-points in units of 2pi/SCALE and weight: Automatic mesh                          
   0.02272194  0.01311852  0.00000000       0.167
   0.00000000  0.02623704  0.00000000       0.167
  -0.02272194  0.01311852  0.00000000       0.167
  -0.02272194  0.03935555  0.00000000       0.167
   0.04544388 -0.05247407  0.00000000       0.167
  -0.02272194  0.06559259  0.00000000       0.167
 
 k-points in reciprocal lattice and weights: Automatic mesh                          
   0.25000000  0.25000000  0.00000000       0.167
   0.00000000  0.25000000  0.00000000       0.167
  -0.25000000  0.00000000  0.00000000       0.167
  -0.25000000  0.25000000  0.00000000       0.167
   0.50000000 -0.25000000  0.00000000       0.167
  -0.25000000  0.50000000  0.00000000       0.167
 
 position of ions in fractional coordinates (direct lattice) 
   0.08333333  0.08333333  0.40830017
   0.83333333  0.83333333  0.40830017
   0.75000000  0.50000000  0.59169983
   0.66666667  0.66666667  0.50000000
   0.83333333  0.58333333  0.40830017
   0.66666667  0.41666667  0.50000000
   0.83333333  0.33333333  0.40830017
   0.58333333  0.83333333  0.40830017
   0.41666667  0.41666667  0.50000000
   0.50000000  0.00000000  0.59169983
   0.58333333  0.08333333  0.40830017
   0.66666667  0.91666667  0.50000000
   0.33333333  0.83333333  0.40830017
   0.25000000  0.50000000  0.59169983
   0.33333333  0.58333333  0.40830017
   0.25000000  0.25000000  0.59169983
   0.75000000  0.75000000  0.59169983
   0.25000000  0.00000000  0.59169983
   0.91666667  0.16666667  0.50000000
   0.16666667  0.41666667  0.50000000
   0.00000000  0.75000000  0.59169983
   0.91666667  0.91666667  0.50000000
   0.08333333  0.83333333  0.40830017
   0.00000000  0.50000000  0.59169983
   0.33333333  0.33333333  0.40830017
   0.66666667  0.16666667  0.50000000
   0.75000000  0.00000000  0.59169983
   0.08333333  0.58333333  0.40830017
   0.75000000  0.25000000  0.59169983
   0.83333333  0.08333333  0.40830017
   0.91666667  0.41666667  0.50000000
   0.08333333  0.33333333  0.40830017
   0.00000000  0.00000000  0.59169983
   0.00000000  0.25000000  0.59169983
   0.50000000  0.75000000  0.59169983
   0.50000000  0.50000000  0.59169983
   0.91666667  0.66666667  0.50000000
   0.41666667  0.66666667  0.50000000
   0.58333333  0.58333333  0.40830017
   0.50000000  0.25000000  0.59169983
   0.58333333  0.33333333  0.40830017
   0.41666667  0.16666667  0.50000000
   0.16666667  0.91666667  0.50000000
   0.33333333  0.08333333  0.40830017
   0.16666667  0.16666667  0.50000000
   0.16666667  0.66666667  0.50000000
   0.41666667  0.91666667  0.50000000
   0.25000000  0.75000000  0.59169983
 
 position of ions in cartesian coordinates  (Angst):
   1.37532269  0.79404292 10.00000000
  13.75322689  7.94042925 10.00000000
  11.00258152  4.76425755 14.49178509
  11.00258152  6.35234340 12.24589255
  12.37790420  5.55830047 10.00000000
   9.62725883  3.97021462 12.24589255
  11.00258152  3.17617170 10.00000000
  11.00258152  7.94042925 10.00000000
   6.87661345  3.97021462 12.24589255
   5.50129076  0.00000000 14.49178509
   6.87661345  0.79404292 10.00000000
  12.37790420  8.73447217 12.24589255
   8.25193614  7.94042925 10.00000000
   5.50129076  4.76425755 14.49178509
   6.87661345  5.55830047 10.00000000
   4.12596807  2.38212877 14.49178509
  12.37790420  7.14638632 14.49178509
   2.75064538  0.00000000 14.49178509
  11.00258152  1.58808585 12.24589255
   4.12596807  3.97021462 12.24589255
   4.12596807  7.14638632 14.49178509
  15.12854958  8.73447217 12.24589255
   5.50129076  7.94042925 10.00000000
   2.75064538  4.76425755 14.49178509
   5.50129076  3.17617170 10.00000000
   8.25193614  1.58808585 12.24589255
   8.25193614  0.00000000 14.49178509
   4.12596807  5.55830047 10.00000000
   9.62725883  2.38212877 14.49178509
   9.62725883  0.79404292 10.00000000
  12.37790420  3.97021462 12.24589255
   2.75064538  3.17617170 10.00000000
   0.00000000  0.00000000 14.49178509
   1.37532269  2.38212877 14.49178509
   9.62725883  7.14638632 14.49178509
   8.25193614  4.76425755 14.49178509
  13.75322689  6.35234340 12.24589255
   8.25193614  6.35234340 12.24589255
   9.62725883  5.55830047 10.00000000
   6.87661345  2.38212877 14.49178509
   8.25193614  3.17617170 10.00000000
   5.50129076  1.58808585 12.24589255
   6.87661345  8.73447217 12.24589255
   4.12596807  0.79404292 10.00000000
   2.75064538  1.58808585 12.24589255
   5.50129076  6.35234340 12.24589255
   9.62725883  8.73447217 12.24589255
   6.87661345  7.14638632 14.49178509
 


--------------------------------------------------------------------------------------------------------


 k-point  1 :   0.2500 0.2500 0.0000  plane waves:   46635
 k-point  2 :   0.0000 0.2500 0.0000  plane waves:   46635
 k-point  3 :  -0.2500 0.0000 0.0000  plane waves:   46635
 k-point  4 :  -0.2500 0.2500 0.0000  plane waves:   46644
 k-point  5 :   0.5000-0.2500 0.0000  plane waves:   46644
 k-point  6 :  -0.2500 0.5000 0.0000  plane waves:   46644

 maximum and minimum number of plane-waves per node :      7818     7732

 maximum number of plane-waves:     46644
 maximum index in each direction: 
   IXMAX=   18   IYMAX=   18   IZMAX=   39
   IXMIN=  -18   IYMIN=  -18   IZMIN=  -39

 WARNING: aliasing errors must be expected set NGX to  74 to avoid them
 WARNING: aliasing errors must be expected set NGY to  74 to avoid them
 WARNING: aliasing errors must be expected set NGZ to 158 to avoid them
 aliasing errors are usually negligible using standard VASP settings
 and one can safely disregard these warnings

 real space projection operators:
  total allocation   :      12803.06 KBytes
  max/ min on nodes  :       2145.66       2127.94


 parallel 3D FFT for wavefunctions:
    minimum data exchange during FFTs selected (reduces bandwidth)
 parallel 3D FFT for charge:
    minimum data exchange during FFTs selected (reduces bandwidth)


 total amount of memory used by VASP on root node    84353. kBytes
========================================================================

   base      :      30000. kBytes
   nonlr-proj:       4285. kBytes
   fftplans  :       4447. kBytes
   grid      :       6721. kBytes
   one-center:        124. kBytes
   wavefun   :      38776. kBytes
 
     INWAV:  cpu time    0.0000: real time    0.0001
 Broyden mixing: mesh for mixing (old mesh)
   NGX = 35   NGY = 35   NGZ = 79
  (NGX  =108   NGY  =108   NGZ  =240)
  gives a total of  96775 points

 initial charge density was supplied:
 charge density of overlapping atoms calculated
 number of electron     504.0000000 magnetization 
 keeping initial charge density in first step


--------------------------------------------------------------------------------------------------------


 Maximum index for non-local projection operator          355
 Maximum index for augmentation-charges          437 (set IRDMAX)


--------------------------------------------------------------------------------------------------------


 First call to EWALD:  gamma=   0.129
 Maximum number of real-space cells 4x 4x 2
 Maximum number of reciprocal cells 2x 2x 5

 FEWALD executed in parallel
    FEWALD:  cpu time    0.0027: real time    0.0029


----------------------------------------- Iteration    1(   1)  ---------------------------------------


    POTLOK:  cpu time    0.0483: real time    0.0487
    SETDIJ:  cpu time    0.0057: real time    0.0057
     EDDAV:  cpu time    7.3389: real time    7.3762
       DOS:  cpu time    0.0014: real time    0.0014
    --------------------------------------------
      LOOP:  cpu time    7.4004: real time    7.4470

 eigenvalue-minimisations  :  3672
 total energy-change (2. order) : 0.3201661E+04  (-0.1898396E+05)
 number of electron     504.0000000 magnetization 
 augmentation part      504.0000000 magnetization 

 DIPCOR: dipole corrections for dipol
 direction  3 min pos     1,
 dipolmoment           0.000000      0.000000      0.000001 electrons x Angstroem
 Tr[quadrupol]    -10261.349349

 energy correction for charged system         0.000000 eV
 dipol+quadrupol energy correction           -0.000000 eV
 added-field ion interaction          0.000000 eV  (added to PSCEN)


 Free energy of the ion-electron system (eV)
  ---------------------------------------------------
  alpha Z        PSCENC =       805.86936440
  Ewald energy   TEWEN  =    199925.85664661
  -Hartree energ DENC   =   -242339.04813638
  -exchange      EXHF   =         0.00000000
  -V(xc)+E(xc)   XCENC  =      -327.69185169
  PAW double counting   =     40340.05962942   -38292.62782345
  entropy T*S    EENTRO =        -0.13556574
  eigenvalues    EBANDS =      1429.59270749
  atomic energy  EATOM  =     41659.78587232
  Solvation  Ediel_sol  =         0.00000000
  ---------------------------------------------------
  free energy    TOTEN  =      3201.66084299 eV

  energy without entropy =     3201.79640873  energy(sigma->0) =     3201.72862586


--------------------------------------------------------------------------------------------------------




----------------------------------------- Iteration    1(   2)  ---------------------------------------


     EDDAV:  cpu time    8.5260: real time    8.5695
       DOS:  cpu time    0.0015: real time    0.0015
    --------------------------------------------
      LOOP:  cpu time    8.5282: real time    8.5735

 eigenvalue-minimisations  :  4344
 total energy-change (2. order) :-0.3185852E+04  (-0.2926569E+04)
 number of electron     504.0000000 magnetization 
 augmentation part      504.0000000 magnetization 

 DIPCOR: dipole corrections for dipol
 direction  3 min pos     1,
 dipolmoment           0.000000      0.000000      0.000001 electrons x Angstroem
 Tr[quadrupol]    -10261.349349

 energy correction for charged system         0.000000 eV
 dipol+quadrupol energy correction           -0.000000 eV
 added-field ion interaction          0.000000 eV  (added to PSCEN)


 Free energy of the ion-electron system (eV)
  ---------------------------------------------------
  alpha Z        PSCENC =       805.86936440
  Ewald energy   TEWEN  =    199925.85664661
  -Hartree energ DENC   =   -242339.04813638
  -exchange      EXHF   =         0.00000000
  -V(xc)+E(xc)   XCENC  =      -327.69185169
  PAW double counting   =     40340.05962942   -38292.62782345
  entropy T*S    EENTRO =        -0.12427752
  eigenvalues    EBANDS =     -1756.27008635
  atomic energy  EATOM  =     41659.78587232
  Solvation  Ediel_sol  =         0.00000000
  ---------------------------------------------------
  free energy    TOTEN  =        15.80933736 eV

  energy without entropy =       15.93361488  energy(sigma->0) =       15.87147612


--------------------------------------------------------------------------------------------------------




----------------------------------------- Iteration    1(   3)  ---------------------------------------


     EDDAV:  cpu time    8.3406: real time    8.4138
       DOS:  cpu time    0.0015: real time    0.0015
    --------------------------------------------
      LOOP:  cpu time    8.3426: real time    8.4174

 eigenvalue-minimisations  :  4152
 total energy-change (2. order) :-0.2167865E+03  (-0.2013197E+03)
 number of electron     504.0000000 magnetization 
 augmentation part      504.0000000 magnetization 

 DIPCOR: dipole corrections for dipol
 direction  3 min pos     1,
 dipolmoment           0.000000      0.000000      0.000001 electrons x Angstroem
 Tr[quadrupol]    -10261.349349

 energy correction for charged system         0.000000 eV
 dipol+quadrupol energy correction           -0.000000 eV
 added-field ion interaction          0.000000 eV  (added to PSCEN)


 Free energy of the ion-electron system (eV)
  ---------------------------------------------------
  alpha Z        PSCENC =       805.86936440
  Ewald energy   TEWEN  =    199925.85664661
  -Hartree energ DENC   =   -242339.04813638
  -exchange      EXHF   =         0.00000000
  -V(xc)+E(xc)   XCENC  =      -327.69185169
  PAW double counting   =     40340.05962942   -38292.62782345
  entropy T*S    EENTRO =        -0.18746784
  eigenvalues    EBANDS =     -1972.99341255
  atomic energy  EATOM  =     41659.78587232
  Solvation  Ediel_sol  =         0.00000000
  ---------------------------------------------------
  free energy    TOTEN  =      -200.97717916 eV

  energy without entropy =     -200.78971132  energy(sigma->0) =     -200.88344524


--------------------------------------------------------------------------------------------------------




----------------------------------------- Iteration    1(   4)  ---------------------------------------


     EDDAV:  cpu time    8.5731: real time    8.6892
       DOS:  cpu time    0.0015: real time    0.0015
    --------------------------------------------
      LOOP:  cpu time    8.5754: real time    8.6964

 eigenvalue-minimisations  :  4260
 total energy-change (2. order) :-0.5897827E+01  (-0.5828250E+01)
 number of electron     504.0000000 magnetization 
 augmentation part      504.0000000 magnetization 

 DIPCOR: dipole corrections for dipol
 direction  3 min pos     1,
 dipolmoment           0.000000      0.000000      0.000001 electrons x Angstroem
 Tr[quadrupol]    -10261.349349

 energy correction for charged system         0.000000 eV
 dipol+quadrupol energy correction           -0.000000 eV
 added-field ion interaction          0.000000 eV  (added to PSCEN)


 Free energy of the ion-electron system (eV)
  ---------------------------------------------------
  alpha Z        PSCENC =       805.86936440
  Ewald energy   TEWEN  =    199925.85664661
  -Hartree energ DENC   =   -242339.04813638
  -exchange      EXHF   =         0.00000000
  -V(xc)+E(xc)   XCENC  =      -327.69185169
  PAW double counting   =     40340.05962942   -38292.62782345
  entropy T*S    EENTRO =        -0.19673509
  eigenvalues    EBANDS =     -1978.88197218
  atomic energy  EATOM  =     41659.78587232
  Solvation  Ediel_sol  =         0.00000000
  ---------------------------------------------------
  free energy    TOTEN  =      -206.87500603 eV

  energy without entropy =     -206.67827094  energy(sigma->0) =     -206.77663849


--------------------------------------------------------------------------------------------------------




----------------------------------------- Iteration    1(   5)  ---------------------------------------


     EDDAV:  cpu time    8.9104: real time    8.9591
       DOS:  cpu time    0.0016: real time    0.0016
    CHARGE:  cpu time    0.2320: real time    0.2331
    MIXING:  cpu time    0.0020: real time    0.0021
    --------------------------------------------
      LOOP:  cpu time    9.1467: real time    9.2001

 eigenvalue-minimisations  :  4476
 total energy-change (2. order) :-0.1807696E+00  (-0.1802732E+00)
 number of electron     503.9998404 magnetization 
 augmentation part      191.2468750 magnetization 

 DIPCOR: dipole corrections for dipol
 direction  3 min pos     1,
 dipolmoment           0.000000      0.000000      0.000001 electrons x Angstroem
 Tr[quadrupol]    -10261.349349

 energy correction for charged system         0.000000 eV
 dipol+quadrupol energy correction           -0.000000 eV
 added-field ion interaction          0.000000 eV  (added to PSCEN)


 Broyden mixing:
  rms(total) = 0.62177E+01    rms(broyden)= 0.62177E+01
  rms(prec ) = 0.63390E+01
  weight for this iteration     100.00

 Free energy of the ion-electron system (eV)
  ---------------------------------------------------
  alpha Z        PSCENC =       805.86936440
  Ewald energy   TEWEN  =    199925.85664661
  -Hartree energ DENC   =   -242339.04813638
  -exchange      EXHF   =         0.00000000
  -V(xc)+E(xc)   XCENC  =      -327.69185169
  PAW double counting   =     40340.05962942   -38292.62782345
  entropy T*S    EENTRO =        -0.19625160
  eigenvalues    EBANDS =     -1979.06322529
  atomic energy  EATOM  =     41659.78587232
  Solvation  Ediel_sol  =         0.00000000
  ---------------------------------------------------
  free energy    TOTEN  =      -207.05577566 eV

  energy without entropy =     -206.85952406  energy(sigma->0) =     -206.95764986


--------------------------------------------------------------------------------------------------------




----------------------------------------- Iteration    1(   6)  ---------------------------------------


    POTLOK:  cpu time    0.0413: real time    0.0423
    SETDIJ:  cpu time    0.0047: real time    0.0054
    EDDIAG:  cpu time    1.3273: real time    1.3345
  RMM-DIIS:  cpu time    3.5338: real time    3.5585
    ORTHCH:  cpu time    0.3758: real time    0.3784
       DOS:  cpu time    0.0015: real time    0.0015
    CHARGE:  cpu time    0.2297: real time    0.2331
    MIXING:  cpu time    0.0021: real time    0.0022
    --------------------------------------------
      LOOP:  cpu time    5.5170: real time    5.5595

 eigenvalue-minimisations  :  3678
 total energy-change (2. order) : 0.7093824E+01  (-0.9488293E+01)
 number of electron     503.9998422 magnetization 
 augmentation part      191.8579844 magnetization 

 DIPCOR: dipole corrections for dipol
 direction  3 min pos     1,
 dipolmoment           0.000000      0.000000      0.336355 electrons x Angstroem
 Tr[quadrupol]    -10263.459315

 energy correction for charged system         0.000000 eV
 dipol+quadrupol energy correction           -0.003987 eV
 added-field ion interaction          0.053238 eV  (added to PSCEN)


 Broyden mixing:
  rms(total) = 0.52647E+01    rms(broyden)= 0.52646E+01
  rms(prec ) = 0.54341E+01
  weight for this iteration     100.00

 eigenvalues of (default mixing * dielectric matrix)
  average eigenvalue GAMMA=   0.7962
  0.7962

 Free energy of the ion-electron system (eV)
  ---------------------------------------------------
  alpha Z        PSCENC =       805.91861551
  Ewald energy   TEWEN  =    199925.85664661
  -Hartree energ DENC   =   -242113.34895866
  -exchange      EXHF   =         0.00000000
  -V(xc)+E(xc)   XCENC  =      -340.42668519
  PAW double counting   =     43905.36023091   -41917.38531372
  entropy T*S    EENTRO =        -0.24837766
  eigenvalues    EBANDS =     -2125.47398177
  atomic energy  EATOM  =     41659.78587232
  Solvation  Ediel_sol  =         0.00000000
  ---------------------------------------------------
  free energy    TOTEN  =      -199.96195166 eV

  energy without entropy =     -199.71357400  energy(sigma->0) =     -199.83776283


--------------------------------------------------------------------------------------------------------




----------------------------------------- Iteration    1(   7)  ---------------------------------------


    POTLOK:  cpu time    0.0417: real time    0.0430
    SETDIJ:  cpu time    0.0060: real time    0.0061
    EDDIAG:  cpu time    1.3553: real time    1.3922
  RMM-DIIS:  cpu time    3.4658: real time    3.5219
    ORTHCH:  cpu time    0.3715: real time    0.3732
       DOS:  cpu time    0.0015: real time    0.0015
    CHARGE:  cpu time    0.2336: real time    0.2346
    MIXING:  cpu time    0.0020: real time    0.0020
    --------------------------------------------
      LOOP:  cpu time    5.4783: real time    5.5786

 eigenvalue-minimisations  :  3684
 total energy-change (2. order) :-0.5117214E+01  (-0.5362231E+01)
 number of electron     503.9998365 magnetization 
 augmentation part      196.3733813 magnetization 

 DIPCOR: dipole corrections for dipol
 direction  3 min pos     1,
 dipolmoment           0.000000      0.000000     -0.830151 electrons x Angstroem
 Tr[quadrupol]    -10261.268319

 energy correction for charged system         0.000000 eV
 dipol+quadrupol energy correction           -0.024284 eV
 added-field ion interaction         -0.131395 eV  (added to PSCEN)


 Broyden mixing:
  rms(total) = 0.41325E+01    rms(broyden)= 0.41322E+01
  rms(prec ) = 0.46934E+01
  weight for this iteration     100.00

 eigenvalues of (default mixing * dielectric matrix)
  average eigenvalue GAMMA=   1.0026
  1.6080  0.3973

 Free energy of the ion-electron system (eV)
  ---------------------------------------------------
  alpha Z        PSCENC =       805.71368539
  Ewald energy   TEWEN  =    199925.85664661
  -Hartree energ DENC   =   -241927.38255817
  -exchange      EXHF   =         0.00000000
  -V(xc)+E(xc)   XCENC  =      -342.76364431
  PAW double counting   =     45468.99241926   -43508.74270835
  entropy T*S    EENTRO =        -0.19818923
  eigenvalues    EBANDS =     -2286.34068945
  atomic energy  EATOM  =     41659.78587232
  Solvation  Ediel_sol  =         0.00000000
  ---------------------------------------------------
  free energy    TOTEN  =      -205.07916594 eV

  energy without entropy =     -204.88097670  energy(sigma->0) =     -204.98007132


--------------------------------------------------------------------------------------------------------




----------------------------------------- Iteration    1(   8)  ---------------------------------------


    POTLOK:  cpu time    0.0417: real time    0.0421
    SETDIJ:  cpu time    0.0053: real time    0.0053
    EDDIAG:  cpu time    1.3250: real time    1.3312
  RMM-DIIS:  cpu time    3.5601: real time    3.5813
    ORTHCH:  cpu time    0.3701: real time    0.3718
       DOS:  cpu time    0.0015: real time    0.0015
    CHARGE:  cpu time    0.2319: real time    0.2329
    MIXING:  cpu time    0.0020: real time    0.0020
    --------------------------------------------
      LOOP:  cpu time    5.5381: real time    5.5715

 eigenvalue-minimisations  :  3672
 total energy-change (2. order) :-0.2242577E+02  (-0.9152893E+01)
 number of electron     503.9998363 magnetization 
 augmentation part      195.5584063 magnetization 

 DIPCOR: dipole corrections for dipol
 direction  3 min pos     1,
 dipolmoment           0.000000      0.000000      2.034314 electrons x Angstroem
 Tr[quadrupol]    -10263.144855

 energy correction for charged system         0.000000 eV
 dipol+quadrupol energy correction           -0.145827 eV
 added-field ion interaction          0.321988 eV  (added to PSCEN)


 Broyden mixing:
  rms(total) = 0.45597E+01    rms(broyden)= 0.45594E+01
  rms(prec ) = 0.56106E+01
  weight for this iteration     100.00

 eigenvalues of (default mixing * dielectric matrix)
  average eigenvalue GAMMA=   0.9526
  2.1412  0.4604  0.2561

 Free energy of the ion-electron system (eV)
  ---------------------------------------------------
  alpha Z        PSCENC =       806.04552512
  Ewald energy   TEWEN  =    199925.85664661
  -Hartree energ DENC   =   -241927.03592882
  -exchange      EXHF   =         0.00000000
  -V(xc)+E(xc)   XCENC  =      -344.78962920
  PAW double counting   =     47331.68131430   -45398.26693413
  entropy T*S    EENTRO =        -0.33500492
  eigenvalues    EBANDS =     -2280.44679681
  atomic energy  EATOM  =     41659.78587232
  Solvation  Ediel_sol  =         0.00000000
  ---------------------------------------------------
  free energy    TOTEN  =      -227.50493554 eV

  energy without entropy =     -227.16993062  energy(sigma->0) =     -227.33743308


--------------------------------------------------------------------------------------------------------




----------------------------------------- Iteration    1(   9)  ---------------------------------------


    POTLOK:  cpu time    0.0419: real time    0.0429
    SETDIJ:  cpu time    0.0052: real time    0.0053
    EDDIAG:  cpu time    1.3275: real time    1.3344
  RMM-DIIS:  cpu time    3.5634: real time    3.5803
    ORTHCH:  cpu time    0.3701: real time    0.3724
       DOS:  cpu time    0.0015: real time    0.0015
    CHARGE:  cpu time    0.2332: real time    0.2343
    MIXING:  cpu time    0.0021: real time    0.0021
    --------------------------------------------
      LOOP:  cpu time    5.5456: real time    5.5893

 eigenvalue-minimisations  :  3678
 total energy-change (2. order) : 0.1450087E+02  (-0.4299631E+01)
 number of electron     503.9998344 magnetization 
 augmentation part      197.9076351 magnetization 

 DIPCOR: dipole corrections for dipol
 direction  3 min pos     1,
 dipolmoment           0.000000      0.000000     -0.562141 electrons x Angstroem
 Tr[quadrupol]    -10264.687168

 energy correction for charged system         0.000000 eV
 dipol+quadrupol energy correction           -0.011135 eV
 added-field ion interaction         -0.088975 eV  (added to PSCEN)


 Broyden mixing:
  rms(total) = 0.36140E+01    rms(broyden)= 0.36137E+01
  rms(prec ) = 0.40597E+01
  weight for this iteration     100.00

 eigenvalues of (default mixing * dielectric matrix)
  average eigenvalue GAMMA=   0.8269
  2.2678  0.4808  0.2794  0.2794

 Free energy of the ion-electron system (eV)
  ---------------------------------------------------
  alpha Z        PSCENC =       805.76925436
  Ewald energy   TEWEN  =    199925.85664661
  -Hartree energ DENC   =   -241940.70324435
  -exchange      EXHF   =         0.00000000
  -V(xc)+E(xc)   XCENC  =      -346.52606140
  PAW double counting   =     48644.89598842   -46731.90744836
  entropy T*S    EENTRO =        -0.22075743
  eigenvalues    EBANDS =     -2229.95431426
  atomic energy  EATOM  =     41659.78587232
  Solvation  Ediel_sol  =         0.00000000
  ---------------------------------------------------
  free energy    TOTEN  =      -213.00406410 eV

  energy without entropy =     -212.78330667  energy(sigma->0) =     -212.89368538


--------------------------------------------------------------------------------------------------------




----------------------------------------- Iteration    1(  10)  ---------------------------------------


    POTLOK:  cpu time    0.0419: real time    0.0424
    SETDIJ:  cpu time    0.0048: real time    0.0055
    EDDIAG:  cpu time    1.3263: real time    1.3345
  RMM-DIIS:  cpu time    3.5057: real time    3.6133
    ORTHCH:  cpu time    0.3698: real time    0.3716
       DOS:  cpu time    0.0015: real time    0.0015
    CHARGE:  cpu time    0.2301: real time    0.2314
    MIXING:  cpu time    0.0022: real time    0.0022
    --------------------------------------------
      LOOP:  cpu time    5.4830: real time    5.6050

 eigenvalue-minimisations  :  3683
 total energy-change (2. order) : 0.1576278E+02  (-0.1682181E+01)
 number of electron     503.9998333 magnetization 
 augmentation part      199.2325644 magnetization 

 DIPCOR: dipole corrections for dipol
 direction  3 min pos     1,
 dipolmoment           0.000000      0.000000      0.349189 electrons x Angstroem
 Tr[quadrupol]    -10263.239130

 energy correction for charged system         0.000000 eV
 dipol+quadrupol energy correction           -0.004297 eV
 added-field ion interaction          0.055269 eV  (added to PSCEN)


 Broyden mixing:
  rms(total) = 0.19544E+01    rms(broyden)= 0.19542E+01
  rms(prec ) = 0.22608E+01
  weight for this iteration     100.00

 eigenvalues of (default mixing * dielectric matrix)
  average eigenvalue GAMMA=   0.7652
  2.2683  0.4860  0.4860  0.3616  0.2242

 Free energy of the ion-electron system (eV)
  ---------------------------------------------------
  alpha Z        PSCENC =       805.92033675
  Ewald energy   TEWEN  =    199925.85664661
  -Hartree energ DENC   =   -241902.68936838
  -exchange      EXHF   =         0.00000000
  -V(xc)+E(xc)   XCENC  =      -346.28918374
  PAW double counting   =     49080.72553861   -47172.46670233
  entropy T*S    EENTRO =        -0.17046268
  eigenvalues    EBANDS =     -2247.91396415
  atomic energy  EATOM  =     41659.78587232
  Solvation  Ediel_sol  =         0.00000000
  ---------------------------------------------------
  free energy    TOTEN  =      -197.24128700 eV

  energy without entropy =     -197.07082432  energy(sigma->0) =     -197.15605566


--------------------------------------------------------------------------------------------------------




----------------------------------------- Iteration    1(  11)  ---------------------------------------


    POTLOK:  cpu time    0.0416: real time    0.0419
    SETDIJ:  cpu time    0.0052: real time    0.0052
    EDDIAG:  cpu time    1.3220: real time    1.3300
  RMM-DIIS:  cpu time    3.5438: real time    3.5614
    ORTHCH:  cpu time    0.3702: real time    0.3719
       DOS:  cpu time    0.0015: real time    0.0015
    CHARGE:  cpu time    0.2295: real time    0.2306
    MIXING:  cpu time    0.0024: real time    0.0024
    --------------------------------------------
      LOOP:  cpu time    5.5170: real time    5.5474

 eigenvalue-minimisations  :  3679
 total energy-change (2. order) : 0.4470781E+01  (-0.1230254E+01)
 number of electron     503.9998342 magnetization 
 augmentation part      198.4064065 magnetization 

 DIPCOR: dipole corrections for dipol
 direction  3 min pos     1,
 dipolmoment           0.000000      0.000000      0.148696 electrons x Angstroem
 Tr[quadrupol]    -10263.942098

 energy correction for charged system         0.000000 eV
 dipol+quadrupol energy correction           -0.000779 eV
 added-field ion interaction          0.023535 eV  (added to PSCEN)


 Broyden mixing:
  rms(total) = 0.13230E+01    rms(broyden)= 0.13228E+01
  rms(prec ) = 0.15140E+01
  weight for this iteration     100.00

 eigenvalues of (default mixing * dielectric matrix)
  average eigenvalue GAMMA=   0.7222
  2.2254  0.6161  0.6161  0.3787  0.2485  0.2485

 Free energy of the ion-electron system (eV)
  ---------------------------------------------------
  alpha Z        PSCENC =       805.89212058
  Ewald energy   TEWEN  =    199925.85664661
  -Hartree energ DENC   =   -241956.83795162
  -exchange      EXHF   =         0.00000000
  -V(xc)+E(xc)   XCENC  =      -345.54445769
  PAW double counting   =     49174.67754807   -47263.29627202
  entropy T*S    EENTRO =        -0.22211966
  eigenvalues    EBANDS =     -2193.08189291
  atomic energy  EATOM  =     41659.78587232
  Solvation  Ediel_sol  =         0.00000000
  ---------------------------------------------------
  free energy    TOTEN  =      -192.77050631 eV

  energy without entropy =     -192.54838665  energy(sigma->0) =     -192.65944648


--------------------------------------------------------------------------------------------------------




----------------------------------------- Iteration    1(  12)  ---------------------------------------


    POTLOK:  cpu time    0.0415: real time    0.0418
    SETDIJ:  cpu time    0.0051: real time    0.0051
    EDDIAG:  cpu time    1.3260: real time    1.3376
  RMM-DIIS:  cpu time    3.5308: real time    3.5477
    ORTHCH:  cpu time    0.3687: real time    0.3713
       DOS:  cpu time    0.0015: real time    0.0015
    CHARGE:  cpu time    0.2290: real time    0.2301
    MIXING:  cpu time    0.0026: real time    0.0026
    --------------------------------------------
      LOOP:  cpu time    5.5060: real time    5.5401

 eigenvalue-minimisations  :  3679
 total energy-change (2. order) : 0.3162693E+01  (-0.4719598E+00)
 number of electron     503.9998358 magnetization 
 augmentation part      197.4872235 magnetization 

 DIPCOR: dipole corrections for dipol
 direction  3 min pos     1,
 dipolmoment           0.000000      0.000000      0.082299 electrons x Angstroem
 Tr[quadrupol]    -10264.395736

 energy correction for charged system         0.000000 eV
 dipol+quadrupol energy correction           -0.000239 eV
 added-field ion interaction          0.013026 eV  (added to PSCEN)


 Broyden mixing:
  rms(total) = 0.75633E+00    rms(broyden)= 0.75618E+00
  rms(prec ) = 0.82049E+00
  weight for this iteration     100.00

 eigenvalues of (default mixing * dielectric matrix)
  average eigenvalue GAMMA=   0.6966
  2.2527  0.6582  0.5649  0.5649  0.3019  0.3019  0.2315

 Free energy of the ion-electron system (eV)
  ---------------------------------------------------
  alpha Z        PSCENC =       805.88215172
  Ewald energy   TEWEN  =    199925.85664661
  -Hartree energ DENC   =   -242006.59064621
  -exchange      EXHF   =         0.00000000
  -V(xc)+E(xc)   XCENC  =      -344.62010247
  PAW double counting   =     49215.78443475   -47300.11280786
  entropy T*S    EENTRO =        -0.26004743
  eigenvalues    EBANDS =     -2145.33331487
  atomic energy  EATOM  =     41659.78587232
  Solvation  Ediel_sol  =         0.00000000
  ---------------------------------------------------
  free energy    TOTEN  =      -189.60781344 eV

  energy without entropy =     -189.34776601  energy(sigma->0) =     -189.47778972


--------------------------------------------------------------------------------------------------------




----------------------------------------- Iteration    1(  13)  ---------------------------------------


    POTLOK:  cpu time    0.0434: real time    0.0443
    SETDIJ:  cpu time    0.0060: real time    0.0061
    EDDIAG:  cpu time    1.3291: real time    1.3366
  RMM-DIIS:  cpu time    3.5440: real time    3.5620
    ORTHCH:  cpu time    0.3668: real time    0.3684
       DOS:  cpu time    0.0015: real time    0.0015
    CHARGE:  cpu time    0.2321: real time    0.2332
    MIXING:  cpu time    0.0027: real time    0.0027
    --------------------------------------------
      LOOP:  cpu time    5.5263: real time    5.5596

 eigenvalue-minimisations  :  3680
 total energy-change (2. order) :-0.1141288E-01  (-0.1653114E+00)
 number of electron     503.9998356 magnetization 
 augmentation part      197.3597022 magnetization 

 DIPCOR: dipole corrections for dipol
 direction  3 min pos     1,
 dipolmoment           0.000000      0.000000      0.030507 electrons x Angstroem
 Tr[quadrupol]    -10264.548562

 energy correction for charged system         0.000000 eV
 dipol+quadrupol energy correction           -0.000033 eV
 added-field ion interaction          0.004829 eV  (added to PSCEN)


 Broyden mixing:
  rms(total) = 0.74206E+00    rms(broyden)= 0.74190E+00
  rms(prec ) = 0.82141E+00
  weight for this iteration     100.00

 eigenvalues of (default mixing * dielectric matrix)
  average eigenvalue GAMMA=   0.7068
  2.2988  0.7465  0.7465  0.7818  0.3003  0.3003  0.2570  0.2229

 Free energy of the ion-electron system (eV)
  ---------------------------------------------------
  alpha Z        PSCENC =       805.87416010
  Ewald energy   TEWEN  =    199925.85664661
  -Hartree energ DENC   =   -242015.25110481
  -exchange      EXHF   =         0.00000000
  -V(xc)+E(xc)   XCENC  =      -344.49045640
  PAW double counting   =     49255.61361743   -47339.43732656
  entropy T*S    EENTRO =        -0.23406597
  eigenvalues    EBANDS =     -2137.33656904
  atomic energy  EATOM  =     41659.78587232
  Solvation  Ediel_sol  =         0.00000000
  ---------------------------------------------------
  free energy    TOTEN  =      -189.61922632 eV

  energy without entropy =     -189.38516036  energy(sigma->0) =     -189.50219334


--------------------------------------------------------------------------------------------------------




----------------------------------------- Iteration    1(  14)  ---------------------------------------


    POTLOK:  cpu time    0.0445: real time    0.0447
    SETDIJ:  cpu time    0.0056: real time    0.0059
    EDDIAG:  cpu time    1.3157: real time    1.3220
  RMM-DIIS:  cpu time    3.5464: real time    3.5640
    ORTHCH:  cpu time    0.3666: real time    0.3683
       DOS:  cpu time    0.0015: real time    0.0015
    CHARGE:  cpu time    0.2293: real time    0.2306
    MIXING:  cpu time    0.0028: real time    0.0028
    --------------------------------------------
      LOOP:  cpu time    5.5130: real time    5.5672

 eigenvalue-minimisations  :  3681
 total energy-change (2. order) : 0.4540915E-01  (-0.6457556E-01)
 number of electron     503.9998355 magnetization 
 augmentation part      197.4985195 magnetization 

 DIPCOR: dipole corrections for dipol
 direction  3 min pos     1,
 dipolmoment           0.000000      0.000000     -0.002168 electrons x Angstroem
 Tr[quadrupol]    -10264.768361

 energy correction for charged system         0.000000 eV
 dipol+quadrupol energy correction           -0.000000 eV
 added-field ion interaction         -0.000343 eV  (added to PSCEN)


 Broyden mixing:
  rms(total) = 0.65106E+00    rms(broyden)= 0.65093E+00
  rms(prec ) = 0.73088E+00
  weight for this iteration     100.00

 eigenvalues of (default mixing * dielectric matrix)
  average eigenvalue GAMMA=   0.6736
  2.2987  0.8254  0.8254  0.7654  0.3179  0.3179  0.2553  0.2553  0.2007

 Free energy of the ion-electron system (eV)
  ---------------------------------------------------
  alpha Z        PSCENC =       805.86902090
  Ewald energy   TEWEN  =    199925.85664661
  -Hartree energ DENC   =   -242023.29111350
  -exchange      EXHF   =         0.00000000
  -V(xc)+E(xc)   XCENC  =      -344.41483330
  PAW double counting   =     49300.96018376   -47384.46963672
  entropy T*S    EENTRO =        -0.23422424
  eigenvalues    EBANDS =     -2129.63573300
  atomic energy  EATOM  =     41659.78587232
  Solvation  Ediel_sol  =         0.00000000
  ---------------------------------------------------
  free energy    TOTEN  =      -189.57381718 eV

  energy without entropy =     -189.33959294  energy(sigma->0) =     -189.45670506


--------------------------------------------------------------------------------------------------------




----------------------------------------- Iteration    1(  15)  ---------------------------------------


    POTLOK:  cpu time    0.0411: real time    0.0413
    SETDIJ:  cpu time    0.0052: real time    0.0052
    EDDIAG:  cpu time    1.3130: real time    1.3190
  RMM-DIIS:  cpu time    3.5401: real time    3.5572
    ORTHCH:  cpu time    0.3661: real time    0.3678
       DOS:  cpu time    0.0015: real time    0.0015
    CHARGE:  cpu time    0.2308: real time    0.2318
    MIXING:  cpu time    0.0028: real time    0.0028
    --------------------------------------------
      LOOP:  cpu time    5.5014: real time    5.5306

 eigenvalue-minimisations  :  3679
 total energy-change (2. order) : 0.2117903E+00  (-0.2124724E-01)
 number of electron     503.9998356 magnetization 
 augmentation part      197.5100118 magnetization 

 DIPCOR: dipole corrections for dipol
 direction  3 min pos     1,
 dipolmoment           0.000000      0.000000     -0.013264 electrons x Angstroem
 Tr[quadrupol]    -10264.878286

 energy correction for charged system         0.000000 eV
 dipol+quadrupol energy correction           -0.000006 eV
 added-field ion interaction         -0.002099 eV  (added to PSCEN)


 Broyden mixing:
  rms(total) = 0.43644E+00    rms(broyden)= 0.43639E+00
  rms(prec ) = 0.47656E+00
  weight for this iteration     100.00

 eigenvalues of (default mixing * dielectric matrix)
  average eigenvalue GAMMA=   0.7073
  2.2592  1.1487  1.1487  0.5644  0.4846  0.4846  0.2764  0.2764  0.2345  0.1953

 Free energy of the ion-electron system (eV)
  ---------------------------------------------------
  alpha Z        PSCENC =       805.86725875
  Ewald energy   TEWEN  =    199925.85664661
  -Hartree energ DENC   =   -242029.01008497
  -exchange      EXHF   =         0.00000000
  -V(xc)+E(xc)   XCENC  =      -344.34376837
  PAW double counting   =     49305.28754899   -47388.29298926
  entropy T*S    EENTRO =        -0.25148370
  eigenvalues    EBANDS =     -2124.26102723
  atomic energy  EATOM  =     41659.78587232
  Solvation  Ediel_sol  =         0.00000000
  ---------------------------------------------------
  free energy    TOTEN  =      -189.36202685 eV

  energy without entropy =     -189.11054315  energy(sigma->0) =     -189.23628500


--------------------------------------------------------------------------------------------------------




----------------------------------------- Iteration    1(  16)  ---------------------------------------


    POTLOK:  cpu time    0.0411: real time    0.0413
    SETDIJ:  cpu time    0.0051: real time    0.0052
    EDDIAG:  cpu time    1.3223: real time    1.3295
  RMM-DIIS:  cpu time    3.5575: real time    3.5919
    ORTHCH:  cpu time    0.3664: real time    0.3680
       DOS:  cpu time    0.0015: real time    0.0015
    CHARGE:  cpu time    0.2297: real time    0.2307
    MIXING:  cpu time    0.0030: real time    0.0030
    --------------------------------------------
      LOOP:  cpu time    5.5274: real time    5.5736

 eigenvalue-minimisations  :  3682
 total energy-change (2. order) : 0.1056107E-01  (-0.2419170E-01)
 number of electron     503.9998356 magnetization 
 augmentation part      197.3729936 magnetization 

 DIPCOR: dipole corrections for dipol
 direction  3 min pos     1,
 dipolmoment           0.000000      0.000000     -0.002345 electrons x Angstroem
 Tr[quadrupol]    -10265.174755

 energy correction for charged system         0.000000 eV
 dipol+quadrupol energy correction           -0.000000 eV
 added-field ion interaction         -0.000371 eV  (added to PSCEN)


 Broyden mixing:
  rms(total) = 0.44460E+00    rms(broyden)= 0.44456E+00
  rms(prec ) = 0.50431E+00
  weight for this iteration     100.00

 eigenvalues of (default mixing * dielectric matrix)
  average eigenvalue GAMMA=   0.7258
  2.1837  1.4701  1.4701  0.5935  0.5935  0.4450  0.2883  0.2883  0.2420  0.2290
  0.1801

 Free energy of the ion-electron system (eV)
  ---------------------------------------------------
  alpha Z        PSCENC =       805.86899286
  Ewald energy   TEWEN  =    199925.85664661
  -Hartree energ DENC   =   -242045.69064418
  -exchange      EXHF   =         0.00000000
  -V(xc)+E(xc)   XCENC  =      -344.11914563
  PAW double counting   =     49299.36415619   -47380.62880610
  entropy T*S    EENTRO =        -0.26091239
  eigenvalues    EBANDS =     -2109.52762546
  atomic energy  EATOM  =     41659.78587232
  Solvation  Ediel_sol  =         0.00000000
  ---------------------------------------------------
  free energy    TOTEN  =      -189.35146578 eV

  energy without entropy =     -189.09055339  energy(sigma->0) =     -189.22100958


--------------------------------------------------------------------------------------------------------




----------------------------------------- Iteration    1(  17)  ---------------------------------------


    POTLOK:  cpu time    0.0417: real time    0.0421
    SETDIJ:  cpu time    0.0049: real time    0.0054
    EDDIAG:  cpu time    1.3228: real time    1.3301
  RMM-DIIS:  cpu time    3.4932: real time    3.5932
    ORTHCH:  cpu time    0.3656: real time    0.3673
       DOS:  cpu time    0.0015: real time    0.0015
    CHARGE:  cpu time    0.2310: real time    0.2320
    MIXING:  cpu time    0.0031: real time    0.0031
    --------------------------------------------
      LOOP:  cpu time    5.4645: real time    5.6076

 eigenvalue-minimisations  :  3679
 total energy-change (2. order) : 0.1769956E+00  (-0.1381247E-01)
 number of electron     503.9998359 magnetization 
 augmentation part      197.2533504 magnetization 

 DIPCOR: dipole corrections for dipol
 direction  3 min pos     1,
 dipolmoment           0.000000      0.000000      0.006757 electrons x Angstroem
 Tr[quadrupol]    -10265.556908

 energy correction for charged system         0.000000 eV
 dipol+quadrupol energy correction           -0.000002 eV
 added-field ion interaction          0.001069 eV  (added to PSCEN)


 Broyden mixing:
  rms(total) = 0.20995E+00    rms(broyden)= 0.20989E+00
  rms(prec ) = 0.24055E+00
  weight for this iteration     100.00

 eigenvalues of (default mixing * dielectric matrix)
  average eigenvalue GAMMA=   0.7303
  2.0443  1.6656  1.6656  0.6163  0.6163  0.5572  0.3360  0.3360  0.2583  0.2583
  0.2260  0.1841

 Free energy of the ion-electron system (eV)
  ---------------------------------------------------
  alpha Z        PSCENC =       805.87043216
  Ewald energy   TEWEN  =    199925.85664661
  -Hartree energ DENC   =   -242065.86942946
  -exchange      EXHF   =         0.00000000
  -V(xc)+E(xc)   XCENC  =      -343.88468070
  PAW double counting   =     49300.48375067   -47380.00214251
  entropy T*S    EENTRO =        -0.26443812
  eigenvalues    EBANDS =     -2091.15048117
  atomic energy  EATOM  =     41659.78587232
  Solvation  Ediel_sol  =         0.00000000
  ---------------------------------------------------
  free energy    TOTEN  =      -189.17447021 eV

  energy without entropy =     -188.91003209  energy(sigma->0) =     -189.04225115


--------------------------------------------------------------------------------------------------------




----------------------------------------- Iteration    1(  18)  ---------------------------------------


    POTLOK:  cpu time    0.0407: real time    0.0409
    SETDIJ:  cpu time    0.0051: real time    0.0052
    EDDIAG:  cpu time    1.3269: real time    1.3333
  RMM-DIIS:  cpu time    3.5631: real time    3.5820
    ORTHCH:  cpu time    0.3661: real time    0.3679
       DOS:  cpu time    0.0014: real time    0.0014
    CHARGE:  cpu time    0.2295: real time    0.2306
    MIXING:  cpu time    0.0032: real time    0.0032
    --------------------------------------------
      LOOP:  cpu time    5.5369: real time    5.5672

 eigenvalue-minimisations  :  3679
 total energy-change (2. order) : 0.3924334E-01  (-0.6459292E-02)
 number of electron     503.9998360 magnetization 
 augmentation part      197.1571782 magnetization 

 DIPCOR: dipole corrections for dipol
 direction  3 min pos     1,
 dipolmoment           0.000000      0.000000      0.001046 electrons x Angstroem
 Tr[quadrupol]    -10265.735636

 energy correction for charged system         0.000000 eV
 dipol+quadrupol energy correction           -0.000000 eV
 added-field ion interaction          0.000165 eV  (added to PSCEN)


 Broyden mixing:
  rms(total) = 0.13927E+00    rms(broyden)= 0.13923E+00
  rms(prec ) = 0.15744E+00
  weight for this iteration     100.00

 eigenvalues of (default mixing * dielectric matrix)
  average eigenvalue GAMMA=   0.7206
  2.0809  2.0809  1.3812  0.6457  0.6457  0.6398  0.3454  0.3454  0.2846  0.2846
  0.2262  0.2262  0.1817

 Free energy of the ion-electron system (eV)
  ---------------------------------------------------
  alpha Z        PSCENC =       805.86952974
  Ewald energy   TEWEN  =    199925.85664661
  -Hartree energ DENC   =   -242076.24362376
  -exchange      EXHF   =         0.00000000
  -V(xc)+E(xc)   XCENC  =      -343.75281581
  PAW double counting   =     49306.56753091   -47385.28419477
  entropy T*S    EENTRO =        -0.26943703
  eigenvalues    EBANDS =     -2081.66473506
  atomic energy  EATOM  =     41659.78587232
  Solvation  Ediel_sol  =         0.00000000
  ---------------------------------------------------
  free energy    TOTEN  =      -189.13522687 eV

  energy without entropy =     -188.86578984  energy(sigma->0) =     -189.00050835


--------------------------------------------------------------------------------------------------------




----------------------------------------- Iteration    1(  19)  ---------------------------------------


    POTLOK:  cpu time    0.0414: real time    0.0416
    SETDIJ:  cpu time    0.0052: real time    0.0052
    EDDIAG:  cpu time    1.3171: real time    1.3241
  RMM-DIIS:  cpu time    3.5392: real time    3.5566
    ORTHCH:  cpu time    0.3655: real time    0.3672
       DOS:  cpu time    0.0015: real time    0.0015
    CHARGE:  cpu time    0.2308: real time    0.2318
    MIXING:  cpu time    0.0033: real time    0.0034
    --------------------------------------------
      LOOP:  cpu time    5.5048: real time    5.5344

 eigenvalue-minimisations  :  3681
 total energy-change (2. order) : 0.1614519E-01  (-0.2850679E-02)
 number of electron     503.9998361 magnetization 
 augmentation part      197.1042418 magnetization 

 DIPCOR: dipole corrections for dipol
 direction  3 min pos     1,
 dipolmoment           0.000000      0.000000      0.005824 electrons x Angstroem
 Tr[quadrupol]    -10265.856525

 energy correction for charged system         0.000000 eV
 dipol+quadrupol energy correction           -0.000001 eV
 added-field ion interaction          0.000922 eV  (added to PSCEN)


 Broyden mixing:
  rms(total) = 0.77136E-01    rms(broyden)= 0.77105E-01
  rms(prec ) = 0.86651E-01
  weight for this iteration     100.00

 eigenvalues of (default mixing * dielectric matrix)
  average eigenvalue GAMMA=   0.6995
  2.1565  1.6878  1.6233  0.6820  0.6820  0.6285  0.4370  0.4370  0.2982  0.2982
  0.2374  0.2374  0.1832  0.2045

 Free energy of the ion-electron system (eV)
  ---------------------------------------------------
  alpha Z        PSCENC =       805.87028488
  Ewald energy   TEWEN  =    199925.85664661
  -Hartree energ DENC   =   -242082.44564234
  -exchange      EXHF   =         0.00000000
  -V(xc)+E(xc)   XCENC  =      -343.67578938
  PAW double counting   =     49313.69270096   -47392.01650703
  entropy T*S    EENTRO =        -0.26604737
  eigenvalues    EBANDS =     -2075.92060032
  atomic energy  EATOM  =     41659.78587232
  Solvation  Ediel_sol  =         0.00000000
  ---------------------------------------------------
  free energy    TOTEN  =      -189.11908168 eV

  energy without entropy =     -188.85303431  energy(sigma->0) =     -188.98605800


--------------------------------------------------------------------------------------------------------




----------------------------------------- Iteration    1(  20)  ---------------------------------------


    POTLOK:  cpu time    0.0412: real time    0.0416
    SETDIJ:  cpu time    0.0051: real time    0.0051
    EDDIAG:  cpu time    1.3201: real time    1.3272
  RMM-DIIS:  cpu time    3.5389: real time    3.5567
    ORTHCH:  cpu time    0.3654: real time    0.3671
       DOS:  cpu time    0.0015: real time    0.0015
    CHARGE:  cpu time    0.2288: real time    0.2299
    MIXING:  cpu time    0.0036: real time    0.0037
    --------------------------------------------
      LOOP:  cpu time    5.5053: real time    5.5362

 eigenvalue-minimisations  :  3684
 total energy-change (2. order) : 0.3170347E-02  (-0.4931556E-03)
 number of electron     503.9998360 magnetization 
 augmentation part      197.1062900 magnetization 

 DIPCOR: dipole corrections for dipol
 direction  3 min pos     1,
 dipolmoment           0.000000      0.000000      0.010087 electrons x Angstroem
 Tr[quadrupol]    -10265.927695

 energy correction for charged system         0.000000 eV
 dipol+quadrupol energy correction           -0.000004 eV
 added-field ion interaction          0.001597 eV  (added to PSCEN)


 Broyden mixing:
  rms(total) = 0.50978E-01    rms(broyden)= 0.50971E-01
  rms(prec ) = 0.57896E-01
  weight for this iteration     100.00

 eigenvalues of (default mixing * dielectric matrix)
  average eigenvalue GAMMA=   0.7100
  2.2185  1.6454  1.6454  0.8053  0.8053  0.6365  0.6365  0.4703  0.3167  0.3167
  0.2649  0.2649  0.2325  0.1820  0.2086

 Free energy of the ion-electron system (eV)
  ---------------------------------------------------
  alpha Z        PSCENC =       805.87095721
  Ewald energy   TEWEN  =    199925.85664661
  -Hartree energ DENC   =   -242085.09038066
  -exchange      EXHF   =         0.00000000
  -V(xc)+E(xc)   XCENC  =      -343.66791636
  PAW double counting   =     49319.16287652   -47397.50507152
  entropy T*S    EENTRO =        -0.26753826
  eigenvalues    EBANDS =     -2073.26135720
  atomic energy  EATOM  =     41659.78587232
  Solvation  Ediel_sol  =         0.00000000
  ---------------------------------------------------
  free energy    TOTEN  =      -189.11591134 eV

  energy without entropy =     -188.84837308  energy(sigma->0) =     -188.98214221


--------------------------------------------------------------------------------------------------------




----------------------------------------- Iteration    1(  21)  ---------------------------------------


    POTLOK:  cpu time    0.0413: real time    0.0415
    SETDIJ:  cpu time    0.0052: real time    0.0052
    EDDIAG:  cpu time    1.3234: real time    1.3296
  RMM-DIIS:  cpu time    3.5056: real time    3.5226
    ORTHCH:  cpu time    0.3684: real time    0.3701
       DOS:  cpu time    0.0016: real time    0.0016
    CHARGE:  cpu time    0.2314: real time    0.2329
    MIXING:  cpu time    0.0037: real time    0.0037
    --------------------------------------------
      LOOP:  cpu time    5.4813: real time    5.5097

 eigenvalue-minimisations  :  3682
 total energy-change (2. order) : 0.1194836E-02  (-0.2115639E-03)
 number of electron     503.9998360 magnetization 
 augmentation part      197.1013425 magnetization 

 DIPCOR: dipole corrections for dipol
 direction  3 min pos     1,
 dipolmoment           0.000000      0.000000      0.007408 electrons x Angstroem
 Tr[quadrupol]    -10266.006148

 energy correction for charged system         0.000000 eV
 dipol+quadrupol energy correction           -0.000002 eV
 added-field ion interaction          0.001173 eV  (added to PSCEN)


 Broyden mixing:
  rms(total) = 0.42945E-01    rms(broyden)= 0.42941E-01
  rms(prec ) = 0.48695E-01
  weight for this iteration     100.00

 eigenvalues of (default mixing * dielectric matrix)
  average eigenvalue GAMMA=   0.7416
  2.2353  1.7802  1.7802  1.0537  1.0537  0.6460  0.6460  0.5504  0.3315  0.3315
  0.3068  0.2670  0.2670  0.2279  0.2064  0.1823

 Free energy of the ion-electron system (eV)
  ---------------------------------------------------
  alpha Z        PSCENC =       805.87053495
  Ewald energy   TEWEN  =    199925.85664661
  -Hartree energ DENC   =   -242088.33216784
  -exchange      EXHF   =         0.00000000
  -V(xc)+E(xc)   XCENC  =      -343.65216357
  PAW double counting   =     49321.96957727   -47400.28463479
  entropy T*S    EENTRO =        -0.26741413
  eigenvalues    EBANDS =     -2070.06096732
  atomic energy  EATOM  =     41659.78587232
  Solvation  Ediel_sol  =         0.00000000
  ---------------------------------------------------
  free energy    TOTEN  =      -189.11471650 eV

  energy without entropy =     -188.84730237  energy(sigma->0) =     -188.98100944


--------------------------------------------------------------------------------------------------------




----------------------------------------- Iteration    1(  22)  ---------------------------------------


    POTLOK:  cpu time    0.0428: real time    0.0430
    SETDIJ:  cpu time    0.0052: real time    0.0052
    EDDIAG:  cpu time    1.3185: real time    1.3274
  RMM-DIIS:  cpu time    3.5430: real time    3.5635
    ORTHCH:  cpu time    0.3662: real time    0.3679
       DOS:  cpu time    0.0015: real time    0.0016
    CHARGE:  cpu time    0.2302: real time    0.2313
    MIXING:  cpu time    0.0040: real time    0.0040
    --------------------------------------------
      LOOP:  cpu time    5.5122: real time    5.5536

 eigenvalue-minimisations  :  3680
 total energy-change (2. order) : 0.1388870E-02  (-0.1905873E-03)
 number of electron     503.9998361 magnetization 
 augmentation part      197.0868371 magnetization 

 DIPCOR: dipole corrections for dipol
 direction  3 min pos     1,
 dipolmoment           0.000000      0.000000      0.004208 electrons x Angstroem
 Tr[quadrupol]    -10266.145475

 energy correction for charged system         0.000000 eV
 dipol+quadrupol energy correction           -0.000001 eV
 added-field ion interaction          0.000666 eV  (added to PSCEN)


 Broyden mixing:
  rms(total) = 0.32045E-01    rms(broyden)= 0.32042E-01
  rms(prec ) = 0.36121E-01
  weight for this iteration     100.00

 eigenvalues of (default mixing * dielectric matrix)
  average eigenvalue GAMMA=   0.7604
  2.2721  2.0605  2.0605  1.0552  1.0552  0.6472  0.6472  0.6315  0.3808  0.3808
  0.3036  0.3036  0.2555  0.2555  0.2288  0.1822  0.2067

 Free energy of the ion-electron system (eV)
  ---------------------------------------------------
  alpha Z        PSCENC =       805.87002966
  Ewald energy   TEWEN  =    199925.85664661
  -Hartree energ DENC   =   -242094.28049845
  -exchange      EXHF   =         0.00000000
  -V(xc)+E(xc)   XCENC  =      -343.61966302
  PAW double counting   =     49324.87409341   -47403.06002383
  entropy T*S    EENTRO =        -0.26862538
  eigenvalues    EBANDS =     -2064.27115895
  atomic energy  EATOM  =     41659.78587232
  Solvation  Ediel_sol  =         0.00000000
  ---------------------------------------------------
  free energy    TOTEN  =      -189.11332763 eV

  energy without entropy =     -188.84470225  energy(sigma->0) =     -188.97901494


--------------------------------------------------------------------------------------------------------




----------------------------------------- Iteration    1(  23)  ---------------------------------------


    POTLOK:  cpu time    0.0413: real time    0.0417
    SETDIJ:  cpu time    0.0053: real time    0.0053
    EDDIAG:  cpu time    1.2978: real time    1.3254
  RMM-DIIS:  cpu time    3.5590: real time    3.5884
    ORTHCH:  cpu time    0.3656: real time    0.3676
       DOS:  cpu time    0.0015: real time    0.0015
    CHARGE:  cpu time    0.2311: real time    0.2322
    MIXING:  cpu time    0.0042: real time    0.0042
    --------------------------------------------
      LOOP:  cpu time    5.5064: real time    5.5693

 eigenvalue-minimisations  :  3680
 total energy-change (2. order) : 0.8167958E-03  (-0.1332901E-03)
 number of electron     503.9998361 magnetization 
 augmentation part      197.0768358 magnetization 

 DIPCOR: dipole corrections for dipol
 direction  3 min pos     1,
 dipolmoment           0.000000      0.000000      0.004106 electrons x Angstroem
 Tr[quadrupol]    -10266.256188

 energy correction for charged system         0.000000 eV
 dipol+quadrupol energy correction           -0.000001 eV
[...]
    275       1.7046      0.00000
    276       1.8478      0.00000
    277       2.2459      0.00000
    278       2.2674      0.00000
    279       2.2796      0.00000
    280       2.3762      0.00000
    281       2.4742      0.00000
    282       2.5666      0.00000
    283       2.6869      0.00000
    284       2.9425      0.00000
    285       3.1705      0.00000
    286       3.2095      0.00000
    287       3.5313      0.00000
    288       3.6236      0.00000
    289       3.7575      0.00000
    290       4.0008      0.00000
    291       4.1152      0.00000
    292       4.2198      0.00000
    293       4.4368      0.00000
    294       4.5379      0.00000
    295       4.6167      0.00000
    296       4.6309      0.00000
    297       4.6990      0.00000
    298       4.8016      0.00000
    299       4.8386      0.00000
    300       4.9199      0.00000
    301       4.9580      0.00000
    302       5.0214      0.00000
    303       5.0766      0.00000
    304       5.0863      0.00000
    305       5.1813      0.00000
    306       5.2738      0.00000


--------------------------------------------------------------------------------------------------------


 soft charge-density along one line, spin component           1
         0         1         2         3         4         5         6         7         8         9
 total charge-density along one line
 
 pseudopotential strength for first ion, spin component:           1
 -8.017  -0.002  -0.004  -0.004   0.001  -8.164  -0.002  -0.004
 -0.002  -7.944   0.000   0.003   0.000  -0.002  -8.093   0.000
 -0.004   0.000  -7.936   0.002  -0.003  -0.004   0.000  -8.085
 -0.004   0.003   0.002  -7.940  -0.001  -0.004   0.003   0.002
  0.001   0.000  -0.003  -0.001  -8.017   0.001   0.000  -0.003
 -8.164  -0.002  -0.004  -0.004   0.001  -8.296  -0.002  -0.004
 -0.002  -8.093   0.000   0.003   0.000  -0.002  -8.226   0.000
 -0.004   0.000  -8.085   0.002  -0.003  -0.004   0.000  -8.218
 -0.004   0.003   0.002  -8.089  -0.001  -0.004   0.003   0.001
  0.001   0.000  -0.003  -0.001  -8.165   0.001   0.000  -0.003
 -0.002   0.001  -0.025   0.001  -0.002  -0.002   0.001  -0.025
 -0.003   0.001  -0.036   0.001  -0.002  -0.003   0.001  -0.036
 -0.003  -0.005   0.001  -0.000   0.002  -0.003  -0.005   0.001
 -0.000  -0.001  -0.008  -0.003  -0.000  -0.000  -0.001  -0.008
 -0.001  -0.000   0.001  -0.005  -0.002  -0.001  -0.000   0.001
 -0.003  -0.006   0.001  -0.000   0.002  -0.003  -0.005   0.001
 -0.000  -0.001  -0.009  -0.003   0.000  -0.000  -0.001  -0.008
 -0.002  -0.000   0.002  -0.006  -0.003  -0.002  -0.000   0.001
 total augmentation occupancy for first ion, spin component:           1
  4.538  -0.012   0.089   0.013   0.150  -2.705  -0.015  -0.096  -0.057  -0.133   0.133  -0.066   0.037  -0.004  -0.016  -0.004
 -0.012   4.016   0.090  -0.018   0.053  -0.014  -1.775  -0.068   0.028  -0.069  -0.036   0.022  -0.136  -0.022  -0.008   0.002
  0.089   0.090   4.380  -0.027   0.204  -0.096  -0.068  -2.272   0.049  -0.200   0.997  -0.132  -0.022  -0.217   0.002   0.002
  0.013  -0.018  -0.027   4.121  -0.006  -0.056   0.028   0.049  -1.857   0.002  -0.016  -0.023  -0.005   0.011  -0.174  -0.000
  0.150   0.053   0.204  -0.006   4.152  -0.133  -0.069  -0.200   0.002  -2.338   0.143  -0.079  -0.040  -0.017  -0.029   0.003
 -2.705  -0.014  -0.096  -0.056  -0.133   2.757   0.035   0.102   0.089   0.120  -0.119   0.061  -0.029   0.005   0.017   0.002
 -0.015  -1.775  -0.068   0.028  -0.069   0.035   1.504   0.050  -0.036   0.081   0.032  -0.019   0.129   0.017   0.008  -0.005
 -0.096  -0.068  -2.272   0.049  -0.200   0.102   0.050   2.110  -0.065   0.195  -0.930   0.151   0.016   0.225  -0.004  -0.001
 -0.057   0.028   0.049  -1.857   0.002   0.089  -0.036  -0.065   1.564  -0.000   0.016   0.017   0.006  -0.009   0.164   0.000
 -0.133  -0.069  -0.200   0.002  -2.338   0.120   0.081   0.195  -0.000   2.408  -0.132   0.074   0.035   0.016   0.027  -0.002
  0.133  -0.036   0.997  -0.016   0.143  -0.119   0.032  -0.930   0.016  -0.132   2.418  -0.505  -0.006   0.119  -0.003   0.000
 -0.066   0.022  -0.132  -0.023  -0.079   0.061  -0.019   0.151   0.017   0.074  -0.505   0.146   0.008  -0.051   0.009  -0.000
  0.037  -0.136  -0.022  -0.005  -0.040  -0.029   0.129   0.016   0.006   0.035  -0.006   0.008   0.192   0.001  -0.005  -0.006
 -0.004  -0.022  -0.217   0.011  -0.017   0.005   0.017   0.225  -0.009   0.016   0.119  -0.051   0.001   0.090   0.003  -0.000
 -0.016  -0.008   0.002  -0.174  -0.029   0.017   0.008  -0.004   0.164   0.027  -0.003   0.009  -0.005   0.003   0.184   0.000
 -0.004   0.002   0.002  -0.000   0.003   0.002  -0.005  -0.001   0.000  -0.002   0.000  -0.000  -0.006  -0.000   0.000   0.000
 -0.000  -0.001  -0.002  -0.004   0.000   0.000  -0.000  -0.005   0.001  -0.000  -0.008   0.002  -0.000  -0.003   0.000   0.000
 -0.002  -0.000   0.001   0.002  -0.001   0.000   0.000   0.000  -0.006  -0.000   0.000  -0.000   0.000  -0.000  -0.005  -0.000


------------------------ aborting loop because EDIFF is reached ----------------------------------------


    CHARGE:  cpu time    0.2222: real time    0.2232
    FORLOC:  cpu time    0.0161: real time    0.0162
    FORNL :  cpu time    1.3296: real time    1.3356
    FORCOR:  cpu time    0.0564: real time    0.0582
    FORHAR:  cpu time    0.0244: real time    0.0244
    MIXING:  cpu time    0.0030: real time    0.0030
    OFIELD:  cpu time    0.0000: real time    0.0000

 VOLUME and BASIS-vectors are now :
 -----------------------------------------------------------------------------
  energy-cutoff  :      400.00
  volume of cell :     2567.68
      direct lattice vectors                 reciprocal lattice vectors
    11.002581515  0.000000000  0.000000000     0.090887761 -0.052474073  0.000000000
     5.501290758  9.528515099  0.000000000     0.000000000  0.104948147  0.000000000
     0.000000000  0.000000000 24.491785094     0.000000000  0.000000000  0.040830017

  length of vectors
    11.002581515 11.002581515 24.491785094     0.104948147  0.104948147  0.040830017


 FORCES acting on ions
    electron-ion (+dipol)            ewald-force                    non-local-force                 convergence-correction
 -----------------------------------------------------------------------------------------------
   -.156E+02 -.130E+02 0.225E+04   0.161E+02 0.133E+02 -.225E+04   -.416E+00 -.263E+00 -.290E+00   0.278E-02 0.359E-02 0.400E-02
   -.959E+00 0.101E+02 0.228E+04   0.166E+01 -.103E+02 -.228E+04   -.708E+00 0.234E+00 0.289E-01   -.207E-02 0.315E-02 0.299E-02
   0.188E+02 0.750E+01 -.228E+04   -.193E+02 -.817E+01 0.228E+04   0.506E+00 0.686E+00 0.616E-01   0.119E-02 0.152E-02 0.193E-02
   -.153E+02 -.130E+01 -.554E+01   0.150E+02 0.142E+01 0.553E+01   0.386E+00 -.126E+00 -.375E-03   0.596E-02 0.203E-02 0.945E-02
   -.126E+02 0.120E+02 0.220E+04   0.131E+02 -.126E+02 -.220E+04   -.498E+00 0.580E+00 -.248E+00   0.122E-02 -.988E-03 0.298E-02
   -.120E+02 -.197E+01 0.155E+01   0.116E+02 0.198E+01 -.167E+01   0.394E+00 -.171E-01 0.101E+00   0.395E-02 -.686E-02 0.103E-01
   -.714E+01 -.493E+01 0.229E+04   0.667E+01 0.501E+01 -.229E+04   0.474E+00 -.740E-01 -.274E-01   0.428E-02 -.464E-02 0.374E-02
   0.500E+01 -.249E+01 0.227E+04   -.574E+01 0.275E+01 -.227E+04   0.751E+00 -.269E+00 0.176E+00   0.153E-02 0.597E-02 0.364E-02
   0.711E+01 -.799E+01 -.249E+02   -.693E+01 0.763E+01 0.250E+02   -.169E+00 0.386E+00 -.103E+00   -.521E-02 -.142E-01 0.827E-02
   -.342E+01 0.469E+01 -.226E+04   0.388E+01 -.443E+01 0.226E+04   -.465E+00 -.269E+00 0.219E+00   0.212E-03 0.479E-02 -.204E-02
   0.150E+02 -.181E+02 0.226E+04   -.148E+02 0.192E+02 -.226E+04   -.217E+00 -.104E+01 -.244E+00   -.368E-02 -.129E-02 0.621E-02
   0.361E+01 0.873E+01 0.175E+02   -.361E+01 -.820E+01 -.169E+02   0.280E-02 -.528E+00 -.620E+00   -.388E-02 0.588E-02 0.639E-02
   -.572E+01 -.371E+01 0.223E+04   0.631E+01 0.365E+01 -.222E+04   -.611E+00 0.576E-01 -.560E+00   0.210E-02 0.794E-02 -.103E-02
   -.210E+02 -.913E+01 -.230E+04   0.221E+02 0.933E+01 0.230E+04   -.107E+01 -.190E+00 0.700E-01   -.238E-02 -.107E-01 0.257E-02
   0.113E+02 0.175E+02 0.226E+04   -.112E+02 -.181E+02 -.226E+04   -.983E-01 0.597E+00 -.305E+00   -.309E-02 -.145E-02 -.290E-02
   0.138E+01 0.110E+02 -.229E+04   -.143E+01 -.110E+02 0.229E+04   0.344E-01 -.208E-01 0.149E+00   0.541E-02 -.180E-02 -.466E-02
   0.503E+01 -.958E+01 -.227E+04   -.502E+01 0.979E+01 0.227E+04   -.160E-01 -.227E+00 0.218E-01   -.291E-02 0.462E-03 0.176E-02
   0.174E+02 0.137E+02 -.223E+04   -.183E+02 -.141E+02 0.223E+04   0.841E+00 0.411E+00 0.694E+00   0.967E-02 0.603E-02 0.987E-03
   -.540E+01 -.300E+01 0.314E+02   0.569E+01 0.290E+01 -.303E+02   -.294E+00 0.947E-01 -.110E+01   0.236E-02 0.379E-02 0.468E-02
   0.269E+01 -.342E+01 -.747E+02   -.334E+01 0.348E+01 0.730E+02   0.648E+00 -.602E-01 0.177E+01   -.241E-02 -.123E-01 0.502E-02
   -.133E+02 -.216E+02 -.225E+04   0.137E+02 0.222E+02 0.225E+04   -.449E+00 -.653E+00 0.285E+00   -.715E-02 -.138E-02 0.458E-02
   0.308E+01 0.139E+02 0.283E+02   -.292E+01 -.139E+02 -.277E+02   -.140E+00 -.158E-01 -.548E+00   -.660E-02 0.479E-02 0.535E-02
   0.171E+01 0.924E+01 0.225E+04   -.229E+01 -.933E+01 -.225E+04   0.576E+00 0.870E-01 -.243E+00   -.167E-02 0.436E-02 -.106E-02
   0.737E+01 -.185E+00 -.227E+04   -.776E+01 -.308E+00 0.227E+04   0.408E+00 0.499E+00 0.246E+00   -.681E-03 -.195E-02 -.200E-02
   0.139E+02 0.127E+01 0.196E+04   -.140E+02 -.147E+01 -.195E+04   0.179E+00 0.206E+00 -.156E+01   -.317E-02 -.670E-02 0.924E-02
   0.292E+01 0.506E+01 0.251E+02   -.318E+01 -.500E+01 -.246E+02   0.260E+00 -.563E-01 -.465E+00   -.617E-02 -.401E-03 0.799E-02
   -.152E+02 -.146E+02 -.197E+04   0.154E+02 0.154E+02 0.197E+04   -.174E+00 -.789E+00 0.149E+01   -.617E-02 0.308E-02 -.159E-02
   0.831E+00 0.204E+02 0.193E+04   -.827E+00 -.205E+02 -.193E+04   -.621E-02 0.109E+00 -.171E+01   -.169E-02 -.155E-02 0.344E-02
   0.439E+01 0.106E+02 -.199E+04   -.469E+01 -.108E+02 0.199E+04   0.293E+00 0.216E+00 0.155E+01   -.390E-02 0.116E-02 -.946E-03
   0.361E+01 -.770E+01 0.200E+04   -.395E+01 0.810E+01 -.200E+04   0.352E+00 -.402E+00 -.137E+01   0.655E-03 0.169E-03 0.394E-03
   0.756E+00 -.965E+01 -.212E+02   -.138E+00 0.932E+01 0.212E+02   -.619E+00 0.353E+00 -.396E-01   0.294E-02 -.357E-02 0.695E-02
   -.158E+02 -.100E+01 0.195E+04   0.162E+02 0.854E+00 -.195E+04   -.385E+00 0.161E+00 -.179E+01   0.686E-03 -.594E-02 0.938E-02
   0.788E+00 -.224E+01 -.198E+04   -.740E+00 0.235E+01 0.197E+04   -.443E-01 -.118E+00 0.147E+01   -.420E-02 0.481E-02 -.429E-03
   0.157E+02 0.135E+02 -.197E+04   -.159E+02 -.137E+02 0.197E+04   0.191E+00 0.141E+00 0.176E+01   0.189E-02 0.283E-02 -.147E-02
   0.155E+02 0.387E+01 -.196E+04   -.161E+02 -.386E+01 0.196E+04   0.608E+00 -.783E-02 0.166E+01   0.663E-02 0.215E-02 0.472E-02
   -.561E+01 -.256E+01 -.200E+04   0.549E+01 0.270E+01 0.200E+04   0.115E+00 -.151E+00 0.145E+01   0.243E-02 -.637E-02 0.504E-02
   0.564E+01 -.235E+01 -.399E+02   -.526E+01 0.194E+01 0.394E+02   -.379E+00 0.404E+00 0.500E+00   -.451E-02 -.662E-03 0.585E-02
   0.295E+01 -.307E+01 0.309E+02   -.311E+01 0.364E+01 -.301E+02   0.154E+00 -.568E+00 -.800E+00   0.625E-02 -.953E-03 0.577E-02
   0.199E+01 0.516E+01 0.199E+04   -.237E+01 -.532E+01 -.198E+04   0.391E+00 0.166E+00 -.147E+01   0.369E-02 0.112E-02 -.872E-03
   -.212E+02 0.416E+01 -.199E+04   0.217E+02 -.447E+01 0.198E+04   -.484E+00 0.322E+00 0.171E+01   -.468E-02 -.412E-02 -.310E-03
   0.102E+02 -.287E+01 0.199E+04   -.102E+02 0.250E+01 -.199E+04   -.422E-01 0.373E+00 -.139E+01   -.733E-03 -.507E-02 0.190E-02
   0.221E+01 0.542E+01 -.404E+02   -.237E+01 -.556E+01 0.399E+02   0.162E+00 0.123E+00 0.457E+00   -.202E-02 0.193E-03 0.722E-02
   -.268E+01 -.518E+00 0.307E+02   0.301E+01 0.392E-01 -.298E+02   -.333E+00 0.464E+00 -.880E+00   0.327E-02 0.122E-01 0.599E-03
   -.163E+01 -.219E+02 0.193E+04   0.160E+01 0.223E+02 -.193E+04   0.281E-01 -.394E+00 -.202E+01   0.448E-03 0.339E-02 0.844E-02
   -.135E+01 0.163E+01 -.310E+02   0.157E+01 -.164E+01 0.305E+02   -.222E+00 0.161E-01 0.479E+00   0.616E-02 0.431E-02 0.196E-02
   0.404E+01 0.369E+00 -.998E+01   -.385E+01 -.119E-01 0.100E+02   -.185E+00 -.352E+00 -.438E-01   -.728E-02 -.480E-02 0.292E-02
   -.229E+01 -.913E+00 -.150E+02   0.186E+01 0.113E+01 0.151E+02   0.426E+00 -.222E+00 -.210E-01   0.692E-02 0.105E-01 0.531E-02
   -.651E+01 -.993E+01 -.195E+04   0.678E+01 0.981E+01 0.194E+04   -.268E+00 0.125E+00 0.200E+01   0.236E-02 -.154E-02 0.842E-02
 -----------------------------------------------------------------------------------------------
   0.124E+00 -.908E-03 -.658E+00   -.496E-12 0.746E-13 -.455E-11   -.113E+00 0.366E-02 0.510E+00   -.124E-02 0.948E-03 0.161E+00
 
 
 POSITION                                       TOTAL-FORCE (eV/Angst)
 -----------------------------------------------------------------------------------
      1.41067      0.81339      9.73243         0.001698      0.004586     -0.000864
     13.77513      7.93714      9.67136        -0.008947      0.002096     -0.004831
     10.96678      4.73386     14.78600         0.005536      0.014066      0.006070
     10.98568      6.36147     12.24585         0.009994     -0.002704      0.000673
     12.40829      5.54214      9.78892        -0.002928      0.002870     -0.004920
      9.61576      3.97370     12.23765        -0.000958     -0.004873     -0.000565
     11.00528      3.18255      9.68582         0.008454     -0.004425     -0.004535
     11.00270      7.95511      9.68730         0.013690     -0.005236     -0.008774
      6.86300      3.97369     12.26952         0.006918      0.005671      0.001657
      5.50563      0.00292     14.76761        -0.005012     -0.008662      0.007982
      6.88715      0.83958      9.71600         0.000767      0.006387     -0.006221
     12.36017      8.74896     12.23247        -0.005102      0.004093     -0.002021
      8.27760      7.93972      9.75782        -0.015117      0.002283      0.003616
      5.53627      4.76682     14.83180        -0.008363     -0.007422      0.010586
      6.88579      5.52374      9.73457        -0.000344      0.003280     -0.001655
      4.12266      2.36976     14.82715        -0.009705      0.005493     -0.005826
     12.36857      7.15153     14.79686        -0.009021     -0.011619      0.001207
      2.71335     -0.02229     14.70469        -0.001352     -0.006020      0.007177
     11.01751      1.59141     12.21446         0.000685     -0.004524     -0.005508
      4.10246      3.97434     12.31047        -0.002563     -0.005576      0.008041
      4.14712      7.17075     14.75161        -0.005198     -0.006917      0.005886
     15.12963      8.72880     12.21357         0.006663     -0.008138     -0.003822
      5.51094      7.93291      9.71105         0.001814      0.004279     -0.006604
      2.72987      4.74758     14.81897         0.008436      0.004981      0.015881
      5.49071      3.17517      9.92885        -0.000422     -0.000519     -0.011603
      8.22386      1.58788     12.21264         0.000445      0.006433     -0.003824
      8.25239      0.01831     14.60470         0.004210     -0.001054     -0.003341
      4.13926      5.54907      9.92903        -0.004154     -0.000744     -0.002297
      9.61011      2.35992     14.60557        -0.006304     -0.007347     -0.006932
      9.63407      0.80666      9.80922         0.004307     -0.002009      0.011713
     12.37979      3.96925     12.26873         0.001328      0.011257     -0.004488
      2.78415      3.17582      9.92581         0.003652      0.006933      0.005621
     -0.01245      0.00871     14.58515        -0.000253      0.001863     -0.003802
      1.34535      2.36460     14.61877         0.007776     -0.008225      0.002085
      9.60302      7.13414     14.59956         0.007131      0.003379     -0.000857
      8.25021      4.76920     14.63248        -0.005777     -0.011120     -0.003886
     13.75217      6.35184     12.28771        -0.003979      0.001685     -0.003332
      8.22737      6.37869     12.20545        -0.004804     -0.000566      0.004260
      9.63579      5.55025      9.83702         0.012887      0.004530      0.006409
      6.90566      2.37843     14.62932        -0.001214      0.006975     -0.000967
      8.26300      3.17261      9.84599        -0.009414     -0.003129      0.007323
      5.48149      1.57705     12.28933        -0.002354     -0.008179     -0.008078
      6.89037      8.72748     12.20689         0.000321     -0.001962      0.000585
      4.14402      0.80924      9.92931         0.000453      0.004860      0.001287
      2.75730      1.57453     12.27717         0.007603      0.004832      0.002916
      5.50445      6.36762     12.25311        -0.000589      0.000318     -0.007181
      9.60670      8.74717     12.26151        -0.003193      0.002071      0.005123
      6.88842      7.13412     14.56558         0.002298      0.005750      0.000637
 -----------------------------------------------------------------------------------
    total drift:                                0.009026      0.003703      0.013828


--------------------------------------------------------------------------------------------------------



  FREE ENERGIE OF THE ION-ELECTRON SYSTEM (eV)
  ---------------------------------------------------
  free  energy   TOTEN  =      -192.65866211 eV

  energy  without entropy=     -192.40121609  energy(sigma->0) =     -192.52993910
 
 d Force = 0.7510223E-03[ 0.130E-04, 0.149E-02]  d Energy = 0.7827540E-03-0.317E-04
 d Force = 0.1647944E+02[ 0.166E+02, 0.163E+02]  d Ewald  = 0.1647945E+02-0.149E-04


--------------------------------------------------------------------------------------------------------


    POTLOK:  cpu time    0.0476: real time    0.0478


--------------------------------------------------------------------------------------------------------


 stress matrix after NEB project (eV)
      0.00000      0.00000      0.00000
      0.00000      0.00000      0.00000
      0.00000      0.00000      0.00000
  FORCES: max atom, RMS     0.018660    0.010385
  FORCE total and by dimension    0.071953    0.015881
  Stress total and by dimension    0.000000    0.000000
 Conjugate gradient step on ions:
 trial-energy change:   -0.000783  1 .order   -0.000751   -0.001489   -0.000013
  (g-gl).g = 0.445E-03      g.g   = 0.487E-03  gl.gl    = 0.604E-03
 g(Force)  = 0.487E-03   g(Stress)= 0.000E+00 ortho     =-0.258E-04
 gamma     =   0.73750
 trial     =   3.17964
 opt step  =   3.20443  (harmonic =   3.20765) maximal distance =0.01129712
 next E    =  -192.658662   (d E  =  -0.00078)


--------------------------------------------------------------------------------------------------------


  
 reached required accuracy - stopping structural energy minimisation
     LOOP+:  cpu time   69.0630: real time   69.6356
    4ORBIT:  cpu time    0.0000: real time    0.0000

 total amount of memory used by VASP on root node    84353. kBytes
========================================================================

   base      :      30000. kBytes
   nonlr-proj:       4285. kBytes
   fftplans  :       4447. kBytes
   grid      :       6721. kBytes
   one-center:        124. kBytes
   wavefun   :      38776. kBytes
 
  
  
 General timing and accounting informations for this job:
 ========================================================
  
                  Total CPU time used (sec):     2042.760
                            User time (sec):     1949.386
                          System time (sec):       93.374
                         Elapsed time (sec):     2062.329
  
                   Maximum memory used (kb):     1004896.
                   Average memory used (kb):           0.
  
                          Minor page faults:      1004578
                          Major page faults:            2
                 Voluntary context switches:        12866
