unknown system                          
           1
    11.002582    0.000000    0.000000
     5.501291    9.528515    0.000000
     0.000000    0.000000   24.491785
   Au   Pd
  24  24
Direct configuration=     1
   0.08333333  0.08333333  0.40830017
   0.83333333  0.83333333  0.40830017
   0.75000000  0.50000000  0.59169983
   0.66666667  0.66666667  0.50000000
   0.83333333  0.58333333  0.40830017
   0.66666667  0.41666667  0.50000000
   0.83333333  0.33333333  0.40830017
   0.58333333  0.83333333  0.40830017
   0.41666667  0.41666667  0.50000000
   0.50000000  0.00000000  0.59169983
   0.58333333  0.08333333  0.40830017
   0.66666667  0.91666667  0.50000000
   0.33333333  0.83333333  0.40830017
   0.25000000  0.50000000  0.59169983
   0.33333333  0.58333333  0.40830017
   0.25000000  0.25000000  0.59169983
   0.75000000  0.75000000  0.59169983
   0.25000000  0.00000000  0.59169983
   0.91666667  0.16666667  0.50000000
   0.16666667  0.41666667  0.50000000
   0.00000000  0.75000000  0.59169983
   0.91666667  0.91666667  0.50000000
   0.08333333  0.83333333  0.40830017
   0.00000000  0.50000000  0.59169983
   0.33333333  0.33333333  0.40830017
   0.66666667  0.16666667  0.50000000
   0.75000000  0.00000000  0.59169983
   0.08333333  0.58333333  0.40830017
   0.75000000  0.25000000  0.59169983
   0.83333333  0.08333333  0.40830017
   0.91666667  0.41666667  0.50000000
   0.08333333  0.33333333  0.40830017
   0.00000000  0.00000000  0.59169983
   0.00000000  0.25000000  0.59169983
   0.50000000  0.75000000  0.59169983
   0.50000000  0.50000000  0.59169983
   0.91666667  0.66666667  0.50000000
   0.41666667  0.66666667  0.50000000
   0.58333333  0.58333333  0.40830017
   0.50000000  0.25000000  0.59169983
   0.58333333  0.33333333  0.40830017
   0.41666667  0.16666667  0.50000000
   0.16666667  0.91666667  0.50000000
   0.33333333  0.08333333  0.40830017
   0.16666667  0.16666667  0.50000000
   0.16666667  0.66666667  0.50000000
   0.41666667  0.91666667  0.50000000
   0.25000000  0.75000000  0.59169983
Direct configuration=     2
   0.08398063  0.08385581  0.40648270
   0.83443945  0.83271762  0.40604827
   0.74980535  0.49898552  0.59383903
   0.66536121  0.66663025  0.50003198
   0.83469350  0.58228893  0.40641925
   0.66557741  0.41657041  0.50007416
   0.83287950  0.33359273  0.40613569
   0.58196921  0.83366401  0.40610737
   0.41781730  0.41565077  0.50001005
   0.50016965  0.00042245  0.59357352
   0.58231644  0.08538461  0.40641201
   0.66599888  0.91814044  0.50041716
   0.33393377  0.83340732  0.40678608
   0.25133374  0.50053041  0.59386204
   0.33377728  0.58240978  0.40646774
   0.25027001  0.24937431  0.59362205
   0.74976008  0.75048971  0.59391117
   0.24937101 -0.00081108  0.59320042
   0.91717877  0.16636779  0.50074388
   0.16585130  0.41655761  0.49883589
   0.00030160  0.75106763  0.59356543
   0.91692615  0.91729369  0.50044618
   0.08321198  0.83292909  0.40639238
  -0.00052331  0.49945069  0.59363946
   0.33296834  0.33302154  0.40726676
   0.66597326  0.16710506  0.50028391
   0.74966701  0.00129232  0.59286972
   0.08356077  0.58273739  0.40733762
   0.74996222  0.24928056  0.59284084
   0.83251508  0.08394049  0.40701124
   0.91814086  0.41571309  0.49994368
   0.08424104  0.33329091  0.40738909
  -0.00020903  0.00046377  0.59275914
  -0.00036343  0.24951020  0.59267016
   0.49903453  0.74980241  0.59265306
   0.49971975  0.50036482  0.59284176
   0.91794890  0.66573438  0.49973177
   0.41580982  0.66772470  0.50051583
   0.58302367  0.58304985  0.40709257
   0.50118708  0.24972996  0.59269427
   0.58344446  0.33281669  0.40715331
   0.41648826  0.16650745  0.49965404
   0.16763666  0.91588415  0.50053538
   0.33287691  0.08412615  0.40758579
   0.16705392  0.16651974  0.49970281
   0.16674944  0.66732619  0.50002207
   0.41546749  0.91720502  0.50003137
   0.25070205  0.74988268  0.59238991
Direct configuration=     3
   0.08592253  0.08542323  0.40103027
   0.83775781  0.83087047  0.39929257
   0.74922139  0.49594208  0.60025664
   0.66144484  0.66652101  0.50012794
   0.83877401  0.57915571  0.40077648
   0.66230965  0.41628163  0.50029663
   0.83151799  0.33437091  0.39964224
   0.57787686  0.83465606  0.39952899
   0.42126920  0.41260309  0.50004021
   0.50067861  0.00168979  0.59919460
   0.57926578  0.09153843  0.40074753
   0.66399554  0.92256176  0.50166862
   0.33573507  0.83362927  0.40224379
   0.25533496  0.50212164  0.60034865
   0.33510910  0.57963911  0.40097044
   0.25108004  0.24749724  0.59938869
   0.74904032  0.75195883  0.60054518
   0.24748404 -0.00324432  0.59770219
   0.91871509  0.16547115  0.50297551
   0.16340520  0.41623044  0.49534358
   0.00120641  0.75427052  0.59916222
   0.91770458  0.91917475  0.50178474
   0.08284792  0.83171636  0.40066901
  -0.00209322  0.49780274  0.59945835
   0.33187337  0.33208617  0.40416655
   0.66389306  0.16842024  0.50113563
   0.74866805  0.00516927  0.59637937
   0.08424306  0.58094956  0.40444999
   0.74984888  0.24712225  0.59626387
   0.83006030  0.08576196  0.40314446
   0.92256345  0.41285238  0.49977473
   0.08696418  0.33316364  0.40465584
  -0.00083613  0.00185507  0.59593705
  -0.00145371  0.24804080  0.59558115
   0.49613814  0.74920964  0.59551276
   0.49887900  0.50145926  0.59626755
   0.92179560  0.66293751  0.49892707
   0.41323928  0.67089881  0.50206330
   0.58209469  0.58219941  0.40346976
   0.50474831  0.24891985  0.59567758
   0.58377785  0.33126678  0.40371274
   0.41595303  0.16602980  0.49861617
   0.17054664  0.91353662  0.50214152
   0.33150764  0.08650460  0.40544266
   0.16821568  0.16607894  0.49881126
   0.16699778  0.66930475  0.50008829
   0.41186996  0.91882007  0.50012548
   0.25280819  0.74953071  0.59446016
Direct configuration=     4
   0.08451446  0.08522105  0.39996187
   0.83494894  0.83219695  0.39811462
   0.74845363  0.49635696  0.60156798
   0.66383361  0.66695822  0.50004078
   0.83698722  0.58020994  0.39966674
   0.66539334  0.41631324  0.50015485
   0.83190166  0.33365408  0.39846419
   0.58073588  0.83494760  0.39829949
   0.41658626  0.41485925  0.50009557
   0.50005728  0.00136029  0.60065096
   0.58058095  0.08888773  0.39927962
   0.66501743  0.91970074  0.50106644
   0.33378577  0.83327179  0.40113280
   0.25415332  0.50092833  0.60147122
   0.33517277  0.57952040  0.39984587
   0.25066648  0.24884758  0.60038351
   0.74915350  0.75145598  0.60171580
   0.24783474 -0.00218127  0.59914500
   0.91862780  0.16664574  0.50185714
   0.16645622  0.41634255  0.49711822
   0.00122124  0.75332586  0.60052373
   0.91742172  0.91785099  0.50112098
   0.08363822  0.83268286  0.39955784
  -0.00062273  0.49810033  0.60057121
   0.33199251  0.33286976  0.40290640
   0.66515857  0.16699535  0.50067121
   0.74928023  0.00433503  0.59762669
   0.08511151  0.58160393  0.40307341
   0.74953741  0.24782052  0.59746809
   0.83128760  0.08527455  0.40271270
   0.91927527  0.41383410  0.49982451
   0.08612041  0.33230761  0.40291188
  -0.00098826  0.00175180  0.59746051
  -0.00094685  0.24800720  0.59662112
   0.49764843  0.74930631  0.59652194
   0.49991883  0.50089868  0.59737684
   0.91903460  0.66535129  0.49938523
   0.41255369  0.66996094  0.50130023
   0.58270645  0.58179022  0.40277549
   0.50360998  0.24986866  0.59661931
   0.58372114  0.33229129  0.40269446
   0.41516935  0.16613295  0.49909445
   0.16952232  0.91462412  0.50124883
   0.33234338  0.08610376  0.40452663
   0.16856309  0.16485266  0.49933377
   0.16779535  0.66785173  0.50000879
   0.41291631  0.91942063  0.50033784
   0.25214897  0.74928970  0.59569325
Direct configuration=     5
   0.08393467  0.08513780  0.39952194
   0.83379235  0.83274314  0.39762959
   0.74813750  0.49652779  0.60210795
   0.66481722  0.66713825  0.50000490
   0.83625149  0.58064403  0.39920979
   0.66666310  0.41632626  0.50009647
   0.83205964  0.33335891  0.39797911
   0.58191312  0.83506764  0.39779323
   0.41465799  0.41578826  0.50011837
   0.49980145  0.00122462  0.60125064
   0.58112249  0.08779626  0.39867518
   0.66543821  0.91852268  0.50081849
   0.33298311  0.83312460  0.40067533
   0.25366676  0.50043696  0.60193345
   0.33519899  0.57947152  0.39938281
   0.25049618  0.24940360  0.60079313
   0.74920011  0.75124893  0.60219782
   0.24797915 -0.00174354  0.59973910
   0.91859186  0.16712940  0.50139664
   0.16771253  0.41638871  0.49784895
   0.00122735  0.75293688  0.60108435
   0.91730525  0.91730592  0.50084767
   0.08396364  0.83308083  0.39910031
  -0.00001724  0.49822287  0.60102945
   0.33204157  0.33319241  0.40238752
   0.66567966  0.16640863  0.50047998
   0.74953230  0.00399152  0.59814029
   0.08546910  0.58187338  0.40250658
   0.74940915  0.24810804  0.59796395
   0.83179295  0.08507386  0.40253492
   0.91792131  0.41423834  0.49984501
   0.08577298  0.33195512  0.40219378
  -0.00105090  0.00170927  0.59808781
  -0.00073814  0.24799337  0.59704934
   0.49827031  0.74934611  0.59693748
   0.50034700  0.50066785  0.59783361
   0.91789772  0.66634520  0.49957388
   0.41227139  0.66957476  0.50098602
   0.58295834  0.58162174  0.40248962
   0.50314126  0.25025935  0.59700708
   0.58369778  0.33271315  0.40227516
   0.41484666  0.16617543  0.49929138
   0.16910054  0.91507192  0.50088125
   0.33268751  0.08593872  0.40414945
   0.16870614  0.16434772  0.49954892
   0.16812376  0.66725343  0.49997605
   0.41334716  0.91966792  0.50042528
   0.25187753  0.74919046  0.59620099
Direct configuration=     6
   0.08367140  0.08506497  0.39912539
   0.83403147  0.83306529  0.39726575
   0.74859855  0.49705722  0.60259095
   0.66509725  0.66754812  0.49999498
   0.83600079  0.58086164  0.39894933
   0.66574061  0.41659973  0.50009938
   0.83225332  0.33326973  0.39749473
   0.58167012  0.83476724  0.39739967
   0.41629256  0.41586667  0.50018384
   0.50000011  0.00111896  0.60175258
   0.58155915  0.08750474  0.39818026
   0.66527009  0.91809746  0.50064604
   0.33398785  0.83299142  0.40038194
   0.25316578  0.50027748  0.60245103
   0.33536731  0.57962779  0.39889623
   0.25041710  0.24973524  0.60117592
   0.74945825  0.75079347  0.60259938
   0.24824298 -0.00161631  0.60022390
   0.91874563  0.16643969  0.50095756
   0.16541885  0.41681499  0.49847254
   0.00102484  0.75255553  0.60149112
   0.91778948  0.91651123  0.50060646
   0.08312062  0.83326202  0.39875608
  -0.00016204  0.49870896  0.60128183
   0.33228975  0.33307042  0.40192761
   0.66511814  0.16667924  0.50021663
   0.74955387  0.00318857  0.59837818
   0.08473440  0.58232732  0.40230004
   0.74946035  0.24831364  0.59820127
   0.83226582  0.08452956  0.40251623
   0.91815545  0.41544382  0.49979561
   0.08542289  0.33245899  0.40201251
  -0.00108985  0.00150558  0.59839108
  -0.00077839  0.24837990  0.59732183
   0.49881444  0.74939367  0.59705333
   0.50026859  0.50036795  0.59800596
   0.91770699  0.66619839  0.49975662
   0.41319046  0.66891438  0.50055177
   0.58310153  0.58227006  0.40243779
   0.50276998  0.25041613  0.59717476
   0.58369571  0.33260653  0.40218311
   0.41577882  0.16539563  0.49962084
   0.16834729  0.91562028  0.50055183
   0.33303874  0.08520378  0.40384629
   0.16837148  0.16487214  0.49978966
   0.16704647  0.66781830  0.49994020
   0.41432775  0.91885531  0.50049362
   0.25164727  0.74924715  0.59655633
Direct configuration=     7
   0.08360953  0.08504786  0.39903221
   0.83408766  0.83314099  0.39718025
   0.74870690  0.49718164  0.60270445
   0.66516306  0.66764443  0.49999265
   0.83594188  0.58091277  0.39888813
   0.66552383  0.41666399  0.50010006
   0.83229884  0.33324878  0.39738091
   0.58161302  0.83469664  0.39730719
   0.41667668  0.41588510  0.50019923
   0.50004679  0.00109413  0.60187054
   0.58166176  0.08743624  0.39806396
   0.66523058  0.91799753  0.50060552
   0.33422396  0.83296012  0.40031300
   0.25304806  0.50024000  0.60257266
   0.33540686  0.57966452  0.39878189
   0.25039852  0.24981317  0.60126587
   0.74951891  0.75068644  0.60269375
   0.24830498 -0.00158641  0.60033783
   0.91878177  0.16627761  0.50085438
   0.16487984  0.41691517  0.49861908
   0.00097725  0.75246592  0.60158671
   0.91790327  0.91632448  0.50054977
   0.08292251  0.83330460  0.39867519
  -0.00019607  0.49882318  0.60134114
   0.33234807  0.33304176  0.40181953
   0.66498619  0.16674283  0.50015474
   0.74955894  0.00299988  0.59843408
   0.08456175  0.58243399  0.40225151
   0.74947238  0.24836195  0.59825704
   0.83237694  0.08440165  0.40251184
   0.91821048  0.41572710  0.49978400
   0.08534062  0.33257740  0.40196991
  -0.00109901  0.00145771  0.59846235
  -0.00078784  0.24847073  0.59738587
   0.49894230  0.74940484  0.59708056
   0.50025016  0.50029747  0.59804646
   0.91766217  0.66616389  0.49979957
   0.41340643  0.66875920  0.50044972
   0.58313518  0.58242242  0.40242561
   0.50268273  0.25045297  0.59721417
   0.58369522  0.33258148  0.40216148
   0.41599787  0.16521238  0.49969826
   0.16817028  0.91574914  0.50047441
   0.33312127  0.08503107  0.40377504
   0.16829283  0.16499538  0.49984624
   0.16679331  0.66795104  0.49993178
   0.41455818  0.91866435  0.50050968
   0.25159316  0.74926047  0.59663983
Direct configuration=     8
   0.08403956  0.08492398  0.39879358
   0.83426485  0.83303889  0.39697147
   0.74899809  0.49723638  0.60291931
   0.66514770  0.66736338  0.50003100
   0.83598924  0.58105989  0.39877692
   0.66582176  0.41659659  0.50017911
   0.83215082  0.33342173  0.39715150
   0.58149847  0.83455510  0.39701803
   0.41643140  0.41585540  0.50019133
   0.50030386  0.00109285  0.60213481
   0.58163072  0.08762332  0.39780317
   0.66532995  0.91827217  0.50056885
   0.33449459  0.83306538  0.40020247
   0.25305741  0.50044025  0.60283791
   0.33521754  0.57995203  0.39852299
   0.25048701  0.24963309  0.60153255
   0.74952141  0.75068678  0.60296766
   0.24837290 -0.00176069  0.60049678
   0.91840836  0.16647902  0.50081210
   0.16481392  0.41680012  0.49866759
   0.00090264  0.75256025  0.60178177
   0.91765088  0.91624436  0.50060775
   0.08301812  0.83300499  0.39845177
  -0.00049781  0.49897231  0.60155110
   0.33220483  0.33297581  0.40193534
   0.66493893  0.16648079  0.50008161
   0.74946664  0.00272343  0.59833239
   0.08430040  0.58234832  0.40238133
   0.74967929  0.24825960  0.59816525
   0.83227414  0.08441999  0.40250588
   0.91791799  0.41602722  0.49975108
   0.08553500  0.33286371  0.40212349
  -0.00114638  0.00138081  0.59839437
  -0.00099029  0.24863738  0.59735494
   0.49890514  0.74933970  0.59698133
   0.50000773  0.50038349  0.59806665
   0.91762054  0.66619926  0.49985586
   0.41346912  0.66907889  0.50027651
   0.58340745  0.58250970  0.40245208
   0.50278348  0.25024331  0.59721327
   0.58383524  0.33238873  0.40216398
   0.41610180  0.16539248  0.49980586
   0.16847032  0.91566870  0.50039093
   0.33301811  0.08497783  0.40378011
   0.16830391  0.16516351  0.49992987
   0.16665965  0.66787368  0.49992758
   0.41446827  0.91825878  0.50058532
   0.25171533  0.74928730  0.59657344
Direct configuration=     9
   0.08442201  0.08481381  0.39858135
   0.83442243  0.83294809  0.39678579
   0.74925705  0.49728507  0.60311038
   0.66513404  0.66711342  0.50006509
   0.83603136  0.58119073  0.39867803
   0.66608671  0.41653665  0.50024942
   0.83201918  0.33357555  0.39694747
   0.58139659  0.83442922  0.39676087
   0.41621327  0.41582899  0.50018432
   0.50053249  0.00109172  0.60236985
   0.58160311  0.08778969  0.39757123
   0.66541833  0.91851641  0.50053625
   0.33473527  0.83315899  0.40010417
   0.25306572  0.50061834  0.60307381
   0.33504918  0.58020772  0.39829275
   0.25056570  0.24947294  0.60176973
   0.74952362  0.75068708  0.60321126
   0.24843330 -0.00191568  0.60063815
   0.91807627  0.16665814  0.50077450
   0.16475529  0.41669780  0.49871073
   0.00083628  0.75264414  0.60195524
   0.91742642  0.91617310  0.50065931
   0.08310314  0.83273854  0.39825308
  -0.00076616  0.49910494  0.60173782
   0.33207744  0.33291717  0.40203834
   0.66489690  0.16624776  0.50001657
   0.74938455  0.00247758  0.59824195
   0.08406797  0.58227214  0.40249680
   0.74986330  0.24816857  0.59808361
   0.83218273  0.08443630  0.40250058
   0.91765787  0.41629413  0.49972181
   0.08570788  0.33311834  0.40226007
  -0.00118852  0.00131241  0.59833391
  -0.00117034  0.24878560  0.59732743
   0.49887208  0.74928176  0.59689308
   0.49979214  0.50045998  0.59808460
   0.91758352  0.66623072  0.49990592
   0.41352486  0.66936321  0.50012247
   0.58364959  0.58258732  0.40247562
   0.50287308  0.25005685  0.59721248
   0.58395976  0.33221732  0.40216620
   0.41619423  0.16555266  0.49990155
   0.16873717  0.91559715  0.50031669
   0.33292635  0.08493048  0.40378462
   0.16831376  0.16531303  0.50000426
   0.16654078  0.66780488  0.49992385
   0.41438830  0.91789809  0.50065259
   0.25182397  0.74931115  0.59651440
Direct configuration=    10
   0.08455852  0.08493535  0.39833490
   0.83428791  0.83297131  0.39651186
   0.74906355  0.49729182  0.60338709
   0.66521020  0.66726299  0.50013545
   0.83604042  0.58134690  0.39854320
   0.66600514  0.41640319  0.50037856
   0.83217158  0.33353948  0.39669211
   0.58162497  0.83459100  0.39640046
   0.41584242  0.41615302  0.50015250
   0.50063973  0.00094915  0.60267408
   0.58141368  0.08774086  0.39725077
   0.66504348  0.91842829  0.50042270
   0.33462326  0.83320999  0.39990334
   0.25296526  0.50070343  0.60339292
   0.33509822  0.58022417  0.39802782
   0.25054574  0.24938062  0.60211866
   0.74931284  0.75084270  0.60357155
   0.24837558 -0.00193112  0.60077004
   0.91815234  0.16660559  0.50066775
   0.16500828  0.41659147  0.49889982
   0.00092994  0.75270451  0.60220531
   0.91763253  0.91615936  0.50070894
   0.08337360  0.83260928  0.39801738
  -0.00059712  0.49900907  0.60200170
   0.33198788  0.33298929  0.40229594
   0.66475553  0.16633355  0.49991925
   0.74936929  0.00240677  0.59809668
   0.08409736  0.58213326  0.40274211
   0.74991260  0.24808328  0.59790398
   0.83238510  0.08439971  0.40248723
   0.91743916  0.41627756  0.49967062
   0.08580045  0.33314970  0.40252164
  -0.00116386  0.00127764  0.59811207
  -0.00118754  0.24872037  0.59719124
   0.49890801  0.74912344  0.59676215
   0.49989462  0.50045930  0.59800852
   0.91737450  0.66631734  0.50001694
   0.41335999  0.66932730  0.49989675
   0.58385528  0.58234316  0.40250192
   0.50301687  0.24997851  0.59718650
   0.58383500  0.33246208  0.40224601
   0.41611487  0.16549188  0.50001244
   0.16863090  0.91567956  0.50017735
   0.33303056  0.08501615  0.40394074
   0.16828643  0.16528323  0.50013218
   0.16665760  0.66771904  0.49994905
   0.41444281  0.91796520  0.50075979
   0.25187453  0.74934028  0.59629992
Direct configuration=    11
   0.08470626  0.08506689  0.39806819
   0.83414232  0.83299644  0.39621541
   0.74885413  0.49729912  0.60368655
   0.66529262  0.66742484  0.50021160
   0.83605023  0.58151591  0.39839729
   0.66591686  0.41625875  0.50051832
   0.83233650  0.33350045  0.39641575
   0.58187213  0.83476608  0.39601043
   0.41544108  0.41650370  0.50011807
   0.50075580  0.00079487  0.60300332
   0.58120867  0.08768801  0.39690397
   0.66463780  0.91833291  0.50029983
   0.33450204  0.83326519  0.39968600
   0.25285653  0.50079552  0.60373828
   0.33515128  0.58024196  0.39774110
   0.25052413  0.24928072  0.60249627
   0.74908473  0.75101112  0.60396147
   0.24831311 -0.00194783  0.60091278
   0.91823466  0.16654873  0.50055222
   0.16528208  0.41647640  0.49910446
   0.00103130  0.75276984  0.60247595
   0.91785559  0.91614448  0.50076265
   0.08366628  0.83246938  0.39776231
  -0.00041417  0.49890532  0.60228727
   0.33189095  0.33306735  0.40257472
   0.66460254  0.16642639  0.49981393
   0.74935278  0.00233015  0.59793947
   0.08412918  0.58198297  0.40300760
   0.74996596  0.24799099  0.59770958
   0.83260411  0.08436010  0.40247278
   0.91720246  0.41625963  0.49961522
   0.08590063  0.33318365  0.40280472
  -0.00113718  0.00124002  0.59787200
  -0.00120616  0.24864977  0.59704386
   0.49894688  0.74895210  0.59662047
   0.50000554  0.50045857  0.59792619
   0.91714830  0.66641108  0.50013709
   0.41318156  0.66928843  0.49965247
   0.58407788  0.58207892  0.40253038
   0.50317249  0.24989372  0.59715838
   0.58369999  0.33272697  0.40233239
   0.41602898  0.16542610  0.50013245
   0.16851590  0.91576873  0.50002656
   0.33314333  0.08510885  0.40410970
   0.16825684  0.16525098  0.50027063
   0.16678403  0.66762613  0.49997631
   0.41450181  0.91803782  0.50087581
   0.25192925  0.74937180  0.59606781
Direct configuration=    12
   0.08453283  0.08529169  0.39794029
   0.83438869  0.83324224  0.39601774
   0.74882667  0.49725225  0.60389675
   0.66521928  0.66741337  0.50020580
   0.83602036  0.58139744  0.39836433
   0.66555964  0.41654963  0.50052428
   0.83258446  0.33338250  0.39625499
   0.58172594  0.83476851  0.39574432
   0.41557860  0.41664338  0.50018605
   0.50043489  0.00083145  0.60319187
   0.58130865  0.08788811  0.39669901
   0.66461813  0.91822770  0.50015884
   0.33483288  0.83322355  0.39950856
   0.25305869  0.50053080  0.60400302
   0.33537796  0.57992573  0.39752411
   0.25061678  0.24926146  0.60283860
   0.74928125  0.75079523  0.60422112
   0.24833253 -0.00189999  0.60095219
   0.91850934  0.16647907  0.50025793
   0.16490436  0.41666423  0.49960260
   0.00100042  0.75265617  0.60265067
   0.91779854  0.91587600  0.50059783
   0.08347232  0.83262874  0.39762805
  -0.00044188  0.49890056  0.60247057
   0.33208933  0.33317284  0.40281467
   0.66435501  0.16642184  0.49961517
   0.74941806  0.00239223  0.59776428
   0.08428283  0.58225155  0.40329734
   0.74989230  0.24787798  0.59756744
   0.83276498  0.08424185  0.40244572
   0.91724059  0.41624748  0.49961949
   0.08570000  0.33301923  0.40306455
  -0.00099102  0.00125199  0.59766670
  -0.00119263  0.24865343  0.59689974
   0.49890718  0.74896174  0.59651551
   0.49996811  0.50039619  0.59780730
   0.91710863  0.66647793  0.50035362
   0.41318229  0.66911327  0.49940358
   0.58407188  0.58212754  0.40258043
   0.50296599  0.25010595  0.59709433
   0.58371753  0.33271601  0.40243965
   0.41596903  0.16522149  0.50030622
   0.16850214  0.91584626  0.49982375
   0.33337219  0.08503293  0.40436626
   0.16827388  0.16505156  0.50040850
   0.16658170  0.66790073  0.49999773
   0.41433861  0.91831400  0.50090907
   0.25194005  0.74927417  0.59579944
Direct configuration=    13
   0.08444517  0.08540530  0.39787565
   0.83451321  0.83336647  0.39591784
   0.74881280  0.49722855  0.60400299
   0.66518222  0.66740757  0.50020287
   0.83600526  0.58133756  0.39834767
   0.66537910  0.41669664  0.50052729
   0.83270979  0.33332289  0.39617374
   0.58165206  0.83476974  0.39560982
   0.41564811  0.41671398  0.50022041
   0.50027270  0.00084995  0.60328716
   0.58135918  0.08798924  0.39659542
   0.66460819  0.91817452  0.50008759
   0.33500009  0.83320251  0.39941888
   0.25316087  0.50039701  0.60413683
   0.33549253  0.57976590  0.39741443
   0.25066361  0.24925173  0.60301161
   0.74938057  0.75068612  0.60435235
   0.24834234 -0.00187581  0.60097211
   0.91864817  0.16644387  0.50010919
   0.16471346  0.41675916  0.49985437
   0.00098481  0.75259871  0.60273897
   0.91776970  0.91574031  0.50051452
   0.08337428  0.83270928  0.39756019
  -0.00045588  0.49889815  0.60256322
   0.33218959  0.33322616  0.40293595
   0.66422990  0.16641954  0.49951472
   0.74945106  0.00242361  0.59767574
   0.08436049  0.58238729  0.40344378
   0.74985507  0.24782087  0.59749560
   0.83284629  0.08418208  0.40243204
   0.91725987  0.41624133  0.49962165
   0.08559859  0.33293613  0.40319587
  -0.00091715  0.00125804  0.59756293
  -0.00118579  0.24865528  0.59682690
   0.49888711  0.74896661  0.59646246
   0.49994919  0.50036466  0.59774721
   0.91708858  0.66651172  0.50046305
   0.41318266  0.66902474  0.49927779
   0.58406885  0.58215211  0.40260572
   0.50286162  0.25021321  0.59706196
   0.58372639  0.33271048  0.40249387
   0.41593873  0.16511808  0.50039405
   0.16849518  0.91588545  0.49972125
   0.33348785  0.08499456  0.40449593
   0.16828249  0.16495078  0.50047818
   0.16647943  0.66803951  0.50000856
   0.41425613  0.91845358  0.50092588
   0.25194551  0.74922482  0.59566381
Direct configuration=    14
   0.08467986  0.08516216  0.39777303
   0.83453156  0.83338170  0.39573117
   0.74882181  0.49712285  0.60414180
   0.66508269  0.66744418  0.50016649
   0.83605653  0.58149584  0.39843756
   0.66572530  0.41669965  0.50046864
   0.83254424  0.33337331  0.39604866
   0.58187024  0.83468761  0.39541461
   0.41535855  0.41670947  0.50033969
   0.50035016  0.00077703  0.60338391
   0.58161439  0.08804052  0.39645274
   0.66469949  0.91799547  0.49995887
   0.33495814  0.83322672  0.39924688
   0.25326745  0.50025949  0.60438843
   0.33556944  0.57977717  0.39722813
   0.25064089  0.24933040  0.60342004
   0.74937669  0.75065329  0.60452961
   0.24832199 -0.00192392  0.60095536
   0.91838750  0.16656299  0.49976829
   0.16455655  0.41687614  0.50043435
   0.00099724  0.75249575  0.60285550
   0.91747168  0.91574567  0.50028051
   0.08366834  0.83282920  0.39745109
  -0.00055903  0.49877707  0.60277018
   0.33212839  0.33327115  0.40326266
   0.66424396  0.16627731  0.49930600
   0.74933905  0.00246841  0.59743586
   0.08447381  0.58253254  0.40383435
   0.74986801  0.24771114  0.59728757
   0.83279744  0.08433650  0.40231659
   0.91710264  0.41636284  0.49970256
   0.08569980  0.33295403  0.40353248
  -0.00082251  0.00122955  0.59728549
  -0.00123966  0.24872978  0.59669018
   0.49888810  0.74899857  0.59635248
   0.49984265  0.50042018  0.59766658
   0.91692182  0.66655268  0.50072736
   0.41304127  0.66922008  0.49900114
   0.58412861  0.58219237  0.40259523
   0.50270865  0.25019881  0.59697722
   0.58412704  0.33253006  0.40256225
   0.41574229  0.16527027  0.50062530
   0.16861038  0.91575847  0.49945678
   0.33361301  0.08499375  0.40478575
   0.16835080  0.16490306  0.50063942
   0.16634501  0.66813903  0.50003172
   0.41418101  0.91839219  0.50093085
   0.25191669  0.74905747  0.59534864
Direct configuration=    15
   0.08478505  0.08505319  0.39772704
   0.83453978  0.83338853  0.39564750
   0.74882585  0.49707548  0.60420401
   0.66503808  0.66746058  0.50015018
   0.83607951  0.58156677  0.39847785
   0.66588046  0.41670100  0.50044235
   0.83247005  0.33339591  0.39599260
   0.58196803  0.83465080  0.39532712
   0.41522878  0.41670745  0.50039315
   0.50038488  0.00074436  0.60342727
   0.58172878  0.08806349  0.39638879
   0.66474041  0.91791522  0.49990119
   0.33493934  0.83323757  0.39916979
   0.25331521  0.50019785  0.60450119
   0.33560390  0.57978222  0.39714463
   0.25063070  0.24936567  0.60360309
   0.74937495  0.75063858  0.60460906
   0.24831287 -0.00194548  0.60094785
   0.91827067  0.16661637  0.49961550
   0.16448622  0.41692856  0.50069429
   0.00100281  0.75244960  0.60290773
   0.91733811  0.91574808  0.50017563
   0.08380013  0.83288295  0.39740220
  -0.00060525  0.49872280  0.60286293
   0.33210096  0.33329132  0.40340909
   0.66425026  0.16621356  0.49921246
   0.74928886  0.00248849  0.59732835
   0.08452460  0.58259764  0.40400939
   0.74987381  0.24766196  0.59719433
   0.83277555  0.08440570  0.40226485
   0.91703218  0.41641729  0.49973882
   0.08574516  0.33296206  0.40368334
  -0.00078010  0.00121678  0.59716114
  -0.00126380  0.24876317  0.59662891
   0.49888854  0.74901289  0.59630319
   0.49979490  0.50044506  0.59763044
   0.91684708  0.66657104  0.50084582
   0.41297791  0.66930763  0.49887715
   0.58415540  0.58221042  0.40259053
   0.50264010  0.25019235  0.59693925
   0.58430660  0.33244920  0.40259290
   0.41565425  0.16533848  0.50072894
   0.16866200  0.91570156  0.49933825
   0.33366911  0.08499338  0.40491564
   0.16838142  0.16488167  0.50071169
   0.16628477  0.66818363  0.50004209
   0.41414735  0.91836467  0.50093308
   0.25190378  0.74898247  0.59520739
Direct configuration=    16
   0.08504815  0.08506280  0.39767147
   0.83466065  0.83315386  0.39552434
   0.74868484  0.49704775  0.60419606
   0.66497509  0.66760410  0.50014687
   0.83638010  0.58160135  0.39864459
   0.66586418  0.41660845  0.50040902
   0.83249593  0.33361852  0.39590538
   0.58210534  0.83476550  0.39530733
   0.41520765  0.41681176  0.50042612
   0.50070674  0.00062335  0.60338222
   0.58161114  0.08795002  0.39637495
   0.66439121  0.91799456  0.49985700
   0.33506378  0.83322793  0.39902768
   0.25313318  0.50047835  0.60468235
   0.33568314  0.57979909  0.39711236
   0.25055844  0.24919295  0.60393714
   0.74913327  0.75080706  0.60460544
   0.24826161 -0.00203715  0.60087823
   0.91815038  0.16652263  0.49949259
   0.16451130  0.41688938  0.50099560
   0.00098564  0.75254630  0.60288483
   0.91741120  0.91584307  0.50002347
   0.08400301  0.83275984  0.39732253
  -0.00076024  0.49869921  0.60307896
   0.33189727  0.33326807  0.40371559
   0.66416570  0.16636755  0.49915474
   0.74925176  0.00234201  0.59713241
   0.08447491  0.58254606  0.40431738
   0.74996071  0.24764310  0.59699826
   0.83293363  0.08436787  0.40199452
   0.91695643  0.41653265  0.49984593
   0.08593930  0.33319249  0.40397900
  -0.00094036  0.00117490  0.59688769
  -0.00131274  0.24862509  0.59657521
   0.49892794  0.74893111  0.59623766
   0.49985808  0.50050854  0.59757679
   0.91672246  0.66649700  0.50102006
   0.41303806  0.66928768  0.49873290
   0.58422537  0.58226104  0.40247465
   0.50283156  0.24989064  0.59692196
   0.58424990  0.33263037  0.40259348
   0.41571392  0.16535083  0.50089737
   0.16834647  0.91585078  0.49917640
   0.33383837  0.08493832  0.40505642
   0.16819313  0.16513298  0.50082270
   0.16624314  0.66807571  0.50005647
   0.41435417  0.91808865  0.50091077
   0.25186508  0.74892588  0.59503510
Direct configuration=    17
   0.08518072  0.08506765  0.39764346
   0.83472156  0.83303561  0.39546228
   0.74861379  0.49703378  0.60419206
   0.66494335  0.66767643  0.50014519