  56  56   0   0
  0.4903395E+02  0.1100258E-08  0.1100258E-08  0.2619179E-08  0.3500000E-15
  1.000000000000000E-004
  CAR 
 unknown system                          
      6.39130018    -21.75321049  301     -1.25141565      1.00000000
    -21.753  0.0000E+00  0.0000E+00
    -21.659  0.0000E+00  0.0000E+00
    -21.566  0.0000E+00  0.0000E+00
    -21.472  0.0000E+00  0.0000E+00
    -21.378  0.0000E+00  0.0000E+00
    -21.284  0.0000E+00  0.0000E+00
    -21.190  0.0000E+00  0.0000E+00
    -21.097  0.0000E+00  0.0000E+00
    -21.003  0.6947E-15  0.6517E-16
    -20.909  0.7941E-11  0.7451E-12
    -20.815  0.1641E-07  0.1540E-08
    -20.721  0.6255E-05  0.5884E-06
    -20.627  0.4555E-03  0.4332E-04
    -20.534  0.6815E-02  0.6827E-03
    -20.440  0.2555E-01  0.3080E-02
    -20.346  0.4309E-01  0.7122E-02
    -20.252  0.5921E-01  0.1268E-01
    -20.158  0.6882E-01  0.1913E-01
    -20.065  0.6848E-01  0.2556E-01
    -19.971  0.4787E-01  0.3005E-01
    -19.877  0.1832E-01  0.3177E-01
    -19.783  0.2416E-02  0.3199E-01
    -19.689  0.7493E-04  0.3200E-01
    -19.595  0.4630E-06  0.3200E-01
    -19.502  0.5332E-09  0.3200E-01
    -19.408  0.1110E-12  0.3200E-01
    -19.314  0.3945E-17  0.3200E-01
    -19.220  0.0000E+00  0.3200E-01
    -19.126  0.0000E+00  0.3200E-01
    -19.033  0.0000E+00  0.3200E-01
    -18.939  0.0000E+00  0.3200E-01
    -18.845  0.0000E+00  0.3200E-01
    -18.751  0.0000E+00  0.3200E-01
    -18.657  0.0000E+00  0.3200E-01
    -18.563  0.0000E+00  0.3200E-01
    -18.470  0.0000E+00  0.3200E-01
    -18.376  0.0000E+00  0.3200E-01
    -18.282  0.0000E+00  0.3200E-01
    -18.188  0.0000E+00  0.3200E-01
    -18.094  0.0000E+00  0.3200E-01
    -18.001  0.0000E+00  0.3200E-01
    -17.907  0.0000E+00  0.3200E-01
    -17.813  0.0000E+00  0.3200E-01
    -17.719  0.0000E+00  0.3200E-01
    -17.625  0.0000E+00  0.3200E-01
    -17.532  0.0000E+00  0.3200E-01
    -17.438  0.0000E+00  0.3200E-01
    -17.344  0.0000E+00  0.3200E-01
    -17.250  0.0000E+00  0.3200E-01
    -17.156  0.0000E+00  0.3200E-01
    -17.062  0.0000E+00  0.3200E-01
    -16.969  0.0000E+00  0.3200E-01
    -16.875  0.0000E+00  0.3200E-01
    -16.781  0.0000E+00  0.3200E-01
    -16.687  0.0000E+00  0.3200E-01
    -16.593  0.0000E+00  0.3200E-01
    -16.500  0.0000E+00  0.3200E-01
    -16.406  0.0000E+00  0.3200E-01
    -16.312  0.0000E+00  0.3200E-01
    -16.218  0.0000E+00  0.3200E-01
    -16.124  0.0000E+00  0.3200E-01
    -16.030  0.0000E+00  0.3200E-01
    -15.937  0.0000E+00  0.3200E-01
    -15.843  0.0000E+00  0.3200E-01
    -15.749  0.0000E+00  0.3200E-01
    -15.655  0.0000E+00  0.3200E-01
    -15.561  0.0000E+00  0.3200E-01
    -15.468  0.0000E+00  0.3200E-01
    -15.374  0.0000E+00  0.3200E-01
    -15.280  0.0000E+00  0.3200E-01
    -15.186  0.0000E+00  0.3200E-01
    -15.092  0.0000E+00  0.3200E-01
    -14.999  0.0000E+00  0.3200E-01
    -14.905  0.0000E+00  0.3200E-01
    -14.811  0.0000E+00  0.3200E-01
    -14.717  0.0000E+00  0.3200E-01
    -14.623  0.0000E+00  0.3200E-01
    -14.529  0.0000E+00  0.3200E-01
    -14.436  0.0000E+00  0.3200E-01
    -14.342  0.0000E+00  0.3200E-01
    -14.248  0.0000E+00  0.3200E-01
    -14.154  0.0000E+00  0.3200E-01
    -14.060  0.0000E+00  0.3200E-01
    -13.967  0.0000E+00  0.3200E-01
    -13.873  0.0000E+00  0.3200E-01
    -13.779  0.0000E+00  0.3200E-01
    -13.685  0.0000E+00  0.3200E-01
    -13.591  0.0000E+00  0.3200E-01
    -13.497  0.0000E+00  0.3200E-01
    -13.404  0.0000E+00  0.3200E-01
    -13.310  0.0000E+00  0.3200E-01
    -13.216  0.0000E+00  0.3200E-01
    -13.122  0.0000E+00  0.3200E-01
    -13.028  0.0000E+00  0.3200E-01
    -12.935  0.0000E+00  0.3200E-01
    -12.841  0.0000E+00  0.3200E-01
    -12.747  0.0000E+00  0.3200E-01
    -12.653  0.0000E+00  0.3200E-01
    -12.559  0.0000E+00  0.3200E-01
    -12.466  0.0000E+00  0.3200E-01
    -12.372  0.0000E+00  0.3200E-01
    -12.278  0.0000E+00  0.3200E-01
    -12.184  0.0000E+00  0.3200E-01
    -12.090  0.0000E+00  0.3200E-01
    -11.996  0.0000E+00  0.3200E-01
    -11.903  0.0000E+00  0.3200E-01
    -11.809  0.0000E+00  0.3200E-01
    -11.715  0.0000E+00  0.3200E-01
    -11.621  0.0000E+00  0.3200E-01
    -11.527  0.0000E+00  0.3200E-01
    -11.434  0.0000E+00  0.3200E-01
    -11.340  0.0000E+00  0.3200E-01
    -11.246  0.0000E+00  0.3200E-01
    -11.152  0.0000E+00  0.3200E-01
    -11.058  0.0000E+00  0.3200E-01
    -10.964  0.0000E+00  0.3200E-01
    -10.871  0.0000E+00  0.3200E-01
    -10.777  0.0000E+00  0.3200E-01
    -10.683  0.0000E+00  0.3200E-01
    -10.589  0.0000E+00  0.3200E-01
    -10.495  0.0000E+00  0.3200E-01
    -10.402  0.0000E+00  0.3200E-01
    -10.308  0.0000E+00  0.3200E-01
    -10.214  0.0000E+00  0.3200E-01
    -10.120  0.9862E-17  0.3200E-01
    -10.026  0.2050E-12  0.3200E-01
     -9.933  0.7707E-09  0.3200E-01
     -9.839  0.5248E-06  0.3200E-01
     -9.745  0.6647E-04  0.3201E-01
     -9.651  0.1635E-02  0.3216E-01
     -9.557  0.8286E-02  0.3294E-01
     -9.463  0.9417E-02  0.3382E-01
     -9.370  0.6265E-02  0.3441E-01
     -9.276  0.1049E-01  0.3539E-01
     -9.182  0.5771E-02  0.3593E-01
     -9.088  0.7596E-03  0.3600E-01
     -8.994  0.1573E-02  0.3615E-01
     -8.901  0.7723E-02  0.3688E-01
     -8.807  0.1018E-01  0.3783E-01
     -8.713  0.1154E-01  0.3891E-01
     -8.619  0.2183E-01  0.4096E-01
     -8.525  0.1979E-01  0.4282E-01
     -8.431  0.1046E-01  0.4380E-01
     -8.338  0.9525E-02  0.4469E-01
     -8.244  0.1863E-01  0.4644E-01
     -8.150  0.2239E-01  0.4854E-01
     -8.056  0.3437E-01  0.5177E-01
     -7.962  0.6035E-01  0.5743E-01
     -7.869  0.8543E-01  0.6544E-01
     -7.775  0.1062E+00  0.7540E-01
     -7.681  0.1014E+00  0.8492E-01
     -7.587  0.9569E-01  0.9389E-01
     -7.493  0.1003E+00  0.1033E+00
     -7.400  0.1045E+00  0.1131E+00
     -7.306  0.1205E+00  0.1244E+00
     -7.212  0.1269E+00  0.1363E+00
     -7.118  0.1395E+00  0.1494E+00
     -7.024  0.1544E+00  0.1639E+00
     -6.930  0.1642E+00  0.1793E+00
     -6.837  0.1598E+00  0.1943E+00
     -6.743  0.1466E+00  0.2080E+00
     -6.649  0.1604E+00  0.2231E+00
     -6.555  0.1716E+00  0.2392E+00
     -6.461  0.1627E+00  0.2545E+00
     -6.368  0.1492E+00  0.2685E+00
     -6.274  0.1328E+00  0.2809E+00
     -6.180  0.1281E+00  0.2929E+00
     -6.086  0.1450E+00  0.3065E+00
     -5.992  0.1595E+00  0.3215E+00
     -5.898  0.1665E+00  0.3371E+00
     -5.805  0.1645E+00  0.3525E+00
     -5.711  0.1621E+00  0.3678E+00
     -5.617  0.1703E+00  0.3837E+00
     -5.523  0.1818E+00  0.4008E+00
     -5.429  0.1828E+00  0.4179E+00
     -5.336  0.1762E+00  0.4345E+00
     -5.242  0.1742E+00  0.4508E+00
     -5.148  0.1712E+00  0.4669E+00
     -5.054  0.1671E+00  0.4826E+00
     -4.960  0.1636E+00  0.4979E+00
     -4.867  0.1682E+00  0.5137E+00
     -4.773  0.1776E+00  0.5303E+00
     -4.679  0.1935E+00  0.5485E+00
     -4.585  0.1921E+00  0.5665E+00
     -4.491  0.1953E+00  0.5848E+00
     -4.397  0.2032E+00  0.6039E+00
     -4.304  0.2069E+00  0.6233E+00
     -4.210  0.2199E+00  0.6439E+00
     -4.116  0.2190E+00  0.6645E+00
     -4.022  0.2076E+00  0.6840E+00
     -3.928  0.1987E+00  0.7026E+00
     -3.835  0.1985E+00  0.7212E+00
     -3.741  0.2001E+00  0.7400E+00
     -3.647  0.1956E+00  0.7584E+00
     -3.553  0.1976E+00  0.7769E+00
     -3.459  0.1942E+00  0.7951E+00
     -3.365  0.1847E+00  0.8124E+00
     -3.272  0.1742E+00  0.8288E+00
     -3.178  0.1659E+00  0.8443E+00
     -3.084  0.1641E+00  0.8597E+00
     -2.990  0.1556E+00  0.8743E+00
     -2.896  0.1440E+00  0.8878E+00
     -2.803  0.1443E+00  0.9014E+00
     -2.709  0.1528E+00  0.9157E+00
     -2.615  0.1645E+00  0.9311E+00
     -2.521  0.1719E+00  0.9473E+00
     -2.427  0.1686E+00  0.9631E+00
     -2.333  0.1684E+00  0.9789E+00
     -2.240  0.1765E+00  0.9954E+00
     -2.146  0.1682E+00  0.1011E+01
     -2.052  0.1555E+00  0.1026E+01
     -1.958  0.1421E+00  0.1039E+01
     -1.864  0.1203E+00  0.1050E+01
     -1.771  0.1074E+00  0.1061E+01
     -1.677  0.1000E+00  0.1070E+01
     -1.583  0.9885E-01  0.1079E+01
     -1.489  0.9326E-01  0.1088E+01
     -1.395  0.7486E-01  0.1095E+01
     -1.302  0.6135E-01  0.1101E+01
     -1.208  0.6803E-01  0.1107E+01
     -1.114  0.7557E-01  0.1114E+01
     -1.020  0.7853E-01  0.1122E+01
     -0.926  0.8574E-01  0.1130E+01
     -0.832  0.8234E-01  0.1137E+01
     -0.739  0.6753E-01  0.1144E+01
     -0.645  0.5360E-01  0.1149E+01
     -0.551  0.4799E-01  0.1153E+01
     -0.457  0.4826E-01  0.1158E+01
     -0.363  0.4083E-01  0.1162E+01
     -0.270  0.2882E-01  0.1164E+01
     -0.176  0.2230E-01  0.1166E+01
     -0.082  0.2659E-01  0.1169E+01
      0.012  0.3361E-01  0.1172E+01
      0.106  0.3562E-01  0.1175E+01
      0.200  0.3463E-01  0.1179E+01
      0.293  0.3783E-01  0.1182E+01
      0.387  0.3952E-01  0.1186E+01
      0.481  0.3920E-01  0.1190E+01
      0.575  0.3376E-01  0.1193E+01
      0.669  0.3048E-01  0.1196E+01
      0.762  0.2045E-01  0.1197E+01
      0.856  0.9808E-02  0.1198E+01
      0.950  0.1361E-01  0.1200E+01
      1.044  0.1905E-01  0.1201E+01
      1.138  0.2087E-01  0.1203E+01
      1.231  0.2661E-01  0.1206E+01
      1.325  0.3013E-01  0.1209E+01
      1.419  0.2208E-01  0.1211E+01
      1.513  0.2616E-01  0.1213E+01
      1.607  0.4582E-01  0.1218E+01
      1.701  0.5161E-01  0.1222E+01
      1.794  0.3853E-01  0.1226E+01
      1.888  0.2802E-01  0.1229E+01
      1.982  0.2625E-01  0.1231E+01
      2.076  0.2506E-01  0.1233E+01
      2.170  0.2095E-01  0.1235E+01
      2.263  0.1760E-01  0.1237E+01
      2.357  0.1721E-01  0.1239E+01
      2.451  0.1596E-01  0.1240E+01
      2.545  0.1286E-01  0.1241E+01
      2.639  0.1547E-01  0.1243E+01
      2.733  0.2251E-01  0.1245E+01
      2.826  0.2531E-01  0.1247E+01
      2.920  0.3232E-01  0.1250E+01
      3.014  0.4057E-01  0.1254E+01
      3.108  0.3809E-01  0.1258E+01
      3.202  0.2381E-01  0.1260E+01
      3.295  0.1704E-01  0.1262E+01
      3.389  0.2103E-01  0.1264E+01
      3.483  0.2559E-01  0.1266E+01
      3.577  0.3171E-01  0.1269E+01
      3.671  0.3442E-01  0.1272E+01
      3.764  0.3970E-01  0.1276E+01
      3.858  0.4623E-01  0.1280E+01
      3.952  0.5071E-01  0.1285E+01
      4.046  0.5001E-01  0.1290E+01
      4.140  0.3880E-01  0.1293E+01
      4.234  0.3417E-01  0.1296E+01
      4.327  0.3673E-01  0.1300E+01
      4.421  0.4367E-01  0.1304E+01
      4.515  0.4598E-01  0.1308E+01
      4.609  0.4547E-01  0.1313E+01
      4.703  0.5213E-01  0.1317E+01
      4.796  0.6507E-01  0.1324E+01
      4.890  0.6237E-01  0.1329E+01
      4.984  0.5780E-01  0.1335E+01
      5.078  0.5556E-01  0.1340E+01
      5.172  0.3397E-01  0.1343E+01
      5.266  0.7327E-02  0.1344E+01
      5.359  0.4137E-03  0.1344E+01
      5.453  0.5218E-05  0.1344E+01
      5.547  0.1329E-07  0.1344E+01
      5.641  0.6426E-11  0.1344E+01
      5.735  0.5712E-15  0.1344E+01
      5.828  0.0000E+00  0.1344E+01
      5.922  0.0000E+00  0.1344E+01
      6.016  0.0000E+00  0.1344E+01
      6.110  0.0000E+00  0.1344E+01
      6.204  0.0000E+00  0.1344E+01
      6.297  0.0000E+00  0.1344E+01
      6.391  0.0000E+00  0.1344E+01
