unknown system                          
           1
    11.002582    0.000000    0.000000
     5.501291    9.528515    0.000000
     0.000000    0.000000   26.191785
   Au   O    Pd
  24   8  24
Direct configuration=     1
   0.08333333  0.08333333  0.38179910
   0.33333333  0.83333333  0.38179910
   0.41666667  0.91666667  0.46754708
   0.83333333  0.83333333  0.38179910
   0.66666667  0.66666667  0.46754708
   0.83333333  0.58333333  0.38179910
   0.08333333  0.33333333  0.38179910
   0.91666667  0.41666667  0.46754708
   0.83333333  0.33333333  0.38179910
   0.08333333  0.58333333  0.38179910
   0.91666667  0.66666667  0.46754708
   0.91666667  0.91666667  0.46754708
   0.83333333  0.08333333  0.38179910
   0.16666667  0.66666667  0.46754708
   0.58333333  0.83333333  0.38179910
   0.33333333  0.08333333  0.38179910
   0.16666667  0.16666667  0.46754708
   0.41666667  0.66666667  0.46754708
   0.58333333  0.58333333  0.38179910
   0.33333333  0.33333333  0.38179910
   0.41666667  0.41666667  0.46754708
   0.58333333  0.33333333  0.38179910
   0.58333333  0.08333333  0.38179910
   0.08333333  0.83333333  0.38179910
   0.33333333  0.33333333  0.61820090
   0.33333333  0.58333333  0.61820090
   0.33333333  0.08333333  0.61820090
   0.08333333  0.58333333  0.61820090
   0.33333333  0.83333333  0.61820090
   0.58333333  0.33333333  0.61820090
   0.83333333  0.33333333  0.61820090
   0.58333333  0.58333333  0.61820090
   0.50000000  0.25000000  0.55329505
   0.25000000  0.25000000  0.55329505
   0.50000000  0.00000000  0.55329505
   0.41666667  0.16666667  0.46754708
   0.33333333  0.58333333  0.38179910
   0.75000000  0.75000000  0.55329505
   0.25000000  0.75000000  0.55329505
   0.16666667  0.91666667  0.46754708
   0.50000000  0.50000000  0.55329505
   0.25000000  0.50000000  0.55329505
   0.00000000  0.75000000  0.55329505
   0.50000000  0.75000000  0.55329505
   0.00000000  0.50000000  0.55329505
   0.66666667  0.16666667  0.46754708
   0.75000000  0.00000000  0.55329505
   0.66666667  0.41666667  0.46754708
   0.75000000  0.25000000  0.55329505
   0.00000000  0.25000000  0.55329505
   0.00000000  0.00000000  0.55329505
   0.75000000  0.50000000  0.55329505
   0.91666667  0.16666667  0.46754708
   0.66666667  0.91666667  0.46754708
   0.16666667  0.41666667  0.46754708
   0.25000000  0.00000000  0.55329505
Direct configuration=     2
   0.08333333  0.08333333  0.38179910
   0.33333333  0.83333333  0.38179910
   0.41692552  0.91719147  0.46871283
   0.83333333  0.83333333  0.38179910
   0.66642607  0.66659648  0.46912035
   0.83333333  0.58333333  0.38179910
   0.08333333  0.33333333  0.38179910
   0.91651602  0.41610785  0.46911382
   0.83333333  0.33333333  0.38179910
   0.08333333  0.58333333  0.38179910
   0.91646446  0.66679720  0.46875643
   0.91571697  0.91837270  0.46908486
   0.83333333  0.08333333  0.38179910
   0.16774959  0.66620564  0.46855667
   0.58333333  0.83333333  0.38179910
   0.33333333  0.08333333  0.38179910
   0.16653879  0.16678199  0.46937076
   0.41653206  0.66602292  0.46828580
   0.58333333  0.58333333  0.38179910
   0.33333333  0.33333333  0.38179910
   0.41717408  0.41576295  0.46843891
   0.58333333  0.33333333  0.38179910
   0.58333333  0.08333333  0.38179910
   0.08333333  0.83333333  0.38179910
   0.33413051  0.33192274  0.61419797
   0.33255009  0.58439046  0.61443496
   0.33369347  0.08321076  0.61398204
   0.08101915  0.58462818  0.61390852
   0.33276894  0.83393945  0.61402629
   0.58430431  0.33097390  0.61420565
   0.83524086  0.33219797  0.61380741
   0.58402058  0.58414184  0.61418111
   0.50046841  0.24967362  0.55662511
   0.25100071  0.24924457  0.55666678
   0.49951499  0.00074198  0.55534415
   0.41757727  0.16686619  0.46831740
   0.33333333  0.58333333  0.38179910
   0.74978738  0.75098491  0.55423037
   0.24984430  0.75040737  0.55684485
   0.16639355  0.91706279  0.46876915
   0.50021212  0.50009017  0.55791271
   0.24939812  0.50022738  0.55763740
  -0.00031337  0.74917783  0.55590273
   0.50038902  0.74949914  0.55714185
   0.00043060  0.50108728  0.55567515
   0.66650394  0.16694751  0.46880188
   0.74982886 -0.00028400  0.55389947
   0.66661325  0.41584822  0.46824852
   0.75018549  0.25007193  0.55650698
  -0.00150795  0.25035415  0.55562363
  -0.00017243  0.00014020  0.55395418
   0.74977687  0.49969448  0.55692255
   0.91562989  0.16674576  0.46849394
   0.66581160  0.91799225  0.46876371
   0.16773718  0.41586617  0.46855660
   0.25031753 -0.00012724  0.55679644
Direct configuration=     3
   0.08333333  0.08333333  0.38179910
   0.33333333  0.83333333  0.38179910
   0.41770210  0.91876590  0.47221010
   0.83333333  0.83333333  0.38179910
   0.66570427  0.66638592  0.47384018
   0.83333333  0.58333333  0.38179910
   0.08333333  0.33333333  0.38179910
   0.91606407  0.41443141  0.47381404
   0.83333333  0.33333333  0.38179910
   0.08333333  0.58333333  0.38179910
   0.91585782  0.66718880  0.47238449
   0.91286789  0.92349080  0.47369822
   0.83333333  0.08333333  0.38179910
   0.17099836  0.66482258  0.47158547
   0.58333333  0.83333333  0.38179910
   0.33333333  0.08333333  0.38179910
   0.16615516  0.16712795  0.47484182
   0.41612826  0.66409167  0.47050197
   0.58333333  0.58333333  0.38179910
   0.33333333  0.33333333  0.38179910
   0.41869634  0.41305179  0.47111440
   0.58333333  0.33333333  0.38179910
   0.58333333  0.08333333  0.38179910
   0.08333333  0.83333333  0.38179910
   0.33652204  0.32769094  0.60218917
   0.33020034  0.58756184  0.60313713
   0.33477388  0.08284303  0.60132548
   0.07407660  0.58851271  0.60103137
   0.33107575  0.83575780  0.60150245
   0.58721725  0.32389560  0.60221991
   0.84096343  0.32879188  0.60062692
   0.58608231  0.58656737  0.60212173
   0.50187366  0.24869449  0.56661530
   0.25400282  0.24697827  0.56678195
   0.49805994  0.00296792  0.56149146
   0.42030908  0.16746475  0.47062836
   0.33333333  0.58333333  0.38179910
   0.74914953  0.75393962  0.55703633
   0.24937720  0.75162948  0.56749424
   0.16557421  0.91825117  0.47243536
   0.50084848  0.50036069  0.57176567
   0.24759247  0.50090953  0.57066443
  -0.00125349  0.74671134  0.56372576
   0.50155607  0.74799655  0.56868223
   0.00172240  0.50434914  0.56281543
   0.66601578  0.16779006  0.47256630
   0.74931543 -0.00113601  0.55571271
   0.66645301  0.41339289  0.47035285
   0.75074196  0.25028771  0.56614277
  -0.00603181  0.25141659  0.56260937
  -0.00068971  0.00056081  0.55593158
   0.74910750  0.49877793  0.56780504
   0.91251956  0.16698302  0.47133452
   0.66324639  0.92196898  0.47241361
   0.17094874  0.41346469  0.47158518
   0.25127014 -0.00050895  0.56730061
Direct configuration=     4
   0.08333333  0.08333333  0.38179910
   0.33333333  0.83333333  0.38179910
   0.41720569  0.91775949  0.46997456
   0.83333333  0.83333333  0.38179910
   0.66616566  0.66652052  0.47082315
   0.83333333  0.58333333  0.38179910
   0.08333333  0.33333333  0.38179910
   0.91635296  0.41550303  0.47080954
   0.83333333  0.33333333  0.38179910
   0.08333333  0.58333333  0.38179910
   0.91624560  0.66693848  0.47006534
   0.91468910  0.92021918  0.47074925
   0.83333333  0.08333333  0.38179910
   0.16892166  0.66570667  0.46964938
   0.58333333  0.83333333  0.38179910
   0.33333333  0.08333333  0.38179910
   0.16640039  0.16690680  0.47134458
   0.41638638  0.66532617  0.46908534
   0.58333333  0.58333333  0.38179910
   0.33333333  0.33333333  0.38179910
   0.41772327  0.41478483  0.46940416
   0.58333333  0.33333333  0.38179910
   0.58333333  0.08333333  0.38179910
   0.08333333  0.83333333  0.38179910
   0.33499331  0.33039601  0.60986550
   0.33170236  0.58553461  0.61035899
   0.33408325  0.08307809  0.60941588
   0.07851445  0.58602962  0.60926277
   0.33215808  0.83459546  0.60950801
   0.58535523  0.32842023  0.60988150
   0.83730542  0.33096914  0.60905223
   0.58476440  0.58501691  0.60983039
   0.50097539  0.24932037  0.56022932
   0.25208379  0.24842694  0.56031607
   0.49899004  0.00154504  0.55756194
   0.41856284  0.16708213  0.46915113
   0.33333333  0.58333333  0.38179910
   0.74955726  0.75205089  0.55524269
   0.24967578  0.75084827  0.56068688
   0.16609796  0.91749153  0.47009182
   0.50044170  0.50018777  0.56291050
   0.24874669  0.50047349  0.56233722
  -0.00065254  0.74828799  0.55872508
   0.50081006  0.74895704  0.56130532
   0.00089665  0.50226408  0.55825118
   0.66632783  0.16725148  0.47015999
   0.74964362 -0.00059139  0.55455364
   0.66655544  0.41496240  0.46900771
   0.75038625  0.25014978  0.55998333
  -0.00314004  0.25073745  0.55814391
  -0.00035905  0.00029195  0.55466758
   0.74953538  0.49936381  0.56084867
   0.91450776  0.16683136  0.46951875
   0.66488614  0.91942695  0.47008050
   0.16889583  0.41499978  0.46964924
   0.25066121 -0.00026495  0.56058608
Direct configuration=     5
   0.08333333  0.08333333  0.38179910
   0.33333333  0.83333333  0.38179910
   0.41738450  0.91812200  0.47077980
   0.83333333  0.83333333  0.38179910
   0.66599947  0.66647204  0.47190989
   0.83333333  0.58333333  0.38179910
   0.08333333  0.33333333  0.38179910
   0.91624890  0.41511703  0.47189176
   0.83333333  0.33333333  0.38179910
   0.08333333  0.58333333  0.38179910
   0.91610592  0.66702864  0.47090070
   0.91403310  0.92139762  0.47181147
   0.83333333  0.08333333  0.38179910
   0.16966969  0.66538822  0.47034676
   0.58333333  0.83333333  0.38179910
   0.33333333  0.08333333  0.38179910
   0.16631206  0.16698646  0.47260429
   0.41629341  0.66488151  0.46959561
   0.58333333  0.58333333  0.38179910
   0.33333333  0.33333333  0.38179910
   0.41807377  0.41416059  0.47002019
   0.58333333  0.33333333  0.38179910
   0.58333333  0.08333333  0.38179910
   0.08333333  0.83333333  0.38179910
   0.33554396  0.32942164  0.60710048
   0.33116133  0.58626482  0.60775767
   0.33433202  0.08299342  0.60650171
   0.07691593  0.58692403  0.60629781
   0.33176822  0.83501414  0.60662440
   0.58602593  0.32679046  0.60712179
   0.83862304  0.33018489  0.60601742
   0.58523911  0.58557539  0.60705372
   0.50129895  0.24909493  0.56252955
   0.25277503  0.24790513  0.56264509
   0.49865502  0.00205756  0.55897736
   0.41919184  0.16721995  0.46968323
   0.33333333  0.58333333  0.38179910
   0.74941040  0.75273122  0.55588876
   0.24956823  0.75112966  0.56313890
   0.16590930  0.91776515  0.47093597
   0.50058822  0.50025006  0.56610014
   0.24833094  0.50063055  0.56533669
  -0.00086900  0.74772008  0.56052633
   0.50107878  0.74861107  0.56396249
   0.00119409  0.50301512  0.55989522
   0.66621543  0.16744548  0.47102674
   0.74952541 -0.00078756  0.55497114
   0.66651854  0.41439706  0.46949223
   0.75051438  0.25019946  0.56220197
  -0.00418166  0.25098208  0.55975237
  -0.00047815  0.00038879  0.55512287
   0.74938126  0.49915277  0.56335436
   0.91379161  0.16688599  0.47017279
   0.66429550  0.92034259  0.47092089
   0.16963529  0.41444684  0.47034657
   0.25088055 -0.00035284  0.56300466
Direct configuration=     6
   0.08333333  0.08333333  0.38179910
   0.33333333  0.83333333  0.38179910
   0.41733167  0.91801490  0.47054191
   0.83333333  0.83333333  0.38179910
   0.66604856  0.66648636  0.47158883
   0.83333333  0.58333333  0.38179910
   0.08333333  0.33333333  0.38179910
   0.91627965  0.41523107  0.47157204
   0.83333333  0.33333333  0.38179910
   0.08333333  0.58333333  0.38179910
   0.91614719  0.66700201  0.47065391
   0.91422690  0.92104948  0.47149766
   0.83333333  0.08333333  0.38179910
   0.16944871  0.66548230  0.47014074
   0.58333333  0.83333333  0.38179910
   0.33333333  0.08333333  0.38179910
   0.16633815  0.16696293  0.47223214
   0.41632087  0.66501287  0.46944486
   0.58333333  0.58333333  0.38179910
   0.33333333  0.33333333  0.38179910
   0.41797023  0.41434500  0.46983820
   0.58333333  0.33333333  0.38179910
   0.58333333  0.08333333  0.38179910
   0.08333333  0.83333333  0.38179910
   0.33538128  0.32970950  0.60791734
   0.33132117  0.58604910  0.60852617
   0.33425853  0.08301844  0.60736263
   0.07738818  0.58665980  0.60717374
   0.33188340  0.83489045  0.60747630
   0.58582779  0.32727194  0.60793708
   0.83823378  0.33041658  0.60691398
   0.58509887  0.58541040  0.60787403
   0.50120336  0.24916153  0.56185000
   0.25257082  0.24805929  0.56195704
   0.49875399  0.00190615  0.55855921
   0.41900602  0.16717924  0.46952604
   0.33333333  0.58333333  0.38179910
   0.74945379  0.75253023  0.55569789
   0.24960001  0.75104653  0.56241450
   0.16596504  0.91768432  0.47068658
   0.50054493  0.50023166  0.56515783
   0.24845376  0.50058415  0.56445056
  -0.00080506  0.74788785  0.55999419
   0.50099939  0.74871328  0.56317749
   0.00110622  0.50279324  0.55940953
   0.66624863  0.16738817  0.47077068
   0.74956033 -0.00072961  0.55484780
   0.66652944  0.41456408  0.46934909
   0.75047653  0.25018478  0.56154652
  -0.00387394  0.25090981  0.55927719
  -0.00044297  0.00036018  0.55498837
   0.74942679  0.49921512  0.56261411
   0.91400318  0.16686985  0.46997957
   0.66446999  0.92007209  0.47067262
   0.16941683  0.41461019  0.47014056
   0.25081575 -0.00032687  0.56229014
Direct configuration=     7
   0.08333333  0.08333333  0.38179910
   0.33333333  0.83333333  0.38179910
   0.41705619  0.91770074  0.47229707
   0.83333333  0.83333333  0.38179910
   0.66519168  0.66593002  0.47336831
   0.83333333  0.58333333  0.38179910
   0.08333333  0.33333333  0.38179910
   0.91591034  0.41569996  0.47343441
   0.83333333  0.33333333  0.38179910
   0.08333333  0.58333333  0.38179910
   0.91690517  0.66700041  0.47174368
   0.91511987  0.91952695  0.47234154
   0.83333333  0.08333333  0.38179910
   0.16899217  0.66566509  0.47204889
   0.58333333  0.83333333  0.38179910
   0.33333333  0.08333333  0.38179910
   0.16637278  0.16684819  0.47449453
   0.41667553  0.66500264  0.47133271
   0.58333333  0.58333333  0.38179910
   0.33333333  0.33333333  0.38179910
   0.41842873  0.41389698  0.47188107
   0.58333333  0.33333333  0.38179910
   0.58333333  0.08333333  0.38179910
   0.08333333  0.83333333  0.38179910
   0.33573454  0.32747407  0.60698202
   0.32903583  0.58853984  0.60803564
   0.33539409  0.08221535  0.60652893
   0.07103152  0.58995053  0.60691148
   0.33013228  0.83663079  0.60677115
   0.58924338  0.32249586  0.60711232
   0.84218633  0.32785120  0.60630980
   0.58831938  0.58663366  0.60811391
   0.50452174  0.24408024  0.56255644
   0.24712247  0.25053671  0.56268561
   0.50461188 -0.00115470  0.55930938
   0.41902724  0.16753896  0.47091109
   0.33333333  0.58333333  0.38179910
   0.74837965  0.75389711  0.55715957
   0.24364481  0.75367145  0.56328911
   0.16682542  0.91750290  0.47212650
   0.49913677  0.49983841  0.56548711
   0.25003212  0.50029504  0.56474775
  -0.00344448  0.75376806  0.56081818
   0.50428657  0.75191945  0.56374262
  -0.00165904  0.49994599  0.56004614
   0.66542071  0.16861918  0.47205205
   0.74951563 -0.00145836  0.55628447
   0.66625837  0.41442648  0.47085219
   0.75194674  0.24448292  0.56234306
   0.00078188  0.24862670  0.55998790
  -0.00074251  0.00002189  0.55630677
   0.75235082  0.50342640  0.56323864
   0.91347774  0.16758513  0.47105498
   0.66400190  0.92051647  0.47157920
   0.16976282  0.41431893  0.47176929
   0.24563852  0.00270154  0.56301894
Direct configuration=     8
   0.08333333  0.08333333  0.38179910
   0.33333333  0.83333333  0.38179910
   0.41678627  0.91739292  0.47401677
   0.83333333  0.83333333  0.38179910
   0.66435211  0.66538491  0.47511183
   0.83333333  0.58333333  0.38179910
   0.08333333  0.33333333  0.38179910
   0.91554849  0.41615938  0.47525914
   0.83333333  0.33333333  0.38179910
   0.08333333  0.58333333  0.38179910
   0.91764784  0.66699884  0.47281142
   0.91599480  0.91803518  0.47316837
   0.83333333  0.08333333  0.38179910
   0.16854485  0.66584419  0.47391848
   0.58333333  0.83333333  0.38179910
   0.33333333  0.08333333  0.38179910
   0.16640672  0.16673577  0.47671122
   0.41702303  0.66499262  0.47318243
   0.58333333  0.58333333  0.38179910
   0.33333333  0.33333333  0.38179910
   0.41887797  0.41345802  0.47388266
   0.58333333  0.33333333  0.38179910
   0.58333333  0.08333333  0.38179910
   0.08333333  0.83333333  0.38179910
   0.33608067  0.32528381  0.60606559
   0.32679666  0.59098026  0.60755503
   0.33650671  0.08142849  0.60571208
   0.06480327  0.59317478  0.60665451
   0.32841654  0.83833596  0.60608026
   0.59258998  0.31781628  0.60630422
   0.84605903  0.32533765  0.60571782
   0.59147482  0.58783220  0.60834894
   0.50777308  0.23910161  0.56324860
   0.24178419  0.25296408  0.56339947
   0.51035142 -0.00415371  0.56004439
   0.41904803  0.16789142  0.47226817
   0.33333333  0.58333333  0.38179910
   0.74732722  0.75523638  0.55859172
   0.23780993  0.75624333  0.56414604
   0.16766842  0.91732515  0.47353733
   0.49775704  0.49945310  0.56580974
   0.25157859  0.50001177  0.56503894
  -0.00603057  0.75952948  0.56162552
   0.50750734  0.75506084  0.56429633
  -0.00436842  0.49715626  0.56066989
   0.66460952  0.16982532  0.47330753
   0.74947183 -0.00217239  0.55769211
   0.66599278  0.41429166  0.47232492
   0.75338725  0.23889624  0.56312352
   0.00534365  0.24638972  0.56068425
  -0.00103600 -0.00030957  0.55759853
   0.75521578  0.50755260  0.56385054
   0.91296292  0.16828595  0.47210868
   0.66354326  0.92095187  0.47246747
   0.17010181  0.41403356  0.47336511
   0.24056588  0.00566877  0.56373302
Direct configuration=     9
   0.08333333  0.08333333  0.38179910
   0.33333333  0.83333333  0.38179910
   0.41644434  0.91776975  0.47518578
   0.83333333  0.83333333  0.38179910
   0.66480382  0.66554069  0.47563020
   0.83333333  0.58333333  0.38179910
   0.08333333  0.33333333  0.38179910
   0.91513389  0.41627129  0.47565971
   0.83333333  0.33333333  0.38179910
   0.08333333  0.58333333  0.38179910
   0.91715041  0.66681498  0.47373959
   0.91559012  0.91890885  0.47338809
   0.83333333  0.08333333  0.38179910
   0.16909669  0.66531634  0.47507896
   0.58333333  0.83333333  0.38179910
   0.33333333  0.08333333  0.38179910
   0.16689078  0.16649360  0.47695072
   0.41646131  0.66495649  0.47482241
   0.58333333  0.58333333  0.38179910
   0.33333333  0.33333333  0.38179910
   0.41844851  0.41397695  0.47514150
   0.58333333  0.33333333  0.38179910
   0.58333333  0.08333333  0.38179910
   0.08333333  0.83333333  0.38179910
   0.33650491  0.32377294  0.60659795
   0.32481535  0.59346036  0.60921278
   0.33959404  0.07965588  0.60572665
   0.05974751  0.59571979  0.60608696
   0.32837042  0.83896818  0.60619503
   0.59412217  0.31562007  0.60802015
   0.84735716  0.32465101  0.60560944
   0.59307948  0.58873135  0.60873022
   0.50825319  0.23348445  0.56311171
   0.24001623  0.25452550  0.56380510
   0.51106231 -0.00423878  0.56142001
   0.41837025  0.16772923  0.47349469
   0.33333333  0.58333333  0.38179910
   0.75032547  0.75575091  0.56028066
   0.23498501  0.75889859  0.56465561
   0.16752696  0.91737288  0.47435276
   0.50110713  0.50071228  0.56572834
   0.24628464  0.50139297  0.56490704
  -0.00878684  0.76146574  0.56313203
   0.50576367  0.75783399  0.56578116
  -0.00531173  0.49866355  0.56199685
   0.66528564  0.16904664  0.47379109
   0.75150281 -0.00431424  0.55936301
   0.66607157  0.41437994  0.47389599
   0.75960318  0.23557211  0.56307812
   0.00672960  0.24394143  0.56155050
  -0.00299756  0.00076752  0.55915560
   0.75733406  0.50595245  0.56516985
   0.91325929  0.16796350  0.47308956
   0.66432350  0.92029093  0.47270550
   0.16992008  0.41433768  0.47454386
   0.23763970  0.00648492  0.56425377
Direct configuration=    10
   0.08333333  0.08333333  0.38179910
   0.33333333  0.83333333  0.38179910
   0.41641343  0.91780381  0.47529147
   0.83333333  0.83333333  0.38179910
   0.66484466  0.66555477  0.47567706
   0.83333333  0.58333333  0.38179910
   0.08333333  0.33333333  0.38179910
   0.91509640  0.41628141  0.47569592
   0.83333333  0.33333333  0.38179910
   0.08333333  0.58333333  0.38179910
   0.91710543  0.66679836  0.47382350
   0.91555354  0.91898784  0.47340796
   0.83333333  0.08333333  0.38179910
   0.16914659  0.66526861  0.47518388
   0.58333333  0.83333333  0.38179910
   0.33333333  0.08333333  0.38179910
   0.16693454  0.16647170  0.47697237
   0.41641052  0.66495322  0.47497068
   0.58333333  0.58333333  0.38179910
   0.33333333  0.33333333  0.38179910
   0.41840968  0.41402387  0.47525531
   0.58333333  0.33333333  0.38179910
   0.58333333  0.08333333  0.38179910
   0.08333333  0.83333333  0.38179910
   0.33654327  0.32363634  0.60664608
   0.32463622  0.59368459  0.60936265
   0.33987317  0.07949562  0.60572797
   0.05929042  0.59594988  0.60603565
   0.32836625  0.83902533  0.60620540
   0.59426069  0.31542151  0.60817528
   0.84747452  0.32458893  0.60559964
   0.59322456  0.58881264  0.60876470
   0.50829660  0.23297661  0.56309934
   0.23985639  0.25466667  0.56384177
   0.51112658 -0.00424647  0.56154438
   0.41830898  0.16771457  0.47360558
   0.33333333  0.58333333  0.38179910
   0.75059654  0.75579743  0.56043335
   0.23472962  0.75913865  0.56470168
   0.16751417  0.91737719  0.47442648
   0.50141001  0.50082612  0.56572098
   0.24580602  0.50151784  0.56489512
  -0.00903603  0.76164080  0.56326823
   0.50560603  0.75808471  0.56591541
  -0.00539701  0.49879982  0.56211682
   0.66534677  0.16897625  0.47383481
   0.75168643 -0.00450789  0.55951407
   0.66607869  0.41438792  0.47403803
   0.76016515  0.23527158  0.56307401
   0.00685490  0.24372008  0.56162882
  -0.00317490  0.00086490  0.55929638
   0.75752557  0.50580778  0.56528912
   0.91328609  0.16793435  0.47317824
   0.66439404  0.92023118  0.47272702
   0.16990365  0.41436517  0.47465043
   0.23737515  0.00655871  0.56430085
Direct configuration=    11
   0.08333333  0.08333333  0.38179910
   0.33333333  0.83333333  0.38179910
   0.41661677  0.91783155  0.47594371
   0.83333333  0.83333333  0.38179910
   0.66511770  0.66637506  0.47609333
   0.83333333  0.58333333  0.38179910
   0.08333333  0.33333333  0.38179910
   0.91526108  0.41582125  0.47564073
   0.83333333  0.33333333  0.38179910
   0.08333333  0.58333333  0.38179910
   0.91658198  0.66684856  0.47436177
   0.91511998  0.91997448  0.47356934
   0.83333333  0.08333333  0.38179910
   0.16877851  0.66538468  0.47559447
   0.58333333  0.83333333  0.38179910
   0.33333333  0.08333333  0.38179910
   0.16694235  0.16664397  0.47628826
   0.41618633  0.66523861  0.47594139
   0.58333333  0.58333333  0.38179910
   0.33333333  0.33333333  0.38179910
   0.41838597  0.41397530  0.47602986
   0.58333333  0.33333333  0.38179910
   0.58333333  0.08333333  0.38179910
   0.08333333  0.83333333  0.38179910
   0.33685044  0.32397773  0.60700189
   0.32358924  0.59383875  0.60961326
   0.34180744  0.07844258  0.60592487
   0.05650160  0.59803518  0.60692065
   0.32767993  0.83949144  0.60712898
   0.59587414  0.31289951  0.60814490
   0.84718879  0.32440799  0.60655565
   0.59323267  0.58969695  0.60961090
   0.50871554  0.23360397  0.56408835
   0.24055714  0.25408000  0.56450715
   0.51077556 -0.00500510  0.56285187
   0.41796496  0.16730400  0.47420562
   0.33333333  0.58333333  0.38179910
   0.75246829  0.75510435  0.56177809
   0.23532301  0.75859564  0.56570994
   0.16653749  0.91758681  0.47473331
   0.50287477  0.50069965  0.56678546
   0.24441903  0.50315551  0.56605010
  -0.01045030  0.76292336  0.56438967
   0.50514980  0.75880181  0.56703365
  -0.00656017  0.49939000  0.56278065
   0.66610477  0.16770517  0.47409802
   0.75311250 -0.00511061  0.56083291
   0.66628627  0.41440739  0.47507522
   0.75951793  0.23664041  0.56390312
   0.00748162  0.24290554  0.56202944
  -0.00432766  0.00060235  0.56066378
   0.75817958  0.50429247  0.56617653
   0.91410038  0.16735570  0.47359656
   0.66525586  0.91950543  0.47297172
   0.16914572  0.41489501  0.47506121
   0.23728418  0.00646120  0.56491867
Direct configuration=    12
   0.08333333  0.08333333  0.38179910
   0.33333333  0.83333333  0.38179910
   0.41681010  0.91785792  0.47656384
   0.83333333  0.83333333  0.38179910
   0.66537730  0.66715497  0.47648910
   0.83333333  0.58333333  0.38179910
   0.08333333  0.33333333  0.38179910
   0.91541765  0.41538375  0.47558825
   0.83333333  0.33333333  0.38179910
   0.08333333  0.58333333  0.38179910
   0.91608429  0.66689630  0.47487355
   0.91470777  0.92091255  0.47372277
   0.83333333  0.08333333  0.38179910
   0.16842855  0.66549503  0.47598485
   0.58333333  0.83333333  0.38179910
   0.33333333  0.08333333  0.38179910
   0.16694978  0.16680777  0.47563783
   0.41597317  0.66550996  0.47686432
   0.58333333  0.58333333  0.38179910
   0.33333333  0.33333333  0.38179910
   0.41836342  0.41392913  0.47676629
   0.58333333  0.33333333  0.38179910
   0.58333333  0.08333333  0.38179910
   0.08333333  0.83333333  0.38179910
   0.33714249  0.32430232  0.60734019
   0.32259379  0.59398533  0.60985153
   0.34364650  0.07744137  0.60611208
   0.05385005  0.60001784  0.60776209
   0.32702738  0.83993461  0.60800709
   0.59740818  0.31050164  0.60811601
   0.84691713  0.32423596  0.60746460
   0.59324038  0.59053772  0.61041545
   0.50911385  0.23420045  0.56502869
   0.24122340  0.25352221  0.56513978
   0.51044182 -0.00572639  0.56409500
   0.41763788  0.16691364  0.47477613
   0.33333333  0.58333333  0.38179910
   0.75424791  0.75444538  0.56305664
   0.23588720  0.75807935  0.56666857
   0.16560889  0.91778611  0.47502503
   0.50426744  0.50057940  0.56779755
   0.24310031  0.50471257  0.56714823
  -0.01179496  0.76414280  0.56545591
   0.50471604  0.75948362  0.56809685
  -0.00766609  0.49995114  0.56341180
   0.66682546  0.16649667  0.47434828
   0.75446837 -0.00568367  0.56208684
   0.66648364  0.41442590  0.47606137
   0.75890257  0.23794188  0.56469141
   0.00807750  0.24213108  0.56241033
  -0.00542367  0.00035274  0.56196388
   0.75880140  0.50285174  0.56702026
   0.91487460  0.16680554  0.47399428
   0.66607526  0.91881541  0.47320438
   0.16842510  0.41539876  0.47545176
   0.23719769  0.00636849  0.56550608
Direct configuration=    13
   0.08333333  0.08333333  0.38179910
   0.33333333  0.83333333  0.38179910
   0.41692623  0.91770439  0.47708912
   0.83333333  0.83333333  0.38179910
   0.66539129  0.66753398  0.47724748
   0.83333333  0.58333333  0.38179910
   0.08333333  0.33333333  0.38179910
   0.91539163  0.41512955  0.47570482
   0.83333333  0.33333333  0.38179910
   0.08333333  0.58333333  0.38179910
   0.91599150  0.66722179  0.47535738
   0.91472581  0.92094638  0.47420044
   0.83333333  0.08333333  0.38179910
   0.16764940  0.66596177  0.47632354
   0.58333333  0.83333333  0.38179910
   0.33333333  0.08333333  0.38179910
   0.16695681  0.16674856  0.47531651
   0.41608223  0.66583941  0.47755178
   0.58333333  0.58333333  0.38179910
   0.33333333  0.33333333  0.38179910
   0.41860186  0.41349935  0.47745354
   0.58333333  0.33333333  0.38179910
   0.58333333  0.08333333  0.38179910
   0.08333333  0.83333333  0.38179910
   0.33675038  0.32557762  0.60811009
   0.32348315  0.59273010  0.61053701
   0.34359799  0.07729507  0.60712132
   0.05166698  0.60140283  0.60928088
   0.32610197  0.84061233  0.60948774
   0.59810448  0.30950711  0.60907462
   0.84815706  0.32327224  0.60883482
   0.59356145  0.59095286  0.61170178
   0.50939475  0.23432731  0.56541100
   0.24156422  0.25324152  0.56552811
   0.51320253 -0.00743325  0.56476052
   0.41795093  0.16656719  0.47530482
   0.33333333  0.58333333  0.38179910
   0.75404727  0.75366120  0.56421405
   0.23563320  0.75840537  0.56735162
   0.16495346  0.91792920  0.47544671
   0.50382437  0.50062044  0.56915428
   0.24201630  0.50537699  0.56824165
  -0.01150943  0.76505461  0.56628801
   0.50561753  0.75916790  0.56894701
  -0.00745853  0.49922178  0.56388987
   0.66684725  0.16601088  0.47476143
   0.75363975 -0.00449365  0.56312495
   0.66662050  0.41443148  0.47672631
   0.75893614  0.23808151  0.56492547
   0.00733788  0.24259383  0.56282292
  -0.00548744 -0.00005617  0.56309786
   0.75805338  0.50319383  0.56768312
   0.91529510  0.16658715  0.47439160
   0.66646224  0.91857106  0.47387961
   0.16785043  0.41587036  0.47581252
   0.23728527  0.00617753  0.56593361
Direct configuration=    14
   0.08333333  0.08333333  0.38179910
   0.33333333  0.83333333  0.38179910
   0.41709704  0.91747857  0.47786180
   0.83333333  0.83333333  0.38179910
   0.66541187  0.66809148  0.47836301
   0.83333333  0.58333333  0.38179910
   0.08333333  0.33333333  0.38179910
   0.91535335  0.41475565  0.47587629
   0.83333333  0.33333333  0.38179910
   0.08333333  0.58333333  0.38179910
   0.91585500  0.66770055  0.47606906
   0.91475235  0.92099615  0.47490307
   0.83333333  0.08333333  0.38179910
   0.16650331  0.66664832  0.47682174
   0.58333333  0.83333333  0.38179910
   0.33333333  0.08333333  0.38179910
   0.16696717  0.16666147  0.47484386
   0.41624264  0.66632401  0.47856300
   0.58333333  0.58333333  0.38179910
   0.33333333  0.33333333  0.38179910
   0.41895260  0.41286717  0.47846445
   0.58333333  0.33333333  0.38179910
   0.58333333  0.08333333  0.38179910
   0.08333333  0.83333333  0.38179910
   0.33617359  0.32745352  0.60924259
   0.32479136  0.59088372  0.61154532
   0.34352662  0.07707988  0.60860586
   0.04845581  0.60344006  0.61151494
   0.32474074  0.84160923  0.61166568
   0.59912870  0.30804420  0.61048468
   0.84998095  0.32185466  0.61085035
   0.59403373  0.59156351  0.61359390
   0.50980795  0.23451392  0.56597337
   0.24206554  0.25282863  0.56609934
   0.51726340 -0.00994397  0.56573946
   0.41841142  0.16605759  0.47608250
   0.33333333  0.58333333  0.38179910
   0.75375214  0.75250772  0.56591653
   0.23525959  0.75888493  0.56835635
   0.16398936  0.91813968  0.47606698
   0.50317263  0.50068080  0.57114996
   0.24042178  0.50635431  0.56985001
  -0.01108944  0.76639585  0.56751199
   0.50694358  0.75870349  0.57019755
  -0.00715322  0.49814894  0.56459310