<?xml version="1.0" encoding="ISO-8859-1"?>
<modeling>
 <generator>
  <i name="program" type="string">vasp </i>
  <i name="version" type="string">5.4.1  </i>
  <i name="subversion" type="string">24Jun15 (build Mar 14 2019 10:18:33) complex                          parallel </i>
  <i name="platform" type="string">INTEL-19.0.2+OPENMPI-3.1.3 </i>
  <i name="date" type="string">2023 01 21 </i>
  <i name="time" type="string">16:50:33 </i>
 </generator>
 <incar>
  <i type="int" name="ISTART">     0</i>
  <i type="string" name="PREC">normal</i>
  <i type="string" name="ALGO"> Fast</i>
  <i type="int" name="NELM">   500</i>
  <i type="int" name="IBRION">     2</i>
  <i type="int" name="NFREE">     2</i>
  <i name="EDIFF">      0.00000100</i>
  <i name="EDIFFG">     -0.02000000</i>
  <i type="int" name="NSW">   500</i>
  <i type="int" name="ISIF">     0</i>
  <i type="int" name="ISYM">     2</i>
  <i name="ENCUT">    400.00000000</i>
  <i name="POTIM">      0.35000000</i>
  <i type="string" name="LREAL"> Auto</i>
  <i type="logical" name="LPLANE"> T  </i>
  <i type="int" name="ISMEAR">     0</i>
  <i name="SIGMA">      0.10000000</i>
  <i type="int" name="NWRITE">     1</i>
  <i type="logical" name="LWAVE"> F  </i>
  <i type="logical" name="LCHARG"> F  </i>
  <i type="logical" name="LVTOT"> F  </i>
  <i type="logical" name="LORBIT"> F  </i>
  <i type="logical" name="LAECHG"> F  </i>
  <v type="int" name="KPOINT_BSE">    -1     0     0     0</v>
  <i type="int" name="NELM">   500</i>
  <i type="string" name="GGA"> PE          ! optPBE-vdW XC-functional</i>
  <i type="int" name="VOSKOWN">     1</i>
  <i type="logical" name="LDIPOL"> T  </i>
  <i type="logical" name="LMONO"> F  </i>
  <i type="int" name="IDIPOL">     3</i>
  <v name="DIPOL">      0.00000000      0.00000000      0.50000000</v>
 </incar>
 <kpoints>
  <generation param="Monkhorst-Pack">
   <v type="int" name="divisions">       2        2        1 </v>
   <v name="usershift">      0.00000000       0.00000000       0.00000000 </v>
   <v name="genvec1">      0.50000000       0.00000000       0.00000000 </v>
   <v name="genvec2">      0.00000000       0.50000000       0.00000000 </v>
   <v name="genvec3">      0.00000000       0.00000000       1.00000000 </v>
   <v name="shift">      0.50000000       0.50000000       0.00000000 </v>
  </generation>
  <varray name="kpointlist" >
   <v>       0.25000000       0.25000000       0.00000000 </v>
   <v>       0.00000000       0.25000000       0.00000000 </v>
   <v>      -0.25000000       0.00000000       0.00000000 </v>
   <v>      -0.25000000       0.25000000       0.00000000 </v>
   <v>       0.50000000      -0.25000000       0.00000000 </v>
   <v>      -0.25000000       0.50000000       0.00000000 </v>
  </varray>
  <varray name="weights" >
   <v>       0.16666667 </v>
   <v>       0.16666667 </v>
   <v>       0.16666667 </v>
   <v>       0.16666667 </v>
   <v>       0.16666667 </v>
   <v>       0.16666667 </v>
  </varray>
 </kpoints>
 <parameters>
  <separator name="general" >
   <i type="string" name="SYSTEM">unknown system</i>
   <i type="logical" name="LCOMPAT"> F  </i>
  </separator>
  <separator name="electronic" >
   <i type="string" name="PREC">normal</i>
   <i name="ENMAX">    400.00000000</i>
   <i name="ENAUG">    605.39200000</i>
   <i name="EDIFF">      0.00000100</i>
   <i type="int" name="IALGO">    68</i>
   <i type="int" name="IWAVPR">    11</i>
   <i type="int" name="NBANDS">   336</i>
   <i name="NELECT">    552.00000000</i>
   <i type="int" name="TURBO">     0</i>
   <i type="int" name="IRESTART">     0</i>
   <i type="int" name="NREBOOT">     0</i>
   <i type="int" name="NMIN">     0</i>
   <i name="EREF">      0.00000000</i>
   <separator name="electronic smearing" >
    <i type="int" name="ISMEAR">     0</i>
    <i name="SIGMA">      0.10000000</i>
    <i name="KSPACING">      0.50000000</i>
    <i type="logical" name="KGAMMA"> T  </i>
   </separator>
   <separator name="electronic projectors" >
    <i type="logical" name="LREAL"> T  </i>
    <v name="ROPT">     -0.00050000     -0.00050000     -0.00050000</v>
    <i type="int" name="LMAXPAW">  -100</i>
    <i type="int" name="LMAXMIX">     2</i>
    <i type="logical" name="NLSPLINE"> F  </i>
   </separator>
   <separator name="electronic startup" >
    <i type="int" name="ISTART">     0</i>
    <i type="int" name="ICHARG">     2</i>
    <i type="int" name="INIWAV">     1</i>
   </separator>
   <separator name="electronic spin" >
    <i type="int" name="ISPIN">     1</i>
    <i type="logical" name="LNONCOLLINEAR"> F  </i>
    <v name="MAGMOM">      1.00000000      1.00000000      1.00000000      1.00000000      1.00000000      1.00000000      1.00000000      1.00000000      1.00000000      1.00000000      1.00000000      1.00000000      1.00000000      1.00000000      1.00000000      1.00000000      1.00000000      1.00000000      1.00000000      1.00000000
      1.00000000      1.00000000      1.00000000      1.00000000      1.00000000      1.00000000      1.00000000      1.00000000      1.00000000      1.00000000      1.00000000      1.00000000      1.00000000      1.00000000      1.00000000      1.00000000      1.00000000      1.00000000      1.00000000      1.00000000
      1.00000000      1.00000000      1.00000000      1.00000000      1.00000000      1.00000000      1.00000000      1.00000000      1.00000000      1.00000000      1.00000000      1.00000000      1.00000000      1.00000000      1.00000000      1.00000000</v>
    <i name="NUPDOWN">     -1.00000000</i>
    <i type="logical" name="LSORBIT"> F  </i>
    <v name="SAXIS">      0.00000000      0.00000000      1.00000000</v>
    <i type="logical" name="LSPIRAL"> F  </i>
    <v name="QSPIRAL">      0.00000000      0.00000000      0.00000000</v>
    <i type="logical" name="LZEROZ"> F  </i>
   </separator>
   <separator name="electronic exchange-correlation" >
    <i type="logical" name="LASPH"> F  </i>
    <i type="logical" name="LMETAGGA"> F  </i>
   </separator>
   <separator name="electronic convergence" >
    <i type="int" name="NELM">   500</i>
    <i type="int" name="NELMDL">    -5</i>
    <i type="int" name="NELMIN">     2</i>
    <i name="ENINI">    400.00000000</i>
    <separator name="electronic convergence detail" >
     <i type="logical" name="LDIAG"> T  </i>
     <i type="logical" name="LSUBROT"> F  </i>
     <i name="WEIMIN">      0.00100000</i>
     <i name="EBREAK">      0.00000000</i>
     <i name="DEPER">      0.30000000</i>
     <i type="int" name="NRMM">     4</i>
     <i name="TIME">      0.40000000</i>
    </separator>
   </separator>
   <separator name="electronic mixer" >
    <i name="AMIX">      0.40000000</i>
    <i name="BMIX">      1.00000000</i>
    <i name="AMIN">      0.10000000</i>
    <i name="AMIX_MAG">      1.60000000</i>
    <i name="BMIX_MAG">      1.00000000</i>
    <separator name="electronic mixer details" >
     <i type="int" name="IMIX">     4</i>
     <i type="logical" name="MIXFIRST"> F  </i>
     <i type="int" name="MAXMIX">   -45</i>
     <i name="WC">    100.00000000</i>
     <i type="int" name="INIMIX">     1</i>
     <i type="int" name="MIXPRE">     1</i>
     <i type="int" name="MREMOVE">     5</i>
    </separator>
   </separator>
   <separator name="electronic dipolcorrection" >
    <i type="logical" name="LDIPOL"> T  </i>
    <i type="logical" name="LMONO"> F  </i>
    <i type="int" name="IDIPOL">     3</i>
    <i name="EPSILON">      1.00000000</i>
    <v name="DIPOL">      0.00000000      0.00000000      0.50000000</v>
    <i name="EFIELD">      0.00000000</i>
   </separator>
  </separator>
  <separator name="grids" >
   <i type="int" name="NGX">    54</i>
   <i type="int" name="NGY">    54</i>
   <i type="int" name="NGZ">   128</i>
   <i type="int" name="NGXF">   108</i>
   <i type="int" name="NGYF">   108</i>
   <i type="int" name="NGZF">   256</i>
   <i type="logical" name="ADDGRID"> F  </i>
  </separator>
  <separator name="ionic" >
   <i type="int" name="NSW">   500</i>
   <i type="int" name="IBRION">     2</i>
   <i type="int" name="ISIF">     0</i>
   <i name="PSTRESS">      0.00000000</i>
   <i name="EDIFFG">     -0.02000000</i>
   <i type="int" name="NFREE">     2</i>
   <i name="POTIM">      0.35000000</i>
   <i name="SMASS">     -3.00000000</i>
   <i name="SCALEE">      1.00000000</i>
  </separator>
  <separator name="ionic md" >
   <i name="TEBEG">      0.00010000</i>
   <i name="TEEND">      0.00010000</i>
   <i type="int" name="NBLOCK">     1</i>
   <i type="int" name="KBLOCK">   500</i>
   <i type="int" name="NPACO">   256</i>
   <i name="APACO">     16.00000000</i>
  </separator>
  <separator name="symmetry" >
   <i type="int" name="ISYM">     2</i>
   <i name="SYMPREC">      0.00001000</i>
  </separator>
  <separator name="dos" >
   <i type="logical" name="LORBIT"> F  </i>
   <v name="RWIGS">     -1.00000000     -1.00000000     -1.00000000</v>
   <i type="int" name="NEDOS">   301</i>
   <i name="EMIN">     10.00000000</i>
   <i name="EMAX">    -10.00000000</i>
   <i name="EFERMI">      0.00000000</i>
  </separator>
  <separator name="writing" >
   <i type="int" name="NWRITE">     1</i>
   <i type="logical" name="LWAVE"> F  </i>
   <i type="logical" name="LCHARG"> F  </i>
   <i type="logical" name="LPARD"> F  </i>
   <i type="logical" name="LVTOT"> F  </i>
   <i type="logical" name="LVHAR"> F  </i>
   <i type="logical" name="LELF"> F  </i>
   <i type="logical" name="LOPTICS"> F  </i>
   <v name="STM">      0.00000000      0.00000000      0.00000000      0.00000000      0.00000000      0.00000000      0.00000000</v>
  </separator>
  <separator name="performance" >
   <i type="int" name="NPAR">     6</i>
   <i type="int" name="NSIM">     4</i>
   <i type="int" name="NBLK">    -1</i>
   <i type="logical" name="LPLANE"> T  </i>
   <i type="logical" name="LSCALAPACK"> T  </i>
   <i type="logical" name="LSCAAWARE"> F  </i>
   <i type="logical" name="LSCALU"> F  </i>
   <i type="logical" name="LASYNC"> F  </i>
   <i type="logical" name="LORBITALREAL"> F  </i>
  </separator>
  <separator name="miscellaneous" >
   <i type="int" name="IDIOT">     3</i>
   <i type="logical" name="LMUSIC"> F  </i>
   <v name="POMASS">    196.96600000     16.00000000    106.42000000</v>
   <v name="DARWINR">      0.00000000      0.00000000      0.00000000</v>
   <v name="DARWINV">      1.00000000      1.00000000      1.00000000</v>
   <i type="logical" name="LCORR"> T  </i>
  </separator>
  <i type="logical" name="GGA_COMPAT"> T  </i>
  <i type="logical" name="LBERRY"> F  </i>
  <i type="int" name="ICORELEVEL">     0</i>
  <i type="logical" name="LDAU"> F  </i>
  <i type="int" name="I_CONSTRAINED_M">     0</i>
  <separator name="electronic exchange-correlation" >
   <i type="string" name="GGA">PE</i>
   <i type="int" name="VOSKOWN">     1</i>
   <i type="logical" name="LHFCALC"> F  </i>
   <i type="string" name="PRECFOCK"></i>
   <i type="logical" name="LSYMGRAD"> F  </i>
   <i type="logical" name="LHFONE"> F  </i>
   <i type="logical" name="LRHFCALC"> F  </i>
   <i type="logical" name="LTHOMAS"> F  </i>
   <i type="logical" name="LMODELHF"> F  </i>
   <i name="ENCUT4O">     -1.00000000</i>
   <i type="int" name="EXXOEP">     0</i>
   <i type="int" name="FOURORBIT">     0</i>
   <i name="AEXX">      0.00000000</i>
   <i name="HFALPHA">      0.00000000</i>
   <i name="MCALPHA">      0.00000000</i>
   <i name="ALDAX">      1.00000000</i>
   <i name="AGGAX">      1.00000000</i>
   <i name="ALDAC">      1.00000000</i>
   <i name="AGGAC">      1.00000000</i>
   <i type="int" name="NKREDX">     1</i>
   <i type="int" name="NKREDY">     1</i>
   <i type="int" name="NKREDZ">     1</i>
   <i type="logical" name="SHIFTRED"> F  </i>
   <i type="logical" name="ODDONLY"> F  </i>
   <i type="logical" name="EVENONLY"> F  </i>
   <i type="int" name="LMAXFOCK">     0</i>
   <i type="int" name="NMAXFOCKAE">     0</i>
   <i type="logical" name="LFOCKAEDFT"> F  </i>
   <i name="HFSCREEN">      0.00000000</i>
   <i name="HFSCREENC">      0.00000000</i>
   <i type="int" name="NBANDSGWLOW">     0</i>
  </separator>
  <separator name="vdW DFT" >
   <i type="logical" name="LUSE_VDW"> F  </i>
   <i name="Zab_VDW">     -0.84910000</i>
   <i name="PARAM1">      0.12340000</i>
   <i name="PARAM2">      1.00000000</i>
   <i name="PARAM3">      0.00000000</i>
  </separator>
  <separator name="model GW" >
   <i type="int" name="MODEL_GW">     0</i>
   <i name="MODEL_EPS0">     29.42037089</i>
   <i name="MODEL_ALPHA">      1.00000000</i>
  </separator>
  <separator name="linear response parameters" >
   <i type="logical" name="LEPSILON"> F  </i>
   <i type="logical" name="LRPA"> F  </i>
   <i type="logical" name="LNABLA"> F  </i>
   <i type="logical" name="LVEL"> F  </i>
   <i type="int" name="KINTER">     0</i>
   <i name="CSHIFT">      0.10000000</i>
   <i name="OMEGAMAX">     -1.00000000</i>
   <i name="DEG_THRESHOLD">      0.00200000</i>
  </separator>
  <separator name="orbital magnetization" >
   <i type="logical" name="NUCIND"> F  </i>
   <v name="MAGPOS">      0.00000000      0.00000000      0.00000000</v>
   <i type="logical" name="LNICSALL"> T  </i>
   <i type="logical" name="ORBITALMAG"> F  </i>
   <i type="logical" name="LMAGBLOCH"> F  </i>
   <i type="logical" name="LCHIMAG"> F  </i>
   <i type="logical" name="LGAUGE"> T  </i>
   <i type="int" name="MAGATOM">     0</i>
   <v name="MAGDIPOL">      0.00000000      0.00000000      0.00000000</v>
   <v name="AVECCONST">      0.00000000      0.00000000      0.00000000</v>
  </separator>
  <separator name="response functions" >
   <i type="logical" name="LADDER"> F  </i>
   <i type="logical" name="LFXC"> F  </i>
   <i type="logical" name="LHARTREE"> T  </i>
   <i type="int" name="IBSE">     0</i>
   <v type="int" name="KPOINT">    -1     0     0     0</v>
   <i type="logical" name="LTCTE"> F  </i>
   <i type="logical" name="LTETE"> F  </i>
   <i type="logical" name="LTRIPLET"> F  </i>
   <i type="logical" name="LFXCEPS"> F  </i>
   <i type="logical" name="LFXHEG"> F  </i>
   <i type="int" name="NATURALO">     0</i>
   <i type="logical" name="L2ORDER"> F  </i>
   <i type="logical" name="LUSEW"> F  </i>
   <i name="ENCUTGW">     -2.00000000</i>
   <i name="ENCUTGWSOFT">     -2.00000000</i>
   <i name="ENCUTLF">     -1.00000000</i>
   <i type="int" name="LMAXMP2">    -1</i>
   <i name="SCISSOR">      0.00000000</i>
   <i type="int" name="NOMEGA">     0</i>
   <i type="int" name="NOMEGAR">     0</i>
   <i type="int" name="NBANDSGW">    -1</i>
   <i type="int" name="NBANDSO">    -1</i>
   <i type="int" name="NBANDSV">    -1</i>
   <i type="int" name="NELM">   500</i>
   <i type="int" name="NELMHF">     1</i>
   <i type="int" name="DIM">     3</i>
   <i type="int" name="ANTIRES">     0</i>
   <i name="OMEGAMAX">    -30.00000000</i>
   <i name="OMEGAMIN">    -30.00000000</i>
   <i name="OMEGATL">   -200.00000000</i>
   <i type="int" name="OMEGAGRID">     0</i>
   <i name="CSHIFT">     -0.10000000</i>
   <i type="logical" name="SELFENERGY"> F  </i>
   <i type="logical" name="LSPECTRAL"> F  </i>
   <i type="logical" name="LSPECTRALGW"> F  </i>
   <i type="logical" name="LSINGLES"> F  </i>
   <i type="logical" name="LFERMIGW"> F  </i>
   <i type="logical" name="ODDONLYGW"> F  </i>
   <i type="logical" name="EVENONLYGW"> F  </i>
   <i type="int" name="NKREDLFX">     1</i>
   <i type="int" name="NKREDLFY">     1</i>
   <i type="int" name="NKREDLFZ">     1</i>
   <i type="int" name="MAXMEM">  1800</i>
   <i type="int" name="TELESCOPE">     0</i>
   <i type="int" name="TAUPAR">     1</i>
   <i type="int" name="OMEGAPAR">    -1</i>
   <i name="LAMBDA">      1.00000000</i>
  </separator>
  <separator name="External order field" >
   <i name="OFIELD_KAPPA">      0.00000000</i>
   <v name="OFIELD_K">      0.00000000      0.00000000      0.00000000</v>
   <i name="OFIELD_Q6_NEAR">      0.00000000</i>
   <i name="OFIELD_Q6_FAR">      0.00000000</i>
   <i name="OFIELD_A">      0.00000000</i>
  </separator>
 </parameters>
 <atominfo>
  <atoms>      56 </atoms>
  <types>       3 </types>
  <array name="atoms" >
   <dimension dim="1">ion</dimension>
   <field type="string">element</field>
   <field type="int">atomtype</field>
   <set>
    <rc><c>Au</c><c>   1</c></rc>
    <rc><c>Au</c><c>   1</c></rc>
    <rc><c>Au</c><c>   1</c></rc>
    <rc><c>Au</c><c>   1</c></rc>
    <rc><c>Au</c><c>   1</c></rc>
    <rc><c>Au</c><c>   1</c></rc>
    <rc><c>Au</c><c>   1</c></rc>
    <rc><c>Au</c><c>   1</c></rc>
    <rc><c>Au</c><c>   1</c></rc>
    <rc><c>Au</c><c>   1</c></rc>
    <rc><c>Au</c><c>   1</c></rc>
    <rc><c>Au</c><c>   1</c></rc>
    <rc><c>Au</c><c>   1</c></rc>
    <rc><c>Au</c><c>   1</c></rc>
    <rc><c>Au</c><c>   1</c></rc>
    <rc><c>Au</c><c>   1</c></rc>
    <rc><c>Au</c><c>   1</c></rc>
    <rc><c>Au</c><c>   1</c></rc>
    <rc><c>Au</c><c>   1</c></rc>
    <rc><c>Au</c><c>   1</c></rc>
    <rc><c>Au</c><c>   1</c></rc>
    <rc><c>Au</c><c>   1</c></rc>
    <rc><c>Au</c><c>   1</c></rc>
    <rc><c>Au</c><c>   1</c></rc>
    <rc><c>O </c><c>   2</c></rc>
    <rc><c>O </c><c>   2</c></rc>
    <rc><c>O </c><c>   2</c></rc>
    <rc><c>O </c><c>   2</c></rc>
    <rc><c>O </c><c>   2</c></rc>
    <rc><c>O </c><c>   2</c></rc>
    <rc><c>O </c><c>   2</c></rc>
    <rc><c>O </c><c>   2</c></rc>
    <rc><c>Pd</c><c>   3</c></rc>
    <rc><c>Pd</c><c>   3</c></rc>
    <rc><c>Pd</c><c>   3</c></rc>
    <rc><c>Pd</c><c>   3</c></rc>
    <rc><c>Pd</c><c>   3</c></rc>
    <rc><c>Pd</c><c>   3</c></rc>
    <rc><c>Pd</c><c>   3</c></rc>
    <rc><c>Pd</c><c>   3</c></rc>
    <rc><c>Pd</c><c>   3</c></rc>
    <rc><c>Pd</c><c>   3</c></rc>
    <rc><c>Pd</c><c>   3</c></rc>
    <rc><c>Pd</c><c>   3</c></rc>
    <rc><c>Pd</c><c>   3</c></rc>
    <rc><c>Pd</c><c>   3</c></rc>
    <rc><c>Pd</c><c>   3</c></rc>
    <rc><c>Pd</c><c>   3</c></rc>
    <rc><c>Pd</c><c>   3</c></rc>
    <rc><c>Pd</c><c>   3</c></rc>
    <rc><c>Pd</c><c>   3</c></rc>
    <rc><c>Pd</c><c>   3</c></rc>
    <rc><c>Pd</c><c>   3</c></rc>
    <rc><c>Pd</c><c>   3</c></rc>
    <rc><c>Pd</c><c>   3</c></rc>
    <rc><c>Pd</c><c>   3</c></rc>
   </set>
  </array>
  <array name="atomtypes" >
   <dimension dim="1">type</dimension>
   <field type="int">atomspertype</field>
   <field type="string">element</field>
   <field>mass</field>
   <field>valence</field>
   <field type="string">pseudopotential</field>
   <set>
    <rc><c>  24</c><c>Au</c><c>    196.96600000</c><c>     11.00000000</c><c>  PAW_PBE Au 04Oct2007                  </c></rc>
    <rc><c>   8</c><c>O </c><c>     16.00000000</c><c>      6.00000000</c><c>  PAW_PBE O 08Apr2002                   </c></rc>
    <rc><c>  24</c><c>Pd</c><c>    106.42000000</c><c>     10.00000000</c><c>  PAW_PBE Pd 04Jan2005                  </c></rc>
   </set>
  </array>
 </atominfo>
 <structure name="initialpos" >
  <crystal>
   <varray name="basis" >
    <v>      11.00258152       0.00000000       0.00000000 </v>
    <v>       5.50129076       9.52851510       0.00000000 </v>
    <v>       0.00000000       0.00000000      26.19178509 </v>
   </varray>
   <i name="volume">   2745.90128299 </i>
   <varray name="rec_basis" >
    <v>       0.09088776      -0.05247407       0.00000000 </v>
    <v>       0.00000000       0.10494815       0.00000000 </v>
    <v>       0.00000000       0.00000000       0.03817991 </v>
   </varray>
  </crystal>
  <varray name="positions" >
   <v>       0.08333333       0.08333333       0.38179910 </v>
   <v>       0.50000000       0.75000000       0.55329505 </v>
   <v>       0.66666667       0.91666667       0.46754708 </v>
   <v>       0.00000000       0.00000000       0.55329505 </v>
   <v>       0.66666667       0.66666667       0.46754708 </v>
   <v>       0.08333333       0.33333333       0.38179910 </v>
   <v>       0.91666667       0.41666667       0.46754708 </v>
   <v>       0.00000000       0.25000000       0.55329505 </v>
   <v>       0.75000000       0.25000000       0.55329505 </v>
   <v>       0.08333333       0.58333333       0.38179910 </v>
   <v>       0.83333333       0.08333333       0.38179910 </v>
   <v>       0.25000000       0.50000000       0.55329505 </v>
   <v>       0.00000000       0.50000000       0.55329505 </v>
   <v>       0.41666667       0.66666667       0.46754708 </v>
   <v>       0.50000000       0.25000000       0.55329505 </v>
   <v>       0.58333333       0.33333333       0.38179910 </v>
   <v>       0.16666667       0.16666667       0.46754708 </v>
   <v>       0.50000000       0.00000000       0.55329505 </v>
   <v>       0.25000000       0.75000000       0.55329505 </v>
   <v>       0.16666667       0.41666667       0.46754708 </v>
   <v>       0.25000000       0.25000000       0.55329505 </v>
   <v>       0.16666667       0.91666667       0.46754708 </v>
   <v>       0.33333333       0.83333333       0.38179910 </v>
   <v>       0.16666667       0.66666667       0.46754708 </v>
   <v>       0.33333333       0.08333333       0.61820090 </v>
   <v>       0.08333333       0.58333333       0.61820090 </v>
   <v>       0.08333333       0.33333333       0.61820090 </v>
   <v>       0.33333333       0.33333333       0.61820090 </v>
   <v>       0.83333333       0.83333333       0.61820090 </v>
   <v>       0.58333333       0.58333333       0.61820090 </v>
   <v>       0.58333333       0.08333333       0.61820090 </v>
   <v>       0.58333333       0.83333333       0.61820090 </v>
   <v>       0.91666667       0.91666667       0.46754708 </v>
   <v>       0.33333333       0.08333333       0.38179910 </v>
   <v>       0.41666667       0.41666667       0.46754708 </v>
   <v>       0.75000000       0.75000000       0.55329505 </v>
   <v>       0.33333333       0.33333333       0.38179910 </v>
   <v>       0.58333333       0.58333333       0.38179910 </v>
   <v>       0.00000000       0.75000000       0.55329505 </v>
   <v>       0.50000000       0.50000000       0.55329505 </v>
   <v>       0.25000000       0.00000000       0.55329505 </v>
   <v>       0.41666667       0.91666667       0.46754708 </v>
   <v>       0.58333333       0.83333333       0.38179910 </v>
   <v>       0.08333333       0.83333333       0.38179910 </v>
   <v>       0.91666667       0.66666667       0.46754708 </v>
   <v>       0.66666667       0.16666667       0.46754708 </v>
   <v>       0.75000000       0.00000000       0.55329505 </v>
   <v>       0.83333333       0.33333333       0.38179910 </v>
   <v>       0.66666667       0.41666667       0.46754708 </v>
   <v>       0.83333333       0.58333333       0.38179910 </v>
   <v>       0.75000000       0.50000000       0.55329505 </v>
   <v>       0.83333333       0.83333333       0.38179910 </v>
   <v>       0.91666667       0.16666667       0.46754708 </v>
   <v>       0.33333333       0.58333333       0.38179910 </v>
   <v>       0.58333333       0.08333333       0.38179910 </v>
   <v>       0.41666667       0.16666667       0.46754708 </v>
  </varray>
  <varray name="selective"  type="logical" >
   <v type="logical" >  F  F  F </v>
   <v type="logical" >  T  T  T </v>
   <v type="logical" >  T  T  T </v>
   <v type="logical" >  T  T  T </v>
   <v type="logical" >  T  T  T </v>
   <v type="logical" >  F  F  F </v>
   <v type="logical" >  T  T  T </v>
   <v type="logical" >  T  T  T </v>
   <v type="logical" >  T  T  T </v>
   <v type="logical" >  F  F  F </v>
   <v type="logical" >  F  F  F </v>
   <v type="logical" >  T  T  T </v>
   <v type="logical" >  T  T  T </v>
   <v type="logical" >  T  T  T </v>
   <v type="logical" >  T  T  T </v>
   <v type="logical" >  F  F  F </v>
   <v type="logical" >  T  T  T </v>
   <v type="logical" >  T  T  T </v>
   <v type="logical" >  T  T  T </v>
   <v type="logical" >  T  T  T </v>
   <v type="logical" >  T  T  T </v>
   <v type="logical" >  T  T  T </v>
   <v type="logical" >  F  F  F </v>
   <v type="logical" >  T  T  T </v>
   <v type="logical" >  T  T  T </v>
   <v type="logical" >  T  T  T </v>
   <v type="logical" >  T  T  T </v>
   <v type="logical" >  T  T  T </v>
   <v type="logical" >  T  T  T </v>
   <v type="logical" >  T  T  T </v>
   <v type="logical" >  T  T  T </v>
   <v type="logical" >  T  T  T </v>
   <v type="logical" >  T  T  T </v>
   <v type="logical" >  F  F  F </v>
   <v type="logical" >  T  T  T </v>
   <v type="logical" >  T  T  T </v>
   <v type="logical" >  F  F  F </v>
   <v type="logical" >  F  F  F </v>
   <v type="logical" >  T  T  T </v>
   <v type="logical" >  T  T  T </v>
   <v type="logical" >  T  T  T </v>
   <v type="logical" >  T  T  T </v>
   <v type="logical" >  F  F  F </v>
   <v type="logical" >  F  F  F </v>
   <v type="logical" >  T  T  T </v>
   <v type="logical" >  T  T  T </v>
   <v type="logical" >  T  T  T </v>
   <v type="logical" >  F  F  F </v>
   <v type="logical" >  T  T  T </v>
   <v type="logical" >  F  F  F </v>
   <v type="logical" >  T  T  T </v>
   <v type="logical" >  F  F  F </v>
   <v type="logical" >  T  T  T </v>
   <v type="logical" >  F  F  F </v>
   <v type="logical" >  F  F  F </v>
   <v type="logical" >  T  T  T </v>
  </varray>
  <nose>
   <v>      -3.00000000       0.00000000       0.00010000       0.00010000 </v>
  </nose>
 </structure>
 <calculation>
  <scstep>
   <time name="dav">   11.54   11.55</time>
   <time name="total">   11.61   11.62</time>
   <dipole>
    <v name="dipole">      0.00000000       0.00000000       0.00013197 </v>
    <i name="Tr[quadrupol]"> -11281.85311405 </i>
    <i name="Echarged">      0.00000000 </i>
    <i name="Edipol_quadrupol">      0.00000000 </i>
    <i name="Eion">      0.00000000 </i>
   </dipole>
   <energy>
    <i name="alphaZ">    862.57883654 </i>
    <i name="ewald"> 255842.14195760 </i>
    <i name="hartreedc">-301418.34558678 </i>
    <i name="XCdc">   -109.60673671 </i>
    <i name="pawpsdc">  43112.45544455 </i>
    <i name="pawaedc"> -41079.41300390 </i>
    <i name="eentropy">     -0.11918914 </i>
    <i name="bandstr">   1337.92852391 </i>
    <i name="atom">  45117.89144060 </i>
    <i name="e_fr_energy">   3665.51168665 </i>
    <i name="e_wo_entrp">   3665.63087580 </i>
    <i name="e_0_energy">   3665.57128122 </i>
   </energy>
  </scstep>
  <scstep>
   <time name="dav">   13.71   13.78</time>
   <time name="total">   13.71   13.78</time>
   <dipole>
    <v name="dipole">      0.00000000       0.00000000       0.00013197 </v>
    <i name="Tr[quadrupol]"> -11281.85311405 </i>
    <i name="Echarged">      0.00000000 </i>
    <i name="Edipol_quadrupol">      0.00000000 </i>
    <i name="Eion">      0.00000000 </i>
   </dipole>
   <energy>
    <i name="e_fr_energy">     58.21364219 </i>
    <i name="e_wo_entrp">     58.38998461 </i>
    <i name="e_0_energy">     58.30181340 </i>
   </energy>
  </scstep>
  <scstep>
   <time name="dav">   13.36   13.37</time>
   <time name="total">   13.36   13.38</time>
   <dipole>
    <v name="dipole">      0.00000000       0.00000000       0.00013197 </v>
    <i name="Tr[quadrupol]"> -11281.85311405 </i>
    <i name="Echarged">      0.00000000 </i>
    <i name="Edipol_quadrupol">      0.00000000 </i>
    <i name="Eion">      0.00000000 </i>
   </dipole>
   <energy>
    <i name="e_fr_energy">   -249.52258219 </i>
    <i name="e_wo_entrp">   -249.11388442 </i>
    <i name="e_0_energy">   -249.31823330 </i>
   </energy>
  </scstep>
  <scstep>
   <time name="dav">   13.29   13.32</time>
   <time name="total">   13.30   13.32</time>
   <dipole>
    <v name="dipole">      0.00000000       0.00000000       0.00013197 </v>
    <i name="Tr[quadrupol]"> -11281.85311405 </i>
    <i name="Echarged">      0.00000000 </i>
    <i name="Edipol_quadrupol">      0.00000000 </i>
    <i name="Eion">      0.00000000 </i>
   </dipole>
   <energy>
    <i name="e_fr_energy">   -261.08000284 </i>
    <i name="e_wo_entrp">   -260.64957196 </i>
    <i name="e_0_energy">   -260.86478740 </i>
   </energy>
  </scstep>
  <scstep>
   <time name="dav">   13.50   13.80</time>
   <time name="total">   13.88   14.18</time>
   <dipole>
    <v name="dipole">      0.00000000       0.00000000       0.00013197 </v>
    <i name="Tr[quadrupol]"> -11281.85311405 </i>
    <i name="Echarged">      0.00000000 </i>
    <i name="Edipol_quadrupol">      0.00000000 </i>
    <i name="Eion">      0.00000000 </i>
   </dipole>
   <energy>
    <i name="e_fr_energy">   -261.42013449 </i>
    <i name="e_wo_entrp">   -260.98818815 </i>
    <i name="e_0_energy">   -261.20416132 </i>
   </energy>
  </scstep>
  <scstep>
   <time name="diag">    2.03    2.03</time>
   <time name="diis">    5.33    5.33</time>
   <time name="orth">    0.54    0.54</time>
   <time name="total">    8.30    8.31</time>
   <dipole>
    <v name="dipole">      0.00000000       0.00000000       2.71254450 </v>
    <i name="Tr[quadrupol]"> -11273.77978191 </i>
    <i name="Echarged">      0.00000000 </i>
    <i name="Edipol_quadrupol">      0.00000000 </i>
    <i name="Eion">      0.00000000 </i>
   </dipole>
   <energy>
    <i name="e_fr_energy">   -332.08208698 </i>
    <i name="e_wo_entrp">   -331.99615000 </i>
    <i name="e_0_energy">   -332.03911849 </i>
   </energy>
  </scstep>
  <scstep>
   <time name="diag">    2.05    2.05</time>
   <time name="diis">    5.37    5.37</time>
   <time name="orth">    0.55    0.55</time>
   <time name="total">    8.38    8.39</time>
   <dipole>
    <v name="dipole">      0.00000000       0.00000000      -1.75397676 </v>
    <i name="Tr[quadrupol]"> -11276.92246099 </i>
    <i name="Echarged">      0.00000000 </i>
    <i name="Edipol_quadrupol">      0.00000000 </i>
    <i name="Eion">      0.00000000 </i>
   </dipole>
   <energy>
    <i name="e_fr_energy">   -286.93032940 </i>
    <i name="e_wo_entrp">   -286.67325845 </i>
    <i name="e_0_energy">   -286.80179393 </i>
   </energy>
  </scstep>
  <scstep>
   <time name="diag">    2.06    2.06</time>
   <time name="diis">    5.35    5.35</time>
   <time name="orth">    0.54    0.54</time>
   <time name="total">    8.37    8.38</time>
   <dipole>
    <v name="dipole">      0.00000000       0.00000000       0.48412533 </v>
    <i name="Tr[quadrupol]"> -11280.54290831 </i>
    <i name="Echarged">      0.00000000 </i>
    <i name="Edipol_quadrupol">      0.00000000 </i>
    <i name="Eion">      0.00000000 </i>
   </dipole>
   <energy>
    <i name="e_fr_energy">   -233.87411063 </i>
    <i name="e_wo_entrp">   -233.59473358 </i>
    <i name="e_0_energy">   -233.73442210 </i>
   </energy>
  </scstep>
  <scstep>
   <time name="diag">    2.03    2.03</time>
   <time name="diis">    5.30    5.30</time>
   <time name="orth">    0.54    0.54</time>
   <time name="total">    8.29    8.30</time>
   <dipole>
    <v name="dipole">      0.00000000       0.00000000       0.46519265 </v>
    <i name="Tr[quadrupol]"> -11274.32875455 </i>
    <i name="Echarged">      0.00000000 </i>
    <i name="Edipol_quadrupol">      0.00000000 </i>
    <i name="Eion">      0.00000000 </i>
   </dipole>
   <energy>
    <i name="e_fr_energy">   -253.55952486 </i>
    <i name="e_wo_entrp">   -253.37445720 </i>
    <i name="e_0_energy">   -253.46699103 </i>
   </energy>
  </scstep>
  <scstep>
   <time name="diag">    2.02    2.03</time>
   <time name="diis">    5.34    5.41</time>
   <time name="orth">    0.54    0.54</time>
   <time name="total">    8.31    8.39</time>
   <dipole>
    <v name="dipole">      0.00000000       0.00000000       1.48501344 </v>
    <i name="Tr[quadrupol]"> -11275.97777558 </i>
    <i name="Echarged">      0.00000000 </i>
    <i name="Edipol_quadrupol">      0.00000000 </i>
    <i name="Eion">      0.00000000 </i>
   </dipole>
   <energy>
    <i name="e_fr_energy">   -265.39815688 </i>
    <i name="e_wo_entrp">   -265.27828735 </i>
    <i name="e_0_energy">   -265.33822212 </i>
   </energy>
  </scstep>
  <scstep>
   <time name="diag">    2.05    2.05</time>
   <time name="diis">    4.79    5.60</time>
   <time name="orth">    0.54    0.54</time>
   <time name="total">    7.79    8.60</time>
   <dipole>
    <v name="dipole">      0.00000000       0.00000000       1.40111437 </v>
    <i name="Tr[quadrupol]"> -11277.25390660 </i>
    <i name="Echarged">      0.00000000 </i>
    <i name="Edipol_quadrupol">      0.00000000 </i>
    <i name="Eion">      0.00000000 </i>
   </dipole>
   <energy>
    <i name="e_fr_energy">   -238.25973943 </i>
    <i name="e_wo_entrp">   -238.10094998 </i>
    <i name="e_0_energy">   -238.18034471 </i>
   </energy>
  </scstep>
  <scstep>
   <time name="diag">    2.07    2.07</time>
   <time name="diis">    5.36    5.36</time>
   <time name="orth">    0.54    0.54</time>
   <time name="total">    8.38    8.39</time>
   <dipole>
    <v name="dipole">      0.00000000       0.00000000       1.10245129 </v>
    <i name="Tr[quadrupol]"> -11278.50629776 </i>
    <i name="Echarged">      0.00000000 </i>
    <i name="Edipol_quadrupol">      0.00000000 </i>
    <i name="Eion">      0.00000000 </i>
   </dipole>
   <energy>
    <i name="e_fr_energy">   -226.48313863 </i>
    <i name="e_wo_entrp">   -226.27148867 </i>
    <i name="e_0_energy">   -226.37731365 </i>
   </energy>
  </scstep>
  <scstep>
   <time name="diag">    2.05    2.05</time>
   <time name="diis">    5.25    5.26</time>
   <time name="orth">    0.54    0.54</time>
   <time name="total">    8.26    8.27</time>
   <dipole>
    <v name="dipole">      0.00000000       0.00000000       1.06920764 </v>
    <i name="Tr[quadrupol]"> -11279.14549346 </i>
    <i name="Echarged">      0.00000000 </i>
    <i name="Edipol_quadrupol">      0.00000000 </i>
    <i name="Eion">      0.00000000 </i>
   </dipole>
   <energy>
    <i name="e_fr_energy">   -220.39044250 </i>
    <i name="e_wo_entrp">   -220.10370615 </i>
    <i name="e_0_energy">   -220.24707432 </i>
   </energy>
  </scstep>
  <scstep>
   <time name="diag">    2.02    2.03</time>
   <time name="diis">    5.35    5.36</time>
   <time name="orth">    0.53    0.53</time>
   <time name="total">    8.32    8.33</time>
   <dipole>
    <v name="dipole">      0.00000000       0.00000000       1.10431447 </v>
    <i name="Tr[quadrupol]"> -11279.16185500 </i>
    <i name="Echarged">      0.00000000 </i>
    <i name="Edipol_quadrupol">      0.00000000 </i>
    <i name="Eion">      0.00000000 </i>
   </dipole>
   <energy>
    <i name="e_fr_energy">   -219.39599783 </i>
    <i name="e_wo_entrp">   -219.07488525 </i>
    <i name="e_0_energy">   -219.23544154 </i>
   </energy>
  </scstep>
  <scstep>
   <time name="diag">    2.03    2.03</time>
   <time name="diis">    5.19    5.26</time>
   <time name="orth">    0.53    0.53</time>
   <time name="total">    8.15    8.23</time>
   <dipole>
    <v name="dipole">      0.00000000       0.00000000       1.14706711 </v>
    <i name="Tr[quadrupol]"> -11278.99466442 </i>
    <i name="Echarged">      0.00000000 </i>
    <i name="Edipol_quadrupol">      0.00000000 </i>
    <i name="Eion">      0.00000000 </i>
   </dipole>
   <energy>
    <i name="e_fr_energy">   -219.45344415 </i>
    <i name="e_wo_entrp">   -219.13381858 </i>
    <i name="e_0_energy">   -219.29363136 </i>
   </energy>
  </scstep>
  <scstep>
   <time name="diag">    2.04    2.04</time>
   <time name="diis">    5.32    5.32</time>
   <time name="orth">    0.53    0.53</time>
   <time name="total">    8.31    8.31</time>
   <dipole>
    <v name="dipole">      0.00000000       0.00000000       1.15035602 </v>
    <i name="Tr[quadrupol]"> -11278.94689926 </i>
    <i name="Echarged">      0.00000000 </i>
    <i name="Edipol_quadrupol">      0.00000000 </i>
    <i name="Eion">      0.00000000 </i>
   </dipole>
   <energy>
    <i name="e_fr_energy">   -219.33379613 </i>
    <i name="e_wo_entrp">   -219.01587176 </i>
    <i name="e_0_energy">   -219.17483394 </i>
   </energy>
  </scstep>
  <scstep>
   <time name="diag">    2.02    2.02</time>
   <time name="diis">    5.35    5.35</time>
   <time name="orth">    0.53    0.53</time>
   <time name="total">    8.32    8.32</time>
   <dipole>
    <v name="dipole">      0.00000000       0.00000000       1.15024011 </v>
    <i name="Tr[quadrupol]"> -11279.03951694 </i>
    <i name="Echarged">      0.00000000 </i>
    <i name="Edipol_quadrupol">      0.00000000 </i>
    <i name="Eion">      0.00000000 </i>
   </dipole>
   <energy>
    <i name="e_fr_energy">   -219.34580578 </i>
    <i name="e_wo_entrp">   -219.01651021 </i>
    <i name="e_0_energy">   -219.18115799 </i>
   </energy>
  </scstep>
  <scstep>
   <time name="diag">    2.02    2.02</time>
   <time name="diis">    4.98    5.64</time>
   <time name="orth">    0.53    0.53</time>
   <time name="total">    7.95    8.60</time>
   <dipole>
    <v name="dipole">      0.00000000       0.00000000       1.16475721 </v>
    <i name="Tr[quadrupol]"> -11279.17479895 </i>
    <i name="Echarged">      0.00000000 </i>
    <i name="Edipol_quadrupol">      0.00000000 </i>
    <i name="Eion">      0.00000000 </i>
   </dipole>
   <energy>
    <i name="e_fr_energy">   -219.21673759 </i>
    <i name="e_wo_entrp">   -218.88634139 </i>
    <i name="e_0_energy">   -219.05153949 </i>
   </energy>
  </scstep>
  <scstep>
   <time name="diag">    2.02    2.02</time>
   <time name="diis">    5.30    5.30</time>
   <time name="orth">    0.52    0.52</time>
   <time name="total">    8.25    8.26</time>
   <dipole>
    <v name="dipole">      0.00000000       0.00000000       1.18191835 </v>
    <i name="Tr[quadrupol]"> -11279.29349494 </i>
    <i name="Echarged">      0.00000000 </i>
    <i name="Edipol_quadrupol">      0.00000000 </i>
    <i name="Eion">      0.00000000 </i>
   </dipole>
   <energy>
    <i name="e_fr_energy">   -219.27129748 </i>
    <i name="e_wo_entrp">   -218.91411049 </i>
    <i name="e_0_energy">   -219.09270399 </i>
   </energy>
  </scstep>
  <scstep>
   <time name="diag">    2.00    2.07</time>
   <time name="diis">    5.22    5.22</time>
   <time name="orth">    0.52    0.52</time>
   <time name="total">    8.16    8.23</time>
   <dipole>
    <v name="dipole">      0.00000000       0.00000000       1.18756440 </v>
    <i name="Tr[quadrupol]"> -11279.28593349 </i>
    <i name="Echarged">      0.00000000 </i>
    <i name="Edipol_quadrupol">      0.00000000 </i>
    <i name="Eion">      0.00000000 </i>
   </dipole>
   <energy>
    <i name="e_fr_energy">   -219.14940895 </i>
    <i name="e_wo_entrp">   -218.80139810 </i>
    <i name="e_0_energy">   -218.97540352 </i>
   </energy>
  </scstep>
  <scstep>
   <time name="diag">    2.02    2.02</time>
   <time name="diis">    5.34    5.34</time>
   <time name="orth">    0.52    0.52</time>
   <time name="total">    8.30    8.30</time>
   <dipole>
    <v name="dipole">      0.00000000       0.00000000       1.18865165 </v>
    <i name="Tr[quadrupol]"> -11279.32001398 </i>
    <i name="Echarged">      0.00000000 </i>
    <i name="Edipol_quadrupol">      0.00000000 </i>
    <i name="Eion">      0.00000000 </i>
   </dipole>
   <energy>
    <i name="e_fr_energy">   -219.11873898 </i>
    <i name="e_wo_entrp">   -218.76947302 </i>
    <i name="e_0_energy">   -218.94410600 </i>
   </energy>
  </scstep>
  <scstep>
   <time name="diag">    2.00    2.00</time>
   <time name="diis">    5.31    5.31</time>
   <time name="orth">    0.52    0.52</time>
   <time name="total">    8.24    8.25</time>
   <dipole>
    <v name="dipole">      0.00000000       0.00000000       1.20116567 </v>
    <i name="Tr[quadrupol]"> -11279.38272953 </i>
    <i name="Echarged">      0.00000000 </i>
    <i name="Edipol_quadrupol">      0.00000000 </i>
    <i name="Eion">      0.00000000 </i>
   </dipole>
   <energy>
    <i name="e_fr_energy">   -219.12233829 </i>
    <i name="e_wo_entrp">   -218.77335854 </i>
    <i name="e_0_energy">   -218.94784842 </i>
   </energy>
  </scstep>
  <scstep>
   <time name="diag">    2.01    2.01</time>
   <time name="diis">    5.39    5.39</time>
   <time name="orth">    0.52    0.52</time>
   <time name="total">    8.33    8.34</time>
   <dipole>
    <v name="dipole">      0.00000000       0.00000000       1.20511419 </v>
    <i name="Tr[quadrupol]"> -11279.43926691 </i>
    <i name="Echarged">      0.00000000 </i>
    <i name="Edipol_quadrupol">      0.00000000 </i>
    <i name="Eion">      0.00000000 </i>
   </dipole>
   <energy>
    <i name="e_fr_energy">   -219.11295652 </i>
    <i name="e_wo_entrp">   -218.76627180 </i>
    <i name="e_0_energy">   -218.93961416 </i>
   </energy>
  </scstep>
  <scstep>
   <time name="diag">    2.04    2.04</time>
   <time name="diis">    5.40    5.42</time>
   <time name="orth">    0.50    0.53</time>
   <time name="total">    8.36    8.43</time>
   <dipole>
    <v name="dipole">      0.00000000       0.00000000       1.21404829 </v>
    <i name="Tr[quadrupol]"> -11279.52093198 </i>
    <i name="Echarged">      0.00000000 </i>
    <i name="Edipol_quadrupol">      0.00000000 </i>
    <i name="Eion">      0.00000000 </i>
   </dipole>
   <energy>
    <i name="e_fr_energy">   -219.11125101 </i>
    <i name="e_wo_entrp">   -218.76272485 </i>
    <i name="e_0_energy">   -218.93698793 </i>
   </energy>
  </scstep>
  <scstep>
   <time name="diag">    2.01    2.01</time>
   <time name="diis">    5.31    5.32</time>
   <time name="orth">    0.44    0.68</time>
   <time name="total">    8.18    8.63</time>
   <dipole>
    <v name="dipole">      0.00000000       0.00000000       1.21934945 </v>
    <i name="Tr[quadrupol]"> -11279.56753713 </i>
    <i name="Echarged">      0.00000000 </i>
    <i name="Edipol_quadrupol">      0.00000000 </i>
    <i name="Eion">      0.00000000 </i>
   </dipole>
   <energy>
    <i name="e_fr_energy">   -219.11132057 </i>
    <i name="e_wo_entrp">   -218.76225414 </i>
    <i name="e_0_energy">   -218.93678735 </i>
   </energy>
  </scstep>
  <scstep>
   <time name="diag">    1.92    2.17</time>
   <time name="diis">    5.31    5.32</time>
   <time name="orth">    0.52    0.52</time>
   <time name="total">    8.16    8.45</time>
   <dipole>
    <v name="dipole">      0.00000000       0.00000000       1.22100131 </v>
    <i name="Tr[quadrupol]"> -11279.59651652 </i>
    <i name="Echarged">      0.00000000 </i>
    <i name="Edipol_quadrupol">      0.00000000 </i>
    <i name="Eion">      0.00000000 </i>
   </dipole>
   <energy>
    <i name="e_fr_energy">   -219.10975695 </i>
    <i name="e_wo_entrp">   -218.76079409 </i>
    <i name="e_0_energy">   -218.93527552 </i>
   </energy>
  </scstep>
  <scstep>
   <time name="diag">    2.01    2.01</time>
   <time name="diis">    5.36    5.37</time>
   <time name="orth">    0.52    0.52</time>
   <time name="total">    8.30    8.31</time>
   <dipole>
    <v name="dipole">      0.00000000       0.00000000       1.22775540 </v>
    <i name="Tr[quadrupol]"> -11279.64840852 </i>
    <i name="Echarged">      0.00000000 </i>
    <i name="Edipol_quadrupol">      0.00000000 </i>
    <i name="Eion">      0.00000000 </i>
   </dipole>
   <energy>
    <i name="e_fr_energy">   -219.11045967 </i>
    <i name="e_wo_entrp">   -218.76149215 </i>
    <i name="e_0_energy">   -218.93597591 </i>
   </energy>
  </scstep>
  <scstep>
   <time name="diag">    2.04    2.04</time>
   <time name="diis">    5.37    5.37</time>
   <time name="orth">    0.52    0.52</time>
   <time name="total">    8.36    8.37</time>
   <dipole>
    <v name="dipole">      0.00000000       0.00000000       1.23262356 </v>
    <i name="Tr[quadrupol]"> -11279.68348657 </i>
    <i name="Echarged">      0.00000000 </i>
    <i name="Edipol_quadrupol">      0.00000000 </i>
    <i name="Eion">      0.00000000 </i>
   </dipole>
   <energy>
    <i name="e_fr_energy">   -219.11071204 </i>
    <i name="e_wo_entrp">   -218.76168248 </i>
    <i name="e_0_energy">   -218.93619726 </i>
   </energy>
  </scstep>
  <scstep>
   <time name="diag">    2.00    2.01</time>
   <time name="diis">    5.29    5.36</time>
   <time name="orth">    0.52    0.52</time>
   <time name="total">    8.23    8.31</time>
   <dipole>
    <v name="dipole">      0.00000000       0.00000000       1.24256232 </v>
    <i name="Tr[quadrupol]"> -11279.73282945 </i>
    <i name="Echarged">      0.00000000 </i>
    <i name="Edipol_quadrupol">      0.00000000 </i>
    <i name="Eion">      0.00000000 </i>
   </dipole>
   <energy>
    <i name="e_fr_energy">   -219.11143613 </i>
    <i name="e_wo_entrp">   -218.76239475 </i>
    <i name="e_0_energy">   -218.93691544 </i>
   </energy>
  </scstep>
  <scstep>
   <time name="diag">    2.01    2.01</time>
   <time name="diis">    5.39    5.39</time>
   <time name="orth">    0.52    0.52</time>
   <time name="total">    8.33    8.34</time>
   <dipole>
    <v name="dipole">      0.00000000       0.00000000       1.24916861 </v>
    <i name="Tr[quadrupol]"> -11279.76689576 </i>
    <i name="Echarged">      0.00000000 </i>
    <i name="Edipol_quadrupol">      0.00000000 </i>
    <i name="Eion">      0.00000000 </i>
   </dipole>
   <energy>
    <i name="e_fr_energy">   -219.11186408 </i>
    <i name="e_wo_entrp">   -218.76273839 </i>
    <i name="e_0_energy">   -218.93730124 </i>
   </energy>
  </scstep>
  <scstep>
   <time name="diag">    2.01    2.01</time>
   <time name="diis">    5.43    5.44</time>
   <time name="orth">    0.52    0.52</time>
   <time name="total">    8.38    8.39</time>
   <dipole>
    <v name="dipole">      0.00000000       0.00000000       1.25631897 </v>
    <i name="Tr[quadrupol]"> -11279.80656119 </i>
    <i name="Echarged">      0.00000000 </i>
    <i name="Edipol_quadrupol">      0.00000000 </i>
    <i name="Eion">      0.00000000 </i>
   </dipole>
   <energy>
    <i name="e_fr_energy">   -219.11233936 </i>
    <i name="e_wo_entrp">   -218.76281790 </i>
    <i name="e_0_energy">   -218.93757863 </i>
   </energy>
  </scstep>
  <scstep>
   <time name="diag">    2.03    2.03</time>
   <time name="diis">    5.39    5.39</time>
   <time name="orth">    0.52    0.52</time>
   <time name="total">    8.36    8.37</time>
   <dipole>
    <v name="dipole">      0.00000000       0.00000000       1.26411999 </v>
    <i name="Tr[quadrupol]"> -11279.84472085 </i>
    <i name="Echarged">      0.00000000 </i>
    <i name="Edipol_quadrupol">      0.00000000 </i>
    <i name="Eion">      0.00000000 </i>
   </dipole>
   <energy>
    <i name="e_fr_energy">   -219.11277991 </i>
    <i name="e_wo_entrp">   -218.76331577 </i>
    <i name="e_0_energy">   -218.93804784 </i>
   </energy>
  </scstep>
  <scstep>
   <time name="diag">    1.77    2.49</time>
   <time name="diis">    5.29    5.29</time>
   <time name="orth">    0.52    0.52</time>
   <time name="total">    8.01    8.74</time>
   <dipole>
    <v name="dipole">      0.00000000       0.00000000       1.27180522 </v>
    <i name="Tr[quadrupol]"> -11279.87938666 </i>
    <i name="Echarged">      0.00000000 </i>
    <i name="Edipol_quadrupol">      0.00000000 </i>
    <i name="Eion">      0.00000000 </i>
   </dipole>
   <energy>
    <i name="e_fr_energy">   -219.11316960 </i>
    <i name="e_wo_entrp">   -218.76375421 </i>
    <i name="e_0_energy">   -218.93846191 </i>
   </energy>
  </scstep>
  <scstep>
   <time name="diag">    2.00    2.00</time>
   <time name="diis">    5.34    5.41</time>
   <time name="orth">    0.52    0.52</time>
   <time name="total">    8.27    8.35</time>
   <dipole>
    <v name="dipole">      0.00000000       0.00000000       1.28265843 </v>
    <i name="Tr[quadrupol]"> -11279.92362316 </i>
    <i name="Echarged">      0.00000000 </i>
    <i name="Edipol_quadrupol">      0.00000000 </i>
    <i name="Eion">      0.00000000 </i>
   </dipole>
   <energy>
    <i name="e_fr_energy">   -219.11362601 </i>
    <i name="e_wo_entrp">   -218.76431709 </i>
    <i name="e_0_energy">   -218.93897155 </i>
   </energy>
  </scstep>
  <scstep>
   <time name="diag">    2.01    2.01</time>
   <time name="diis">    5.13    5.13</time>
   <time name="orth">    0.51    0.51</time>
   <time name="total">    8.07    8.08</time>
   <dipole>
    <v name="dipole">      0.00000000       0.00000000       1.28929367 </v>
    <i name="Tr[quadrupol]"> -11279.94969258 </i>
    <i name="Echarged">      0.00000000 </i>
    <i name="Edipol_quadrupol">      0.00000000 </i>
    <i name="Eion">      0.00000000 </i>
   </dipole>
   <energy>
    <i name="e_fr_energy">   -219.11386846 </i>
    <i name="e_wo_entrp">   -218.76452187 </i>
    <i name="e_0_energy">   -218.93919517 </i>
   </energy>
  </scstep>
  <scstep>
   <time name="diag">    2.04    2.05</time>
   <time name="diis">    4.80    4.80</time>
   <time name="orth">    0.51    0.51</time>
   <time name="total">    7.78    7.79</time>
   <dipole>
    <v name="dipole">      0.00000000       0.00000000       1.29544542 </v>
    <i name="Tr[quadrupol]"> -11279.97321597 </i>
    <i name="Echarged">      0.00000000 </i>
    <i name="Edipol_quadrupol">      0.00000000 </i>
    <i name="Eion">      0.00000000 </i>
   </dipole>
   <energy>
    <i name="e_fr_energy">   -219.11404891 </i>
    <i name="e_wo_entrp">   -218.76469145 </i>
    <i name="e_0_energy">   -218.93937018 </i>
   </energy>
  </scstep>
  <scstep>
   <time name="diag">    2.00    2.00</time>
   <time name="diis">    4.46    4.46</time>
   <time name="orth">    0.51    0.51</time>
   <time name="total">    7.39    7.40</time>
   <dipole>
    <v name="dipole">      0.00000000       0.00000000       1.30051311 </v>
    <i name="Tr[quadrupol]"> -11279.99165678 </i>
    <i name="Echarged">      0.00000000 </i>
    <i name="Edipol_quadrupol">      0.00000000 </i>
    <i name="Eion">      0.00000000 </i>
   </dipole>
   <energy>
    <i name="e_fr_energy">   -219.11415511 </i>
    <i name="e_wo_entrp">   -218.76474677 </i>
    <i name="e_0_energy">   -218.93945094 </i>
   </energy>
  </scstep>
  <scstep>
   <time name="diag">    1.99    1.99</time>
   <time name="diis">    4.08    4.08</time>
   <time name="orth">    0.51    0.51</time>
   <time name="total">    6.99    7.00</time>
   <dipole>
    <v name="dipole">      0.00000000       0.00000000       1.30550948 </v>
    <i name="Tr[quadrupol]"> -11280.00778554 </i>
    <i name="Echarged">      0.00000000 </i>
    <i name="Edipol_quadrupol">      0.00000000 </i>
    <i name="Eion">      0.00000000 </i>
   </dipole>
   <energy>
    <i name="e_fr_energy">   -219.11423226 </i>
    <i name="e_wo_entrp">   -218.76482469 </i>
    <i name="e_0_energy">   -218.93952848 </i>
   </energy>
  </scstep>
  <scstep>
   <time name="diag">    2.00    2.00</time>
   <time name="diis">    3.47    3.47</time>
   <time name="orth">    0.51    0.51</time>
   <time name="total">    6.39    6.39</time>
   <dipole>
    <v name="dipole">      0.00000000       0.00000000       1.30805384 </v>
    <i name="Tr[quadrupol]"> -11280.01489052 </i>
    <i name="Echarged">      0.00000000 </i>
    <i name="Edipol_quadrupol">      0.00000000 </i>
    <i name="Eion">      0.00000000 </i>
   </dipole>
   <energy>
    <i name="e_fr_energy">   -219.11426969 </i>
    <i name="e_wo_entrp">   -218.76484504 </i>
    <i name="e_0_energy">   -218.93955737 </i>
   </energy>
  </scstep>
  <scstep>
   <time name="diag">    1.98    2.04</time>
   <time name="diis">    3.29    3.29</time>
   <time name="orth">    0.50    0.50</time>
   <time name="total">    6.20    6.27</time>
   <dipole>
    <v name="dipole">      0.00000000       0.00000000       1.31132535 </v>
    <i name="Tr[quadrupol]"> -11280.02252648 </i>
    <i name="Echarged">      0.00000000 </i>
    <i name="Edipol_quadrupol">      0.00000000 </i>
    <i name="Eion">      0.00000000 </i>
   </dipole>
   <energy>
    <i name="e_fr_energy">   -219.11432232 </i>
    <i name="e_wo_entrp">   -218.76490050 </i>
    <i name="e_0_energy">   -218.93961141 </i>
   </energy>
  </scstep>
  <scstep>
   <time name="diag">    1.87    2.30</time>
   <time name="diis">    3.09    3.32</time>
   <time name="orth">    0.51    0.51</time>
   <time name="total">    5.90    6.57</time>
   <dipole>
    <v name="dipole">      0.00000000       0.00000000       1.31416118 </v>
    <i name="Tr[quadrupol]"> -11280.02852267 </i>
    <i name="Echarged">      0.00000000 </i>
    <i name="Edipol_quadrupol">      0.00000000 </i>
    <i name="Eion">      0.00000000 </i>
   </dipole>
   <energy>
    <i name="e_fr_energy">   -219.11436633 </i>
    <i name="e_wo_entrp">   -218.76493483 </i>
    <i name="e_0_energy">   -218.93965058 </i>
   </energy>
  </scstep>
  <scstep>
   <time name="diag">    1.98    1.99</time>
   <time name="diis">    3.30    3.30</time>
   <time name="orth">    0.51    0.51</time>
   <time name="total">    6.21    6.21</time>
   <dipole>
    <v name="dipole">      0.00000000       0.00000000       1.31711586 </v>
    <i name="Tr[quadrupol]"> -11280.03420439 </i>
    <i name="Echarged">      0.00000000 </i>
    <i name="Edipol_quadrupol">      0.00000000 </i>
    <i name="Eion">      0.00000000 </i>
   </dipole>
   <energy>
    <i name="e_fr_energy">   -219.11440681 </i>
    <i name="e_wo_entrp">   -218.76498042 </i>
    <i name="e_0_energy">   -218.93969361 </i>
   </energy>
  </scstep>
  <scstep>
   <time name="diag">    2.00    2.00</time>
   <time name="diis">    3.27    3.27</time>
   <time name="orth">    0.51    0.51</time>
   <time name="total">    6.19    6.20</time>
   <dipole>
    <v name="dipole">      0.00000000       0.00000000       1.32001981 </v>
    <i name="Tr[quadrupol]"> -11280.03936710 </i>
    <i name="Echarged">      0.00000000 </i>
    <i name="Edipol_quadrupol">      0.00000000 </i>
    <i name="Eion">      0.00000000 </i>
   </dipole>
   <energy>
    <i name="e_fr_energy">   -219.11443762 </i>
    <i name="e_wo_entrp">   -218.76499816 </i>
    <i name="e_0_energy">   -218.93971789 </i>
   </energy>
  </scstep>
  <scstep>
   <time name="diag">    2.02    2.02</time>
   <time name="diis">    3.17    3.17</time>
   <time name="orth">    0.51    0.51</time>
   <time name="total">    6.12    6.12</time>
   <dipole>
    <v name="dipole">      0.00000000       0.00000000       1.32130310 </v>
    <i name="Tr[quadrupol]"> -11280.04145026 </i>
    <i name="Echarged">      0.00000000 </i>
    <i name="Edipol_quadrupol">      0.00000000 </i>
    <i name="Eion">      0.00000000 </i>
   </dipole>
   <energy>
    <i name="e_fr_energy">   -219.11444812 </i>
    <i name="e_wo_entrp">   -218.76500622 </i>
    <i name="e_0_energy">   -218.93972717 </i>
   </energy>
  </scstep>
  <scstep>
   <time name="diag">    2.01    2.02</time>
   <time name="diis">    3.15    3.15</time>
   <time name="orth">    0.50    0.50</time>
   <time name="total">    6.10    6.11</time>
   <dipole>
    <v name="dipole">      0.00000000       0.00000000       1.32253343 </v>
    <i name="Tr[quadrupol]"> -11280.04297694 </i>
    <i name="Echarged">      0.00000000 </i>
    <i name="Edipol_quadrupol">      0.00000000 </i>
    <i name="Eion">      0.00000000 </i>
   </dipole>
   <energy>
    <i name="e_fr_energy">   -219.11445799 </i>
    <i name="e_wo_entrp">   -218.76501256 </i>
    <i name="e_0_energy">   -218.93973528 </i>
   </energy>
  </scstep>
  <scstep>
   <time name="diag">    1.98    1.98</time>
   <time name="diis">    2.66    2.73</time>
   <time name="orth">    0.51    0.51</time>
   <time name="total">    5.57    5.65</time>
   <dipole>
    <v name="dipole">      0.00000000       0.00000000       1.32326765 </v>
    <i name="Tr[quadrupol]"> -11280.04385817 </i>
    <i name="Echarged">      0.00000000 </i>
    <i name="Edipol_quadrupol">      0.00000000 </i>
    <i name="Eion">      0.00000000 </i>
   </dipole>
   <energy>
    <i name="e_fr_energy">   -219.11446264 </i>
    <i name="e_wo_entrp">   -218.76501300 </i>
    <i name="e_0_energy">   -218.93973782 </i>
   </energy>
  </scstep>
  <scstep>
   <time name="diag">    1.99    1.99</time>
   <time name="diis">    2.66    2.66</time>
   <time name="orth">    0.50    0.50</time>
   <time name="total">    5.58    5.58</time>
   <dipole>
    <v name="dipole">      0.00000000       0.00000000       1.32352382 </v>
    <i name="Tr[quadrupol]"> -11280.04393915 </i>
    <i name="Echarged">      0.00000000 </i>
    <i name="Edipol_quadrupol">      0.00000000 </i>
    <i name="Eion">      0.00000000 </i>
   </dipole>
   <energy>
    <i name="e_fr_energy">   -219.11446490 </i>
    <i name="e_wo_entrp">   -218.76501508 </i>
    <i name="e_0_energy">   -218.93973999 </i>
   </energy>
  </scstep>
  <scstep>
   <time name="diag">    2.01    2.01</time>
   <time name="diis">    2.56    2.56</time>
   <time name="orth">    0.50    0.50</time>
   <time name="total">    5.50    5.50</time>
   <dipole>
    <v name="dipole">      0.00000000       0.00000000       1.32366728 </v>
    <i name="Tr[quadrupol]"> -11280.04388560 </i>
    <i name="Echarged">      0.00000000 </i>
    <i name="Edipol_quadrupol">      0.00000000 </i>
    <i name="Eion">      0.00000000 </i>
   </dipole>
   <energy>
    <i name="e_fr_energy">   -219.11446636 </i>
    <i name="e_wo_entrp">   -218.76501768 </i>
    <i name="e_0_energy">   -218.93974202 </i>
   </energy>
  </scstep>
  <scstep>
   <time name="diag">    1.99    1.99</time>
   <time name="diis">    2.47    2.47</time>
   <time name="orth">    0.50    0.50</time>
   <time name="total">    5.02    5.02</time>
   <dipole>
    <v name="dipole">      0.00000000       0.00000000       1.32375350 </v>
    <i name="Tr[quadrupol]"> -11280.04378648 </i>
    <i name="Echarged">      0.00000000 </i>
    <i name="Edipol_quadrupol">      0.00000000 </i>
    <i name="Eion">      0.00000000 </i>
   </dipole>
   <energy>
    <i name="alphaZ">    886.14307144 </i>
    <i name="ewald"> 255842.14195760 </i>
    <i name="hartreedc">-300855.50039191 </i>
    <i name="XCdc">   -123.95457425 </i>
    <i name="pawpsdc">  52907.84391366 </i>
    <i name="pawaedc"> -51005.93323480 </i>
    <i name="eentropy">     -0.34944806 </i>
    <i name="bandstr">  -2987.39720149 </i>
    <i name="atom">  45117.89144060 </i>
    <i name="e_fr_energy">   -219.11446721 </i>
    <i name="e_wo_entrp">   -218.76501915 </i>
    <i name="e_0_energy">   -218.93974318 </i>
   </energy>
  </scstep>
  <structure>
   <crystal>
    <varray name="basis" >
     <v>      11.00258152       0.00000000       0.00000000 </v>
     <v>       5.50129076       9.52851510       0.00000000 </v>
     <v>       0.00000000       0.00000000      26.19178509 </v>
    </varray>
    <i name="volume">   2745.90128299 </i>
    <varray name="rec_basis" >
     <v>       0.09088776      -0.05247407       0.00000000 </v>
     <v>       0.00000000       0.10494815       0.00000000 </v>
     <v>       0.00000000       0.00000000       0.03817991 </v>
    </varray>
   </crystal>
   <varray name="positions" >
    <v>       0.08333333       0.08333333       0.38179910 </v>
    <v>       0.50000000       0.75000000       0.55329505 </v>
    <v>       0.66666667       0.91666667       0.46754708 </v>
    <v>       0.00000000       0.00000000       0.55329505 </v>
    <v>       0.66666667       0.66666667       0.46754708 </v>
    <v>       0.08333333       0.33333333       0.38179910 </v>
    <v>       0.91666667       0.41666667       0.46754708 </v>
    <v>       0.00000000       0.25000000       0.55329505 </v>
    <v>       0.75000000       0.25000000       0.55329505 </v>
    <v>       0.08333333       0.58333333       0.38179910 </v>
    <v>       0.83333333       0.08333333       0.38179910 </v>
    <v>       0.25000000       0.50000000       0.55329505 </v>
    <v>       0.00000000       0.50000000       0.55329505 </v>
    <v>       0.41666667       0.66666667       0.46754708 </v>
    <v>       0.50000000       0.25000000       0.55329505 </v>
    <v>       0.58333333       0.33333333       0.38179910 </v>
    <v>       0.16666667       0.16666667       0.46754708 </v>
    <v>       0.50000000       0.00000000       0.55329505 </v>
    <v>       0.25000000       0.75000000       0.55329505 </v>
    <v>       0.16666667       0.41666667       0.46754708 </v>
    <v>       0.25000000       0.25000000       0.55329505 </v>
    <v>       0.16666667       0.91666667       0.46754708 </v>
    <v>       0.33333333       0.83333333       0.38179910 </v>
    <v>       0.16666667       0.66666667       0.46754708 </v>
    <v>       0.33333333       0.08333333       0.61820090 </v>
    <v>       0.08333333       0.58333333       0.61820090 </v>
    <v>       0.08333333       0.33333333       0.61820090 </v>
    <v>       0.33333333       0.33333333       0.61820090 </v>
    <v>       0.83333333       0.83333333       0.61820090 </v>
    <v>       0.58333333       0.58333333       0.61820090 </v>
    <v>       0.58333333       0.08333333       0.61820090 </v>
    <v>       0.58333333       0.83333333       0.61820090 </v>
    <v>       0.91666667       0.91666667       0.46754708 </v>
    <v>       0.33333333       0.08333333       0.38179910 </v>
    <v>       0.41666667       0.41666667       0.46754708 </v>
    <v>       0.75000000       0.75000000       0.55329505 </v>
    <v>       0.33333333       0.33333333       0.38179910 </v>
    <v>       0.58333333       0.58333333       0.38179910 </v>
    <v>       0.00000000       0.75000000       0.55329505 </v>
    <v>       0.50000000       0.50000000       0.55329505 </v>
    <v>       0.25000000       0.00000000       0.55329505 </v>
    <v>       0.41666667       0.91666667       0.46754708 </v>
    <v>       0.58333333       0.83333333       0.38179910 </v>
    <v>       0.08333333       0.83333333       0.38179910 </v>
    <v>       0.91666667       0.66666667       0.46754708 </v>
    <v>       0.66666667       0.16666667       0.46754708 </v>
    <v>       0.75000000       0.00000000       0.55329505 </v>
    <v>       0.83333333       0.33333333       0.38179910 </v>
    <v>       0.66666667       0.41666667       0.46754708 </v>
    <v>       0.83333333       0.58333333       0.38179910 </v>
    <v>       0.75000000       0.50000000       0.55329505 </v>
    <v>       0.83333333       0.83333333       0.38179910 </v>
    <v>       0.91666667       0.16666667       0.46754708 </v>
    <v>       0.33333333       0.58333333       0.38179910 </v>
    <v>       0.58333333       0.08333333       0.38179910 </v>
    <v>       0.41666667       0.16666667       0.46754708 </v>
   </varray>
  </structure>
  <varray name="forces" >
   <v>      -0.09053873       0.06109706      -1.57583004 </v>
   <v>      -0.39539802      -0.16905454       2.41164587 </v>
   <v>       0.21140806       0.15125050      -0.33599261 </v>
   <v>      -0.17037639      -0.05549667       1.20306334 </v>
   <v>       0.22759040      -0.08827618      -0.30937645 </v>
   <v>      -0.05142827       0.02704246      -1.79764020 </v>
   <v>      -0.68671800       0.40747443      -0.02030137 </v>
   <v>      -0.48453590      -0.28617761       2.10747093 </v>
   <v>      -0.02630121       0.16454306       0.95623340 </v>
   <v>      -0.04368635       0.32168775      -1.52725099 </v>
   <v>      -0.07279747      -0.17649207      -1.01014447 </v>
   <v>       0.65310968       0.49676619       2.46197393 </v>
   <v>      -0.73054467       0.70706153       2.38341924 </v>
   <v>       0.31858888      -0.57505990      -0.20911736 </v>
   <v>       0.76481727       0.24756258       2.01045237 </v>
   <v>      -0.15579887       0.18795904      -0.98623355 </v>
   <v>       0.43303577      -0.48201984      -0.03341714 </v>
   <v>      -0.11640741      -0.24163276       2.14206829 </v>
   <v>       0.01109485       0.13390260       1.63262299 </v>
   <v>       0.44779496      -0.19993564      -0.29462659 </v>
   <v>      -0.23576209      -0.46195764       2.19607191 </v>
   <v>      -0.11014324       0.28194558       0.15248867 </v>
   <v>       0.33273806      -0.10824662      -1.57072956 </v>
   <v>      -0.38322756       0.09630240      -0.03948744 </v>
   <v>      -0.93028733      -0.59422608      -1.83509802 </v>
   <v>       0.18452192       0.68751588      -2.14650270 </v>
   <v>      -0.73829297      -0.18001948      -1.71768618 </v>
   <v>       0.67147672       0.29625494      -1.54018361 </v>
   <v>       0.30438492       0.02104268      -3.12033525 </v>
   <v>      -0.03421082      -0.54887512      -2.81684368 </v>
   <v>       0.75053793       0.03038233      -2.06642665 </v>
   <v>       0.34144579      -0.33563439      -2.02761377 </v>
   <v>      -0.37750574      -0.06478891       0.38351933 </v>
   <v>       0.39372458      -0.06837903      -0.71742998 </v>
   <v>       0.20626449      -0.28524781       0.40168461 </v>
   <v>       0.20829090       0.08070348       2.80495136 </v>
   <v>       0.21680298      -0.24521842      -0.64249487 </v>
   <v>       0.16923976      -0.02442813      -0.79587253 </v>
   <v>      -0.29945793       0.15651297       2.60522377 </v>
   <v>       0.64804196      -0.02052041       1.67631292 </v>
   <v>       0.21651999       0.12534731       1.89326135 </v>
   <v>       0.30526487       0.20875611       0.04489416 </v>
   <v>       0.07981072       0.08190133      -0.76281795 </v>
   <v>      -0.19982017      -0.09811566      -0.83095262 </v>
   <v>      -0.18516874       0.37803296       0.20499350 </v>
   <v>      -0.19037989      -0.06040829       0.34856527 </v>
   <v>       0.13918074      -0.27785948       2.46023348 </v>
   <v>      -0.04486571       0.25795447      -0.65838664 </v>
   <v>      -0.05215425      -0.12845452      -0.14364765 </v>
   <v>      -0.18541934       0.18967560      -0.79407854 </v>
   <v>      -0.66868070       0.15493174       1.81030252 </v>
   <v>      -0.11464706      -0.06006963      -0.56128460 </v>
   <v>      -0.32849428       0.16021960       0.13493634 </v>
   <v>       0.03176727      -0.10951810      -0.76244504 </v>
   <v>      -0.30611886      -0.04239063      -0.52178775 </v>
   <v>       0.14171449      -0.12532300      -0.25435376 </v>
  </varray>
  <energy>
   <i name="e_fr_energy">   -219.11446721 </i>
   <i name="e_wo_entrp">   -218.93974318 </i>
   <i name="e_0_energy">     -0.34944806 </i>
  </energy>
  <time name="totalsc">  403.93  408.78</time>
 </calculation>
 <calculation>
  <scstep>
   <time name="dav">   11.68   12.39</time>
   <time name="total">   12.10   12.82</time>
   <dipole>
    <v name="dipole">      0.00000000       0.00000000       1.32379863 </v>
    <i name="Tr[quadrupol]"> -11269.11621709 </i>
    <i name="Echarged">      0.00000000 </i>
    <i name="Edipol_quadrupol">      0.00000000 </i>
    <i name="Eion">      0.00000000 </i>
   </dipole>
   <energy>
    <i name="alphaZ">    885.42902027 </i>
    <i name="ewald"> 254786.57178299 </i>
    <i name="hartreedc">-299792.95022965 </i>
    <i name="XCdc">   -123.88827532 </i>
    <i name="pawpsdc">  52907.84346685 </i>
    <i name="pawaedc"> -51005.93279664 </i>
    <i name="eentropy">     -0.32977745 </i>
    <i name="bandstr">  -2995.69312128 </i>
    <i name="atom">  45117.89144060 </i>
    <i name="e_fr_energy">   -221.05848963 </i>
    <i name="e_wo_entrp">   -220.72871218 </i>
    <i name="e_0_energy">   -220.89360090 </i>
   </energy>
  </scstep>
  <scstep>
   <time name="diag">    1.99    1.99</time>
   <time name="diis">    5.20    5.27</time>
   <time name="orth">    0.51    0.51</time>
   <time name="total">    8.10    8.18</time>
   <dipole>
    <v name="dipole">      0.00000000       0.00000000       0.81459118 </v>
    <i name="Tr[quadrupol]"> -11268.66360107 </i>
    <i name="Echarged">      0.00000000 </i>
    <i name="Edipol_quadrupol">      0.00000000 </i>
    <i name="Eion">      0.00000000 </i>
   </dipole>
   <energy>
    <i name="e_fr_energy">   -227.49863086 </i>
    <i name="e_wo_entrp">   -227.10837233 </i>
    <i name="e_0_energy">   -227.30350159 </i>
   </energy>
  </scstep>
  <scstep>
   <time name="diag">    1.99    1.99</time>
   <time name="diis">    5.31    5.32</time>
   <time name="orth">    0.50    0.50</time>
   <time name="total">    8.22    8.23</time>
   <dipole>
    <v name="dipole">      0.00000000       0.00000000       1.24672728 </v>
    <i name="Tr[quadrupol]"> -11268.99732281 </i>
    <i name="Echarged">      0.00000000 </i>
    <i name="Edipol_quadrupol">      0.00000000 </i>
    <i name="Eion">      0.00000000 </i>
   </dipole>
   <energy>
    <i name="e_fr_energy">   -223.23006845 </i>
    <i name="e_wo_entrp">   -222.92411912 </i>
    <i name="e_0_energy">   -223.07709379 </i>
   </energy>
  </scstep>
  <scstep>
   <time name="diag">    2.02    2.02</time>
   <time name="diis">    5.28    5.28</time>
   <time name="orth">    0.50    0.50</time>
   <time name="total">    8.22    8.22</time>
   <dipole>
    <v name="dipole">      0.00000000       0.00000000       1.05180731 </v>
    <i name="Tr[quadrupol]"> -11269.21897733 </i>
    <i name="Echarged">      0.00000000 </i>
    <i name="Edipol_quadrupol">      0.00000000 </i>
    <i name="Eion">      0.00000000 </i>
   </dipole>
   <energy>
    <i name="e_fr_energy">   -223.83608651 </i>
    <i name="e_wo_entrp">   -223.52479294 </i>
    <i name="e_0_energy">   -223.68043973 </i>
   </energy>
  </scstep>
  <scstep>
   <time name="diag">    2.02    2.02</time>
   <time name="diis">    5.24    5.24</time>
   <time name="orth">    0.50    0.50</time>
   <time name="total">    8.19    8.19</time>
   <dipole>
    <v name="dipole">      0.00000000       0.00000000       1.00528359 </v>
    <i name="Tr[quadrupol]"> -11269.44913210 </i>
    <i name="Echarged">      0.00000000 </i>
    <i name="Edipol_quadrupol">      0.00000000 </i>
    <i name="Eion">      0.00000000 </i>
   </dipole>
   <energy>
    <i name="e_fr_energy">   -223.56114288 </i>
    <i name="e_wo_entrp">   -223.19698186 </i>
    <i name="e_0_energy">   -223.37906237 </i>
   </energy>
  </scstep>
  <scstep>
   <time name="diag">    1.99    1.99</time>
   <time name="diis">    5.34    5.35</time>
   <time name="orth">    0.50    0.50</time>
   <time name="total">    8.24    8.25</time>
   <dipole>
    <v name="dipole">      0.00000000       0.00000000       1.03105346 </v>
    <i name="Tr[quadrupol]"> -11269.47075821 </i>
    <i name="Echarged">      0.00000000 </i>
    <i name="Edipol_quadrupol">      0.00000000 </i>
    <i name="Eion">      0.00000000 </i>
   </dipole>
   <energy>
    <i name="e_fr_energy">   -223.23576885 </i>
    <i name="e_wo_entrp">   -222.89295291 </i>
    <i name="e_0_energy">   -223.06436088 </i>
   </energy>
  </scstep>
  <scstep>
   <time name="diag">    1.98    1.98</time>
   <time name="diis">    5.22    5.30</time>
   <time name="orth">    0.50    0.50</time>
   <time name="total">    8.11    8.19</time>
   <dipole>
    <v name="dipole">      0.00000000       0.00000000       1.10054723 </v>
    <i name="Tr[quadrupol]"> -11269.60377235 </i>
    <i name="Echarged">      0.00000000 </i>
    <i name="Edipol_quadrupol">      0.00000000 </i>
    <i name="Eion">      0.00000000 </i>
   </dipole>
   <energy>
    <i name="e_fr_energy">   -222.85968528 </i>
    <i name="e_wo_entrp">   -222.51751915 </i>
    <i name="e_0_energy">   -222.68860221 </i>
   </energy>
  </scstep>
  <scstep>
   <time name="diag">    2.02    2.02</time>
   <time name="diis">    4.90    5.56</time>
   <time name="orth">    0.50    0.50</time>
   <time name="total">    7.83    8.49</time>
   <dipole>
    <v name="dipole">      0.00000000       0.00000000       1.12887969 </v>
    <i name="Tr[quadrupol]"> -11269.70204183 </i>
    <i name="Echarged">      0.00000000 </i>
    <i name="Edipol_quadrupol">      0.00000000 </i>
    <i name="Eion">      0.00000000 </i>
   </dipole>
   <energy>
    <i name="e_fr_energy">   -222.69393398 </i>
    <i name="e_wo_entrp">   -222.34302452 </i>
    <i name="e_0_energy">   -222.51847925 </i>
   </energy>
  </scstep>
  <scstep>
   <time name="diag">    2.02    2.02</time>
   <time name="diis">    5.29    5.30</time>
   <time name="orth">    0.49    0.49</time>
   <time name="total">    8.23    8.24</time>
   <dipole>
    <v name="dipole">      0.00000000       0.00000000       1.13154023 </v>
    <i name="Tr[quadrupol]"> -11269.72430215 </i>
    <i name="Echarged">      0.00000000 </i>
    <i name="Edipol_quadrupol">      0.00000000 </i>
    <i name="Eion">      0.00000000 </i>
   </dipole>
   <energy>
    <i name="e_fr_energy">   -222.66850659 </i>
    <i name="e_wo_entrp">   -222.32645184 </i>
    <i name="e_0_energy">   -222.49747922 </i>
   </energy>
  </scstep>
  <scstep>
   <time name="diag">    1.98    1.98</time>
   <time name="diis">    5.30    5.31</time>
   <time name="orth">    0.49    0.49</time>
   <time name="total">    8.18    8.19</time>
   <dipole>
    <v name="dipole">      0.00000000       0.00000000       1.13281504 </v>
    <i name="Tr[quadrupol]"> -11269.75734833 </i>
    <i name="Echarged">      0.00000000 </i>
    <i name="Edipol_quadrupol">      0.00000000 </i>
    <i name="Eion">      0.00000000 </i>
   </dipole>
   <energy>
    <i name="e_fr_energy">   -222.66311061 </i>
    <i name="e_wo_entrp">   -222.31841018 </i>
    <i name="e_0_energy">   -222.49076040 </i>
   </energy>
  </scstep>
  <scstep>
   <time name="diag">    1.97    1.97</time>
   <time name="diis">    5.30    5.30</time>
   <time name="orth">    0.49    0.49</time>
   <time name="total">    8.17    8.18</time>
   <dipole>
    <v name="dipole">      0.00000000       0.00000000       1.12833546 </v>
    <i name="Tr[quadrupol]"> -11269.77243268 </i>
    <i name="Echarged">      0.00000000 </i>
    <i name="Edipol_quadrupol">      0.00000000 </i>
    <i name="Eion">      0.00000000 </i>
   </dipole>
   <energy>
    <i name="e_fr_energy">   -222.66237317 </i>
    <i name="e_wo_entrp">   -222.31829035 </i>
    <i name="e_0_energy">   -222.49033176 </i>
   </energy>
  </scstep>
  <scstep>
   <time name="diag">    2.00    2.02</time>
   <time name="diis">    5.20    5.26</time>
   <time name="orth">    0.49    0.49</time>
   <time name="total">    8.11    8.18</time>
   <dipole>
    <v name="dipole">      0.00000000       0.00000000       1.13409256 </v>
    <i name="Tr[quadrupol]"> -11269.80914571 </i>
    <i name="Echarged">      0.00000000 </i>
    <i name="Edipol_quadrupol">      0.00000000 </i>
    <i name="Eion">      0.00000000 </i>
   </dipole>
   <energy>
    <i name="e_fr_energy">   -222.66228326 </i>
    <i name="e_wo_entrp">   -222.31542252 </i>
    <i name="e_0_energy">   -222.48885289 </i>
   </energy>
  </scstep>
  <scstep>
   <time name="diag">    2.01    2.01</time>
   <time name="diis">    5.32    5.32</time>
   <time name="orth">    0.49    0.49</time>
   <time name="total">    8.24    8.25</time>
   <dipole>
    <v name="dipole">      0.00000000       0.00000000       1.13285939 </v>
    <i name="Tr[quadrupol]"> -11269.80531661 </i>
    <i name="Echarged">      0.00000000 </i>
    <i name="Edipol_quadrupol">      0.00000000 </i>
    <i name="Eion">      0.00000000 </i>
   </dipole>
   <energy>
    <i name="e_fr_energy">   -222.65718312 </i>
    <i name="e_wo_entrp">   -222.31268241 </i>
    <i name="e_0_energy">   -222.48493277 </i>
   </energy>
  </scstep>
  <scstep>
   <time name="diag">    1.97    1.98</time>
   <time name="diis">    5.25    5.25</time>
   <time name="orth">    0.49    0.49</time>
   <time name="total">    8.13    8.14</time>
   <dipole>
    <v name="dipole">      0.00000000       0.00000000       1.13363090 </v>
    <i name="Tr[quadrupol]"> -11269.80968406 </i>
    <i name="Echarged">      0.00000000 </i>
    <i name="Edipol_quadrupol">      0.00000000 </i>
    <i name="Eion">      0.00000000 </i>
   </dipole>
   <energy>
    <i name="e_fr_energy">   -222.65661636 </i>
    <i name="e_wo_entrp">   -222.31177970 </i>
    <i name="e_0_energy">   -222.48419803 </i>
   </energy>
  </scstep>
  <scstep>
   <time name="diag">    1.97    1.97</time>
   <time name="diis">    4.94    5.54</time>
   <time name="orth">    0.49    0.49</time>
   <time name="total">    7.81    8.42</time>
   <dipole>
    <v name="dipole">      0.00000000       0.00000000       1.13439940 </v>
    <i name="Tr[quadrupol]"> -11269.81541981 </i>
    <i name="Echarged">      0.00000000 </i>
    <i name="Edipol_quadrupol">      0.00000000 </i>
    <i name="Eion">      0.00000000 </i>
   </dipole>
   <energy>
    <i name="e_fr_energy">   -222.65594379 </i>
    <i name="e_wo_entrp">   -222.31155768 </i>
    <i name="e_0_energy">   -222.48375074 </i>
   </energy>
  </scstep>
  <scstep>
   <time name="diag">    2.01    2.01</time>
   <time name="diis">    5.36    5.36</time>
   <time name="orth">    0.49    0.49</time>
   <time name="total">    8.27    8.28</time>
   <dipole>
    <v name="dipole">      0.00000000       0.00000000       1.13470434 </v>
    <i name="Tr[quadrupol]"> -11269.82133388 </i>
    <i name="Echarged">      0.00000000 </i>
    <i name="Edipol_quadrupol">      0.00000000 </i>
    <i name="Eion">      0.00000000 </i>
   </dipole>
   <energy>
    <i name="e_fr_energy">   -222.65567724 </i>
    <i name="e_wo_entrp">   -222.31166545 </i>
    <i name="e_0_energy">   -222.48367134 </i>
   </energy>
  </scstep>
  <scstep>
   <time name="diag">    2.01    2.01</time>
   <time name="diis">    5.18    5.25</time>
   <time name="orth">    0.49    0.49</time>
   <time name="total">    8.10    8.18</time>
   <dipole>
    <v name="dipole">      0.00000000       0.00000000       1.13575978 </v>
    <i name="Tr[quadrupol]"> -11269.83022155 </i>
    <i name="Echarged">      0.00000000 </i>
    <i name="Edipol_quadrupol">      0.00000000 </i>
    <i name="Eion">      0.00000000 </i>
   </dipole>
   <energy>
    <i name="e_fr_energy">   -222.65554830 </i>
    <i name="e_wo_entrp">   -222.31212628 </i>
    <i name="e_0_energy">   -222.48383729 </i>
   </energy>
  </scstep>
  <scstep>
   <time name="diag">    1.97    1.97</time>
   <time name="diis">    5.34    5.35</time>
   <time name="orth">    0.49    0.49</time>
   <time name="total">    8.21    8.23</time>
   <dipole>
    <v name="dipole">      0.00000000       0.00000000       1.13592579 </v>
    <i name="Tr[quadrupol]"> -11269.83898700 </i>
    <i name="Echarged">      0.00000000 </i>
    <i name="Edipol_quadrupol">      0.00000000 </i>
    <i name="Eion">      0.00000000 </i>
   </dipole>
   <energy>
    <i name="e_fr_energy">   -222.65554993 </i>
    <i name="e_wo_entrp">   -222.31262697 </i>
    <i name="e_0_energy">   -222.48408845 </i>
   </energy>
  </scstep>
  <scstep>
   <time name="diag">    1.97    1.97</time>
   <time name="diis">    5.36    5.36</time>
   <time name="orth">    0.49    0.49</time>
   <time name="total">    8.23    8.24</time>
   <dipole>
    <v name="dipole">      0.00000000       0.00000000       1.13582645 </v>
    <i name="Tr[quadrupol]"> -11269.84637715 </i>
    <i name="Echarged">      0.00000000 </i>
    <i name="Edipol_quadrupol">      0.00000000 </i>
    <i name="Eion">      0.00000000 </i>
   </dipole>
   <energy>
    <i name="e_fr_energy">   -222.65557312 </i>
    <i name="e_wo_entrp">   -222.31256468 </i>
    <i name="e_0_energy">   -222.48406890 </i>
   </energy>
  </scstep>
  <scstep>
   <time name="diag">    2.01    2.01</time>
   <time name="diis">    5.40    5.40</time>
   <time name="orth">    0.49    0.49</time>
   <time name="total">    8.32    8.33</time>
   <dipole>
    <v name="dipole">      0.00000000       0.00000000       1.13489111 </v>
    <i name="Tr[quadrupol]"> -11269.85327310 </i>
    <i name="Echarged">      0.00000000 </i>
    <i name="Edipol_quadrupol">      0.00000000 </i>
    <i name="Eion">      0.00000000 </i>
   </dipole>
   <energy>
    <i name="e_fr_energy">   -222.65564826 </i>
    <i name="e_wo_entrp">   -222.31284383 </i>
    <i name="e_0_energy">   -222.48424604 </i>
   </energy>
  </scstep>
  <scstep>
   <time name="diag">    2.01    2.01</time>
   <time name="diis">    5.01    5.01</time>
   <time name="orth">    0.49    0.49</time>
   <time name="total">    7.93    7.94</time>
   <dipole>
    <v name="dipole">      0.00000000       0.00000000       1.13465814 </v>
    <i name="Tr[quadrupol]"> -11269.85883186 </i>
    <i name="Echarged">      0.00000000 </i>
    <i name="Edipol_quadrupol">      0.00000000 </i>
    <i name="Eion">      0.00000000 </i>
   </dipole>
[...]
       <r>   -19.4683    14.5310    12.4514 </r>
       <r>   -19.3740    11.9103    13.5747 </r>
       <r>   -19.2797     8.9903    14.4226 </r>
       <r>   -19.1854    10.8783    15.4486 </r>
       <r>   -19.0911     5.2791    15.9464 </r>
       <r>   -18.9968     0.5563    15.9989 </r>
       <r>   -18.9025     0.0116    16.0000 </r>
       <r>   -18.8082     0.0000    16.0000 </r>
       <r>   -18.7138     0.0000    16.0000 </r>
       <r>   -18.6195     0.0000    16.0000 </r>
       <r>   -18.5252     0.0000    16.0000 </r>
       <r>   -18.4309     0.0000    16.0000 </r>
       <r>   -18.3366     0.0000    16.0000 </r>
       <r>   -18.2423     0.0000    16.0000 </r>
       <r>   -18.1480     0.0000    16.0000 </r>
       <r>   -18.0537     0.0000    16.0000 </r>
       <r>   -17.9594     0.0000    16.0000 </r>
       <r>   -17.8650     0.0000    16.0000 </r>
       <r>   -17.7707     0.0000    16.0000 </r>
       <r>   -17.6764     0.0000    16.0000 </r>
       <r>   -17.5821     0.0000    16.0000 </r>
       <r>   -17.4878     0.0000    16.0000 </r>
       <r>   -17.3935     0.0000    16.0000 </r>
       <r>   -17.2992     0.0000    16.0000 </r>
       <r>   -17.2049     0.0000    16.0000 </r>
       <r>   -17.1106     0.0000    16.0000 </r>
       <r>   -17.0162     0.0000    16.0000 </r>
       <r>   -16.9219     0.0000    16.0000 </r>
       <r>   -16.8276     0.0000    16.0000 </r>
       <r>   -16.7333     0.0000    16.0000 </r>
       <r>   -16.6390     0.0000    16.0000 </r>
       <r>   -16.5447     0.0000    16.0000 </r>
       <r>   -16.4504     0.0000    16.0000 </r>
       <r>   -16.3561     0.0000    16.0000 </r>
       <r>   -16.2617     0.0000    16.0000 </r>
       <r>   -16.1674     0.0000    16.0000 </r>
       <r>   -16.0731     0.0000    16.0000 </r>
       <r>   -15.9788     0.0000    16.0000 </r>
       <r>   -15.8845     0.0000    16.0000 </r>
       <r>   -15.7902     0.0000    16.0000 </r>
       <r>   -15.6959     0.0000    16.0000 </r>
       <r>   -15.6016     0.0000    16.0000 </r>
       <r>   -15.5073     0.0000    16.0000 </r>
       <r>   -15.4129     0.0000    16.0000 </r>
       <r>   -15.3186     0.0000    16.0000 </r>
       <r>   -15.2243     0.0000    16.0000 </r>
       <r>   -15.1300     0.0000    16.0000 </r>
       <r>   -15.0357     0.0000    16.0000 </r>
       <r>   -14.9414     0.0000    16.0000 </r>
       <r>   -14.8471     0.0000    16.0000 </r>
       <r>   -14.7528     0.0000    16.0000 </r>
       <r>   -14.6585     0.0000    16.0000 </r>
       <r>   -14.5641     0.0000    16.0000 </r>
       <r>   -14.4698     0.0000    16.0000 </r>
       <r>   -14.3755     0.0000    16.0000 </r>
       <r>   -14.2812     0.0000    16.0000 </r>
       <r>   -14.1869     0.0000    16.0000 </r>
       <r>   -14.0926     0.0000    16.0000 </r>
       <r>   -13.9983     0.0000    16.0000 </r>
       <r>   -13.9040     0.0000    16.0000 </r>
       <r>   -13.8096     0.0000    16.0000 </r>
       <r>   -13.7153     0.0000    16.0000 </r>
       <r>   -13.6210     0.0000    16.0000 </r>
       <r>   -13.5267     0.0000    16.0000 </r>
       <r>   -13.4324     0.0000    16.0000 </r>
       <r>   -13.3381     0.0000    16.0000 </r>
       <r>   -13.2438     0.0000    16.0000 </r>
       <r>   -13.1495     0.0000    16.0000 </r>
       <r>   -13.0552     0.0000    16.0000 </r>
       <r>   -12.9608     0.0000    16.0000 </r>
       <r>   -12.8665     0.0000    16.0000 </r>
       <r>   -12.7722     0.0000    16.0000 </r>
       <r>   -12.6779     0.0000    16.0000 </r>
       <r>   -12.5836     0.0000    16.0000 </r>
       <r>   -12.4893     0.0000    16.0000 </r>
       <r>   -12.3950     0.0000    16.0000 </r>
       <r>   -12.3007     0.0000    16.0000 </r>
       <r>   -12.2064     0.0000    16.0000 </r>
       <r>   -12.1120     0.0000    16.0000 </r>
       <r>   -12.0177     0.0000    16.0000 </r>
       <r>   -11.9234     0.0000    16.0000 </r>
       <r>   -11.8291     0.0000    16.0000 </r>
       <r>   -11.7348     0.0000    16.0000 </r>
       <r>   -11.6405     0.0000    16.0000 </r>
       <r>   -11.5462     0.0000    16.0000 </r>
       <r>   -11.4519     0.0000    16.0000 </r>
       <r>   -11.3575     0.0000    16.0000 </r>
       <r>   -11.2632     0.0000    16.0000 </r>
       <r>   -11.1689     0.0000    16.0000 </r>
       <r>   -11.0746     0.0000    16.0000 </r>
       <r>   -10.9803     0.0000    16.0000 </r>
       <r>   -10.8860     0.0000    16.0000 </r>
       <r>   -10.7917     0.0000    16.0000 </r>
       <r>   -10.6974     0.0000    16.0000 </r>
       <r>   -10.6031     0.0000    16.0000 </r>
       <r>   -10.5087     0.0000    16.0000 </r>
       <r>   -10.4144     0.0000    16.0000 </r>
       <r>   -10.3201     0.0000    16.0000 </r>
       <r>   -10.2258     0.0000    16.0000 </r>
       <r>   -10.1315     0.0000    16.0000 </r>
       <r>   -10.0372     0.0000    16.0000 </r>
       <r>    -9.9429     0.0000    16.0000 </r>
       <r>    -9.8486     0.0000    16.0000 </r>
       <r>    -9.7543     0.0000    16.0000 </r>
       <r>    -9.6599     0.0000    16.0000 </r>
       <r>    -9.5656     0.0000    16.0000 </r>
       <r>    -9.4713     0.0000    16.0000 </r>
       <r>    -9.3770     0.0000    16.0000 </r>
       <r>    -9.2827     0.0000    16.0000 </r>
       <r>    -9.1884     0.0008    16.0001 </r>
       <r>    -9.0941     0.0729    16.0070 </r>
       <r>    -8.9998     1.3186    16.1313 </r>
       <r>    -8.9054     5.4740    16.6476 </r>
       <r>    -8.8111     8.7933    17.4769 </r>
       <r>    -8.7168    12.6108    18.6662 </r>
       <r>    -8.6225    10.9779    19.7016 </r>
       <r>    -8.5282     4.0006    20.0789 </r>
       <r>    -8.4339     7.4043    20.7772 </r>
       <r>    -8.3396    13.6258    22.0622 </r>
       <r>    -8.2453    12.9606    23.2846 </r>
       <r>    -8.1510    13.6214    24.5692 </r>
       <r>    -8.0566    15.0202    25.9858 </r>
       <r>    -7.9623    16.2615    27.5195 </r>
       <r>    -7.8680    12.7795    28.7247 </r>
       <r>    -7.7737    15.3585    30.1732 </r>
       <r>    -7.6794    20.4492    32.1018 </r>
       <r>    -7.5851    27.1053    34.6581 </r>
       <r>    -7.4908    35.5759    38.0133 </r>
       <r>    -7.3965    36.2577    41.4329 </r>
       <r>    -7.3022    43.0565    45.4936 </r>
       <r>    -7.2078    45.0064    49.7382 </r>
       <r>    -7.1135    43.5490    53.8454 </r>
       <r>    -7.0192    49.0299    58.4695 </r>
       <r>    -6.9249    49.2469    63.1140 </r>
       <r>    -6.8306    48.4978    67.6879 </r>
       <r>    -6.7363    57.7782    73.1371 </r>
       <r>    -6.6420    67.5669    79.5094 </r>
       <r>    -6.5477    69.0763    86.0241 </r>
       <r>    -6.4533    74.3625    93.0373 </r>
       <r>    -6.3590    82.4137   100.8099 </r>
       <r>    -6.2647    82.4936   108.5900 </r>
       <r>    -6.1704    84.6568   116.5741 </r>
       <r>    -6.0761    87.4619   124.8228 </r>
       <r>    -5.9818    85.9231   132.9263 </r>
       <r>    -5.8875    82.6709   140.7231 </r>
       <r>    -5.7932    83.0501   148.5557 </r>
       <r>    -5.6989    81.8039   156.2708 </r>
       <r>    -5.6045    77.1677   163.5486 </r>
       <r>    -5.5102    75.3484   170.6548 </r>
       <r>    -5.4159    82.0285   178.3910 </r>
       <r>    -5.3216    86.2535   186.5257 </r>
       <r>    -5.2273    84.4383   194.4893 </r>
       <r>    -5.1330    81.3481   202.1613 </r>
       <r>    -5.0387    82.0836   209.9027 </r>
       <r>    -4.9444    87.8921   218.1920 </r>
       <r>    -4.8501    91.0975   226.7835 </r>
       <r>    -4.7557    92.1934   235.4784 </r>
       <r>    -4.6614    96.2730   244.5581 </r>
       <r>    -4.5671    94.6375   253.4835 </r>
       <r>    -4.4728    92.7030   262.2264 </r>
       <r>    -4.3785    95.2637   271.2109 </r>
       <r>    -4.2842    94.3807   280.1121 </r>
       <r>    -4.1899    93.8170   288.9601 </r>
       <r>    -4.0956    94.8009   297.9009 </r>
       <r>    -4.0012    94.8506   306.8464 </r>
       <r>    -3.9069    99.2784   316.2095 </r>
       <r>    -3.8126   104.5267   326.0676 </r>
       <r>    -3.7183   104.9145   335.9623 </r>
       <r>    -3.6240    98.6778   345.2687 </r>
       <r>    -3.5297    96.5648   354.3759 </r>
       <r>    -3.4354    99.6935   363.7781 </r>
       <r>    -3.3411    95.4583   372.7810 </r>
       <r>    -3.2468    92.1418   381.4710 </r>
       <r>    -3.1524    96.8465   390.6047 </r>
       <r>    -3.0581    99.8455   400.0213 </r>
       <r>    -2.9638    97.9882   409.2627 </r>
       <r>    -2.8695    90.4819   417.7962 </r>
       <r>    -2.7752    89.2073   426.2095 </r>
       <r>    -2.6809    91.0535   434.7969 </r>
       <r>    -2.5866    93.8569   443.6487 </r>
       <r>    -2.4923    99.4210   453.0252 </r>
       <r>    -2.3980    96.0793   462.0866 </r>
       <r>    -2.3036    90.3498   470.6076 </r>
       <r>    -2.2093    92.3983   479.3218 </r>
       <r>    -2.1150   102.6102   488.9992 </r>
       <r>    -2.0207   106.0825   499.0040 </r>
       <r>    -1.9264    99.4394   508.3823 </r>
       <r>    -1.8321    93.2491   517.1767 </r>
       <r>    -1.7378    89.5766   525.6248 </r>
       <r>    -1.6435    83.7010   533.5188 </r>
       <r>    -1.5491    73.8352   540.4823 </r>
       <r>    -1.4548    61.2193   546.2560 </r>
       <r>    -1.3605    48.9325   550.8709 </r>
       <r>    -1.2662    38.1806   554.4718 </r>
       <r>    -1.1719    31.1043   557.4053 </r>
       <r>    -1.0776    26.9708   559.9489 </r>
       <r>    -0.9833    22.0871   562.0320 </r>
       <r>    -0.8890    20.9629   564.0090 </r>
       <r>    -0.7947    22.5922   566.1397 </r>
       <r>    -0.7003    24.4894   568.4494 </r>
       <r>    -0.6060    25.2788   570.8334 </r>
       <r>    -0.5117    28.0553   573.4794 </r>
       <r>    -0.4174    27.0361   576.0292 </r>
       <r>    -0.3231    25.5509   578.4389 </r>
       <r>    -0.2288    22.2265   580.5352 </r>
       <r>    -0.1345    15.3464   581.9825 </r>
       <r>    -0.0402    10.7440   582.9958 </r>
       <r>     0.0541    10.8747   584.0214 </r>
       <r>     0.1485    13.3813   585.2834 </r>
       <r>     0.2428    12.4940   586.4617 </r>
       <r>     0.3371    11.4265   587.5394 </r>
       <r>     0.4314    14.6772   588.9236 </r>
       <r>     0.5257    14.3675   590.2786 </r>
       <r>     0.6200    14.6343   591.6588 </r>
       <r>     0.7143    14.7053   593.0457 </r>
       <r>     0.8086    14.5595   594.4188 </r>
       <r>     0.9029    15.9788   595.9258 </r>
       <r>     0.9973    15.9837   597.4332 </r>
       <r>     1.0916    16.9097   599.0280 </r>
       <r>     1.1859    16.2473   600.5603 </r>
       <r>     1.2802    14.5620   601.9337 </r>
       <r>     1.3745    13.3254   603.1904 </r>
       <r>     1.4688    10.2100   604.1534 </r>
       <r>     1.5631    10.0337   605.0997 </r>
       <r>     1.6574    13.3139   606.3553 </r>
       <r>     1.7518    16.3930   607.9014 </r>
       <r>     1.8461    16.2982   609.4385 </r>
       <r>     1.9404    16.4353   610.9885 </r>
       <r>     2.0347    16.2014   612.5165 </r>
       <r>     2.1290    17.2668   614.1449 </r>
       <r>     2.2233    18.1750   615.8590 </r>
       <r>     2.3176    18.4461   617.5987 </r>
       <r>     2.4119    17.3127   619.2315 </r>
       <r>     2.5062    16.2867   620.7675 </r>
       <r>     2.6006    14.9267   622.1753 </r>
       <r>     2.6949    14.5334   623.5460 </r>
       <r>     2.7892    12.7819   624.7514 </r>
       <r>     2.8835    12.9974   625.9772 </r>
       <r>     2.9778    11.2661   627.0398 </r>
       <r>     3.0721    10.2925   628.0105 </r>
       <r>     3.1664    13.1926   629.2547 </r>
       <r>     3.2607    16.0447   630.7679 </r>
       <r>     3.3550    16.8228   632.3545 </r>
       <r>     3.4494    18.3207   634.0823 </r>
       <r>     3.5437    21.5723   636.1168 </r>
       <r>     3.6380    20.2400   638.0257 </r>
       <r>     3.7323    16.4792   639.5799 </r>
       <r>     3.8266    18.4429   641.3192 </r>
       <r>     3.9209    21.0834   643.3077 </r>
       <r>     4.0152    19.9872   645.1927 </r>
       <r>     4.1095    21.0993   647.1826 </r>
       <r>     4.2039    20.6431   649.1295 </r>
       <r>     4.2982    16.3764   650.6740 </r>
       <r>     4.3925    14.6605   652.0566 </r>
       <r>     4.4868    19.9190   653.9352 </r>
       <r>     4.5811    24.4537   656.2415 </r>
       <r>     4.6754    24.6301   658.5644 </r>
       <r>     4.7697    25.3345   660.9537 </r>
       <r>     4.8640    26.6656   663.4686 </r>
       <r>     4.9583    27.4440   666.0569 </r>
       <r>     5.0527    27.3188   668.6333 </r>
       <r>     5.1470    22.4226   670.7480 </r>
       <r>     5.2413    11.0321   671.7885 </r>
       <r>     5.3356     2.1263   671.9890 </r>
       <r>     5.4299     0.1149   671.9999 </r>
       <r>     5.5242     0.0014   672.0000 </r>
       <r>     5.6185     0.0000   672.0000 </r>
       <r>     5.7128     0.0000   672.0000 </r>
       <r>     5.8071     0.0000   672.0000 </r>
       <r>     5.9015     0.0000   672.0000 </r>
       <r>     5.9958     0.0000   672.0000 </r>
       <r>     6.0901     0.0000   672.0000 </r>
       <r>     6.1844     0.0000   672.0000 </r>
       <r>     6.2787     0.0000   672.0000 </r>
       <r>     6.3730     0.0000   672.0000 </r>
       <r>     6.4673     0.0000   672.0000 </r>
      </set>
     </set>
    </array>
   </total>
  </dos>
 </calculation>
 <structure name="finalpos" >
  <crystal>
   <varray name="basis" >
    <v>      11.00258152       0.00000000       0.00000000 </v>
    <v>       5.50129076       9.52851510       0.00000000 </v>
    <v>       0.00000000       0.00000000      26.19178509 </v>
   </varray>
   <i name="volume">   2745.90128299 </i>
   <varray name="rec_basis" >
    <v>       0.09088776      -0.05247407       0.00000000 </v>
    <v>       0.00000000       0.10494815       0.00000000 </v>
    <v>       0.00000000       0.00000000       0.03817991 </v>
   </varray>
  </crystal>
  <varray name="positions" >
   <v>       0.08333333       0.08333333       0.38179910 </v>
   <v>       0.43515832       0.77728029       0.62640520 </v>
   <v>       0.66753709       0.91806680       0.47046884 </v>
   <v>      -0.00026650       0.00856712       0.56575943 </v>
   <v>       0.66276307       0.66741760       0.47435336 </v>
   <v>       0.08333333       0.33333333       0.38179910 </v>
   <v>       0.91566388       0.42083074       0.47684644 </v>
   <v>       0.02353546       0.25959767       0.56836383 </v>
   <v>       0.74129914       0.25316304       0.55935369 </v>
   <v>       0.08333333       0.58333333       0.38179910 </v>
   <v>       0.83333333       0.08333333       0.38179910 </v>
   <v>       0.26774207       0.50995562       0.60583184 </v>
   <v>      -0.02532543       0.50899118       0.62979410 </v>
   <v>       0.41631406       0.66604745       0.47239790 </v>
   <v>       0.51231943       0.27694178       0.60428870 </v>
   <v>       0.58333333       0.33333333       0.38179910 </v>
   <v>       0.16936717       0.17358170       0.47678923 </v>
   <v>       0.48668731       0.01826926       0.55569808 </v>
   <v>       0.24793804       0.74871885       0.56698178 </v>
   <v>       0.16693126       0.41934462       0.50693836 </v>
   <v>       0.29904352       0.15424347       0.63938969 </v>
   <v>       0.16423683       0.91867445       0.47379439 </v>
   <v>       0.33333333       0.83333333       0.38179910 </v>
   <v>       0.16532760       0.66076831       0.47488364 </v>
   <v>       0.27967211      -0.02015048       0.64150437 </v>
   <v>       0.06725886       0.62313597       0.63486198 </v>
   <v>      -0.11377511       0.39080837       0.62789324 </v>
   <v>       0.33686076       0.31290201       0.64773890 </v>
   <v>       0.83149273       0.82883085       0.60248866 </v>
   <v>       0.57253484       0.57313437       0.61431338 </v>
   <v>       0.60655119       0.07068982       0.61736836 </v>
   <v>       0.58375448       0.83577531       0.60686434 </v>
   <v>       0.91628081       0.91499731       0.47629406 </v>
   <v>       0.33333333       0.08333333       0.38179910 </v>
   <v>       0.41353445       0.41525112       0.47764312 </v>
   <v>       0.75028242       0.73358416       0.56195269 </v>
   <v>       0.33333333       0.33333333       0.38179910 </v>
   <v>       0.58333333       0.58333333       0.38179910 </v>
   <v>       0.01006106       0.73716656       0.56733381 </v>
   <v>       0.49255848       0.50384955       0.55925632 </v>
   <v>       0.24804590       0.00124058       0.56299019 </v>
   <v>       0.41606594       0.92124744       0.47184667 </v>
   <v>       0.58333333       0.83333333       0.38179910 </v>
   <v>       0.08333333       0.83333333       0.38179910 </v>
   <v>       0.91712392       0.66513765       0.47430640 </v>
   <v>       0.66209904       0.16858779       0.47256903 </v>
   <v>       0.75581091       0.00579730       0.56500095 </v>
   <v>       0.83333333       0.33333333       0.38179910 </v>
   <v>       0.66507618       0.41736407       0.47082107 </v>
   <v>       0.83333333       0.58333333       0.38179910 </v>
   <v>       0.74743526       0.49634679       0.56878819 </v>
   <v>       0.83333333       0.83333333       0.38179910 </v>
   <v>       0.91503760       0.16993736       0.47395637 </v>
   <v>       0.33333333       0.58333333       0.38179910 </v>
   <v>       0.58333333       0.08333333       0.38179910 </v>
   <v>       0.41128761       0.17840734       0.47199580 </v>
  </varray>
  <varray name="selective"  type="logical" >
   <v type="logical" >  F  F  F </v>
   <v type="logical" >  T  T  T </v>
   <v type="logical" >  T  T  T </v>
   <v type="logical" >  T  T  T </v>
   <v type="logical" >  T  T  T </v>
   <v type="logical" >  F  F  F </v>
   <v type="logical" >  T  T  T </v>
   <v type="logical" >  T  T  T </v>
   <v type="logical" >  T  T  T </v>
   <v type="logical" >  F  F  F </v>
   <v type="logical" >  F  F  F </v>
   <v type="logical" >  T  T  T </v>
   <v type="logical" >  T  T  T </v>
   <v type="logical" >  T  T  T </v>
   <v type="logical" >  T  T  T </v>
   <v type="logical" >  F  F  F </v>
   <v type="logical" >  T  T  T </v>
   <v type="logical" >  T  T  T </v>
   <v type="logical" >  T  T  T </v>
   <v type="logical" >  T  T  T </v>
   <v type="logical" >  T  T  T </v>
   <v type="logical" >  T  T  T </v>
   <v type="logical" >  F  F  F </v>
   <v type="logical" >  T  T  T </v>
   <v type="logical" >  T  T  T </v>
   <v type="logical" >  T  T  T </v>
   <v type="logical" >  T  T  T </v>
   <v type="logical" >  T  T  T </v>
   <v type="logical" >  T  T  T </v>
   <v type="logical" >  T  T  T </v>
   <v type="logical" >  T  T  T </v>
   <v type="logical" >  T  T  T </v>
   <v type="logical" >  T  T  T </v>
   <v type="logical" >  F  F  F </v>
   <v type="logical" >  T  T  T </v>
   <v type="logical" >  T  T  T </v>
   <v type="logical" >  F  F  F </v>
   <v type="logical" >  F  F  F </v>
   <v type="logical" >  T  T  T </v>
   <v type="logical" >  T  T  T </v>
   <v type="logical" >  T  T  T </v>
   <v type="logical" >  T  T  T </v>
   <v type="logical" >  F  F  F </v>
   <v type="logical" >  F  F  F </v>
   <v type="logical" >  T  T  T </v>
   <v type="logical" >  T  T  T </v>
   <v type="logical" >  T  T  T </v>
   <v type="logical" >  F  F  F </v>
   <v type="logical" >  T  T  T </v>
   <v type="logical" >  F  F  F </v>
   <v type="logical" >  T  T  T </v>
   <v type="logical" >  F  F  F </v>
   <v type="logical" >  T  T  T </v>
   <v type="logical" >  F  F  F </v>
   <v type="logical" >  F  F  F </v>
   <v type="logical" >  T  T  T </v>
  </varray>
  <nose>
   <v>      -3.00000000       0.00000000       0.00010000       0.00010000 </v>
  </nose>
 </structure>
</modeling>
