       N       E                     dE             d eps       ncg     rms          rms(c)
DAV:   1     0.320138508461E+04    0.32014E+04   -0.18981E+05  3672   0.112E+03
DAV:   2     0.152248643862E+02   -0.31862E+04   -0.29309E+04  4380   0.263E+02
DAV:   3    -0.200159203190E+03   -0.21538E+03   -0.20023E+03  4152   0.651E+01
DAV:   4    -0.205914096565E+03   -0.57549E+01   -0.56923E+01  4296   0.107E+01
DAV:   5    -0.206086004285E+03   -0.17191E+00   -0.17136E+00  4392   0.190E+00    0.625E+01
RMM:   6    -0.204728855153E+03    0.13571E+01   -0.94374E+01  3679   0.152E+01    0.589E+01
RMM:   7    -0.218434763181E+03   -0.13706E+02   -0.65117E+01  3682   0.126E+01    0.528E+01
RMM:   8    -0.223277832174E+03   -0.48431E+01   -0.90043E+01  3679   0.143E+01    0.472E+01
RMM:   9    -0.212844237385E+03    0.10434E+02   -0.64587E+01  3681   0.126E+01    0.364E+01
RMM:  10    -0.197059631207E+03    0.15785E+02   -0.26176E+01  3681   0.852E+00    0.214E+01
RMM:  11    -0.191319832547E+03    0.57398E+01   -0.13456E+01  3682   0.584E+00    0.121E+01
RMM:  12    -0.189181340552E+03    0.21385E+01   -0.55388E+00  3680   0.359E+00    0.972E+00
RMM:  13    -0.188675337127E+03    0.50600E+00   -0.14046E+00  3680   0.188E+00    0.621E+00
RMM:  14    -0.189016894523E+03   -0.34156E+00   -0.86823E-01  3680   0.143E+00    0.754E+00
RMM:  15    -0.188984674508E+03    0.32220E-01   -0.47933E-01  3680   0.109E+00    0.716E+00
RMM:  16    -0.188650218378E+03    0.33446E+00   -0.39317E-01  3680   0.988E-01    0.424E+00
RMM:  17    -0.188515904555E+03    0.13431E+00   -0.21171E-01  3680   0.701E-01    0.280E+00
RMM:  18    -0.188421972245E+03    0.93932E-01   -0.62797E-02  3681   0.372E-01    0.161E+00
RMM:  19    -0.188401990897E+03    0.19981E-01   -0.24662E-02  3681   0.236E-01    0.121E+00
RMM:  20    -0.188386956225E+03    0.15035E-01   -0.11321E-02  3681   0.154E-01    0.750E-01
RMM:  21    -0.188381772157E+03    0.51841E-02   -0.42517E-03  3681   0.926E-02    0.517E-01
RMM:  22    -0.188378964858E+03    0.28073E-02   -0.43015E-03  3680   0.937E-02    0.388E-01
RMM:  23    -0.188377649867E+03    0.13150E-02   -0.23532E-03  3682   0.687E-02    0.230E-01
RMM:  24    -0.188377443627E+03    0.20624E-03   -0.74138E-04  3684   0.409E-02    0.125E-01
RMM:  25    -0.188377466935E+03   -0.23308E-04   -0.35870E-04  3682   0.278E-02    0.632E-02
RMM:  26    -0.188377884738E+03   -0.41780E-03   -0.14610E-04  3681   0.164E-02    0.655E-02
RMM:  27    -0.188378189577E+03   -0.30484E-03   -0.65980E-05  3673   0.123E-02    0.446E-02
RMM:  28    -0.188378558487E+03   -0.36891E-03   -0.38886E-05  3672   0.928E-03    0.302E-02
RMM:  29    -0.188379130841E+03   -0.57235E-03   -0.36310E-05  3672   0.818E-03    0.224E-02
RMM:  30    -0.188379693171E+03   -0.56233E-03   -0.32509E-05  3647   0.748E-03    0.193E-02
RMM:  31    -0.188380429068E+03   -0.73590E-03   -0.40590E-05  3649   0.851E-03    0.151E-02
RMM:  32    -0.188380760693E+03   -0.33163E-03   -0.27553E-05  3533   0.697E-03    0.933E-03
RMM:  33    -0.188380912557E+03   -0.15186E-03   -0.97244E-06  2820   0.364E-03    0.682E-03
RMM:  34    -0.188380981664E+03   -0.69106E-04   -0.27154E-06  2428   0.214E-03    0.485E-03
RMM:  35    -0.188381062415E+03   -0.80752E-04   -0.17037E-06  2265   0.179E-03    0.265E-03
RMM:  36    -0.188381095396E+03   -0.32981E-04   -0.76947E-07  2156   0.117E-03    0.179E-03
RMM:  37    -0.188381118384E+03   -0.22988E-04   -0.38827E-07  2102   0.875E-04    0.132E-03
RMM:  38    -0.188381131857E+03   -0.13474E-04   -0.26756E-07  1719   0.731E-04    0.160E-03
RMM:  39    -0.188381139002E+03   -0.71442E-05   -0.21700E-07  1834   0.666E-04    0.925E-04
RMM:  40    -0.188381140389E+03   -0.13873E-05   -0.58562E-08  1063   0.367E-04    0.590E-04
RMM:  41    -0.188381141795E+03   -0.14059E-05   -0.28527E-08   727   0.342E-04    0.298E-04
RMM:  42    -0.188381142899E+03   -0.11046E-05   -0.47107E-08   874   0.394E-04    0.251E-04
RMM:  43    -0.188381143674E+03   -0.77498E-06   -0.18877E-08   646   0.366E-04
   1 F= -.18838114E+03 E0= -.18826060E+03  d E =-.188381E+03
       N       E                     dE             d eps       ncg     rms          rms(c)
DAV:   1    -0.189503963972E+03   -0.11228E+01   -0.39065E+02  3684   0.303E+01    0.393E+00
RMM:   2    -0.189906449977E+03   -0.40249E+00   -0.41257E+00  3681   0.439E+00    0.235E+00
RMM:   3    -0.190013574559E+03   -0.10712E+00   -0.38793E-01  3700   0.108E+00    0.390E+00
RMM:   4    -0.189888166144E+03    0.12541E+00   -0.17709E-01  3687   0.703E-01    0.141E+00
RMM:   5    -0.189905855320E+03   -0.17689E-01   -0.75919E-02  3685   0.444E-01    0.162E+00
RMM:   6    -0.189879354540E+03    0.26501E-01   -0.38227E-02  3683   0.316E-01    0.681E-01
RMM:   7    -0.189878058605E+03    0.12959E-02   -0.98440E-03  3686   0.151E-01    0.621E-01
RMM:   8    -0.189874386057E+03    0.36725E-02   -0.46141E-03  3686   0.103E-01    0.347E-01
RMM:   9    -0.189873211171E+03    0.11749E-02   -0.20363E-03  3682   0.703E-02    0.172E-01
RMM:  10    -0.189873080619E+03    0.13055E-03   -0.72881E-04  3684   0.420E-02    0.135E-01
RMM:  11    -0.189872944823E+03    0.13580E-03   -0.21419E-04  3686   0.235E-02    0.672E-02
RMM:  12    -0.189872926783E+03    0.18040E-04   -0.53808E-05  3683   0.118E-02    0.478E-02
RMM:  13    -0.189872918951E+03    0.78317E-05   -0.29806E-05  3673   0.903E-03    0.283E-02
RMM:  14    -0.189872913144E+03    0.58079E-05   -0.13658E-05  3559   0.598E-03    0.118E-02
RMM:  15    -0.189872913546E+03   -0.40249E-06   -0.33741E-06  2609   0.299E-03
   2 F= -.18987291E+03 E0= -.18975430E+03  d E =-.149177E+01
       N       E                     dE             d eps       ncg     rms          rms(c)
DAV:   1    -0.188597087149E+03    0.12758E+01   -0.32039E+03  3672   0.889E+01    0.872E+00
RMM:   2    -0.191726897507E+03   -0.31298E+01   -0.31988E+01  3681   0.123E+01    0.536E+00
RMM:   3    -0.192289089208E+03   -0.56219E+00   -0.23024E+00  3705   0.263E+00    0.969E+00
RMM:   4    -0.191577215560E+03    0.71187E+00   -0.85639E-01  3687   0.154E+00    0.391E+00
RMM:   5    -0.191917224572E+03   -0.34001E+00   -0.55199E-01  3686   0.114E+00    0.637E+00
RMM:   6    -0.191735997754E+03    0.18123E+00   -0.45303E-01  3684   0.102E+00    0.479E+00
RMM:   7    -0.191475292409E+03    0.26071E+00   -0.22490E-01  3684   0.745E-01    0.130E+00
RMM:   8    -0.191454996901E+03    0.20296E-01   -0.56258E-02  3684   0.371E-01    0.838E-01
RMM:   9    -0.191446586749E+03    0.84102E-02   -0.19991E-02  3682   0.221E-01    0.417E-01
RMM:  10    -0.191445669043E+03    0.91771E-03   -0.51456E-03  3685   0.112E-01    0.304E-01
RMM:  11    -0.191445022638E+03    0.64640E-03   -0.18626E-03  3685   0.682E-02    0.175E-01
RMM:  12    -0.191445032160E+03   -0.95223E-05   -0.64384E-04  3684   0.408E-02    0.161E-01
RMM:  13    -0.191444857633E+03    0.17453E-03   -0.31501E-04  3679   0.291E-02    0.822E-02
RMM:  14    -0.191444835649E+03    0.21983E-04   -0.12403E-04  3678   0.180E-02    0.541E-02
RMM:  15    -0.191444812141E+03    0.23508E-04   -0.42150E-05  3676   0.104E-02    0.174E-02
RMM:  16    -0.191444818679E+03   -0.65372E-05   -0.90090E-06  3354   0.474E-03    0.116E-02
RMM:  17    -0.191444823234E+03   -0.45553E-05   -0.27991E-06  2490   0.276E-03    0.781E-03
RMM:  18    -0.191444831908E+03   -0.86745E-05   -0.92008E-07  2106   0.171E-03    0.455E-03
RMM:  19    -0.191444836346E+03   -0.44378E-05   -0.50411E-07  2061   0.122E-03    0.258E-03
RMM:  20    -0.191444841219E+03   -0.48731E-05   -0.22726E-07  1812   0.752E-04    0.138E-03
RMM:  21    -0.191444844631E+03   -0.34121E-05   -0.10371E-07  1183   0.519E-04    0.101E-03
RMM:  22    -0.191444851753E+03   -0.71216E-05   -0.22769E-07  1777   0.589E-04    0.996E-04
RMM:  23    -0.191444857167E+03   -0.54142E-05   -0.23950E-07  1584   0.567E-04    0.956E-04
RMM:  24    -0.191444861435E+03   -0.42682E-05   -0.28074E-07  1590   0.577E-04    0.547E-04
RMM:  25    -0.191444862651E+03   -0.12159E-05   -0.78086E-08   858   0.404E-04    0.451E-04
RMM:  26    -0.191444863573E+03   -0.92190E-06   -0.85260E-08  1064   0.434E-04
   3 F= -.19144486E+03 E0= -.19133079E+03  d E =-.306372E+01
       N       E                     dE             d eps       ncg     rms          rms(c)
DAV:   1    -0.191576774982E+03   -0.13191E+00   -0.42109E+02  3672   0.318E+01    0.279E+00
RMM:   2    -0.192019056921E+03   -0.44228E+00   -0.46463E+00  3686   0.461E+00    0.168E+00
RMM:   3    -0.192081794728E+03   -0.62738E-01   -0.29817E-01  3706   0.957E-01    0.304E+00
RMM:   4    -0.192012431867E+03    0.69363E-01   -0.76818E-02  3687   0.467E-01    0.143E+00
RMM:   5    -0.192032593368E+03   -0.20162E-01   -0.48525E-02  3684   0.334E-01    0.200E+00
RMM:   6    -0.192010594860E+03    0.21999E-01   -0.56113E-02  3685   0.370E-01    0.133E+00
RMM:   7    -0.191993334525E+03    0.17260E-01   -0.23452E-02  3682   0.246E-01    0.433E-01
RMM:   8    -0.191991742753E+03    0.15918E-02   -0.60635E-03  3682   0.123E-01    0.337E-01
RMM:   9    -0.191990216617E+03    0.15261E-02   -0.23746E-03  3682   0.773E-02    0.119E-01
RMM:  10    -0.191990151985E+03    0.64631E-04   -0.53243E-04  3682   0.359E-02    0.910E-02
RMM:  11    -0.191990076723E+03    0.75262E-04   -0.17303E-04  3686   0.206E-02    0.441E-02
RMM:  12    -0.191990070517E+03    0.62063E-05   -0.58192E-05  3685   0.122E-02    0.318E-02
RMM:  13    -0.191990067563E+03    0.29540E-05   -0.20812E-05  3679   0.741E-03    0.206E-02
RMM:  14    -0.191990065449E+03    0.21136E-05   -0.66872E-06  3004   0.430E-03    0.976E-03
RMM:  15    -0.191990066078E+03   -0.62858E-06   -0.18363E-06  2094   0.238E-03
   4 F= -.19199007E+03 E0= -.19187940E+03  d E =-.545203E+00
       N       E                     dE             d eps       ncg     rms          rms(c)
DAV:   1    -0.191986004139E+03    0.40613E-02   -0.22664E+01  3744   0.734E+00    0.566E-01
RMM:   2    -0.192010268722E+03   -0.24265E-01   -0.25525E-01  3686   0.108E+00    0.381E-01
RMM:   3    -0.192013435950E+03   -0.31672E-02   -0.16749E-02  3706   0.227E-01    0.666E-01
RMM:   4    -0.192009824512E+03    0.36114E-02   -0.37411E-03  3687   0.104E-01    0.335E-01
RMM:   5    -0.192009887536E+03   -0.63024E-04   -0.16867E-03  3685   0.632E-02    0.344E-01
RMM:   6    -0.192009451036E+03    0.43650E-03   -0.29949E-03  3683   0.857E-02    0.267E-01
RMM:   7    -0.192008811400E+03    0.63964E-03   -0.13253E-03  3682   0.584E-02    0.105E-01
RMM:   8    -0.192008734969E+03    0.76431E-04   -0.31132E-04  3685   0.283E-02    0.810E-02
RMM:   9    -0.192008646648E+03    0.88321E-04   -0.12748E-04  3681   0.180E-02    0.306E-02
RMM:  10    -0.192008640258E+03    0.63895E-05   -0.34162E-05  3680   0.902E-03    0.216E-02
RMM:  11    -0.192008635878E+03    0.43807E-05   -0.12819E-05  3674   0.549E-03    0.102E-02
RMM:  12    -0.192008636093E+03   -0.21528E-06   -0.36998E-06  2622   0.313E-03
   5 F= -.19200864E+03 E0= -.19189857E+03  d E =-.563773E+00
       N       E                     dE             d eps       ncg     rms          rms(c)
DAV:   1    -0.192030046188E+03   -0.21410E-01   -0.58275E+01  3672   0.118E+01    0.990E-01
RMM:   2    -0.192091650341E+03   -0.61604E-01   -0.65409E-01  3685   0.173E+00    0.642E-01
RMM:   3    -0.192100854392E+03   -0.92041E-02   -0.41570E-02  3703   0.359E-01    0.103E+00
RMM:   4    -0.192094380823E+03    0.64736E-02   -0.11830E-02  3685   0.176E-01    0.735E-01
RMM:   5    -0.192090504230E+03    0.38766E-02   -0.72317E-03  3681   0.131E-01    0.480E-01
RMM:   6    -0.192088941123E+03    0.15631E-02   -0.69446E-03  3685   0.134E-01    0.256E-01
RMM:   7    -0.192088685150E+03    0.25597E-03   -0.18722E-03  3682   0.682E-02    0.212E-01
RMM:   8    -0.192088239487E+03    0.44566E-03   -0.57836E-04  3683   0.402E-02    0.900E-02
RMM:   9    -0.192088141897E+03    0.97591E-04   -0.24646E-04  3682   0.243E-02    0.487E-02
RMM:  10    -0.192088111133E+03    0.30763E-04   -0.72237E-05  3684   0.131E-02    0.227E-02
RMM:  11    -0.192088108154E+03    0.29788E-05   -0.21112E-05  3678   0.710E-03    0.174E-02
RMM:  12    -0.192088106973E+03    0.11811E-05   -0.91118E-06  3671   0.471E-03    0.116E-02
RMM:  13    -0.192088106753E+03    0.22022E-06   -0.32556E-06  2541   0.301E-03
   6 F= -.19208811E+03 E0= -.19197939E+03  d E =-.794707E-01
       N       E                     dE             d eps       ncg     rms          rms(c)
DAV:   1    -0.192086516588E+03    0.15904E-02   -0.74472E+00  3696   0.421E+00    0.342E-01
RMM:   2    -0.192094361647E+03   -0.78451E-02   -0.83852E-02  3685   0.619E-01    0.225E-01
RMM:   3    -0.192095495446E+03   -0.11338E-02   -0.52852E-03  3702   0.128E-01    0.363E-01
RMM:   4    -0.192094620982E+03    0.87446E-03   -0.14243E-03  3683   0.613E-02    0.252E-01
RMM:   5    -0.192094217574E+03    0.40341E-03   -0.84476E-04  3681   0.450E-02    0.172E-01
RMM:   6    -0.192094089691E+03    0.12788E-03   -0.94615E-04  3684   0.491E-02    0.120E-01
RMM:   7    -0.192094001717E+03    0.87974E-04   -0.30270E-04  3681   0.276E-02    0.754E-02
RMM:   8    -0.192093947443E+03    0.54274E-04   -0.80390E-05  3684   0.150E-02    0.327E-02
RMM:   9    -0.192093933855E+03    0.13588E-04   -0.34296E-05  3679   0.914E-03    0.187E-02
RMM:  10    -0.192093929258E+03    0.45965E-05   -0.10970E-05  3671   0.507E-03    0.898E-03
RMM:  11    -0.192093928696E+03    0.56235E-06   -0.27112E-06  2239   0.269E-03
   7 F= -.19209393E+03 E0= -.19198566E+03  d E =-.852926E-01
       N       E                     dE             d eps       ncg     rms          rms(c)
DAV:   1    -0.192098553740E+03   -0.46245E-02   -0.71126E+00  3672   0.410E+00    0.278E-01
RMM:   2    -0.192106009552E+03   -0.74558E-02   -0.78022E-02  3685   0.598E-01    0.237E-01
RMM:   3    -0.192106867698E+03   -0.85815E-03   -0.50247E-03  3723   0.126E-01    0.336E-01
RMM:   4    -0.192106035829E+03    0.83187E-03   -0.10734E-03  3681   0.533E-02    0.216E-01
RMM:   5    -0.192105849823E+03    0.18601E-03   -0.77713E-04  3686   0.431E-02    0.193E-01
RMM:   6    -0.192105662052E+03    0.18777E-03   -0.95127E-04  3683   0.483E-02    0.144E-01
RMM:   7    -0.192105540235E+03    0.12182E-03   -0.50331E-04  3685   0.356E-02    0.719E-02
RMM:   8    -0.192105501346E+03    0.38889E-04   -0.98785E-05  3683   0.161E-02    0.390E-02
RMM:   9    -0.192105482032E+03    0.19314E-04   -0.34132E-05  3677   0.934E-03    0.255E-02
RMM:  10    -0.192105469484E+03    0.12548E-04   -0.27052E-05  3682   0.786E-03    0.112E-02
RMM:  11    -0.192105468063E+03    0.14206E-05   -0.78534E-06  3668   0.423E-03    0.678E-03
RMM:  12    -0.192105467732E+03    0.33086E-06   -0.28119E-06  2110   0.270E-03
   8 F= -.19210547E+03 E0= -.19199725E+03  d E =-.115390E-01
       N       E                     dE             d eps       ncg     rms          rms(c)
DAV:   1    -0.192104383727E+03    0.10843E-02   -0.37509E+00  3696   0.297E+00    0.199E-01
RMM:   2    -0.192108312629E+03   -0.39289E-02   -0.41132E-02  3685   0.435E-01    0.172E-01
RMM:   3    -0.192108730491E+03   -0.41786E-03   -0.26356E-03  3724   0.911E-02    0.238E-01
RMM:   4    -0.192108312766E+03    0.41772E-03   -0.54691E-04  3682   0.381E-02    0.155E-01
RMM:   5    -0.192108216766E+03    0.96000E-04   -0.38945E-04  3686   0.305E-02    0.138E-01
RMM:   6    -0.192108122620E+03    0.94146E-04   -0.50428E-04  3683   0.351E-02    0.104E-01
RMM:   7    -0.192108060524E+03    0.62095E-04   -0.27023E-04  3684   0.261E-02    0.526E-02
RMM:   8    -0.192108040538E+03    0.19986E-04   -0.52512E-05  3681   0.117E-02    0.289E-02
RMM:   9    -0.192108030263E+03    0.10275E-04   -0.17657E-05  3672   0.673E-03    0.192E-02
RMM:  10    -0.192108023280E+03    0.69829E-05   -0.14580E-05  3672   0.577E-03    0.879E-03
RMM:  11    -0.192108022401E+03    0.87935E-06   -0.40923E-06  2711   0.316E-03
   9 F= -.19210802E+03 E0= -.19199983E+03  d E =-.140937E-01
       N       E                     dE             d eps       ncg     rms          rms(c)
DAV:   1    -0.192109192601E+03   -0.11693E-02   -0.72977E+00  3672   0.414E+00    0.218E-01
RMM:   2    -0.192116919254E+03   -0.77267E-02   -0.79048E-02  3683   0.608E-01    0.237E-01
RMM:   3    -0.192116860322E+03    0.58931E-04   -0.48465E-03  3799   0.125E-01    0.185E-01
RMM:   4    -0.192116585860E+03    0.27446E-03   -0.56098E-04  3674   0.411E-02    0.154E-01
RMM:   5    -0.192116655198E+03   -0.69338E-04   -0.65223E-04  3685   0.403E-02    0.196E-01
RMM:   6    -0.192116659023E+03   -0.38248E-05   -0.92335E-04  3682   0.458E-02    0.193E-01
RMM:   7    -0.192116365338E+03    0.29369E-03   -0.54216E-04  3685   0.357E-02    0.104E-01
RMM:   8    -0.192116309026E+03    0.56311E-04   -0.14411E-04  3685   0.194E-02    0.503E-02
RMM:   9    -0.192116286305E+03    0.22722E-04   -0.28410E-05  3679   0.856E-03    0.372E-02
RMM:  10    -0.192116262745E+03    0.23560E-04   -0.40916E-05  3684   0.973E-03    0.210E-02
RMM:  11    -0.192116256379E+03    0.63659E-05   -0.21219E-05  3674   0.687E-03    0.111E-02
RMM:  12    -0.192116255375E+03    0.10044E-05   -0.11063E-05  3673   0.494E-03    0.567E-03
RMM:  13    -0.192116255346E+03    0.29249E-07   -0.16302E-06  2006   0.216E-03
  10 F= -.19211626E+03 E0= -.19200783E+03  d E =-.823294E-02
       N       E                     dE             d eps       ncg     rms          rms(c)
DAV:   1    -0.192110127153E+03    0.61282E-02   -0.10612E+01  3672   0.500E+00    0.259E-01
RMM:   2    -0.192121363891E+03   -0.11237E-01   -0.11475E-01  3683   0.733E-01    0.285E-01
RMM:   3    -0.192121271504E+03    0.92387E-04   -0.70181E-03  3798   0.151E-01    0.222E-01
RMM:   4    -0.192120878346E+03    0.39316E-03   -0.79003E-04  3674   0.488E-02    0.186E-01
RMM:   5    -0.192121071983E+03   -0.19364E-03   -0.87697E-04  3684   0.466E-02    0.251E-01
RMM:   6    -0.192120924169E+03    0.14781E-03   -0.13070E-03  3684   0.541E-02    0.231E-01
RMM:   7    -0.192120515142E+03    0.40903E-03   -0.89338E-04  3683   0.461E-02    0.117E-01
RMM:   8    -0.192120451660E+03    0.63482E-04   -0.21582E-04  3682   0.237E-02    0.613E-02
RMM:   9    -0.192120418134E+03    0.33526E-04   -0.40766E-05  3684   0.103E-02    0.458E-02
RMM:  10    -0.192120383139E+03    0.34994E-04   -0.59388E-05  3681   0.118E-02    0.262E-02
RMM:  11    -0.192120373705E+03    0.94339E-05   -0.30218E-05  3679   0.820E-03    0.145E-02
RMM:  12    -0.192120371920E+03    0.17855E-05   -0.17667E-05  3676   0.625E-03    0.730E-03
RMM:  13    -0.192120371846E+03    0.73524E-07   -0.27728E-06  2151   0.279E-03
  11 F= -.19212037E+03 E0= -.19201163E+03  d E =-.123494E-01
       N       E                     dE             d eps       ncg     rms          rms(c)
DAV:   1    -0.192117466954E+03    0.29050E-02   -0.92229E+00  3672   0.468E+00    0.239E-01
RMM:   2    -0.192127521112E+03   -0.10054E-01   -0.10392E-01  3683   0.692E-01    0.270E-01
RMM:   3    -0.192127487645E+03    0.33467E-04   -0.64784E-03  3765   0.143E-01    0.231E-01
RMM:   4    -0.192127200958E+03    0.28669E-03   -0.74783E-04  3677   0.465E-02    0.204E-01
RMM:   5    -0.192126986893E+03    0.21407E-03   -0.29484E-04  3687   0.271E-02    0.171E-01
RMM:   6    -0.192126732922E+03    0.25397E-03   -0.10882E-03  3682   0.503E-02    0.135E-01
RMM:   7    -0.192126709210E+03    0.23711E-04   -0.10129E-03  3684   0.491E-02    0.100E-01
RMM:   8    -0.192126662917E+03    0.46293E-04   -0.19817E-04  3683   0.224E-02    0.572E-02
RMM:   9    -0.192126636599E+03    0.26319E-04   -0.35113E-05  3683   0.947E-03    0.434E-02
RMM:  10    -0.192126607977E+03    0.28621E-04   -0.41173E-05  3680   0.976E-03    0.252E-02
RMM:  11    -0.192126599005E+03    0.89721E-05   -0.26518E-05  3675   0.767E-03    0.141E-02
RMM:  12    -0.192126597302E+03    0.17035E-05   -0.19890E-05  3676   0.656E-03    0.714E-03
RMM:  13    -0.192126597434E+03   -0.13214E-06   -0.29396E-06  2258   0.282E-03
  12 F= -.19212660E+03 E0= -.19201755E+03  d E =-.622559E-02
       N       E                     dE             d eps       ncg     rms          rms(c)
DAV:   1    -0.192125698854E+03    0.89845E-03   -0.15813E+00  3708   0.194E+00    0.983E-02
RMM:   2    -0.192127409600E+03   -0.17107E-02   -0.17786E-02  3683   0.286E-01    0.112E-01
RMM:   3    -0.192127397205E+03    0.12395E-04   -0.11058E-03  3766   0.591E-02    0.956E-02
RMM:   4    -0.192127347747E+03    0.49458E-04   -0.12463E-04  3677   0.190E-02    0.840E-02
RMM:   5    -0.192127313564E+03    0.34183E-04   -0.48723E-05  3685   0.110E-02    0.704E-02
RMM:   6    -0.192127276770E+03    0.36794E-04   -0.19094E-04  3681   0.211E-02    0.554E-02
RMM:   7    -0.192127276461E+03    0.30886E-06   -0.17774E-04  3684   0.206E-02    0.409E-02
RMM:   8    -0.192127269309E+03    0.71527E-05   -0.33854E-05  3678   0.926E-03    0.240E-02
RMM:   9    -0.192127264844E+03    0.44648E-05   -0.57574E-06  2963   0.389E-03    0.183E-02
RMM:  10    -0.192127259764E+03    0.50803E-05   -0.74122E-06  3633   0.421E-03    0.104E-02
RMM:  11    -0.192127258226E+03    0.15378E-05   -0.46911E-06  3012   0.331E-03    0.575E-03
RMM:  12    -0.192127258009E+03    0.21702E-06   -0.34746E-06  2177   0.304E-03
  13 F= -.19212726E+03 E0= -.19201807E+03  d E =-.688616E-02
       N       E                     dE             d eps       ncg     rms          rms(c)
DAV:   1    -0.192125586168E+03    0.16721E-02   -0.45778E+00  3684   0.330E+00    0.175E-01
RMM:   2    -0.192130743733E+03   -0.51576E-02   -0.52370E-02  3682   0.488E-01    0.213E-01
RMM:   3    -0.192130588223E+03    0.15551E-03   -0.35119E-03  3747   0.104E-01    0.162E-01
RMM:   4    -0.192130362189E+03    0.22603E-03   -0.32774E-04  3679   0.320E-02    0.109E-01
RMM:   5    -0.192130401434E+03   -0.39245E-04   -0.16137E-04  3686   0.202E-02    0.135E-01
RMM:   6    -0.192130372941E+03    0.28493E-04   -0.39255E-04  3681   0.298E-02    0.139E-01
RMM:   7    -0.192130233075E+03    0.13987E-03   -0.49889E-04  3684   0.343E-02    0.692E-02
RMM:   8    -0.192130222688E+03    0.10387E-04   -0.11962E-04  3684   0.173E-02    0.377E-02
RMM:   9    -0.192130211471E+03    0.11217E-04   -0.16362E-05  3663   0.661E-03    0.259E-02
RMM:  10    -0.192130201716E+03    0.97556E-05   -0.14603E-05  3672   0.583E-03    0.173E-02
RMM:  11    -0.192130197945E+03    0.37703E-05   -0.92380E-06  3659   0.456E-03    0.983E-03
RMM:  12    -0.192130197145E+03    0.79993E-06   -0.79543E-06  3658   0.419E-03
  14 F= -.19213020E+03 E0= -.19202081E+03  d E =-.293914E-02
       N       E                     dE             d eps       ncg     rms          rms(c)
DAV:   1    -0.192129126737E+03    0.10712E-02   -0.17500E+00  3684   0.204E+00    0.108E-01
RMM:   2    -0.192131089788E+03   -0.19631E-02   -0.20001E-02  3682   0.302E-01    0.132E-01
RMM:   3    -0.192131024002E+03    0.65786E-04   -0.13401E-03  3747   0.643E-02    0.100E-01
RMM:   4    -0.192130941785E+03    0.82217E-04   -0.12456E-04  3678   0.197E-02    0.688E-02
RMM:   5    -0.192130960013E+03   -0.18229E-04   -0.57866E-05  3683   0.120E-02    0.848E-02
RMM:   6    -0.192130938534E+03    0.21479E-04   -0.14793E-04  3680   0.184E-02    0.811E-02
RMM:   7    -0.192130899407E+03    0.39127E-04   -0.20170E-04  3680   0.219E-02    0.421E-02
RMM:   8    -0.192130896440E+03    0.29670E-05   -0.46571E-05  3678   0.108E-02    0.234E-02
RMM:   9    -0.192130892234E+03    0.42054E-05   -0.61365E-06  2985   0.410E-03    0.163E-02
RMM:  10    -0.192130888504E+03    0.37308E-05   -0.54141E-06  3149   0.365E-03    0.111E-02
RMM:  11    -0.192130886914E+03    0.15898E-05   -0.35429E-06  2424   0.306E-03    0.640E-03
RMM:  12    -0.192130886590E+03    0.32427E-06   -0.34984E-06  2282   0.312E-03
  15 F= -.19213089E+03 E0= -.19202137E+03  d E =-.362858E-02
       N       E                     dE             d eps       ncg     rms          rms(c)
DAV:   1    -0.192129800911E+03    0.10860E-02   -0.28318E+00  3672   0.260E+00    0.137E-01
RMM:   2    -0.192133053048E+03   -0.32521E-02   -0.32781E-02  3682   0.384E-01    0.183E-01
RMM:   3    -0.192132905646E+03    0.14740E-03   -0.22090E-03  3721   0.817E-02    0.127E-01
RMM:   4    -0.192132801484E+03    0.10416E-03   -0.21562E-04  3678   0.257E-02    0.991E-02
RMM:   5    -0.192132781927E+03    0.19558E-04   -0.84678E-05  3687   0.145E-02    0.995E-02
RMM:   6    -0.192132758870E+03    0.23057E-04   -0.23346E-04  3682   0.235E-02    0.101E-01
RMM:   7    -0.192132697452E+03    0.61418E-04   -0.37836E-04  3681   0.299E-02    0.425E-02
RMM:   8    -0.192132701295E+03   -0.38425E-05   -0.64088E-05  3680   0.126E-02    0.307E-02
RMM:   9    -0.192132693155E+03    0.81397E-05   -0.94455E-06  3512   0.507E-03    0.204E-02
RMM:  10    -0.192132687384E+03    0.57706E-05   -0.77712E-06  3624   0.428E-03    0.142E-02
RMM:  11    -0.192132684397E+03    0.29870E-05   -0.73588E-06  3561   0.407E-03    0.772E-03
RMM:  12    -0.192132683906E+03    0.49145E-06   -0.48620E-06  2980   0.335E-03
  16 F= -.19213268E+03 E0= -.19202304E+03  d E =-.179732E-02
       N       E                     dE             d eps       ncg     rms          rms(c)
DAV:   1    -0.192132604917E+03    0.79481E-04   -0.20794E-01  3720   0.704E-01    0.369E-02
RMM:   2    -0.192132841531E+03   -0.23661E-03   -0.23997E-03  3682   0.104E-01    0.506E-02
RMM:   3    -0.192132827955E+03    0.13575E-04   -0.16159E-04  3727   0.221E-02    0.350E-02
RMM:   4    -0.192132821197E+03    0.67580E-05   -0.15643E-05  3675   0.688E-03    0.281E-02
RMM:   5    -0.192132819209E+03    0.19885E-05   -0.59006E-06  2946   0.390E-03    0.266E-02
RMM:   6    -0.192132819918E+03   -0.70957E-06   -0.18674E-05  3672   0.672E-03    0.277E-02
RMM:   7    -0.192132816833E+03    0.30852E-05   -0.29426E-05  3673   0.834E-03    0.116E-02
RMM:   8    -0.192132817378E+03   -0.54495E-06   -0.45966E-06  2826   0.344E-03
  17 F= -.19213282E+03 E0= -.19202315E+03  d E =-.193079E-02
       N       E                     dE             d eps       ncg     rms          rms(c)
DAV:   1    -0.192131511454E+03    0.13054E-02   -0.28236E+00  3672   0.259E+00    0.133E-01
RMM:   2    -0.192134838359E+03   -0.33269E-02   -0.32593E-02  3681   0.384E-01    0.198E-01
RMM:   3    -0.192134686366E+03    0.15199E-03   -0.22638E-03  3753   0.827E-02    0.141E-01
RMM:   4    -0.192134592238E+03    0.94127E-04   -0.25898E-04  3677   0.268E-02    0.122E-01
RMM:   5    -0.192134475025E+03    0.11721E-03   -0.81817E-05  3684   0.149E-02    0.838E-02
RMM:   6    -0.192134475157E+03   -0.13167E-06   -0.31527E-04  3682   0.273E-02    0.983E-02
RMM:   7    -0.192134417463E+03    0.57693E-04   -0.34626E-04  3684   0.285E-02    0.399E-02
RMM:   8    -0.192134424400E+03   -0.69370E-05   -0.53462E-05  3681   0.115E-02    0.319E-02
RMM:   9    -0.192134416180E+03    0.82204E-05   -0.79011E-06  3247   0.467E-03    0.214E-02
RMM:  10    -0.192134410697E+03    0.54829E-05   -0.76202E-06  3480   0.428E-03    0.154E-02
RMM:  11    -0.192134406940E+03    0.37575E-05   -0.11214E-05  3672   0.502E-03    0.688E-03
RMM:  12    -0.192134406725E+03    0.21413E-06   -0.37475E-06  2535   0.301E-03
  18 F= -.19213441E+03 E0= -.19202461E+03  d E =-.158935E-02
       N       E                     dE             d eps       ncg     rms          rms(c)
DAV:   1    -0.192133128859E+03    0.12781E-02   -0.17138E+00  3672   0.202E+00    0.102E-01
RMM:   2    -0.192135139616E+03   -0.20108E-02   -0.19667E-02  3681   0.299E-01    0.156E-01
RMM:   3    -0.192135028618E+03    0.11100E-03   -0.13544E-03  3753   0.641E-02    0.108E-01
RMM:   4    -0.192134971343E+03    0.57275E-04   -0.14751E-04  3676   0.203E-02    0.931E-02
RMM:   5    -0.192134907852E+03    0.63491E-04   -0.45394E-05  3682   0.111E-02    0.671E-02
RMM:   6    -0.192134911040E+03   -0.31873E-05   -0.20641E-04  3680   0.220E-02    0.796E-02
RMM:   7    -0.192134874129E+03    0.36911E-04   -0.22754E-04  3683   0.231E-02    0.314E-02
RMM:   8    -0.192134878593E+03   -0.44640E-05   -0.32769E-05  3673   0.900E-03    0.254E-02
RMM:   9    -0.192134873303E+03    0.52896E-05   -0.47851E-06  2863   0.367E-03    0.172E-02
RMM:  10    -0.192134869732E+03    0.35717E-05   -0.49021E-06  3009   0.351E-03    0.124E-02
RMM:  11    -0.192134867314E+03    0.24175E-05   -0.76299E-06  3569   0.424E-03    0.553E-03
RMM:  12    -0.192134867191E+03    0.12287E-06   -0.23063E-06  2041   0.247E-03
  19 F= -.19213487E+03 E0= -.19202497E+03  d E =-.204981E-02
       N       E                     dE             d eps       ncg     rms          rms(c)
DAV:   1    -0.192133270324E+03    0.15970E-02   -0.28390E+00  3672   0.260E+00    0.123E-01
RMM:   2    -0.192136552977E+03   -0.32827E-02   -0.32074E-02  3679   0.384E-01    0.192E-01
RMM:   3    -0.192136376336E+03    0.17664E-03   -0.21657E-03  3765   0.817E-02    0.130E-01
RMM:   4    -0.192136290740E+03    0.85596E-04   -0.22032E-04  3676   0.250E-02    0.115E-01
RMM:   5    -0.192136194514E+03    0.96225E-04   -0.56793E-05  3688   0.126E-02    0.842E-02
RMM:   6    -0.192136162997E+03    0.31517E-04   -0.40333E-04  3682   0.308E-02    0.872E-02
RMM:   7    -0.192136123632E+03    0.39365E-04   -0.32464E-04  3684   0.276E-02    0.392E-02
RMM:   8    -0.192136131268E+03   -0.76364E-05   -0.44286E-05  3682   0.105E-02    0.339E-02
RMM:   9    -0.192136123150E+03    0.81180E-05   -0.73878E-06  3200   0.452E-03    0.226E-02
RMM:  10    -0.192136117533E+03    0.56169E-05   -0.87471E-06  3582   0.456E-03    0.167E-02
RMM:  11    -0.192136112947E+03    0.45863E-05   -0.16127E-05  3672   0.600E-03    0.537E-03
RMM:  12    -0.192136113054E+03   -0.10684E-06   -0.27793E-06  2199   0.268E-03
  20 F= -.19213611E+03 E0= -.19202607E+03  d E =-.124586E-02
       N       E                     dE             d eps       ncg     rms          rms(c)
DAV:   1    -0.192135796639E+03    0.31631E-03   -0.54978E-01  3684   0.114E+00    0.539E-02
RMM:   2    -0.192136427429E+03   -0.63079E-03   -0.61964E-03  3679   0.169E-01    0.858E-02
RMM:   3    -0.192136387628E+03    0.39801E-04   -0.41753E-04  3765   0.359E-02    0.575E-02
RMM:   4    -0.192136371440E+03    0.16188E-04   -0.41749E-05  3675   0.109E-02    0.504E-02
RMM:   5    -0.192136354609E+03    0.16831E-04   -0.10391E-05  3639   0.543E-03    0.376E-02
RMM:   6    -0.192136352951E+03    0.16578E-05   -0.80233E-05  3682   0.137E-02    0.392E-02
RMM:   7    -0.192136347037E+03    0.59139E-05   -0.66441E-05  3676   0.125E-02    0.177E-02
RMM:   8    -0.192136348599E+03   -0.15612E-05   -0.88030E-06  3392   0.471E-03    0.150E-02
RMM:   9    -0.192136347029E+03    0.15701E-05   -0.14455E-06  2050   0.213E-03    0.102E-02
RMM:  10    -0.192136345925E+03    0.11040E-05   -0.14945E-06  1951   0.206E-03    0.784E-03
RMM:  11    -0.192136344939E+03    0.98600E-06   -0.33982E-06  2331   0.302E-03
  21 F= -.19213634E+03 E0= -.19202625E+03  d E =-.147775E-02
       N       E                     dE             d eps       ncg     rms          rms(c)
DAV:   1    -0.192134033935E+03    0.23120E-02   -0.21986E+00  3672   0.229E+00    0.109E-01
RMM:   2    -0.192136572336E+03   -0.25384E-02   -0.24862E-02  3679   0.338E-01    0.168E-01
RMM:   3    -0.192136436047E+03    0.13629E-03   -0.16781E-03  3764   0.719E-02    0.114E-01
RMM:   4    -0.192136373551E+03    0.62497E-04   -0.17008E-04  3676   0.220E-02    0.102E-01
RMM:   5    -0.192136299231E+03    0.74320E-04   -0.44293E-05  3689   0.111E-02    0.738E-02
RMM:   6    -0.192136277812E+03    0.21418E-04   -0.30794E-04  3680   0.269E-02    0.761E-02
RMM:   7    -0.192136248824E+03    0.28989E-04   -0.24975E-04  3685   0.242E-02    0.346E-02
RMM:   8    -0.192136254726E+03   -0.59028E-05   -0.34754E-05  3675   0.930E-03    0.299E-02
RMM:   9    -0.192136248570E+03    0.61564E-05   -0.56588E-06  2991   0.399E-03    0.198E-02
RMM:  10    -0.192136244227E+03    0.43427E-05   -0.66720E-06  3332   0.402E-03    0.145E-02
RMM:  11    -0.192136240669E+03    0.35580E-05   -0.13021E-05  3672   0.543E-03    0.415E-03
RMM:  12    -0.192136240805E+03   -0.13581E-06   -0.20910E-06  2011   0.236E-03
  22 F= -.19213624E+03 E0= -.19202601E+03  d E =-.137361E-02
       N       E                     dE             d eps       ncg     rms          rms(c)
DAV:   1    -0.192135246647E+03    0.99402E-03   -0.11382E+00  3672   0.164E+00    0.783E-02
RMM:   2    -0.192136543705E+03   -0.12971E-02   -0.12856E-02  3679   0.243E-01    0.117E-01
RMM:   3    -0.192136480448E+03    0.63257E-04   -0.86458E-04  3765   0.516E-02    0.810E-02
RMM:   4    -0.192136452420E+03    0.28028E-04   -0.89195E-05  3676   0.159E-02    0.734E-02
RMM:   5    -0.192136413380E+03    0.39040E-04   -0.23892E-05  3682   0.812E-03    0.524E-02
RMM:   6    -0.192136405899E+03    0.74807E-05   -0.15532E-04  3683   0.191E-02    0.527E-02
RMM:   7    -0.192136393302E+03    0.12597E-04   -0.12176E-04  3678   0.169E-02    0.245E-02
RMM:   8    -0.192136396608E+03   -0.33062E-05   -0.17333E-05  3671   0.657E-03    0.216E-02
RMM:   9    -0.192136393225E+03    0.33830E-05   -0.28776E-06  2406   0.289E-03    0.141E-02
RMM:  10    -0.192136391014E+03    0.22110E-05   -0.34283E-06  2534   0.301E-03    0.103E-02
RMM:  11    -0.192136389316E+03    0.16988E-05   -0.67525E-06  3450   0.407E-03    0.300E-03
RMM:  12    -0.192136389337E+03   -0.21755E-07   -0.11158E-06  1943   0.179E-03
  23 F= -.19213639E+03 E0= -.19202626E+03  d E =-.152215E-02
       N       E                     dE             d eps       ncg     rms          rms(c)
DAV:   1    -0.192135214415E+03    0.11749E-02   -0.19005E+00  3672   0.213E+00    0.105E-01
RMM:   2    -0.192137306221E+03   -0.20918E-02   -0.21406E-02  3680   0.313E-01    0.124E-01
RMM:   3    -0.192137260098E+03    0.46123E-04   -0.13855E-03  3742   0.656E-02    0.938E-02
RMM:   4    -0.192137196296E+03    0.63803E-04   -0.13285E-04  3677   0.203E-02    0.759E-02
RMM:   5    -0.192137186022E+03    0.10274E-04   -0.42728E-05  3686   0.103E-02    0.746E-02
RMM:   6    -0.192137152214E+03    0.33807E-04   -0.22768E-04  3680   0.232E-02    0.617E-02
RMM:   7    -0.192137135636E+03    0.16579E-04   -0.18363E-04  3684   0.208E-02    0.282E-02
RMM:   8    -0.192137139754E+03   -0.41182E-05   -0.21129E-05  3672   0.736E-03    0.253E-02
RMM:   9    -0.192137133743E+03    0.60107E-05   -0.48029E-06  2883   0.366E-03    0.154E-02
RMM:  10    -0.192137130995E+03    0.27485E-05   -0.55750E-06  3186   0.371E-03    0.114E-02
RMM:  11    -0.192137129175E+03    0.18192E-05   -0.68095E-06  3594   0.399E-03    0.429E-03
RMM:  12    -0.192137129175E+03    0.37107E-09   -0.12192E-06  1947   0.185E-03
  24 F= -.19213713E+03 E0= -.19202693E+03  d E =-.739838E-03
       N       E                     dE             d eps       ncg     rms          rms(c)
DAV:   1    -0.192137015668E+03    0.11351E-03   -0.16353E-01  3708   0.625E-01    0.305E-02
RMM:   2    -0.192137194603E+03   -0.17893E-03   -0.18360E-03  3680   0.920E-02    0.381E-02
RMM:   3    -0.192137187509E+03    0.70937E-05   -0.11890E-04  3748   0.192E-02    0.278E-02
RMM:   4    -0.192137182826E+03    0.46826E-05   -0.10995E-05  3619   0.582E-03    0.237E-02
RMM:   5    -0.192137181084E+03    0.17425E-05   -0.33139E-06  2597   0.299E-03    0.215E-02
RMM:   6    -0.192137180574E+03    0.50987E-06   -0.21269E-05  3675   0.720E-03    0.192E-02
RMM:   7    -0.192137179450E+03    0.11236E-05   -0.17922E-05  3673   0.651E-03    0.877E-03
RMM:   8    -0.192137179701E+03   -0.25029E-06   -0.17918E-06  2106   0.229E-03
  25 F= -.19213718E+03 E0= -.19202697E+03  d E =-.790363E-03
       N       E                     dE             d eps       ncg     rms          rms(c)
DAV:   1    -0.192136320728E+03    0.85872E-03   -0.13361E+00  3672   0.179E+00    0.845E-02
RMM:   2    -0.192137769028E+03   -0.14483E-02   -0.15100E-02  3681   0.263E-01    0.906E-02
RMM:   3    -0.192137763801E+03    0.52267E-05   -0.94086E-04  3748   0.542E-02    0.742E-02
RMM:   4    -0.192137716157E+03    0.47644E-04   -0.93964E-05  3676   0.172E-02    0.554E-02
RMM:   5    -0.192137725447E+03   -0.92902E-05   -0.42529E-05  3684   0.104E-02    0.673E-02
RMM:   6    -0.192137716151E+03    0.92957E-05   -0.11271E-04  3682   0.161E-02    0.659E-02
RMM:   7    -0.192137684308E+03    0.31844E-04   -0.11701E-04  3683   0.166E-02    0.275E-02
RMM:   8    -0.192137689171E+03   -0.48635E-05   -0.23448E-05  3672   0.764E-03    0.220E-02
RMM:   9    -0.192137685216E+03    0.39546E-05   -0.38720E-06  2718   0.332E-03    0.141E-02
RMM:  10    -0.192137683315E+03    0.19013E-05   -0.25587E-06  2167   0.270E-03    0.114E-02
RMM:  11    -0.192137681421E+03    0.18941E-05   -0.65859E-06  3451   0.401E-03    0.466E-03
RMM:  12    -0.192137681260E+03    0.16137E-06   -0.14087E-06  1945   0.200E-03
  26 F= -.19213768E+03 E0= -.19202741E+03  d E =-.501559E-03
