  56  56   0   0
  0.4903395E+02  0.1100258E-08  0.1100258E-08  0.2619179E-08  0.3500000E-15
  1.000000000000000E-004
  CAR 
 unknown system                          
      6.42963363    -21.77158490  301     -1.36923288      1.00000000
    -21.772  0.0000E+00  0.0000E+00
    -21.678  0.0000E+00  0.0000E+00
    -21.584  0.0000E+00  0.0000E+00
    -21.490  0.0000E+00  0.0000E+00
    -21.396  0.0000E+00  0.0000E+00
    -21.302  0.0000E+00  0.0000E+00
    -21.208  0.0000E+00  0.0000E+00
    -21.114  0.0000E+00  0.0000E+00
    -21.020  0.1397E-14  0.1313E-15
    -20.926  0.1482E-10  0.1393E-11
    -20.832  0.2797E-07  0.2631E-08
    -20.738  0.9578E-05  0.9030E-06
    -20.644  0.6151E-03  0.5873E-04
    -20.550  0.7810E-02  0.7929E-03
    -20.456  0.2149E-01  0.2813E-02
    -20.362  0.2076E-01  0.4764E-02
    -20.268  0.2240E-01  0.6870E-02
    -20.174  0.1100E-01  0.7905E-02
    -20.080  0.5194E-02  0.8393E-02
    -19.986  0.1825E-01  0.1011E-01
    -19.892  0.2365E-01  0.1233E-01
    -19.797  0.2371E-01  0.1456E-01
    -19.703  0.1342E-01  0.1582E-01
    -19.609  0.2532E-02  0.1606E-01
    -19.515  0.8599E-02  0.1687E-01
    -19.421  0.2718E-01  0.1942E-01
    -19.327  0.3783E-01  0.2298E-01
    -19.233  0.4439E-01  0.2715E-01
    -19.139  0.3784E-01  0.3071E-01
    -19.045  0.1259E-01  0.3189E-01
    -18.951  0.1117E-02  0.3200E-01
    -18.857  0.2167E-04  0.3200E-01
    -18.763  0.8212E-07  0.3200E-01
    -18.669  0.5734E-10  0.3200E-01
    -18.575  0.7166E-14  0.3200E-01
    -18.481  0.0000E+00  0.3200E-01
    -18.387  0.0000E+00  0.3200E-01
    -18.293  0.0000E+00  0.3200E-01
    -18.199  0.0000E+00  0.3200E-01
    -18.105  0.0000E+00  0.3200E-01
    -18.011  0.0000E+00  0.3200E-01
    -17.917  0.0000E+00  0.3200E-01
    -17.823  0.0000E+00  0.3200E-01
    -17.729  0.0000E+00  0.3200E-01
    -17.635  0.0000E+00  0.3200E-01
    -17.541  0.0000E+00  0.3200E-01
    -17.447  0.0000E+00  0.3200E-01
    -17.353  0.0000E+00  0.3200E-01
    -17.259  0.0000E+00  0.3200E-01
    -17.165  0.0000E+00  0.3200E-01
    -17.071  0.0000E+00  0.3200E-01
    -16.977  0.0000E+00  0.3200E-01
    -16.883  0.0000E+00  0.3200E-01
    -16.789  0.0000E+00  0.3200E-01
    -16.695  0.0000E+00  0.3200E-01
    -16.601  0.0000E+00  0.3200E-01
    -16.507  0.0000E+00  0.3200E-01
    -16.413  0.0000E+00  0.3200E-01
    -16.319  0.0000E+00  0.3200E-01
    -16.225  0.0000E+00  0.3200E-01
    -16.131  0.0000E+00  0.3200E-01
    -16.037  0.0000E+00  0.3200E-01
    -15.943  0.0000E+00  0.3200E-01
    -15.849  0.0000E+00  0.3200E-01
    -15.755  0.0000E+00  0.3200E-01
    -15.661  0.0000E+00  0.3200E-01
    -15.567  0.0000E+00  0.3200E-01
    -15.473  0.0000E+00  0.3200E-01
    -15.379  0.0000E+00  0.3200E-01
    -15.285  0.0000E+00  0.3200E-01
    -15.191  0.0000E+00  0.3200E-01
    -15.097  0.0000E+00  0.3200E-01
    -15.003  0.0000E+00  0.3200E-01
    -14.909  0.0000E+00  0.3200E-01
    -14.815  0.0000E+00  0.3200E-01
    -14.721  0.0000E+00  0.3200E-01
    -14.627  0.0000E+00  0.3200E-01
    -14.533  0.0000E+00  0.3200E-01
    -14.439  0.0000E+00  0.3200E-01
    -14.345  0.0000E+00  0.3200E-01
    -14.251  0.0000E+00  0.3200E-01
    -14.157  0.0000E+00  0.3200E-01
    -14.063  0.0000E+00  0.3200E-01
    -13.969  0.0000E+00  0.3200E-01
    -13.875  0.0000E+00  0.3200E-01
    -13.781  0.0000E+00  0.3200E-01
    -13.687  0.0000E+00  0.3200E-01
    -13.593  0.0000E+00  0.3200E-01
    -13.499  0.0000E+00  0.3200E-01
    -13.405  0.0000E+00  0.3200E-01
    -13.311  0.0000E+00  0.3200E-01
    -13.217  0.0000E+00  0.3200E-01
    -13.123  0.0000E+00  0.3200E-01
    -13.029  0.0000E+00  0.3200E-01
    -12.935  0.0000E+00  0.3200E-01
    -12.841  0.0000E+00  0.3200E-01
    -12.747  0.0000E+00  0.3200E-01
    -12.653  0.0000E+00  0.3200E-01
    -12.559  0.0000E+00  0.3200E-01
    -12.465  0.0000E+00  0.3200E-01
    -12.371  0.0000E+00  0.3200E-01
    -12.277  0.0000E+00  0.3200E-01
    -12.183  0.0000E+00  0.3200E-01
    -12.089  0.0000E+00  0.3200E-01
    -11.995  0.0000E+00  0.3200E-01
    -11.901  0.0000E+00  0.3200E-01
    -11.807  0.0000E+00  0.3200E-01
    -11.713  0.0000E+00  0.3200E-01
    -11.619  0.0000E+00  0.3200E-01
    -11.525  0.0000E+00  0.3200E-01
    -11.431  0.0000E+00  0.3200E-01
    -11.337  0.0000E+00  0.3200E-01
    -11.243  0.0000E+00  0.3200E-01
    -11.149  0.0000E+00  0.3200E-01
    -11.055  0.0000E+00  0.3200E-01
    -10.961  0.0000E+00  0.3200E-01
    -10.867  0.0000E+00  0.3200E-01
    -10.773  0.0000E+00  0.3200E-01
    -10.679  0.0000E+00  0.3200E-01
    -10.585  0.0000E+00  0.3200E-01
    -10.491  0.0000E+00  0.3200E-01
    -10.397  0.0000E+00  0.3200E-01
    -10.303  0.0000E+00  0.3200E-01
    -10.209  0.0000E+00  0.3200E-01
    -10.115  0.0000E+00  0.3200E-01
    -10.021  0.0000E+00  0.3200E-01
     -9.927  0.0000E+00  0.3200E-01
     -9.833  0.0000E+00  0.3200E-01
     -9.739  0.0000E+00  0.3200E-01
     -9.645  0.0000E+00  0.3200E-01
     -9.551  0.3937E-18  0.3200E-01
     -9.457  0.1906E-13  0.3200E-01
     -9.363  0.1129E-09  0.3200E-01
     -9.269  0.1196E-06  0.3200E-01
     -9.175  0.2324E-04  0.3200E-01
     -9.081  0.8603E-03  0.3208E-01
     -8.987  0.6426E-02  0.3269E-01
     -8.893  0.1071E-01  0.3369E-01
     -8.799  0.8537E-02  0.3450E-01
     -8.705  0.1076E-01  0.3551E-01
     -8.611  0.4944E-02  0.3597E-01
     -8.517  0.3196E-02  0.3627E-01
     -8.423  0.1107E-01  0.3731E-01
     -8.329  0.1998E-01  0.3919E-01
     -8.235  0.3275E-01  0.4227E-01
     -8.141  0.4373E-01  0.4638E-01
     -8.047  0.4070E-01  0.5021E-01
     -7.953  0.2507E-01  0.5256E-01
     -7.859  0.3363E-01  0.5572E-01
     -7.765  0.5343E-01  0.6075E-01
     -7.671  0.6509E-01  0.6687E-01
     -7.577  0.6698E-01  0.7316E-01
     -7.483  0.6572E-01  0.7934E-01
     -7.389  0.7153E-01  0.8606E-01
     -7.295  0.8471E-01  0.9403E-01
     -7.201  0.1084E+00  0.1042E+00
     -7.107  0.1274E+00  0.1162E+00
     -7.013  0.1359E+00  0.1290E+00
     -6.919  0.1257E+00  0.1408E+00
     -6.825  0.1166E+00  0.1517E+00
     -6.731  0.1173E+00  0.1628E+00
     -6.637  0.1286E+00  0.1748E+00
     -6.543  0.1503E+00  0.1890E+00
     -6.449  0.1639E+00  0.2044E+00
     -6.355  0.1684E+00  0.2202E+00
     -6.261  0.1713E+00  0.2363E+00
     -6.167  0.1709E+00  0.2524E+00
     -6.073  0.1640E+00  0.2678E+00
     -5.979  0.1596E+00  0.2828E+00
     -5.885  0.1631E+00  0.2981E+00
     -5.791  0.1654E+00  0.3137E+00
     -5.697  0.1661E+00  0.3293E+00
     -5.603  0.1734E+00  0.3456E+00
     -5.509  0.1765E+00  0.3622E+00
     -5.415  0.1712E+00  0.3783E+00
     -5.321  0.1757E+00  0.3948E+00
     -5.227  0.1766E+00  0.4114E+00
     -5.133  0.1823E+00  0.4285E+00
     -5.039  0.1931E+00  0.4467E+00
     -4.945  0.1975E+00  0.4653E+00
     -4.851  0.1916E+00  0.4833E+00
     -4.757  0.1828E+00  0.5004E+00
     -4.663  0.1835E+00  0.5177E+00
     -4.569  0.1908E+00  0.5356E+00
     -4.475  0.1913E+00  0.5536E+00
     -4.381  0.1816E+00  0.5707E+00
     -4.287  0.1766E+00  0.5873E+00
     -4.193  0.1870E+00  0.6049E+00
     -4.099  0.2027E+00  0.6239E+00
     -4.005  0.2025E+00  0.6430E+00
     -3.911  0.1963E+00  0.6614E+00
     -3.817  0.1945E+00  0.6797E+00
     -3.723  0.1939E+00  0.6979E+00
     -3.629  0.1923E+00  0.7160E+00
     -3.535  0.1826E+00  0.7332E+00
     -3.441  0.1797E+00  0.7500E+00
     -3.347  0.1771E+00  0.7667E+00
     -3.253  0.1706E+00  0.7827E+00
     -3.159  0.1681E+00  0.7985E+00
     -3.065  0.1681E+00  0.8143E+00
     -2.971  0.1733E+00  0.8306E+00
     -2.877  0.1819E+00  0.8477E+00
     -2.783  0.1897E+00  0.8656E+00
     -2.689  0.1995E+00  0.8843E+00
     -2.595  0.1960E+00  0.9028E+00
     -2.501  0.1911E+00  0.9207E+00
     -2.407  0.1890E+00  0.9385E+00
     -2.313  0.1949E+00  0.9568E+00
     -2.219  0.2103E+00  0.9766E+00
     -2.125  0.2085E+00  0.9962E+00
     -2.031  0.1965E+00  0.1015E+01
     -1.937  0.1832E+00  0.1032E+01
     -1.843  0.1700E+00  0.1048E+01
     -1.749  0.1483E+00  0.1062E+01
     -1.655  0.1406E+00  0.1075E+01
     -1.561  0.1255E+00  0.1087E+01
     -1.467  0.9555E-01  0.1096E+01
     -1.373  0.8435E-01  0.1104E+01
     -1.279  0.6908E-01  0.1110E+01
     -1.185  0.5890E-01  0.1116E+01
     -1.091  0.6089E-01  0.1121E+01
     -0.997  0.5060E-01  0.1126E+01
     -0.903  0.4978E-01  0.1131E+01
     -0.809  0.6162E-01  0.1137E+01
     -0.715  0.6059E-01  0.1142E+01
     -0.621  0.5803E-01  0.1148E+01
     -0.527  0.5829E-01  0.1153E+01
     -0.433  0.4771E-01  0.1158E+01
     -0.339  0.3812E-01  0.1161E+01
     -0.245  0.2880E-01  0.1164E+01
     -0.151  0.1971E-01  0.1166E+01
     -0.057  0.2166E-01  0.1168E+01
      0.037  0.2065E-01  0.1170E+01
      0.131  0.2184E-01  0.1172E+01
      0.225  0.2771E-01  0.1175E+01
      0.319  0.2468E-01  0.1177E+01
      0.413  0.2799E-01  0.1180E+01
      0.507  0.3817E-01  0.1183E+01
      0.601  0.4240E-01  0.1187E+01
      0.695  0.4370E-01  0.1191E+01
      0.789  0.3539E-01  0.1195E+01
      0.883  0.2152E-01  0.1197E+01
      0.977  0.2037E-01  0.1198E+01
      1.071  0.2585E-01  0.1201E+01
      1.165  0.2515E-01  0.1203E+01
      1.259  0.1738E-01  0.1205E+01
      1.353  0.1462E-01  0.1206E+01
      1.447  0.2523E-01  0.1209E+01
      1.541  0.3065E-01  0.1212E+01
      1.635  0.3409E-01  0.1215E+01
      1.729  0.3305E-01  0.1218E+01
      1.823  0.2850E-01  0.1221E+01
      1.917  0.3342E-01  0.1224E+01
      2.011  0.3639E-01  0.1227E+01
      2.105  0.3133E-01  0.1230E+01
      2.199  0.2895E-01  0.1233E+01
      2.293  0.2707E-01  0.1235E+01
      2.387  0.2902E-01  0.1238E+01
      2.481  0.3085E-01  0.1241E+01
      2.575  0.2440E-01  0.1243E+01
      2.669  0.2219E-01  0.1245E+01
      2.763  0.2181E-01  0.1247E+01
      2.857  0.2264E-01  0.1250E+01
      2.951  0.1989E-01  0.1251E+01
      3.045  0.2971E-01  0.1254E+01
      3.139  0.3876E-01  0.1258E+01
      3.233  0.3825E-01  0.1261E+01
      3.327  0.3150E-01  0.1264E+01
      3.422  0.3551E-01  0.1268E+01
      3.516  0.3859E-01  0.1271E+01
      3.610  0.3303E-01  0.1274E+01
      3.704  0.2933E-01  0.1277E+01
      3.798  0.3325E-01  0.1280E+01
      3.892  0.3497E-01  0.1284E+01
      3.986  0.3192E-01  0.1287E+01
      4.080  0.3065E-01  0.1289E+01
      4.174  0.3702E-01  0.1293E+01
      4.268  0.4768E-01  0.1297E+01
      4.362  0.5254E-01  0.1302E+01
      4.456  0.4988E-01  0.1307E+01
      4.550  0.4813E-01  0.1312E+01
      4.644  0.5484E-01  0.1317E+01
      4.738  0.5546E-01  0.1322E+01
      4.832  0.5230E-01  0.1327E+01
      4.926  0.5242E-01  0.1332E+01
      5.020  0.5584E-01  0.1337E+01
      5.114  0.4682E-01  0.1341E+01
      5.208  0.2245E-01  0.1344E+01
      5.302  0.4218E-02  0.1344E+01
      5.396  0.2328E-03  0.1344E+01
      5.490  0.3013E-05  0.1344E+01
      5.584  0.7904E-08  0.1344E+01
      5.678  0.3895E-11  0.1344E+01
      5.772  0.3472E-15  0.1344E+01
      5.866  0.0000E+00  0.1344E+01
      5.960  0.0000E+00  0.1344E+01
      6.054  0.0000E+00  0.1344E+01
      6.148  0.0000E+00  0.1344E+01
      6.242  0.0000E+00  0.1344E+01
      6.336  0.0000E+00  0.1344E+01
      6.430  0.0000E+00  0.1344E+01
