  56  56   0   0
  0.4903395E+02  0.1100258E-08  0.1100258E-08  0.2619179E-08  0.3500000E-15
  1.000000000000000E-004
  CAR 
 unknown system                          
      6.40452685    -21.71545768  301     -1.27210348      1.00000000
    -21.715  0.0000E+00  0.0000E+00
    -21.622  0.0000E+00  0.0000E+00
    -21.528  0.0000E+00  0.0000E+00
    -21.434  0.0000E+00  0.0000E+00
    -21.341  0.0000E+00  0.0000E+00
    -21.247  0.0000E+00  0.0000E+00
    -21.153  0.0000E+00  0.0000E+00
    -21.059  0.0000E+00  0.0000E+00
    -20.966  0.6518E-15  0.6110E-16
    -20.872  0.7394E-11  0.6931E-12
    -20.778  0.1528E-07  0.1433E-08
    -20.684  0.5889E-05  0.5534E-06
    -20.591  0.4434E-03  0.4211E-04
    -20.497  0.7155E-02  0.7127E-03
    -20.403  0.3023E-01  0.3546E-02
    -20.309  0.5136E-01  0.8360E-02
    -20.216  0.6275E-01  0.1424E-01
    -20.122  0.7043E-01  0.2084E-01
    -20.028  0.6680E-01  0.2710E-01
    -19.935  0.4145E-01  0.3099E-01
    -19.841  0.1012E-01  0.3194E-01
    -19.747  0.6527E-03  0.3200E-01
    -19.653  0.9224E-05  0.3200E-01
    -19.560  0.2587E-07  0.3200E-01
    -19.466  0.1361E-10  0.3200E-01
    -19.372  0.1304E-14  0.3200E-01
    -19.278  0.0000E+00  0.3200E-01
    -19.185  0.0000E+00  0.3200E-01
    -19.091  0.0000E+00  0.3200E-01
    -18.997  0.0000E+00  0.3200E-01
    -18.903  0.0000E+00  0.3200E-01
    -18.810  0.0000E+00  0.3200E-01
    -18.716  0.0000E+00  0.3200E-01
    -18.622  0.0000E+00  0.3200E-01
    -18.529  0.0000E+00  0.3200E-01
    -18.435  0.0000E+00  0.3200E-01
    -18.341  0.0000E+00  0.3200E-01
    -18.247  0.0000E+00  0.3200E-01
    -18.154  0.0000E+00  0.3200E-01
    -18.060  0.0000E+00  0.3200E-01
    -17.966  0.0000E+00  0.3200E-01
    -17.872  0.0000E+00  0.3200E-01
    -17.779  0.0000E+00  0.3200E-01
    -17.685  0.0000E+00  0.3200E-01
    -17.591  0.0000E+00  0.3200E-01
    -17.497  0.0000E+00  0.3200E-01
    -17.404  0.0000E+00  0.3200E-01
    -17.310  0.0000E+00  0.3200E-01
    -17.216  0.0000E+00  0.3200E-01
    -17.123  0.0000E+00  0.3200E-01
    -17.029  0.0000E+00  0.3200E-01
    -16.935  0.0000E+00  0.3200E-01
    -16.841  0.0000E+00  0.3200E-01
    -16.748  0.0000E+00  0.3200E-01
    -16.654  0.0000E+00  0.3200E-01
    -16.560  0.0000E+00  0.3200E-01
    -16.466  0.0000E+00  0.3200E-01
    -16.373  0.0000E+00  0.3200E-01
    -16.279  0.0000E+00  0.3200E-01
    -16.185  0.0000E+00  0.3200E-01
    -16.091  0.0000E+00  0.3200E-01
    -15.998  0.0000E+00  0.3200E-01
    -15.904  0.0000E+00  0.3200E-01
    -15.810  0.0000E+00  0.3200E-01
    -15.717  0.0000E+00  0.3200E-01
    -15.623  0.0000E+00  0.3200E-01
    -15.529  0.0000E+00  0.3200E-01
    -15.435  0.0000E+00  0.3200E-01
    -15.342  0.0000E+00  0.3200E-01
    -15.248  0.0000E+00  0.3200E-01
    -15.154  0.0000E+00  0.3200E-01
    -15.060  0.0000E+00  0.3200E-01
    -14.967  0.0000E+00  0.3200E-01
    -14.873  0.0000E+00  0.3200E-01
    -14.779  0.0000E+00  0.3200E-01
    -14.685  0.0000E+00  0.3200E-01
    -14.592  0.0000E+00  0.3200E-01
    -14.498  0.0000E+00  0.3200E-01
    -14.404  0.0000E+00  0.3200E-01
    -14.311  0.0000E+00  0.3200E-01
    -14.217  0.0000E+00  0.3200E-01
    -14.123  0.0000E+00  0.3200E-01
    -14.029  0.0000E+00  0.3200E-01
    -13.936  0.0000E+00  0.3200E-01
    -13.842  0.0000E+00  0.3200E-01
    -13.748  0.0000E+00  0.3200E-01
    -13.654  0.0000E+00  0.3200E-01
    -13.561  0.0000E+00  0.3200E-01
    -13.467  0.0000E+00  0.3200E-01
    -13.373  0.0000E+00  0.3200E-01
    -13.279  0.0000E+00  0.3200E-01
    -13.186  0.0000E+00  0.3200E-01
    -13.092  0.0000E+00  0.3200E-01
    -12.998  0.0000E+00  0.3200E-01
    -12.905  0.0000E+00  0.3200E-01
    -12.811  0.0000E+00  0.3200E-01
    -12.717  0.0000E+00  0.3200E-01
    -12.623  0.0000E+00  0.3200E-01
    -12.530  0.0000E+00  0.3200E-01
    -12.436  0.0000E+00  0.3200E-01
    -12.342  0.0000E+00  0.3200E-01
    -12.248  0.0000E+00  0.3200E-01
    -12.155  0.0000E+00  0.3200E-01
    -12.061  0.0000E+00  0.3200E-01
    -11.967  0.0000E+00  0.3200E-01
    -11.873  0.0000E+00  0.3200E-01
    -11.780  0.0000E+00  0.3200E-01
    -11.686  0.0000E+00  0.3200E-01
    -11.592  0.0000E+00  0.3200E-01
    -11.499  0.0000E+00  0.3200E-01
    -11.405  0.0000E+00  0.3200E-01
    -11.311  0.0000E+00  0.3200E-01
    -11.217  0.0000E+00  0.3200E-01
    -11.124  0.0000E+00  0.3200E-01
    -11.030  0.0000E+00  0.3200E-01
    -10.936  0.0000E+00  0.3200E-01
    -10.842  0.0000E+00  0.3200E-01
    -10.749  0.0000E+00  0.3200E-01
    -10.655  0.0000E+00  0.3200E-01
    -10.561  0.0000E+00  0.3200E-01
    -10.467  0.0000E+00  0.3200E-01
    -10.374  0.0000E+00  0.3200E-01
    -10.280  0.0000E+00  0.3200E-01
    -10.186  0.0000E+00  0.3200E-01
    -10.093  0.7896E-16  0.3200E-01
     -9.999  0.1168E-11  0.3200E-01
     -9.905  0.3108E-08  0.3200E-01
     -9.811  0.1513E-05  0.3200E-01
     -9.718  0.1386E-03  0.3201E-01
     -9.624  0.2504E-02  0.3225E-01
     -9.530  0.9473E-02  0.3314E-01
     -9.436  0.8504E-02  0.3393E-01
     -9.343  0.7171E-02  0.3461E-01
     -9.249  0.1037E-01  0.3558E-01
     -9.155  0.4141E-02  0.3597E-01
     -9.061  0.4468E-03  0.3601E-01
     -8.968  0.1570E-02  0.3615E-01
     -8.874  0.7757E-02  0.3688E-01
     -8.780  0.1538E-01  0.3832E-01
     -8.687  0.2021E-01  0.4022E-01
     -8.593  0.1783E-01  0.4189E-01
     -8.499  0.1155E-01  0.4297E-01
     -8.405  0.7474E-02  0.4367E-01
     -8.312  0.1062E-01  0.4467E-01
     -8.218  0.2068E-01  0.4661E-01
     -8.124  0.2208E-01  0.4868E-01
     -8.030  0.2372E-01  0.5090E-01
     -7.937  0.5735E-01  0.5628E-01
     -7.843  0.9221E-01  0.6492E-01
     -7.749  0.1002E+00  0.7431E-01
     -7.655  0.1039E+00  0.8405E-01
     -7.562  0.1128E+00  0.9462E-01
     -7.468  0.1207E+00  0.1059E+00
     -7.374  0.1273E+00  0.1179E+00
     -7.281  0.1331E+00  0.1303E+00
     -7.187  0.1254E+00  0.1421E+00
     -7.093  0.1285E+00  0.1541E+00
     -6.999  0.1447E+00  0.1677E+00
     -6.906  0.1506E+00  0.1818E+00
     -6.812  0.1488E+00  0.1958E+00
     -6.718  0.1508E+00  0.2099E+00
     -6.624  0.1636E+00  0.2252E+00
     -6.531  0.1751E+00  0.2416E+00
     -6.437  0.1725E+00  0.2578E+00
     -6.343  0.1542E+00  0.2723E+00
     -6.249  0.1440E+00  0.2858E+00
     -6.156  0.1463E+00  0.2995E+00
     -6.062  0.1403E+00  0.3126E+00
     -5.968  0.1402E+00  0.3258E+00
     -5.875  0.1496E+00  0.3398E+00
     -5.781  0.1644E+00  0.3552E+00
     -5.687  0.1833E+00  0.3724E+00
     -5.593  0.1823E+00  0.3895E+00
     -5.500  0.1733E+00  0.4057E+00
     -5.406  0.1705E+00  0.4217E+00
     -5.312  0.1677E+00  0.4374E+00
     -5.218  0.1723E+00  0.4536E+00
     -5.125  0.1766E+00  0.4701E+00
     -5.031  0.1794E+00  0.4869E+00
     -4.937  0.1754E+00  0.5034E+00
     -4.843  0.1750E+00  0.5198E+00
     -4.750  0.1896E+00  0.5375E+00
     -4.656  0.1871E+00  0.5551E+00
     -4.562  0.1702E+00  0.5710E+00
     -4.469  0.1823E+00  0.5881E+00
     -4.375  0.2052E+00  0.6074E+00
     -4.281  0.2203E+00  0.6280E+00
     -4.187  0.2228E+00  0.6489E+00
     -4.094  0.2200E+00  0.6695E+00
     -4.000  0.2157E+00  0.6897E+00
     -3.906  0.2065E+00  0.7091E+00
     -3.812  0.1892E+00  0.7268E+00
     -3.719  0.1793E+00  0.7436E+00
     -3.625  0.1886E+00  0.7613E+00
     -3.531  0.1994E+00  0.7800E+00
     -3.437  0.1918E+00  0.7980E+00
     -3.344  0.1794E+00  0.8148E+00
     -3.250  0.1759E+00  0.8313E+00
     -3.156  0.1720E+00  0.8474E+00
     -3.063  0.1635E+00  0.8627E+00
     -2.969  0.1570E+00  0.8774E+00
     -2.875  0.1580E+00  0.8923E+00
     -2.781  0.1658E+00  0.9078E+00
     -2.688  0.1806E+00  0.9247E+00
     -2.594  0.1814E+00  0.9417E+00
     -2.500  0.1654E+00  0.9572E+00
     -2.406  0.1609E+00  0.9723E+00
     -2.313  0.1634E+00  0.9876E+00
     -2.219  0.1639E+00  0.1003E+01
     -2.125  0.1513E+00  0.1017E+01
     -2.031  0.1440E+00  0.1031E+01
     -1.938  0.1322E+00  0.1043E+01
     -1.844  0.1176E+00  0.1054E+01
     -1.750  0.1011E+00  0.1064E+01
     -1.657  0.9676E-01  0.1073E+01
     -1.563  0.9686E-01  0.1082E+01
     -1.469  0.8657E-01  0.1090E+01
     -1.375  0.7599E-01  0.1097E+01
     -1.282  0.6875E-01  0.1103E+01
     -1.188  0.6614E-01  0.1110E+01
     -1.094  0.7174E-01  0.1116E+01
     -1.000  0.8207E-01  0.1124E+01
     -0.907  0.8564E-01  0.1132E+01
     -0.813  0.7514E-01  0.1139E+01
     -0.719  0.6405E-01  0.1145E+01
     -0.625  0.5116E-01  0.1150E+01
     -0.532  0.4747E-01  0.1154E+01
     -0.438  0.4170E-01  0.1158E+01
     -0.344  0.3543E-01  0.1162E+01
     -0.251  0.2408E-01  0.1164E+01
     -0.157  0.1754E-01  0.1165E+01
     -0.063  0.2237E-01  0.1168E+01
      0.031  0.3276E-01  0.1171E+01
      0.124  0.4249E-01  0.1175E+01
      0.218  0.4399E-01  0.1179E+01
      0.312  0.4304E-01  0.1183E+01
      0.406  0.3216E-01  0.1186E+01
      0.499  0.3143E-01  0.1189E+01
      0.593  0.3222E-01  0.1192E+01
      0.687  0.3059E-01  0.1195E+01
      0.781  0.1970E-01  0.1196E+01
      0.874  0.1296E-01  0.1198E+01
      0.968  0.1149E-01  0.1199E+01
      1.062  0.1938E-01  0.1201E+01
      1.155  0.2213E-01  0.1203E+01
      1.249  0.2831E-01  0.1205E+01
      1.343  0.3508E-01  0.1209E+01
      1.437  0.3023E-01  0.1211E+01
      1.530  0.3421E-01  0.1215E+01
      1.624  0.4381E-01  0.1219E+01
      1.718  0.4198E-01  0.1223E+01
      1.812  0.3305E-01  0.1226E+01
      1.905  0.2900E-01  0.1228E+01
      1.999  0.3331E-01  0.1232E+01
      2.093  0.3078E-01  0.1234E+01
      2.187  0.1956E-01  0.1236E+01
      2.280  0.1190E-01  0.1237E+01
      2.374  0.1223E-01  0.1239E+01
      2.468  0.1662E-01  0.1240E+01
      2.561  0.1703E-01  0.1242E+01
      2.655  0.2035E-01  0.1244E+01
      2.749  0.2376E-01  0.1246E+01
      2.843  0.2944E-01  0.1249E+01
      2.936  0.3575E-01  0.1252E+01
      3.030  0.3388E-01  0.1255E+01
      3.124  0.2692E-01  0.1258E+01
      3.218  0.2136E-01  0.1260E+01
      3.311  0.1723E-01  0.1261E+01
      3.405  0.2107E-01  0.1263E+01
      3.499  0.2664E-01  0.1266E+01
      3.593  0.3107E-01  0.1269E+01
      3.686  0.3952E-01  0.1272E+01
      3.780  0.5270E-01  0.1277E+01
      3.874  0.5335E-01  0.1282E+01
      3.967  0.5076E-01  0.1287E+01
      4.061  0.3998E-01  0.1291E+01
      4.155  0.2558E-01  0.1293E+01
      4.249  0.2638E-01  0.1296E+01
      4.342  0.3969E-01  0.1299E+01
      4.436  0.5108E-01  0.1304E+01
      4.530  0.5535E-01  0.1309E+01
      4.624  0.5244E-01  0.1314E+01
      4.717  0.5252E-01  0.1319E+01
      4.811  0.5164E-01  0.1324E+01
      4.905  0.5511E-01  0.1329E+01
      4.999  0.6849E-01  0.1336E+01
      5.092  0.5798E-01  0.1341E+01
      5.186  0.2615E-01  0.1344E+01
      5.280  0.4695E-02  0.1344E+01
      5.373  0.2445E-03  0.1344E+01
      5.467  0.2981E-05  0.1344E+01
      5.561  0.7534E-08  0.1344E+01
      5.655  0.3692E-11  0.1344E+01
      5.748  0.3380E-15  0.1344E+01
      5.842  0.0000E+00  0.1344E+01
      5.936  0.0000E+00  0.1344E+01
      6.030  0.0000E+00  0.1344E+01
      6.123  0.0000E+00  0.1344E+01
      6.217  0.0000E+00  0.1344E+01
      6.311  0.0000E+00  0.1344E+01
      6.405  0.0000E+00  0.1344E+01
