unknown system                          
           1
    11.002582    0.000000    0.000000
     5.501291    9.528515    0.000000
     0.000000    0.000000   26.191785
   Au   O    Pd
  24   8  24
Direct configuration=     1
   0.08333333  0.08333333  0.38179910
   0.33333333  0.83333333  0.38179910
   0.83333333  0.83333333  0.38179910
   0.66666667  0.41666667  0.46754708
   0.83333333  0.33333333  0.38179910
   0.08333333  0.33333333  0.38179910
   0.91666667  0.41666667  0.46754708
   0.83333333  0.08333333  0.38179910
   0.66666667  0.91666667  0.46754708
   0.08333333  0.58333333  0.38179910
   0.91666667  0.66666667  0.46754708
   0.58333333  0.83333333  0.38179910
   0.41666667  0.91666667  0.46754708
   0.16666667  0.66666667  0.46754708
   0.58333333  0.58333333  0.38179910
   0.33333333  0.08333333  0.38179910
   0.16666667  0.16666667  0.46754708
   0.58333333  0.33333333  0.38179910
   0.33333333  0.33333333  0.38179910
   0.16666667  0.41666667  0.46754708
   0.41666667  0.16666667  0.46754708
   0.58333333  0.08333333  0.38179910
   0.33333333  0.58333333  0.38179910
   0.08333333  0.83333333  0.38179910
   0.33333333  0.33333333  0.61820090
   0.08333333  0.83333333  0.61820090
   0.83333333  0.58333333  0.61820090
   0.08333333  0.08333333  0.61820090
   0.33333333  0.58333333  0.61820090
   0.83333333  0.08333333  0.61820090
   0.58333333  0.08333333  0.61820090
   0.58333333  0.33333333  0.61820090
   0.16666667  0.91666667  0.46754708
   0.25000000  0.75000000  0.55329505
   0.75000000  0.75000000  0.55329505
   0.25000000  0.25000000  0.55329505
   0.50000000  0.00000000  0.55329505
   0.25000000  0.00000000  0.55329505
   0.41666667  0.41666667  0.46754708
   0.50000000  0.25000000  0.55329505
   0.00000000  0.75000000  0.55329505
   0.75000000  0.25000000  0.55329505
   0.41666667  0.66666667  0.46754708
   0.75000000  0.50000000  0.55329505
   0.91666667  0.91666667  0.46754708
   0.00000000  0.50000000  0.55329505
   0.50000000  0.75000000  0.55329505
   0.66666667  0.66666667  0.46754708
   0.00000000  0.25000000  0.55329505
   0.66666667  0.16666667  0.46754708
   0.75000000  0.00000000  0.55329505
   0.00000000  0.00000000  0.55329505
   0.91666667  0.16666667  0.46754708
   0.25000000  0.50000000  0.55329505
   0.50000000  0.50000000  0.55329505
   0.83333333  0.58333333  0.38179910
Direct configuration=     2
   0.08333333  0.08333333  0.38179910
   0.33333333  0.83333333  0.38179910
   0.83333333  0.83333333  0.38179910
   0.66575937  0.41667909  0.46931009
   0.83333333  0.33333333  0.38179910
   0.08333333  0.33333333  0.38179910
   0.91558231  0.41704725  0.46856013
   0.83333333  0.08333333  0.38179910
   0.66805183  0.91632372  0.46905068
   0.08333333  0.58333333  0.38179910
   0.91566041  0.66746965  0.46859636
   0.58333333  0.83333333  0.38179910
   0.41659877  0.91497201  0.46936703
   0.16767774  0.66720769  0.46878362
   0.58333333  0.58333333  0.38179910
   0.33333333  0.08333333  0.38179910
   0.16586059  0.16600023  0.46896638
   0.58333333  0.33333333  0.38179910
   0.33333333  0.33333333  0.38179910
   0.16725241  0.41713172  0.46907283
   0.41778918  0.16773987  0.46873649
   0.58333333  0.08333333  0.38179910
   0.33333333  0.58333333  0.38179910
   0.08333333  0.83333333  0.38179910
   0.33148234  0.33296169  0.61401078
   0.08361721  0.83197776  0.61411539
   0.83307995  0.58339210  0.61365648
   0.08455488  0.08445932  0.61394231
   0.33339791  0.58429023  0.61404281
   0.83306201  0.08350561  0.61420240
   0.58340137  0.08120085  0.61401635
   0.58452715  0.33456371  0.61416436
   0.16585874  0.91643329  0.46856783
   0.24974494  0.74981918  0.55661801
   0.75078286  0.74767824  0.55570648
   0.25047983  0.25074674  0.55585574
   0.50042588  0.00014124  0.55581304
   0.24876438  0.00063457  0.55567770
   0.41736177  0.41636409  0.46820886
   0.49963610  0.24989407  0.55774640
   0.00037378  0.75115396  0.55561906
   0.74991256  0.24966448  0.55666067
   0.41636602  0.66646559  0.46880809
   0.75071449  0.50159792  0.55576001
   0.91643973  0.91831542  0.46862928
  -0.00201675  0.50102400  0.55581533
   0.49972554  0.75020105  0.55398597
   0.66627605  0.66665004  0.46792092
   0.00120020  0.24793755  0.55565029
   0.66681369  0.16678488  0.46821878
   0.75007169  0.00033919  0.55675583
  -0.00007336  0.00003944  0.55718076
   0.91644615  0.16512460  0.46860984
   0.25060805  0.49946825  0.55698995
   0.49973001  0.50002100  0.55663767
   0.83333333  0.58333333  0.38179910
Direct configuration=     3
   0.08333333  0.08333333  0.38179910
   0.33333333  0.83333333  0.38179910
   0.83333333  0.83333333  0.38179910
   0.66406788  0.41670225  0.47259689
   0.83333333  0.33333333  0.38179910
   0.08333333  0.33333333  0.38179910
   0.91356073  0.41775676  0.47044877
   0.83333333  0.08333333  0.38179910
   0.67063420  0.91568435  0.47185387
   0.08333333  0.58333333  0.38179910
   0.91378443  0.66896667  0.47055255
   0.58333333  0.83333333  0.38179910
   0.41647219  0.91181263  0.47275998
   0.16956270  0.66821633  0.47108892
   0.58333333  0.58333333  0.38179910
   0.33333333  0.08333333  0.38179910
   0.16435782  0.16475777  0.47161240
   0.58333333  0.33333333  0.38179910
   0.33333333  0.33333333  0.38179910
   0.16834443  0.41799873  0.47191732
   0.41988188  0.16974064  0.47095393
   0.58333333  0.08333333  0.38179910
   0.33333333  0.58333333  0.38179910
   0.08333333  0.83333333  0.38179910
   0.32803152  0.33226884  0.60619911
   0.08414644  0.82945054  0.60649875
   0.83260756  0.58350166  0.60518427
   0.08683224  0.08655852  0.60600297
   0.33351831  0.58607417  0.60629085
   0.83255617  0.08382680  0.60674797
   0.58352820  0.07722524  0.60621506
   0.58675279  0.33685752  0.60663900
   0.16435253  0.91599819  0.47047084
   0.24926944  0.74948208  0.56281303
   0.75224236  0.74334976  0.56020213
   0.25137437  0.25213890  0.56062965
   0.50121984  0.00040455  0.56050734
   0.24646079  0.00181760  0.56011968
   0.41865765  0.41580000  0.46944263
   0.49895767  0.24969658  0.56604510
   0.00107062  0.75330530  0.55995173
   0.74974955  0.24903898  0.56293521
   0.41580552  0.66609072  0.47115902
   0.75204651  0.50457694  0.56035546
   0.91601664  0.92138921  0.47064684
  -0.00577659  0.50293307  0.56051392
   0.49921387  0.75057586  0.55527407
   0.66554783  0.66661904  0.46861787
   0.00343774  0.24409249  0.56004117
   0.66708779  0.16700526  0.46947104
   0.75020534  0.00097156  0.56320778
  -0.00021014  0.00011296  0.56442491
   0.91603505  0.16224970  0.47059117
   0.25174164  0.49847690  0.56387838
   0.49922665  0.50006015  0.56286933
   0.83333333  0.58333333  0.38179910
Direct configuration=     4
   0.08333333  0.08333333  0.38179910
   0.33333333  0.83333333  0.38179910
   0.83333333  0.83333333  0.38179910
   0.66445560  0.41669694  0.47184351
   0.83333333  0.33333333  0.38179910
   0.08333333  0.33333333  0.38179910
   0.91402411  0.41759413  0.47001587
   0.83333333  0.08333333  0.38179910
   0.67004229  0.91583090  0.47121134
   0.08333333  0.58333333  0.38179910
   0.91421443  0.66862353  0.47010417
   0.58333333  0.83333333  0.38179910
   0.41650120  0.91253680  0.47198227
   0.16913064  0.66798513  0.47056052
   0.58333333  0.58333333  0.38179910
   0.33333333  0.08333333  0.38179910
   0.16470228  0.16504256  0.47100590
   0.58333333  0.33333333  0.38179910
   0.33333333  0.33333333  0.38179910
   0.16809413  0.41780000  0.47126532
   0.41940221  0.16928203  0.47044566
   0.58333333  0.08333333  0.38179910
   0.33333333  0.58333333  0.38179910
   0.08333333  0.83333333  0.38179910
   0.32882250  0.33242765  0.60798965
   0.08402513  0.83002981  0.60824459
   0.83271583  0.58347655  0.60712621
   0.08631024  0.08607736  0.60782277
   0.33349071  0.58566526  0.60806771
   0.83267212  0.08375318  0.60845663
   0.58349913  0.07813650  0.60800322
   0.58624264  0.33633174  0.60836391
   0.16469777  0.91609792  0.47003465
   0.24937843  0.74955935  0.56139305
   0.75190782  0.74434191  0.55917167
   0.25116933  0.25181979  0.55953541
   0.50103785  0.00034419  0.55943134
   0.24698881  0.00154644  0.55910152
   0.41836061  0.41592930  0.46915984
   0.49911317  0.24974185  0.56414293
   0.00091090  0.75281219  0.55895862
   0.74978691  0.24918235  0.56149700
   0.41593400  0.66617665  0.47062015
   0.75174119  0.50389411  0.55930212
   0.91611362  0.92068466  0.47018439
  -0.00491479  0.50249548  0.55943694
   0.49933116  0.75048995  0.55497882
   0.66571475  0.66662614  0.46845812
   0.00292487  0.24497383  0.55903472
   0.66702496  0.16695474  0.46918400
   0.75017470  0.00082661  0.56172891
  -0.00017879  0.00009611  0.56276446
   0.91612928  0.16290867  0.47013702
   0.25148181  0.49870413  0.56229946
   0.49934203  0.50005118  0.56144095
   0.83333333  0.58333333  0.38179910
Direct configuration=     5
   0.08333333  0.08333333  0.38179910
   0.33333333  0.83333333  0.38179910
   0.83333333  0.83333333  0.38179910
   0.66433470  0.41669860  0.47207842
   0.83333333  0.33333333  0.38179910
   0.08333333  0.33333333  0.38179910
   0.91387962  0.41764484  0.47015085
   0.83333333  0.08333333  0.38179910
   0.67022686  0.91578521  0.47141169
   0.08333333  0.58333333  0.38179910
   0.91408035  0.66873053  0.47024398
   0.58333333  0.83333333  0.38179910
   0.41649216  0.91231100  0.47222477
   0.16926536  0.66805722  0.47072528
   0.58333333  0.58333333  0.38179910
   0.33333333  0.08333333  0.38179910
   0.16459487  0.16495376  0.47119502
   0.58333333  0.33333333  0.38179910
   0.33333333  0.33333333  0.38179910
   0.16817217  0.41786197  0.47146862
   0.41955177  0.16942503  0.47060414
   0.58333333  0.08333333  0.38179910
   0.33333333  0.58333333  0.38179910
   0.08333333  0.83333333  0.38179910
   0.32857586  0.33237813  0.60743134
   0.08406296  0.82984919  0.60770021
   0.83268207  0.58348438  0.60652069
   0.08647300  0.08622739  0.60725534
   0.33349932  0.58579277  0.60751366
   0.83263596  0.08377614  0.60792385
   0.58350819  0.07785236  0.60744565
   0.58640171  0.33649569  0.60782606
   0.16459012  0.91606682  0.47017066
   0.24934445  0.74953526  0.56183582
   0.75201213  0.74403255  0.55949298
   0.25123326  0.25191929  0.55987661
   0.50109460  0.00036301  0.55976685
   0.24682417  0.00163099  0.55941899
   0.41845323  0.41588898  0.46924802
   0.49906468  0.24972773  0.56473604
   0.00096070  0.75296594  0.55926828
   0.74977526  0.24913765  0.56194545
   0.41589394  0.66614985  0.47078818
   0.75183640  0.50410703  0.55963057
   0.91608338  0.92090435  0.47032859
  -0.00518351  0.50263193  0.55977275
   0.49929459  0.75051673  0.55507088
   0.66566270  0.66662393  0.46850793
   0.00308479  0.24469902  0.55934855
   0.66704455  0.16697049  0.46927351
   0.75018425  0.00087181  0.56219004
  -0.00018856  0.00010136  0.56328221
   0.91609990  0.16270319  0.47027863
   0.25156283  0.49863328  0.56279179
   0.49930605  0.50005397  0.56188634
   0.83333333  0.58333333  0.38179910
Direct configuration=     6
   0.08333333  0.08333333  0.38179910
   0.33333333  0.83333333  0.38179910
   0.83333333  0.83333333  0.38179910
   0.66428927  0.41649746  0.47446712
   0.83333333  0.33333333  0.38179910
   0.08333333  0.33333333  0.38179910
   0.91393814  0.41674243  0.47170896
   0.83333333  0.08333333  0.38179910
   0.66988005  0.91643746  0.47346657
   0.08333333  0.58333333  0.38179910
   0.91530357  0.66882949  0.47179800
   0.58333333  0.83333333  0.38179910
   0.41575799  0.91425582  0.47370432
   0.16915977  0.66803602  0.47259140
   0.58333333  0.58333333  0.38179910
   0.33333333  0.08333333  0.38179910
   0.16521316  0.16517187  0.47276597
   0.58333333  0.33333333  0.38179910
   0.33333333  0.33333333  0.38179910
   0.16752237  0.41862333  0.47351693
   0.41978898  0.16836793  0.47233101
   0.58333333  0.08333333  0.38179910
   0.33333333  0.58333333  0.38179910
   0.08333333  0.83333333  0.38179910
   0.32424768  0.33274864  0.60724864
   0.08416943  0.82802471  0.60656311
   0.83248362  0.58370231  0.60646966
   0.08977404  0.08779041  0.60657294
   0.33445120  0.58659736  0.60656965
   0.83225321  0.08425161  0.60689715
   0.58354366  0.07348331  0.60658958
   0.58779720  0.33858240  0.60691467
   0.16453435  0.91564291  0.47170147
   0.25233029  0.75185278  0.56284227
   0.74881930  0.75012777  0.56019504
   0.24783607  0.24994917  0.56053645
   0.49841748 -0.00313485  0.56080311
   0.25311208 -0.00162642  0.56045484
   0.41884176  0.41639241  0.47079929
   0.50020021  0.24913990  0.56598186
  -0.00212016  0.75034436  0.56007280
   0.75224586  0.25313037  0.56267509
   0.41559440  0.66528774  0.47222972
   0.74862713  0.50085256  0.56029584
   0.91594550  0.92121304  0.47195699
   0.00115372  0.49934502  0.56049126
   0.49858966  0.75109250  0.55631446
   0.66515836  0.66657201  0.46932813
   0.00030476  0.25027945  0.56002673
   0.66762723  0.16697974  0.47086425
   0.75248448 -0.00566199  0.56310319
  -0.00022040 -0.00019515  0.56405465
   0.91512166  0.16311390  0.47188111
   0.24511111  0.50166847  0.56380642
   0.50290025  0.50312084  0.56270947
   0.83333333  0.58333333  0.38179910
Direct configuration=     7
   0.08333333  0.08333333  0.38179910
   0.33333333  0.83333333  0.38179910
   0.83333333  0.83333333  0.38179910
   0.66425167  0.41633099  0.47644409
   0.83333333  0.33333333  0.38179910
   0.08333333  0.33333333  0.38179910
   0.91398658  0.41599556  0.47299851
   0.83333333  0.08333333  0.38179910
   0.66959302  0.91697728  0.47516726
   0.08333333  0.58333333  0.38179910
   0.91631595  0.66891139  0.47308416
   0.58333333  0.83333333  0.38179910
   0.41515037  0.91586542  0.47492885
   0.16907237  0.66801847  0.47413586
   0.58333333  0.58333333  0.38179910
   0.33333333  0.08333333  0.38179910
   0.16572488  0.16535239  0.47406614
   0.58333333  0.33333333  0.38179910
   0.33333333  0.33333333  0.38179910
   0.16698458  0.41925346  0.47521219
   0.41998529  0.16749304  0.47376022
   0.58333333  0.08333333  0.38179910
   0.33333333  0.58333333  0.38179910
   0.08333333  0.83333333  0.38179910
   0.32066552  0.33305528  0.60709744
   0.08425755  0.82651471  0.60562201
   0.83231938  0.58388267  0.60642742
   0.09250610  0.08908402  0.60600816
   0.33523901  0.58726326  0.60578835
   0.83193643  0.08464513  0.60604742
   0.58357302  0.06986732  0.60588106
   0.58895215  0.34030944  0.60616037
   0.16448819  0.91529207  0.47296842
   0.25480148  0.75377083  0.56367524
   0.74617680  0.75517239  0.56077609
   0.24502443  0.24831862  0.56108256
   0.49620181 -0.00602981  0.56166076
   0.25831617 -0.00432236  0.56131214
   0.41916331  0.41680907  0.47208318
   0.50114001  0.24865338  0.56701294
  -0.00466999  0.74817465  0.56073864
   0.75429060  0.25643489  0.56327897
   0.41534650  0.66457422  0.47342280
   0.74597103  0.49815905  0.56084644
   0.91583139  0.92146852  0.47330471
   0.00639863  0.49662466  0.56108593
   0.49800624  0.75156903  0.55734369
   0.66474096  0.66652904  0.47000695
  -0.00199609  0.25489800  0.56058801
   0.66810947  0.16698739  0.47218080
   0.75438823 -0.01106959  0.56385894
  -0.00024675 -0.00044056  0.56469395
   0.91431204  0.16345381  0.47320739
   0.23977145  0.50418051  0.56464617
   0.50587493  0.50565909  0.56339073
   0.83333333  0.58333333  0.38179910
Direct configuration=     8
   0.08333333  0.08333333  0.38179910
   0.33333333  0.83333333  0.38179910
   0.83333333  0.83333333  0.38179910
   0.66412816  0.41631549  0.47676496
   0.83333333  0.33333333  0.38179910
   0.08333333  0.33333333  0.38179910
   0.91369402  0.41640433  0.47380706
   0.83333333  0.08333333  0.38179910
   0.66906309  0.91730509  0.47588398
   0.08333333  0.58333333  0.38179910
   0.91587514  0.66871017  0.47386853
   0.58333333  0.83333333  0.38179910
   0.41512162  0.91595382  0.47478192
   0.16884082  0.66831967  0.47562047
   0.58333333  0.58333333  0.38179910
   0.33333333  0.08333333  0.38179910
   0.16536073  0.16545694  0.47485300
   0.58333333  0.33333333  0.38179910
   0.33333333  0.33333333  0.38179910
   0.16792057  0.41864346  0.47585052
   0.41981209  0.16803908  0.47514120
   0.58333333  0.08333333  0.38179910
   0.33333333  0.58333333  0.38179910
   0.08333333  0.83333333  0.38179910
   0.31674420  0.33328640  0.60801783
   0.08380863  0.82384049  0.60589328
   0.83205639  0.58398022  0.60547310
   0.09553972  0.09063851  0.60587011
   0.33685944  0.58573647  0.60640037
   0.82933183  0.08637979  0.60654229
   0.58350665  0.06539124  0.60689807
   0.58961500  0.34202717  0.60765162
   0.16465416  0.91579064  0.47423244
   0.25604426  0.75728235  0.56387086
   0.74555211  0.75282891  0.56227065
   0.24436401  0.24472187  0.56210942
   0.49217382 -0.00702970  0.56290417
   0.26129497 -0.00632375  0.56271121
   0.41887296  0.41658139  0.47367214
   0.49999608  0.24867001  0.56707774
  -0.00559338  0.74520016  0.56199034
   0.75952199  0.25419941  0.56360792
   0.41537026  0.66491371  0.47423679
   0.74708965  0.50133179  0.56253370
   0.91618376  0.92093733  0.47446720
   0.00403002  0.49703194  0.56280898
   0.49987407  0.75073077  0.55885720
   0.66454426  0.66683733  0.47088164
  -0.00323830  0.25802707  0.56165759
   0.66820089  0.16694600  0.47375776
   0.75664219 -0.01387982  0.56437154
   0.00265609  0.00079007  0.56409100
   0.91467163  0.16382548  0.47442972
   0.23755273  0.50729857  0.56549325
   0.50399028  0.51056283  0.56369888
   0.83333333  0.58333333  0.38179910
Direct configuration=     9
   0.08333333  0.08333333  0.38179910
   0.33333333  0.83333333  0.38179910
   0.83333333  0.83333333  0.38179910
   0.66412041  0.41631452  0.47678509
   0.83333333  0.33333333  0.38179910
   0.08333333  0.33333333  0.38179910
   0.91367566  0.41642998  0.47385780
   0.83333333  0.08333333  0.38179910
   0.66902984  0.91732566  0.47592895
   0.08333333  0.58333333  0.38179910
   0.91584748  0.66869755  0.47391775
   0.58333333  0.83333333  0.38179910
   0.41511982  0.91595937  0.47477270
   0.16882628  0.66833857  0.47571363
   0.58333333  0.58333333  0.38179910
   0.33333333  0.08333333  0.38179910
   0.16533788  0.16546350  0.47490237
   0.58333333  0.33333333  0.38179910
   0.33333333  0.33333333  0.38179910
   0.16797930  0.41860518  0.47589057
   0.41980122  0.16807335  0.47522785
   0.58333333  0.08333333  0.38179910
   0.33333333  0.58333333  0.38179910
   0.08333333  0.83333333  0.38179910
   0.31649814  0.33330090  0.60807558
   0.08378047  0.82367269  0.60591030
   0.83203989  0.58398634  0.60541321
   0.09573008  0.09073606  0.60586145
   0.33696112  0.58564066  0.60643877
   0.82916840  0.08648864  0.60657334
   0.58350249  0.06511036  0.60696189
   0.58965659  0.34213496  0.60774520
   0.16466457  0.91582193  0.47431176
   0.25612224  0.75750269  0.56388313
   0.74551291  0.75268185  0.56236444
   0.24432257  0.24449617  0.56217386
   0.49192106 -0.00709244  0.56298219
   0.26148189 -0.00644933  0.56279900
   0.41885474  0.41656711  0.47377184
   0.49992429  0.24867106  0.56708180
  -0.00565132  0.74501351  0.56206888
   0.75985026  0.25405914  0.56362856
   0.41537175  0.66493502  0.47428787
   0.74715984  0.50153088  0.56263958
   0.91620587  0.92090399  0.47454014
   0.00388139  0.49705749  0.56291710
   0.49999128  0.75067817  0.55895217
   0.66453192  0.66685668  0.47093652
  -0.00331625  0.25822342  0.56172470
   0.66820662  0.16694340  0.47385672
   0.75678363 -0.01405616  0.56440371
   0.00283825  0.00086729  0.56405316
   0.91469419  0.16384880  0.47450643
   0.23741350  0.50749423  0.56554640
   0.50387202  0.51087054  0.56371822
   0.83333333  0.58333333  0.38179910
Direct configuration=    10
   0.08333333  0.08333333  0.38179910
   0.33333333  0.83333333  0.38179910
   0.83333333  0.83333333  0.38179910
   0.66416925  0.41659654  0.47660404
   0.83333333  0.33333333  0.38179910
   0.08333333  0.33333333  0.38179910
   0.91328646  0.41743721  0.47398889
   0.83333333  0.08333333  0.38179910
   0.66850924  0.91731500  0.47610883
   0.08333333  0.58333333  0.38179910
   0.91493534  0.66831220  0.47404710
   0.58333333  0.83333333  0.38179910
   0.41556582  0.91489366  0.47417374
   0.16855468  0.66873937  0.47638854
   0.58333333  0.58333333  0.38179910
   0.33333333  0.08333333  0.38179910
   0.16471656  0.16541234  0.47503775
   0.58333333  0.33333333  0.38179910
   0.33333333  0.33333333  0.38179910
   0.16857042  0.41796101  0.47607366
   0.41973196  0.16874723  0.47591712
   0.58333333  0.08333333  0.38179910
   0.33333333  0.58333333  0.38179910
   0.08333333  0.83333333  0.38179910
   0.31412125  0.33377903  0.60864012
   0.08324679  0.82304551  0.60593245
   0.83255216  0.58426442  0.60672858
   0.09722022  0.09230558  0.60636632
   0.33628955  0.58691891  0.60734332
   0.83029077  0.08571022  0.60701702
   0.58371961  0.06257016  0.60778457
   0.59054860  0.34331162  0.60803125
   0.16482476  0.91654198  0.47476870
   0.25551984  0.75706959  0.56495652
   0.74421634  0.75200771  0.56308961
   0.24472510  0.24359106  0.56343297
   0.49177701 -0.00672787  0.56430423
   0.26181133 -0.00741850  0.56382028
   0.41852531  0.41637794  0.47482012
   0.49923721  0.24869872  0.56787375
  -0.00508024  0.74415635  0.56356944
   0.75828291  0.25465930  0.56439549
   0.41554878  0.66581232  0.47437406
   0.74666818  0.50301393  0.56322926
   0.91669571  0.92015863  0.47505624
   0.00307331  0.49692164  0.56396608
   0.50170104  0.75066055  0.55994530
   0.66440018  0.66720479  0.47151516
  -0.00255051  0.25850552  0.56289948
   0.66806878  0.16683671  0.47492778
   0.75602003 -0.01324157  0.56504815
   0.00305406  0.00126906  0.56461804
   0.91559967  0.16392127  0.47480395
   0.23846589  0.50704757  0.56644281
   0.50482428  0.50933816  0.56427350
   0.83333333  0.58333333  0.38179910
Direct configuration=    11
   0.08333333  0.08333333  0.38179910
   0.33333333  0.83333333  0.38179910
   0.83333333  0.83333333  0.38179910
   0.66420905  0.41682636  0.47645649
   0.83333333  0.33333333  0.38179910
   0.08333333  0.33333333  0.38179910
   0.91296928  0.41825803  0.47409572
   0.83333333  0.08333333  0.38179910
   0.66808498  0.91730631  0.47625541
   0.08333333  0.58333333  0.38179910
   0.91419201  0.66799818  0.47415250
   0.58333333  0.83333333  0.38179910
   0.41592927  0.91402518  0.47368562
   0.16833335  0.66906598  0.47693855
   0.58333333  0.58333333  0.38179910
   0.33333333  0.08333333  0.38179910
   0.16421023  0.16537065  0.47514807
   0.58333333  0.33333333  0.38179910
   0.33333333  0.33333333  0.38179910
   0.16905214  0.41743605  0.47622287
   0.41967551  0.16929639  0.47647882
   0.58333333  0.08333333  0.38179910
   0.33333333  0.58333333  0.38179910
   0.08333333  0.83333333  0.38179910
   0.31218424  0.33416867  0.60910017
   0.08281189  0.82253441  0.60595051
   0.83296961  0.58449105  0.60780051
   0.09843457  0.09358463  0.60677776
   0.33574228  0.58796059  0.60808047
   0.83120542  0.08507586  0.60737858
   0.58389654  0.06050007  0.60845499
   0.59127552  0.34427051  0.60826437
   0.16495531  0.91712878  0.47514108
   0.25502893  0.75671665  0.56583126
   0.74315971  0.75145834  0.56368057
   0.24505312  0.24285345  0.56445905
   0.49165962 -0.00643076  0.56538159
   0.26207981 -0.00820830  0.56465255
   0.41825685  0.41622378  0.47567439
   0.49867729  0.24872126  0.56851913
  -0.00461485  0.74345782  0.56479229
   0.75700563  0.25514839  0.56502048
   0.41569304  0.66652726  0.47444430
   0.74626750  0.50422251  0.56370980
   0.91709490  0.91955121  0.47547682
   0.00241479  0.49681093  0.56482092
   0.50309437  0.75064620  0.56075463
   0.66429282  0.66748848  0.47198672
  -0.00192650  0.25873542  0.56385685
   0.66795646  0.16674976  0.47580062
   0.75539776 -0.01257774  0.56557333
   0.00322994  0.00159646  0.56507838
   0.91633757  0.16398033  0.47504641
   0.23932351  0.50668358  0.56717331
   0.50560031  0.50808938  0.56472601
   0.83333333  0.58333333  0.38179910
Direct configuration=    12
   0.08333333  0.08333333  0.38179910
   0.33333333  0.83333333  0.38179910
   0.83333333  0.83333333  0.38179910
   0.66430751  0.41698640  0.47639098
   0.83333333  0.33333333  0.38179910
   0.08333333  0.33333333  0.38179910
   0.91290993  0.41872656  0.47432691
   0.83333333  0.08333333  0.38179910
   0.66761770  0.91742809  0.47658933
   0.08333333  0.58333333  0.38179910
   0.91393905  0.66777140  0.47448144
   0.58333333  0.83333333  0.38179910
   0.41613331  0.91385347  0.47379837
   0.16809028  0.66923962  0.47749995
   0.58333333  0.58333333  0.38179910
   0.33333333  0.08333333  0.38179910
   0.16427721  0.16536345  0.47548292
   0.58333333  0.33333333  0.38179910
   0.33333333  0.33333333  0.38179910
   0.16879766  0.41733096  0.47668955
   0.41954470  0.16903276  0.47708039
   0.58333333  0.08333333  0.38179910
   0.33333333  0.58333333  0.38179910
   0.08333333  0.83333333  0.38179910
   0.31106440  0.33485983  0.61026611
   0.08208410  0.82349910  0.60687578
   0.83316289  0.58486641  0.60988136
   0.09912340  0.09478984  0.60811403
   0.33622779  0.58831997  0.60940359
   0.83250636  0.08426566  0.60810968
   0.58489897  0.05966126  0.60992056
   0.59154480  0.34444489  0.60917607
   0.16515661  0.91736256  0.47552641
   0.25573203  0.75580564  0.56647053
   0.74308739  0.75194717  0.56426107
   0.24468378  0.24234236  0.56534947
   0.49132755 -0.00696815  0.56606180
   0.26372374 -0.01004205  0.56507213
   0.41806988  0.41667523  0.47650327
   0.49821349  0.24834766  0.56993838
  -0.00587563  0.74237194  0.56579324
   0.75648877  0.25553776  0.56548741
   0.41571755  0.66696778  0.47475992
   0.74625897  0.50400258  0.56412635
   0.91734639  0.91892266  0.47599216
   0.00310326  0.49656973  0.56550867
   0.50242196  0.75125470  0.56139651
   0.66406179  0.66766519  0.47245158
  -0.00227819  0.25949647  0.56469395
   0.66820322  0.16659353  0.47661722
   0.75465677 -0.01220132  0.56612783
   0.00299028  0.00224951  0.56577340
   0.91655154  0.16430849  0.47533774
   0.24005722  0.50574289  0.56792087
   0.50501221  0.50836236  0.56509041
   0.83333333  0.58333333  0.38179910
Direct configuration=    13
   0.08333333  0.08333333  0.38179910
   0.33333333  0.83333333  0.38179910
   0.83333333  0.83333333  0.38179910
   0.66442779  0.41718191  0.47631094
   0.83333333  0.33333333  0.38179910
   0.08333333  0.33333333  0.38179910
   0.91283743  0.41929895  0.47460935
   0.83333333  0.08333333  0.38179910
   0.66704682  0.91757687  0.47699726
   0.08333333  0.58333333  0.38179910
   0.91363001  0.66749436  0.47488330
   0.58333333  0.83333333  0.38179910
   0.41638257  0.91364369  0.47393612
   0.16779332  0.66945174  0.47818581
   0.58333333  0.58333333  0.38179910
   0.33333333  0.08333333  0.38179910
   0.16435903  0.16535466  0.47589200
   0.58333333  0.33333333  0.38179910
   0.33333333  0.33333333  0.38179910
   0.16848676  0.41720257  0.47725969
   0.41938489  0.16871070  0.47781533
   0.58333333  0.08333333  0.38179910
   0.33333333  0.58333333  0.38179910
   0.08333333  0.83333333  0.38179910
   0.30969632  0.33570420  0.61169052
   0.08119497  0.82467764  0.60800616
   0.83339900  0.58532498  0.61242349
   0.09996493  0.09626222  0.60974653
   0.33682092  0.58875903  0.61102002
   0.83409569  0.08327586  0.60900284
   0.58612362  0.05863650  0.61171102
   0.59187378  0.34465792  0.61028989
   0.16540253  0.91764817  0.47599717
   0.25659101  0.75469269  0.56725151
   0.74299903  0.75254437  0.56497025
   0.24423256  0.24171796  0.56643727
   0.49092186 -0.00762467  0.56689281
   0.26573210 -0.01228230  0.56558473
   0.41784146  0.41722675  0.47751590
   0.49764689  0.24789124  0.57167225
  -0.00741590  0.74104533  0.56701608
   0.75585732  0.25601345  0.56605785
   0.41574750  0.66750596  0.47514551
   0.74624854  0.50373390  0.56463523
   0.91765364  0.91815478  0.47662174
   0.00394435  0.49627506  0.56634888
   0.50160049  0.75199809  0.56218067
   0.66377956  0.66788107  0.47301949
  -0.00270785  0.26042624  0.56571662
   0.66850468  0.16640268  0.47761485
   0.75375151 -0.01174146  0.56680527
   0.00269750  0.00304732  0.56662250
   0.91681294  0.16470940  0.47569364
   0.24095357  0.50459365  0.56883415
   0.50429373  0.50869585  0.56553559
   0.83333333  0.58333333  0.38179910
Direct configuration=    14
   0.08333333  0.08333333  0.38179910
   0.33333333  0.83333333  0.38179910
   0.83333333  0.83333333  0.38179910
   0.66436176  0.41718940  0.47656510
   0.83333333  0.33333333  0.38179910
   0.08333333  0.33333333  0.38179910
   0.91308663  0.41901767  0.47508242
   0.83333333  0.08333333  0.38179910
   0.66699904  0.91773126  0.47752631
   0.08333333  0.58333333  0.38179910
   0.91386447  0.66769002  0.47542458
   0.58333333  0.83333333  0.38179910
   0.41624548  0.91439020  0.47461276
   0.16764830  0.66932378  0.47885450
   0.58333333  0.58333333  0.38179910
   0.33333333  0.08333333  0.38179910
   0.16484415  0.16549818  0.47659547
   0.58333333  0.33333333  0.38179910
   0.33333333  0.33333333  0.38179910
   0.16803209  0.41745878  0.47803770
   0.41919512  0.16837791  0.47849877
   0.58333333  0.08333333  0.38179910
   0.33333333  0.58333333  0.38179910
   0.08333333  0.83333333  0.38179910
   0.30928689  0.33581269  0.61322071
   0.08063378  0.82557527  0.60885690
   0.83318065  0.58566418  0.61351857
   0.10143963  0.09644950  0.61077177
   0.33827742  0.58797056  0.61229741
   0.83380840  0.08369693  0.60977794
   0.58662919  0.05817052  0.61305044
   0.59133258  0.34482522  0.61138102
   0.16539550  0.91736386  0.47648593
   0.25583416  0.75417057  0.56806423
   0.74446778  0.75129468  0.56605964
   0.24403452  0.24147125  0.56738157
   0.49244570 -0.00747174  0.56787612
   0.26417680 -0.01189129  0.56626160
   0.41775768  0.41770191  0.47818081
   0.49737710  0.24689896  0.57400334
  -0.00831414  0.74119483  0.56823888
   0.75663042  0.25523352  0.56669779
   0.41552180  0.66734014  0.47564975
   0.74748522  0.50395908  0.56558871
   0.91753627  0.91802326  0.47729311