  48  48   0   0
  0.5349325E+02  0.1100258E-08  0.1100258E-08  0.2449179E-08  0.3500000E-15
  1.000000000000000E-004
  CAR 
 unknown system                          
      6.33914746     -9.86014687  301     -1.09872350      1.00000000
     -9.860  0.0000E+00  0.0000E+00
     -9.806  0.0000E+00  0.0000E+00
     -9.752  0.0000E+00  0.0000E+00
     -9.698  0.0000E+00  0.0000E+00
     -9.644  0.0000E+00  0.0000E+00
     -9.590  0.0000E+00  0.0000E+00
     -9.536  0.0000E+00  0.0000E+00
     -9.482  0.0000E+00  0.0000E+00
     -9.428  0.7539E-17  0.4071E-18
     -9.374  0.2750E-14  0.1489E-15
     -9.320  0.6138E-12  0.3329E-13
     -9.266  0.7784E-10  0.4236E-11
     -9.212  0.5626E-08  0.3080E-09
     -9.158  0.2324E-06  0.1286E-07
     -9.104  0.5505E-05  0.3101E-06
     -9.050  0.7496E-04  0.4358E-05
     -8.996  0.5887E-03  0.3615E-04
     -8.942  0.2675E-02  0.1806E-03
     -8.888  0.7079E-02  0.5629E-03
     -8.834  0.1117E-01  0.1166E-02
     -8.780  0.1166E-01  0.1796E-02
     -8.726  0.1086E-01  0.2382E-02
     -8.672  0.1126E-01  0.2990E-02
     -8.618  0.9982E-02  0.3529E-02
     -8.564  0.5940E-02  0.3849E-02
     -8.510  0.2210E-02  0.3969E-02
     -8.456  0.5139E-03  0.3997E-02
     -8.402  0.1761E-03  0.4006E-02
     -8.348  0.6154E-03  0.4039E-02
     -8.294  0.2067E-02  0.4151E-02
     -8.240  0.4410E-02  0.4389E-02
     -8.186  0.6700E-02  0.4751E-02
     -8.132  0.9056E-02  0.5240E-02
     -8.078  0.1314E-01  0.5949E-02
     -8.024  0.1880E-01  0.6965E-02
     -7.970  0.2271E-01  0.8191E-02
     -7.916  0.2222E-01  0.9391E-02
     -7.862  0.1758E-01  0.1034E-01
     -7.808  0.1138E-01  0.1095E-01
     -7.754  0.7273E-02  0.1135E-01
     -7.700  0.7483E-02  0.1175E-01
     -7.646  0.1126E-01  0.1236E-01
     -7.592  0.1602E-01  0.1322E-01
     -7.538  0.1877E-01  0.1424E-01
     -7.484  0.1775E-01  0.1520E-01
     -7.430  0.1622E-01  0.1607E-01
     -7.376  0.1826E-01  0.1706E-01
     -7.322  0.2239E-01  0.1827E-01
     -7.268  0.2713E-01  0.1973E-01
     -7.214  0.3507E-01  0.2163E-01
     -7.160  0.4333E-01  0.2396E-01
     -7.106  0.4547E-01  0.2642E-01
     -7.052  0.4680E-01  0.2895E-01
     -6.998  0.5506E-01  0.3192E-01
     -6.944  0.6576E-01  0.3547E-01
     -6.890  0.7270E-01  0.3940E-01
     -6.836  0.7626E-01  0.4351E-01
     -6.782  0.7791E-01  0.4772E-01
     -6.728  0.7981E-01  0.5203E-01
     -6.674  0.8618E-01  0.5668E-01
     -6.620  0.9531E-01  0.6183E-01
     -6.566  0.9801E-01  0.6712E-01
     -6.512  0.9349E-01  0.7217E-01
     -6.458  0.9369E-01  0.7723E-01
     -6.404  0.1048E+00  0.8289E-01
     -6.350  0.1183E+00  0.8928E-01
     -6.296  0.1268E+00  0.9613E-01
     -6.242  0.1310E+00  0.1032E+00
     -6.188  0.1311E+00  0.1103E+00
     -6.134  0.1295E+00  0.1173E+00
     -6.080  0.1331E+00  0.1245E+00
     -6.026  0.1429E+00  0.1322E+00
     -5.972  0.1520E+00  0.1404E+00
     -5.918  0.1560E+00  0.1488E+00
     -5.864  0.1523E+00  0.1570E+00
     -5.810  0.1428E+00  0.1647E+00
     -5.756  0.1348E+00  0.1720E+00
     -5.702  0.1317E+00  0.1791E+00
     -5.648  0.1325E+00  0.1863E+00
     -5.594  0.1363E+00  0.1936E+00
     -5.540  0.1416E+00  0.2013E+00
     -5.486  0.1464E+00  0.2092E+00
     -5.432  0.1514E+00  0.2174E+00
     -5.378  0.1581E+00  0.2259E+00
     -5.324  0.1644E+00  0.2348E+00
     -5.270  0.1670E+00  0.2438E+00
     -5.216  0.1667E+00  0.2528E+00
     -5.162  0.1653E+00  0.2617E+00
     -5.108  0.1656E+00  0.2707E+00
     -5.054  0.1697E+00  0.2798E+00
     -5.000  0.1761E+00  0.2893E+00
     -4.946  0.1787E+00  0.2990E+00
     -4.892  0.1731E+00  0.3083E+00
     -4.838  0.1652E+00  0.3173E+00
     -4.784  0.1658E+00  0.3262E+00
     -4.730  0.1740E+00  0.3356E+00
     -4.676  0.1781E+00  0.3452E+00
     -4.622  0.1735E+00  0.3546E+00
     -4.568  0.1652E+00  0.3635E+00
     -4.514  0.1610E+00  0.3722E+00
     -4.460  0.1631E+00  0.3810E+00
     -4.406  0.1659E+00  0.3900E+00
     -4.352  0.1678E+00  0.3990E+00
     -4.298  0.1730E+00  0.4084E+00
     -4.244  0.1810E+00  0.4181E+00
     -4.190  0.1876E+00  0.4283E+00
     -4.136  0.1907E+00  0.4386E+00
     -4.082  0.1904E+00  0.4489E+00
     -4.028  0.1909E+00  0.4592E+00
     -3.974  0.1949E+00  0.4697E+00
     -3.920  0.1984E+00  0.4804E+00
     -3.866  0.1982E+00  0.4911E+00
     -3.812  0.1977E+00  0.5018E+00
     -3.758  0.2007E+00  0.5126E+00
     -3.704  0.2064E+00  0.5238E+00
     -3.650  0.2136E+00  0.5353E+00
     -3.596  0.2192E+00  0.5471E+00
     -3.542  0.2200E+00  0.5590E+00
     -3.488  0.2180E+00  0.5708E+00
     -3.434  0.2157E+00  0.5824E+00
     -3.380  0.2117E+00  0.5939E+00
     -3.326  0.2069E+00  0.6050E+00
     -3.272  0.2062E+00  0.6162E+00
     -3.218  0.2068E+00  0.6273E+00
     -3.164  0.2015E+00  0.6382E+00
     -3.110  0.1923E+00  0.6486E+00
     -3.056  0.1844E+00  0.6586E+00
     -3.002  0.1805E+00  0.6683E+00
     -2.948  0.1813E+00  0.6781E+00
     -2.894  0.1824E+00  0.6879E+00
     -2.840  0.1795E+00  0.6976E+00
     -2.786  0.1751E+00  0.7071E+00
     -2.732  0.1730E+00  0.7164E+00
     -2.678  0.1729E+00  0.7258E+00
     -2.624  0.1748E+00  0.7352E+00
     -2.570  0.1785E+00  0.7448E+00
     -2.516  0.1812E+00  0.7546E+00
     -2.462  0.1819E+00  0.7644E+00
     -2.408  0.1809E+00  0.7742E+00
     -2.354  0.1776E+00  0.7838E+00
     -2.300  0.1735E+00  0.7932E+00
     -2.246  0.1733E+00  0.8025E+00
     -2.192  0.1766E+00  0.8121E+00
     -2.138  0.1786E+00  0.8217E+00
     -2.084  0.1773E+00  0.8313E+00
     -2.030  0.1751E+00  0.8407E+00
     -1.976  0.1745E+00  0.8502E+00
     -1.922  0.1778E+00  0.8598E+00
     -1.868  0.1869E+00  0.8698E+00
     -1.814  0.1979E+00  0.8805E+00
     -1.760  0.2023E+00  0.8915E+00
     -1.707  0.1977E+00  0.9021E+00
     -1.653  0.1899E+00  0.9124E+00
     -1.599  0.1852E+00  0.9224E+00
     -1.545  0.1831E+00  0.9323E+00
     -1.491  0.1813E+00  0.9421E+00
     -1.437  0.1823E+00  0.9519E+00
     -1.383  0.1867E+00  0.9620E+00
     -1.329  0.1888E+00  0.9722E+00
     -1.275  0.1853E+00  0.9822E+00
     -1.221  0.1746E+00  0.9916E+00
     -1.167  0.1533E+00  0.9999E+00
     -1.113  0.1234E+00  0.1007E+01
     -1.059  0.9366E-01  0.1012E+01
     -1.005  0.6776E-01  0.1015E+01
     -0.951  0.4480E-01  0.1018E+01
     -0.897  0.2769E-01  0.1019E+01
     -0.843  0.1941E-01  0.1020E+01
     -0.789  0.1836E-01  0.1021E+01
     -0.735  0.2020E-01  0.1022E+01
     -0.681  0.2244E-01  0.1024E+01
     -0.627  0.2729E-01  0.1025E+01
     -0.573  0.3701E-01  0.1027E+01
     -0.519  0.4726E-01  0.1030E+01
     -0.465  0.4934E-01  0.1032E+01
     -0.411  0.4091E-01  0.1034E+01
     -0.357  0.3134E-01  0.1036E+01
     -0.303  0.3139E-01  0.1038E+01
     -0.249  0.3854E-01  0.1040E+01
     -0.195  0.4063E-01  0.1042E+01
     -0.141  0.3448E-01  0.1044E+01
     -0.087  0.2703E-01  0.1045E+01
     -0.033  0.2198E-01  0.1047E+01
      0.021  0.1985E-01  0.1048E+01
      0.075  0.2144E-01  0.1049E+01
      0.129  0.2585E-01  0.1050E+01
      0.183  0.3105E-01  0.1052E+01
      0.237  0.3523E-01  0.1054E+01
      0.291  0.3788E-01  0.1056E+01
      0.345  0.3946E-01  0.1058E+01
      0.399  0.4030E-01  0.1060E+01
      0.453  0.4061E-01  0.1062E+01
      0.507  0.4051E-01  0.1065E+01
      0.561  0.4177E-01  0.1067E+01
      0.615  0.4487E-01  0.1069E+01
      0.669  0.4564E-01  0.1072E+01
      0.723  0.4213E-01  0.1074E+01
      0.777  0.3605E-01  0.1076E+01
      0.831  0.2853E-01  0.1077E+01
      0.885  0.2324E-01  0.1079E+01
      0.939  0.2290E-01  0.1080E+01
      0.993  0.2400E-01  0.1081E+01
      1.047  0.2352E-01  0.1083E+01
      1.101  0.2216E-01  0.1084E+01
      1.155  0.2075E-01  0.1085E+01
      1.209  0.1922E-01  0.1086E+01
      1.263  0.1627E-01  0.1087E+01
      1.317  0.1199E-01  0.1087E+01
      1.371  0.9566E-02  0.1088E+01
      1.425  0.1191E-01  0.1089E+01
      1.479  0.1950E-01  0.1090E+01
      1.533  0.2910E-01  0.1091E+01
      1.587  0.3553E-01  0.1093E+01
      1.641  0.3638E-01  0.1095E+01
      1.695  0.3464E-01  0.1097E+01
      1.749  0.3534E-01  0.1099E+01
      1.803  0.3740E-01  0.1101E+01
      1.857  0.3540E-01  0.1103E+01
      1.911  0.2872E-01  0.1104E+01
      1.965  0.2105E-01  0.1105E+01
      2.019  0.1665E-01  0.1106E+01
      2.073  0.1926E-01  0.1107E+01
      2.127  0.2889E-01  0.1109E+01
      2.181  0.3904E-01  0.1111E+01
      2.235  0.4228E-01  0.1113E+01
      2.289  0.4108E-01  0.1116E+01
      2.343  0.4121E-01  0.1118E+01
      2.397  0.4122E-01  0.1120E+01
      2.451  0.3913E-01  0.1122E+01
      2.505  0.3779E-01  0.1124E+01
      2.559  0.3960E-01  0.1126E+01
      2.613  0.4301E-01  0.1129E+01
      2.667  0.4476E-01  0.1131E+01
      2.721  0.4233E-01  0.1133E+01
      2.775  0.3596E-01  0.1135E+01
      2.829  0.2780E-01  0.1137E+01
      2.883  0.2027E-01  0.1138E+01
      2.937  0.1578E-01  0.1139E+01
      2.991  0.1348E-01  0.1139E+01
      3.045  0.1190E-01  0.1140E+01
      3.099  0.1281E-01  0.1141E+01
      3.153  0.1595E-01  0.1142E+01
      3.207  0.1985E-01  0.1143E+01
      3.261  0.2377E-01  0.1144E+01
      3.315  0.2394E-01  0.1145E+01
      3.369  0.2025E-01  0.1146E+01
      3.423  0.1965E-01  0.1147E+01
      3.477  0.2550E-01  0.1149E+01
      3.531  0.3348E-01  0.1151E+01
      3.585  0.3769E-01  0.1153E+01
      3.639  0.3706E-01  0.1155E+01
      3.693  0.3519E-01  0.1157E+01
      3.747  0.3329E-01  0.1158E+01
      3.801  0.2937E-01  0.1160E+01
      3.855  0.2396E-01  0.1161E+01
      3.909  0.2060E-01  0.1162E+01
      3.963  0.2206E-01  0.1164E+01
      4.017  0.2632E-01  0.1165E+01
      4.071  0.2854E-01  0.1167E+01
      4.125  0.2795E-01  0.1168E+01
      4.179  0.2633E-01  0.1169E+01
      4.233  0.2279E-01  0.1171E+01
      4.287  0.1726E-01  0.1172E+01
      4.341  0.1507E-01  0.1172E+01
      4.395  0.2045E-01  0.1174E+01
      4.449  0.2839E-01  0.1175E+01
      4.503  0.3438E-01  0.1177E+01
      4.557  0.4348E-01  0.1179E+01
      4.611  0.5685E-01  0.1182E+01
      4.665  0.6458E-01  0.1186E+01
      4.719  0.6148E-01  0.1189E+01
      4.773  0.5407E-01  0.1192E+01
      4.827  0.4790E-01  0.1195E+01
      4.881  0.4381E-01  0.1197E+01
      4.935  0.4462E-01  0.1199E+01
      4.989  0.5471E-01  0.1202E+01
      5.043  0.7076E-01  0.1206E+01
      5.097  0.7941E-01  0.1210E+01
      5.151  0.7278E-01  0.1214E+01
      5.205  0.5817E-01  0.1218E+01
      5.259  0.4539E-01  0.1220E+01
      5.313  0.3496E-01  0.1222E+01
      5.367  0.2323E-01  0.1223E+01
      5.421  0.1142E-01  0.1224E+01
      5.475  0.3740E-02  0.1224E+01
      5.529  0.7666E-03  0.1224E+01
      5.583  0.9490E-04  0.1224E+01
      5.637  0.6935E-05  0.1224E+01
      5.691  0.2949E-06  0.1224E+01
      5.745  0.7225E-08  0.1224E+01
      5.799  0.1013E-09  0.1224E+01
      5.853  0.8077E-12  0.1224E+01
      5.907  0.3656E-14  0.1224E+01
      5.961  0.8224E-17  0.1224E+01
      6.015  0.0000E+00  0.1224E+01
      6.069  0.0000E+00  0.1224E+01
      6.123  0.0000E+00  0.1224E+01
      6.177  0.0000E+00  0.1224E+01
      6.231  0.0000E+00  0.1224E+01
      6.285  0.0000E+00  0.1224E+01
      6.339  0.0000E+00  0.1224E+01
