   48   48  500    1
  0.5349325E+02  0.1100258E-08  0.1100258E-08  0.2449179E-08  0.3500000E-15
  1.000000000000000E-004
  CAR 
 unknown system                          
    504      6    306
 
  0.2500000E+00  0.2500000E+00  0.0000000E+00  0.1666667E+00
    1       -8.738929   1.000000
    2       -7.955868   1.000000
    3       -7.682679   1.000000
    4       -7.530930   1.000000
    5       -7.326426   1.000000
    6       -7.202319   1.000000
    7       -7.007784   1.000000
    8       -6.974015   1.000000
    9       -6.933100   1.000000
   10       -6.894098   1.000000
   11       -6.804754   1.000000
   12       -6.786168   1.000000
   13       -6.703698   1.000000
   14       -6.685915   1.000000
   15       -6.630982   1.000000
   16       -6.593213   1.000000
   17       -6.552723   1.000000
   18       -6.498698   1.000000
   19       -6.467147   1.000000
   20       -6.411491   1.000000
   21       -6.377223   1.000000
   22       -6.337232   1.000000
   23       -6.317986   1.000000
   24       -6.297683   1.000000
   25       -6.258128   1.000000
   26       -6.238275   1.000000
   27       -6.201686   1.000000
   28       -6.161979   1.000000
   29       -6.156780   1.000000
   30       -6.130082   1.000000
   31       -6.099615   1.000000
   32       -6.071818   1.000000
   33       -6.064566   1.000000
   34       -6.020553   1.000000
   35       -5.994193   1.000000
   36       -5.953141   1.000000
   37       -5.938674   1.000000
   38       -5.916901   1.000000
   39       -5.900848   1.000000
   40       -5.874305   1.000000
   41       -5.851759   1.000000
   42       -5.818559   1.000000
   43       -5.790035   1.000000
   44       -5.763643   1.000000
   45       -5.732094   1.000000
   46       -5.705203   1.000000
   47       -5.680968   1.000000
   48       -5.660002   1.000000
   49       -5.629888   1.000000
   50       -5.614536   1.000000
   51       -5.570715   1.000000
   52       -5.550581   1.000000
   53       -5.515857   1.000000
   54       -5.479013   1.000000
   55       -5.465758   1.000000
   56       -5.406053   1.000000
   57       -5.393959   1.000000
   58       -5.353181   1.000000
   59       -5.341999   1.000000
   60       -5.320746   1.000000
   61       -5.276727   1.000000
   62       -5.258318   1.000000
   63       -5.232490   1.000000
   64       -5.213989   1.000000
   65       -5.200805   1.000000
   66       -5.172214   1.000000
   67       -5.157309   1.000000
   68       -5.123116   1.000000
   69       -5.105611   1.000000
   70       -5.081402   1.000000
   71       -5.038051   1.000000
   72       -5.020567   1.000000
   73       -4.994425   1.000000
   74       -4.961409   1.000000
   75       -4.946124   1.000000
   76       -4.925269   1.000000
   77       -4.913923   1.000000
   78       -4.895932   1.000000
   79       -4.869521   1.000000
   80       -4.852360   1.000000
   81       -4.810318   1.000000
   82       -4.798031   1.000000
   83       -4.776969   1.000000
   84       -4.748226   1.000000
   85       -4.718147   1.000000
   86       -4.707776   1.000000
   87       -4.695687   1.000000
   88       -4.661285   1.000000
   89       -4.641707   1.000000
   90       -4.619177   1.000000
   91       -4.585400   1.000000
   92       -4.565155   1.000000
   93       -4.517208   1.000000
   94       -4.501970   1.000000
   95       -4.493234   1.000000
   96       -4.462680   1.000000
   97       -4.448529   1.000000
   98       -4.412104   1.000000
   99       -4.398834   1.000000
  100       -4.386392   1.000000
  101       -4.370525   1.000000
  102       -4.351697   1.000000
  103       -4.339838   1.000000
  104       -4.285633   1.000000
  105       -4.261471   1.000000
  106       -4.237838   1.000000
  107       -4.230616   1.000000
  108       -4.213928   1.000000
  109       -4.199813   1.000000
  110       -4.172312   1.000000
  111       -4.133871   1.000000
  112       -4.109737   1.000000
  113       -4.095767   1.000000
  114       -4.070996   1.000000
  115       -4.037374   1.000000
  116       -4.029869   1.000000
  117       -3.993409   1.000000
  118       -3.982260   1.000000
  119       -3.962160   1.000000
  120       -3.925514   1.000000
  121       -3.898525   1.000000
  122       -3.882038   1.000000
  123       -3.872852   1.000000
  124       -3.847162   1.000000
  125       -3.821319   1.000000
  126       -3.805569   1.000000
  127       -3.768564   1.000000
  128       -3.752766   1.000000
  129       -3.731691   1.000000
  130       -3.708470   1.000000
  131       -3.697626   1.000000
  132       -3.678261   1.000000
  133       -3.637307   1.000000
  134       -3.609544   1.000000
  135       -3.599430   1.000000
  136       -3.570819   1.000000
  137       -3.557750   1.000000
  138       -3.539243   1.000000
  139       -3.522228   1.000000
  140       -3.505952   1.000000
  141       -3.479376   1.000000
  142       -3.465597   1.000000
  143       -3.433063   1.000000
  144       -3.415159   1.000000
  145       -3.385012   1.000000
  146       -3.364974   1.000000
  147       -3.356364   1.000000
  148       -3.336023   1.000000
  149       -3.322595   1.000000
  150       -3.292857   1.000000
  151       -3.269252   1.000000
  152       -3.264913   1.000000
  153       -3.242257   1.000000
  154       -3.225360   1.000000
  155       -3.213433   1.000000
  156       -3.183899   1.000000
  157       -3.155585   1.000000
  158       -3.143751   1.000000
  159       -3.121487   1.000000
  160       -3.116739   1.000000
  161       -3.084178   1.000000
  162       -3.071844   1.000000
  163       -3.060843   1.000000
  164       -3.023653   1.000000
  165       -2.995184   1.000000
  166       -2.973576   1.000000
  167       -2.966121   1.000000
  168       -2.937787   1.000000
  169       -2.922185   1.000000
  170       -2.896772   1.000000
  171       -2.878288   1.000000
  172       -2.851246   1.000000
  173       -2.819892   1.000000
  174       -2.785754   1.000000
  175       -2.763811   1.000000
  176       -2.747767   1.000000
  177       -2.735761   1.000000
  178       -2.709884   1.000000
  179       -2.689947   1.000000
  180       -2.664835   1.000000
  181       -2.643609   1.000000
  182       -2.623751   1.000000
  183       -2.590257   1.000000
  184       -2.576900   1.000000
  185       -2.549677   1.000000
  186       -2.529604   1.000000
  187       -2.518458   1.000000
  188       -2.496741   1.000000
  189       -2.480524   1.000000
  190       -2.456358   1.000000
  191       -2.431592   1.000000
  192       -2.408136   1.000000
  193       -2.395469   1.000000
  194       -2.357710   1.000000
  195       -2.348036   1.000000
  196       -2.312855   1.000000
  197       -2.291898   1.000000
  198       -2.272744   1.000000
  199       -2.252721   1.000000
  200       -2.239406   1.000000
  201       -2.213376   1.000000
  202       -2.194759   1.000000
  203       -2.164418   1.000000
  204       -2.153057   1.000000
  205       -2.131810   1.000000
  206       -2.119624   1.000000
  207       -2.102066   1.000000
  208       -2.083129   1.000000
  209       -2.058901   1.000000
  210       -2.036439   1.000000
  211       -2.003490   1.000000
  212       -1.967079   1.000000
  213       -1.956476   1.000000
  214       -1.932130   1.000000
  215       -1.915378   1.000000
  216       -1.896792   1.000000
  217       -1.882790   1.000000
  218       -1.851967   1.000000
  219       -1.821336   1.000000
  220       -1.801964   1.000000
  221       -1.795622   1.000000
  222       -1.765182   1.000000
  223       -1.740351   1.000000
  224       -1.711772   1.000000
  225       -1.693987   1.000000
  226       -1.680594   1.000000
  227       -1.668604   1.000000
  228       -1.653806   1.000000
  229       -1.604626   1.000000
  230       -1.586031   1.000000
  231       -1.576193   1.000000
  232       -1.541156   1.000000
  233       -1.533280   1.000000
  234       -1.501521   1.000000
  235       -1.482596   1.000000
  236       -1.465674   1.000000
  237       -1.448702   1.000000
  238       -1.424460   0.999997
  239       -1.404275   0.999990
  240       -1.380075   0.999956
  241       -1.365288   0.999897
  242       -1.341036   0.999623
  243       -1.322724   0.999066
  244       -1.310053   0.998312
  245       -1.274702   0.992477
  246       -1.247427   0.979600
  247       -1.233865   0.968114
  248       -1.196560   0.907613
  249       -1.188297   0.886733
  250       -1.168191   0.822515
  251       -1.155850   0.773512
  252       -1.135262   0.676993
  253       -1.114327   0.564837
  254       -1.082910   0.389328
  255       -1.042461   0.196801
  256       -0.426537   0.000000
  257       -0.349518   0.000000
  258       -0.217642   0.000000
  259       -0.152449   0.000000
  260       -0.075548   0.000000
  261        0.094681   0.000000
  262        0.181581   0.000000
  263        0.298382   0.000000
  264        0.420853   0.000000
  265        0.547447   0.000000
  266        0.618882   0.000000
  267        0.692673   0.000000
  268        0.729532   0.000000
  269        0.781794   0.000000
  270        0.918724   0.000000
  271        1.001692   0.000000
  272        1.112911   0.000000
  273        1.516613   0.000000
  274        1.542712   0.000000
  275        1.788229   0.000000
  276        1.856473   0.000000
  277        2.050258   0.000000
  278        2.194764   0.000000
  279        2.305771   0.000000
  280        2.405979   0.000000
  281        2.489694   0.000000
  282        2.571719   0.000000
  283        2.639883   0.000000
  284        2.676778   0.000000
  285        2.736963   0.000000
  286        2.808040   0.000000
  287        3.211057   0.000000
  288        3.493844   0.000000
  289        3.658358   0.000000
  290        3.740814   0.000000
  291        3.772552   0.000000
  292        3.888822   0.000000
  293        4.047297   0.000000
  294        4.276711   0.000000
  295        4.416815   0.000000
  296        4.670688   0.000000
  297        4.690485   0.000000
  298        4.758621   0.000000
  299        4.937197   0.000000
  300        5.017371   0.000000
  301        5.082186   0.000000
  302        5.132059   0.000000
  303        5.173588   0.000000
  304        5.264474   0.000000
  305        5.291156   0.000000
  306        5.327331   0.000000
 
  0.0000000E+00  0.2500000E+00  0.0000000E+00  0.1666667E+00
    1       -8.744440   1.000000
    2       -7.883594   1.000000
    3       -7.716466   1.000000
    4       -7.541971   1.000000
    5       -7.419760   1.000000
    6       -7.099207   1.000000
    7       -7.032442   1.000000
    8       -6.984466   1.000000
    9       -6.907133   1.000000
   10       -6.875071   1.000000
   11       -6.823328   1.000000
   12       -6.796558   1.000000
   13       -6.721572   1.000000
   14       -6.669587   1.000000
   15       -6.626197   1.000000
   16       -6.594712   1.000000
   17       -6.528912   1.000000
   18       -6.498185   1.000000
   19       -6.457168   1.000000
   20       -6.421883   1.000000
   21       -6.379498   1.000000
   22       -6.350755   1.000000
   23       -6.317002   1.000000
   24       -6.298399   1.000000
   25       -6.246476   1.000000
   26       -6.234634   1.000000
   27       -6.215941   1.000000
   28       -6.181339   1.000000
   29       -6.159306   1.000000
   30       -6.132917   1.000000
   31       -6.118881   1.000000
   32       -6.092710   1.000000
   33       -6.043383   1.000000
   34       -6.024900   1.000000
   35       -6.003193   1.000000
   36       -5.994120   1.000000
   37       -5.945494   1.000000
   38       -5.915571   1.000000
   39       -5.888284   1.000000
   40       -5.874834   1.000000
   41       -5.840918   1.000000
   42       -5.811726   1.000000
   43       -5.774603   1.000000
   44       -5.768147   1.000000
   45       -5.758128   1.000000
   46       -5.723060   1.000000
   47       -5.697557   1.000000
   48       -5.651689   1.000000
   49       -5.634358   1.000000
   50       -5.592439   1.000000
   51       -5.572180   1.000000
   52       -5.549762   1.000000
   53       -5.527174   1.000000
   54       -5.505255   1.000000
   55       -5.452724   1.000000
   56       -5.429314   1.000000
   57       -5.378136   1.000000
   58       -5.352558   1.000000
   59       -5.334053   1.000000
   60       -5.324079   1.000000
   61       -5.276415   1.000000
   62       -5.251684   1.000000
   63       -5.225540   1.000000
   64       -5.210564   1.000000
   65       -5.180440   1.000000
   66       -5.158236   1.000000
   67       -5.144207   1.000000
   68       -5.133947   1.000000
   69       -5.089530   1.000000
   70       -5.079606   1.000000
   71       -5.068096   1.000000
   72       -5.048589   1.000000
   73       -4.998999   1.000000
   74       -4.976314   1.000000
   75       -4.962355   1.000000
   76       -4.927624   1.000000
   77       -4.899018   1.000000
   78       -4.881865   1.000000
   79       -4.875208   1.000000
   80       -4.839600   1.000000
   81       -4.824500   1.000000
   82       -4.804009   1.000000
   83       -4.778966   1.000000
   84       -4.751956   1.000000
   85       -4.738723   1.000000
   86       -4.719590   1.000000
   87       -4.683038   1.000000
   88       -4.660132   1.000000
   89       -4.619683   1.000000
   90       -4.614891   1.000000
   91       -4.566488   1.000000
   92       -4.549368   1.000000
   93       -4.527754   1.000000
   94       -4.496170   1.000000
   95       -4.476800   1.000000
   96       -4.455751   1.000000
   97       -4.429062   1.000000
   98       -4.409716   1.000000
   99       -4.382006   1.000000
  100       -4.373183   1.000000
  101       -4.347436   1.000000
  102       -4.328537   1.000000
  103       -4.296901   1.000000
  104       -4.275835   1.000000
  105       -4.267229   1.000000
  106       -4.242268   1.000000
  107       -4.214797   1.000000
  108       -4.187842   1.000000
  109       -4.168962   1.000000
  110       -4.145864   1.000000
  111       -4.129182   1.000000
  112       -4.100593   1.000000
  113       -4.074805   1.000000
  114       -4.064377   1.000000
  115       -4.051514   1.000000
  116       -4.026713   1.000000
  117       -4.001276   1.000000
  118       -3.968106   1.000000
  119       -3.952835   1.000000
  120       -3.934285   1.000000
  121       -3.906552   1.000000
  122       -3.880178   1.000000
  123       -3.860625   1.000000
  124       -3.840647   1.000000
  125       -3.827079   1.000000
  126       -3.797507   1.000000
  127       -3.763485   1.000000
  128       -3.743257   1.000000
  129       -3.724810   1.000000
  130       -3.704230   1.000000
  131       -3.688715   1.000000
  132       -3.668680   1.000000
  133       -3.647476   1.000000
  134       -3.625986   1.000000
  135       -3.611192   1.000000
  136       -3.591899   1.000000
  137       -3.573244   1.000000
  138       -3.554018   1.000000
  139       -3.537518   1.000000
  140       -3.516641   1.000000
  141       -3.487331   1.000000
  142       -3.464609   1.000000
  143       -3.458234   1.000000
  144       -3.434906   1.000000
  145       -3.406046   1.000000
  146       -3.386367   1.000000
  147       -3.377176   1.000000
  148       -3.346778   1.000000
  149       -3.342325   1.000000
  150       -3.321889   1.000000
  151       -3.273739   1.000000
  152       -3.260514   1.000000
  153       -3.255059   1.000000
  154       -3.239057   1.000000
  155       -3.209100   1.000000
  156       -3.196286   1.000000
  157       -3.160649   1.000000
  158       -3.148619   1.000000
  159       -3.125165   1.000000
  160       -3.103534   1.000000
  161       -3.082737   1.000000
  162       -3.068535   1.000000
  163       -3.047986   1.000000
  164       -3.021365   1.000000
  165       -3.002917   1.000000
  166       -2.966711   1.000000
  167       -2.942544   1.000000
  168       -2.927446   1.000000
  169       -2.916753   1.000000
  170       -2.907023   1.000000
  171       -2.877324   1.000000
  172       -2.844499   1.000000
  173       -2.832997   1.000000
  174       -2.817750   1.000000
  175       -2.788894   1.000000
  176       -2.747977   1.000000
  177       -2.729372   1.000000
  178       -2.709074   1.000000
  179       -2.698433   1.000000
  180       -2.679179   1.000000
  181       -2.642394   1.000000
  182       -2.621653   1.000000
  183       -2.590831   1.000000
  184       -2.573500   1.000000
  185       -2.559508   1.000000
  186       -2.541923   1.000000
  187       -2.523494   1.000000
  188       -2.496137   1.000000
  189       -2.480633   1.000000
  190       -2.463726   1.000000
  191       -2.433373   1.000000
  192       -2.414688   1.000000
  193       -2.371618   1.000000
  194       -2.349882   1.000000
  195       -2.337288   1.000000
  196       -2.310413   1.000000
  197       -2.287936   1.000000
  198       -2.275337   1.000000
  199       -2.245747   1.000000
  200       -2.225528   1.000000
  201       -2.204896   1.000000
  202       -2.195672   1.000000
  203       -2.168792   1.000000
  204       -2.139681   1.000000
  205       -2.130853   1.000000
  206       -2.100094   1.000000
  207       -2.091274   1.000000
  208       -2.066835   1.000000
  209       -2.049441   1.000000
  210       -2.026737   1.000000
  211       -2.023790   1.000000
  212       -1.972030   1.000000
  213       -1.948843   1.000000
  214       -1.925461   1.000000
  215       -1.903438   1.000000
  216       -1.883620   1.000000
  217       -1.869126   1.000000
  218       -1.853571   1.000000
  219       -1.831319   1.000000
  220       -1.807586   1.000000
  221       -1.796389   1.000000
  222       -1.763239   1.000000
  223       -1.746625   1.000000
  224       -1.725137   1.000000
  225       -1.722501   1.000000
  226       -1.686731   1.000000
  227       -1.656474   1.000000
  228       -1.631872   1.000000
  229       -1.622256   1.000000
  230       -1.592393   1.000000
  231       -1.572173   1.000000
  232       -1.557099   1.000000
  233       -1.525755   1.000000
  234       -1.504270   1.000000
  235       -1.485272   1.000000
  236       -1.464130   1.000000
  237       -1.456680   1.000000
  238       -1.419007   0.999996
  239       -1.411819   0.999994
  240       -1.378128   0.999951
  241       -1.361406   0.999873
  242       -1.333851   0.999458
  243       -1.311738   0.998437
  244       -1.294940   0.996711
  245       -1.277168   0.993172
  246       -1.263333   0.988411
  247       -1.237560   0.971676
  248       -1.220684   0.952278
  249       -1.200710   0.916955
  250       -1.169423   0.827008
  251       -1.151375   0.754013
  252       -1.117979   0.585074
  253       -1.101532   0.492933
  254       -1.092589   0.442676
  255       -1.042594   0.197323
  256       -0.397334   0.000000
  257       -0.349234   0.000000
  258       -0.205550   0.000000
  259       -0.158715   0.000000
  260       -0.127665   0.000000
  261        0.077109   0.000000
  262        0.171544   0.000000
  263        0.317919   0.000000
  264        0.428511   0.000000
  265        0.487699   0.000000
  266        0.636664   0.000000
  267        0.678294   0.000000
  268        0.723593   0.000000
  269        0.785467   0.000000
  270        0.905167   0.000000
  271        1.045604   0.000000
  272        1.111206   0.000000
  273        1.527049   0.000000
  274        1.569373   0.000000
  275        1.807858   0.000000
  276        1.836140   0.000000
  277        2.061452   0.000000
  278        2.184905   0.000000
  279        2.313374   0.000000
  280        2.466822   0.000000
  281        2.484617   0.000000
  282        2.572708   0.000000
  283        2.644140   0.000000
  284        2.660737   0.000000
  285        2.701539   0.000000
  286        2.826718   0.000000
  287        3.207495   0.000000
  288        3.502417   0.000000
  289        3.661529   0.000000
  290        3.739967   0.000000
  291        3.770494   0.000000
  292        3.919534   0.000000
  293        4.038588   0.000000
  294        4.274989   0.000000
  295        4.417708   0.000000
  296        4.613013   0.000000
  297        4.667159   0.000000
  298        4.824839   0.000000
  299        4.909943   0.000000
  300        4.953511   0.000000
  301        5.081635   0.000000
  302        5.122701   0.000000
  303        5.159759   0.000000
  304        5.282750   0.000000
  305        5.314350   0.000000
  306        5.388364   0.000000
 
 -0.2500000E+00  0.2775558E-16  0.0000000E+00  0.1666667E+00
    1       -8.737430   1.000000
    2       -7.925245   1.000000
    3       -7.759582   1.000000
    4       -7.515539   1.000000
    5       -7.296606   1.000000
    6       -7.154481   1.000000
    7       -7.029185   1.000000
    8       -6.968640   1.000000
    9       -6.922481   1.000000
   10       -6.885881   1.000000
   11       -6.820802   1.000000
   12       -6.777240   1.000000
   13       -6.732619   1.000000
   14       -6.681332   1.000000
   15       -6.631269   1.000000
   16       -6.574267   1.000000
   17       -6.548331   1.000000
   18       -6.503164   1.000000
   19       -6.469032   1.000000
   20       -6.434826   1.000000
   21       -6.379285   1.000000
   22       -6.364957   1.000000
   23       -6.326072   1.000000
   24       -6.299105   1.000000
   25       -6.269120   1.000000
   26       -6.237782   1.000000
   27       -6.189412   1.000000
   28       -6.176476   1.000000
   29       -6.151934   1.000000
   30       -6.143142   1.000000
   31       -6.106721   1.000000
   32       -6.087516   1.000000
   33       -6.049072   1.000000
   34       -6.017287   1.000000
   35       -5.982645   1.000000
   36       -5.962278   1.000000
   37       -5.948042   1.000000
   38       -5.926318   1.000000
   39       -5.908621   1.000000
   40       -5.887678   1.000000
   41       -5.849702   1.000000
   42       -5.821704   1.000000
   43       -5.787627   1.000000
   44       -5.782314   1.000000
   45       -5.738917   1.000000
   46       -5.701655   1.000000
   47       -5.684049   1.000000
   48       -5.645651   1.000000
   49       -5.633184   1.000000
   50       -5.595147   1.000000
   51       -5.573889   1.000000
   52       -5.520837   1.000000
   53       -5.504778   1.000000
   54       -5.468844   1.000000
   55       -5.438353   1.000000
   56       -5.410591   1.000000
   57       -5.388977   1.000000
   58       -5.357354   1.000000
   59       -5.339003   1.000000
   60       -5.320297   1.000000
   61       -5.273058   1.000000
   62       -5.246894   1.000000
   63       -5.229948   1.000000
   64       -5.201864   1.000000
   65       -5.192346   1.000000
   66       -5.153129   1.000000
   67       -5.142982   1.000000
   68       -5.117440   1.000000
   69       -5.087484   1.000000
   70       -5.074503   1.000000
   71       -5.057247   1.000000
   72       -5.018167   1.000000
   73       -4.995210   1.000000
   74       -4.975366   1.000000
   75       -4.953377   1.000000
   76       -4.944229   1.000000
   77       -4.919331   1.000000
   78       -4.882945   1.000000
   79       -4.859562   1.000000
   80       -4.845417   1.000000
   81       -4.823457   1.000000
   82       -4.800361   1.000000
   83       -4.784803   1.000000
   84       -4.759435   1.000000
   85       -4.726849   1.000000
   86       -4.717737   1.000000
   87       -4.703603   1.000000
   88       -4.670904   1.000000
   89       -4.649489   1.000000
   90       -4.637123   1.000000
   91       -4.580265   1.000000
   92       -4.562640   1.000000
   93       -4.535150   1.000000
   94       -4.523334   1.000000
   95       -4.511267   1.000000
   96       -4.475538   1.000000
   97       -4.447799   1.000000
   98       -4.425742   1.000000
   99       -4.383015   1.000000
  100       -4.375502   1.000000
  101       -4.358285   1.000000
  102       -4.332395   1.000000
  103       -4.310189   1.000000
  104       -4.292397   1.000000
  105       -4.254486   1.000000
  106       -4.236761   1.000000
  107       -4.221807   1.000000
  108       -4.206399   1.000000
  109       -4.197028   1.000000
  110       -4.170106   1.000000
  111       -4.147974   1.000000
  112       -4.119628   1.000000
  113       -4.089609   1.000000
  114       -4.073148   1.000000
  115       -4.035889   1.000000
  116       -4.020601   1.000000
  117       -3.996866   1.000000
  118       -3.975453   1.000000
  119       -3.953624   1.000000
  120       -3.918630   1.000000
  121       -3.895663   1.000000
  122       -3.886937   1.000000
  123       -3.846103   1.000000
  124       -3.829539   1.000000
  125       -3.812255   1.000000
  126       -3.789148   1.000000
  127       -3.760284   1.000000
  128       -3.733154   1.000000
  129       -3.715479   1.000000
  130       -3.693602   1.000000
  131       -3.677879   1.000000
  132       -3.660916   1.000000
  133       -3.634658   1.000000
  134       -3.616353   1.000000
  135       -3.600210   1.000000
  136       -3.570325   1.000000
  137       -3.554294   1.000000
  138       -3.539044   1.000000
  139       -3.531230   1.000000
  140       -3.496302   1.000000
  141       -3.474551   1.000000
  142       -3.454785   1.000000
  143       -3.449798   1.000000
  144       -3.427142   1.000000
  145       -3.410232   1.000000
  146       -3.392977   1.000000
  147       -3.365150   1.000000
  148       -3.343654   1.000000
  149       -3.329035   1.000000
  150       -3.297254   1.000000
  151       -3.287179   1.000000
  152       -3.270589   1.000000
  153       -3.251624   1.000000
  154       -3.234647   1.000000
  155       -3.224011   1.000000
  156       -3.203847   1.000000
  157       -3.168724   1.000000
  158       -3.163986   1.000000
  159       -3.147594   1.000000
  160       -3.100068   1.000000
  161       -3.085826   1.000000
  162       -3.061965   1.000000
  163       -3.042756   1.000000
  164       -3.024857   1.000000
  165       -2.989649   1.000000
  166       -2.984964   1.000000
  167       -2.955595   1.000000
  168       -2.922478   1.000000
  169       -2.916260   1.000000
  170       -2.902949   1.000000
  171       -2.875908   1.000000
  172       -2.861494   1.000000
  173       -2.827250   1.000000
  174       -2.800239   1.000000
  175       -2.795611   1.000000
  176       -2.753946   1.000000
  177       -2.730034   1.000000
  178       -2.706183   1.000000
  179       -2.681386   1.000000
  180       -2.661648   1.000000
  181       -2.635951   1.000000
  182       -2.621816   1.000000
  183       -2.594459   1.000000
  184       -2.592413   1.000000
  185       -2.555644   1.000000
  186       -2.544144   1.000000
  187       -2.532645   1.000000
  188       -2.511780   1.000000
  189       -2.487738   1.000000
  190       -2.452104   1.000000
  191       -2.428728   1.000000
  192       -2.391618   1.000000
  193       -2.380277   1.000000
  194       -2.364155   1.000000
  195       -2.338341   1.000000
  196       -2.319289   1.000000
  197       -2.284932   1.000000
  198       -2.268550   1.000000
  199       -2.244927   1.000000
  200       -2.229283   1.000000
  201       -2.221416   1.000000
  202       -2.199694   1.000000
  203       -2.169688   1.000000
  204       -2.137291   1.000000
  205       -2.116596   1.000000
  206       -2.098984   1.000000
  207       -2.080793   1.000000
  208       -2.067155   1.000000
  209       -2.051957   1.000000
  210       -2.028586   1.000000
  211       -2.000026   1.000000
  212       -1.972383   1.000000
  213       -1.956511   1.000000
  214       -1.924488   1.000000
  215       -1.910441   1.000000
  216       -1.885443   1.000000
  217       -1.863025   1.000000
  218       -1.847520   1.000000
  219       -1.833086   1.000000
  220       -1.826529   1.000000
  221       -1.800654   1.000000
  222       -1.777167   1.000000
  223       -1.740816   1.000000
  224       -1.726971   1.000000
  225       -1.704810   1.000000
  226       -1.690772   1.000000
  227       -1.672177   1.000000
  228       -1.660098   1.000000
  229       -1.614363   1.000000
  230       -1.590656   1.000000
  231       -1.575392   1.000000
  232       -1.538329   1.000000
  233       -1.527975   1.000000
  234       -1.500474   1.000000
  235       -1.477795   1.000000
  236       -1.470673   1.000000
  237       -1.440494   0.999999
  238       -1.425999   0.999998
  239       -1.390560   0.999976
  240       -1.376036   0.999944
  241       -1.364241   0.999891
  242       -1.350479   0.999770
  243       -1.319119   0.998891
  244       -1.286176   0.995250
  245       -1.272312   0.991746
  246       -1.264011   0.988699
  247       -1.243262   0.976520
  248       -1.225345   0.958476
  249       -1.203098   0.922000
  250       -1.180153   0.863058
  251       -1.153541   0.763564
  252       -1.127623   0.637309
  253       -1.115223   0.569817
  254       -1.076499   0.355049
  255       -1.019824   0.120352
  256       -0.405260   0.000000
  257       -0.385090   0.000000
  258       -0.221409   0.000000
  259       -0.137413   0.000000
  260       -0.095038   0.000000
  261        0.125537   0.000000
  262        0.186498   0.000000
  263        0.343280   0.000000
  264        0.395166   0.000000
  265        0.450674   0.000000
  266        0.621012   0.000000
  267        0.701148   0.000000
  268        0.761605   0.000000
  269        0.775926   0.000000
  270        0.931502   0.000000
  271        1.004829   0.000000
  272        1.115620   0.000000
  273        1.535395   0.000000
  274        1.588060   0.000000
  275        1.798941   0.000000
  276        1.850939   0.000000
  277        2.056968   0.000000
  278        2.137419   0.000000
  279        2.223595   0.000000
  280        2.410416   0.000000
  281        2.528967   0.000000
  282        2.590460   0.000000
  283        2.658671   0.000000
  284        2.691610   0.000000
  285        2.724175   0.000000