unknown system                          
           1
    11.002582    0.000000    0.000000
     5.501291    9.528515    0.000000
     0.000000    0.000000   24.491785
   Au   Pd
  24  24
Direct configuration=     1
   0.33333333  0.33333333  0.40830017
   0.00000000  0.00000000  0.59169983
   0.08333333  0.33333333  0.40830017
   0.91666667  0.41666667  0.50000000
   0.83333333  0.33333333  0.40830017
   0.66666667  0.66666667  0.50000000
   0.75000000  0.25000000  0.59169983
   0.08333333  0.83333333  0.40830017
   0.91666667  0.91666667  0.50000000
   0.66666667  0.41666667  0.50000000
   0.58333333  0.58333333  0.40830017
   0.16666667  0.16666667  0.50000000
   0.83333333  0.83333333  0.40830017
   0.16666667  0.41666667  0.50000000
   0.25000000  0.25000000  0.59169983
   0.33333333  0.58333333  0.40830017
   0.25000000  0.50000000  0.59169983
   0.83333333  0.08333333  0.40830017
   0.16666667  0.91666667  0.50000000
   0.50000000  0.75000000  0.59169983
   0.58333333  0.08333333  0.40830017
   0.41666667  0.16666667  0.50000000
   0.50000000  0.00000000  0.59169983
   0.50000000  0.50000000  0.59169983
   0.16666667  0.66666667  0.50000000
   0.25000000  0.00000000  0.59169983
   0.33333333  0.08333333  0.40830017
   0.00000000  0.75000000  0.59169983
   0.91666667  0.16666667  0.50000000
   0.91666667  0.66666667  0.50000000
   0.08333333  0.58333333  0.40830017
   0.00000000  0.25000000  0.59169983
   0.33333333  0.83333333  0.40830017
   0.00000000  0.50000000  0.59169983
   0.66666667  0.91666667  0.50000000
   0.08333333  0.08333333  0.40830017
   0.41666667  0.41666667  0.50000000
   0.50000000  0.25000000  0.59169983
   0.25000000  0.75000000  0.59169983
   0.83333333  0.58333333  0.40830017
   0.66666667  0.16666667  0.50000000
   0.75000000  0.50000000  0.59169983
   0.41666667  0.91666667  0.50000000
   0.58333333  0.83333333  0.40830017
   0.75000000  0.00000000  0.59169983
   0.41666667  0.66666667  0.50000000
   0.58333333  0.33333333  0.40830017
   0.75000000  0.75000000  0.59169983
Direct configuration=     2
   0.33333333  0.33333333  0.40830017
   0.00039384 -0.00013905  0.59378669
   0.08333333  0.33333333  0.40830017
   0.91628963  0.41749013  0.50076953
   0.83333333  0.33333333  0.40830017
   0.66683311  0.66852713  0.50000730
   0.75027489  0.24948272  0.59355522
   0.08333333  0.83333333  0.40830017
   0.91550478  0.91612956  0.50080842
   0.66587593  0.41571402  0.50006170
   0.58333333  0.58333333  0.40830017
   0.16664985  0.16456092  0.49998656
   0.83333333  0.83333333  0.40830017
   0.16533001  0.41977769  0.50004034
   0.24920740  0.24998446  0.59420554
   0.33333333  0.58333333  0.40830017
   0.24943229  0.50120908  0.59355426
   0.83333333  0.08333333  0.40830017
   0.16860066  0.91589239  0.50002692
   0.49959249  0.75031164  0.59355995
   0.58333333  0.08333333  0.40830017
   0.41874620  0.16547131  0.49998899
   0.50108314 -0.00055520  0.59358885
   0.49935547  0.50030999  0.59355989
   0.16680034  0.66629024  0.50029089
   0.24987682 -0.00026469  0.59290632
   0.33333333  0.08333333  0.40830017
  -0.00061960  0.74965626  0.59256639
   0.91681311  0.16666122  0.50005586
   0.91683234  0.66695689  0.50031655
   0.08333333  0.58333333  0.40830017
  -0.00007477  0.25035590  0.59296695
   0.33333333  0.83333333  0.40830017
  -0.00101255  0.50074314  0.59286132
   0.66693897  0.91605613  0.50027981
   0.08333333  0.08333333  0.40830017
   0.41734232  0.41665124  0.49999228
   0.50076309  0.24948899  0.59276146
   0.24970304  0.75003982  0.59265619
   0.83333333  0.58333333  0.40830017
   0.66618180  0.16687086  0.50028142
   0.75102075  0.49999077  0.59306843
   0.41692735  0.91610848  0.49955324
   0.58333333  0.83333333  0.40830017
   0.74966430 -0.00044718  0.59258327
   0.41517801  0.66762715  0.49990852
   0.58333333  0.33333333  0.40830017
   0.75123286  0.74965879  0.59263051
Direct configuration=     3
   0.33333333  0.33333333  0.40830017
   0.00150108 -0.00052997  0.59965377
   0.08333333  0.33333333  0.40830017
   0.91522960  0.41980525  0.50293302
   0.83333333  0.33333333  0.40830017
   0.66730106  0.67375771  0.50002784
   0.75104772  0.24802841  0.59877151
   0.08333333  0.83333333  0.40830017
   0.91223823  0.91461952  0.50308125
   0.66365284  0.41303571  0.50023516
   0.58333333  0.58333333  0.40830017
   0.16660259  0.15864077  0.49994877
   0.83333333  0.83333333  0.40830017
   0.16157211  0.42852414  0.50015376
   0.24697906  0.24994075  0.60125018
   0.33333333  0.58333333  0.40830017
   0.24783621  0.50460832  0.59876787
   0.83333333  0.08333333  0.40830017
   0.17403795  0.91371557  0.50010260
   0.49844680  0.75118778  0.59878955
   0.58333333  0.08333333  0.40830017
   0.42459267  0.16211063  0.49995804
   0.50412831 -0.00211611  0.59889970
   0.49754340  0.50118149  0.59878933
   0.16717614  0.66523193  0.50110869
   0.24953049 -0.00100886  0.59629830
   0.33333333  0.08333333  0.40830017
  -0.00236155  0.74868988  0.59500264
   0.91722483  0.16664589  0.50021291
   0.91729813  0.66777283  0.50120653
   0.08333333  0.58333333  0.40830017
  -0.00028500  0.25135648  0.59652936
   0.33333333  0.83333333  0.40830017
  -0.00385925  0.50283244  0.59612678
   0.66770454  0.91433963  0.50106647
   0.08333333  0.08333333  0.40830017
   0.41924186  0.41660787  0.49997058
   0.50290845  0.24805233  0.59574616
   0.24886817  0.75015177  0.59534494
   0.83333333  0.58333333  0.40830017
   0.66481864  0.16744494  0.50107259
   0.75389053  0.49996481  0.59691615
   0.41766023  0.91453918  0.49829719
   0.58333333  0.83333333  0.40830017
   0.74872048 -0.00170440  0.59506699
   0.41099274  0.67032747  0.49965131
   0.58333333  0.33333333  0.40830017
   0.75469896  0.74869951  0.59524706
Direct configuration=     4
   0.33333333  0.33333333  0.40830017
   0.00183271 -0.00093037  0.60189540
   0.08333333  0.33333333  0.40830017
   0.91480938  0.41976515  0.50414802
   0.83333333  0.33333333  0.40830017
   0.66655155  0.67320895  0.50130372
   0.75139924  0.24798076  0.60091608
   0.08333333  0.83333333  0.40830017
   0.91309231  0.91543596  0.50447084
   0.66343882  0.41396816  0.50188711
   0.58333333  0.58333333  0.40830017
   0.16753789  0.16039833  0.50134495
   0.83333333  0.83333333  0.40830017
   0.16296656  0.42671362  0.50177343
   0.24685068  0.25021705  0.60353367
   0.33333333  0.58333333  0.40830017
   0.24745812  0.50417120  0.60099277
   0.83333333  0.08333333  0.40830017
   0.17226681  0.91290479  0.50133373
   0.49883198  0.75093179  0.60075674
   0.58333333  0.08333333  0.40830017
   0.42259489  0.16257826  0.50172047
   0.50387956 -0.00228810  0.60104205
   0.49806774  0.50126515  0.60083699
   0.16720306  0.66648229  0.50211834
   0.24977133 -0.00098552  0.59778788
   0.33333333  0.08333333  0.40830017
  -0.00256731  0.74879688  0.59649903
   0.91707467  0.16560996  0.50152958
   0.91695388  0.66839647  0.50185562
   0.08333333  0.58333333  0.40830017
  -0.00020012  0.25129590  0.59803733
   0.33333333  0.83333333  0.40830017
  -0.00355083  0.50278626  0.59784246
   0.66716964  0.91464954  0.50205657
   0.08333333  0.08333333  0.40830017
   0.41850530  0.41688609  0.50123033
   0.50230723  0.24819013  0.59705353
   0.24818375  0.75075017  0.59661568
   0.83333333  0.58333333  0.40830017
   0.66591674  0.16694727  0.50217489
   0.75318664  0.50038049  0.59840629
   0.41921345  0.91417328  0.49921454
   0.58333333  0.83333333  0.40830017
   0.74881272 -0.00183959  0.59654942
   0.41234827  0.66927812  0.50078532
   0.58333333  0.33333333  0.40830017
   0.75504362  0.74831466  0.59667425
Direct configuration=     5
   0.33333333  0.33333333  0.40830017
   0.00282758 -0.00213157  0.60862030
   0.08333333  0.33333333  0.40830017
   0.91354871  0.41964484  0.50779301
   0.83333333  0.33333333  0.40830017
   0.66430303  0.67156267  0.50513136
   0.75245379  0.24783781  0.60734982
   0.08333333  0.83333333  0.40830017
   0.91565454  0.91788528  0.50863960
   0.66279678  0.41676549  0.50684298
   0.58333333  0.58333333  0.40830017
   0.17034379  0.16567103  0.50553348
   0.83333333  0.83333333  0.40830017
   0.16714992  0.42128208  0.50663243
   0.24646557  0.25104594  0.61038417
   0.33333333  0.58333333  0.40830017
   0.24632384  0.50285984  0.60766746
   0.83333333  0.08333333  0.40830017
   0.16695340  0.91047246  0.50502712
   0.49998755  0.75016383  0.60665831
   0.58333333  0.08333333  0.40830017
   0.41660154  0.16398116  0.50700777
   0.50313330 -0.00280408  0.60746910
   0.49964076  0.50151613  0.60697997
   0.16728380  0.67023337  0.50514727
   0.25049386 -0.00091548  0.60225662
   0.33333333  0.08333333  0.40830017
  -0.00318457  0.74911787  0.60098817
   0.91662421  0.16250218  0.50547957
   0.91592111  0.67026737  0.50380291
   0.08333333  0.58333333  0.40830017
   0.00005453  0.25111417  0.60256124
   0.33333333  0.83333333  0.40830017
  -0.00262559  0.50264773  0.60298949
   0.66556496  0.91557929  0.50502687
   0.08333333  0.08333333  0.40830017
   0.41629561  0.41772076  0.50500958
   0.50050356  0.24860351  0.60097562
   0.24613048  0.75254537  0.60042788
   0.83333333  0.58333333  0.40830017
   0.66921102  0.16545427  0.50548176
   0.75107499  0.50162754  0.60287669
   0.42387310  0.91307558  0.50196659
   0.58333333  0.83333333  0.40830017
   0.74908944 -0.00224516  0.60099672
   0.41641489  0.66613007  0.50418734
   0.58333333  0.33333333  0.40830017
   0.75607760  0.74716013  0.60095585
Direct configuration=     6
   0.33333333  0.33333333  0.40830017
   0.00292915 -0.00225420  0.60930682
   0.08333333  0.33333333  0.40830017
   0.91342001  0.41963256  0.50816511
   0.83333333  0.33333333  0.40830017
   0.66407348  0.67139461  0.50552211
   0.75256145  0.24782321  0.60800661
   0.08333333  0.83333333  0.40830017
   0.91591611  0.91813532  0.50906517
   0.66273124  0.41705106  0.50734890
   0.58333333  0.58333333  0.40830017
   0.17063024  0.16620930  0.50596107
   0.83333333  0.83333333  0.40830017
   0.16757699  0.42072759  0.50712846
   0.24642625  0.25113056  0.61108351
   0.33333333  0.58333333  0.40830017
   0.24620805  0.50272596  0.60834885
   0.83333333  0.08333333  0.40830017
   0.16641098  0.91022415  0.50540416
   0.50010552  0.75008543  0.60726078
   0.58333333  0.08333333  0.40830017
   0.41598971  0.16412437  0.50754753
   0.50305711 -0.00285675  0.60812521
   0.49980134  0.50154175  0.60760708
   0.16729204  0.67061630  0.50545649
   0.25056761 -0.00090833  0.60271282
   0.33333333  0.08333333  0.40830017
  -0.00324759  0.74915064  0.60144645
   0.91657822  0.16218492  0.50588281
   0.91581568  0.67045836  0.50400170
   0.08333333  0.58333333  0.40830017
   0.00008052  0.25109561  0.60302307
   0.33333333  0.83333333  0.40830017
  -0.00253114  0.50263359  0.60351493
   0.66540115  0.91567421  0.50533009
   0.08333333  0.08333333  0.40830017
   0.41607004  0.41780596  0.50539539
   0.50031944  0.24864571  0.60137601
   0.24592087  0.75272864  0.60081705
   0.83333333  0.58333333  0.40830017
   0.66954732  0.16530186  0.50581935
   0.75085942  0.50175484  0.60333305
   0.42434878  0.91296352  0.50224754
   0.58333333  0.83333333  0.40830017
   0.74911769 -0.00228657  0.60145072
   0.41683004  0.66580870  0.50453464
   0.58333333  0.33333333  0.40830017
   0.75618316  0.74704226  0.60139294
Direct configuration=     7
   0.33333333  0.33333333  0.40830017
   0.00217936 -0.00136408  0.61158163
   0.08333333  0.33333333  0.40830017
   0.91458521  0.41861622  0.50906865
   0.83333333  0.33333333  0.40830017
   0.66541423  0.66922419  0.50707146
   0.75219469  0.24788849  0.60988466
   0.08333333  0.83333333  0.40830017
   0.91460791  0.91767542  0.51018823
   0.66403087  0.41566143  0.50907317
   0.58333333  0.58333333  0.40830017
   0.16852176  0.16475530  0.50757678
   0.83333333  0.83333333  0.40830017
   0.16642279  0.42196701  0.50899141
   0.24710811  0.25063650  0.61330381
   0.33333333  0.58333333  0.40830017
   0.24713364  0.50255844  0.61027716
   0.83333333  0.08333333  0.40830017
   0.16854835  0.91523227  0.50669251
   0.49981402  0.75044700  0.60892943
   0.58333333  0.08333333  0.40830017
   0.41796398  0.16468160  0.50934628
   0.50237526 -0.00267220  0.61002527
   0.49897219  0.50112702  0.60942772
   0.16762142  0.66638336  0.50684331
   0.25083477 -0.00066912  0.60373493
   0.33333333  0.08333333  0.40830017
  -0.00242503  0.74903538  0.60318484
   0.91765437  0.16417098  0.50768593
   0.91686726  0.66937376  0.50502901
   0.08333333  0.58333333  0.40830017
   0.00022511  0.25053894  0.60445385
   0.33333333  0.83333333  0.40830017
  -0.00203740  0.50185170  0.60505464
   0.66585894  0.91720778  0.50678251
   0.08333333  0.08333333  0.40830017
   0.41601800  0.41758126  0.50721030
   0.49989328  0.24935801  0.60278023
   0.24745497  0.75123806  0.60255974
   0.83333333  0.58333333  0.40830017
   0.66734042  0.16632729  0.50721524
   0.75056066  0.50149453  0.60507139
   0.42055549  0.91400625  0.50416543
   0.58333333  0.83333333  0.40830017
   0.74887435 -0.00153868  0.60328254
   0.41710894  0.66614100  0.50627899
   0.58333333  0.33333333  0.40830017
   0.75477607  0.74742564  0.60284096
Direct configuration=     8
   0.33333333  0.33333333  0.40830017
   0.00195401 -0.00109654  0.61226535
   0.08333333  0.33333333  0.40830017
   0.91493543  0.41831074  0.50934022
   0.83333333  0.33333333  0.40830017
   0.66581721  0.66857185  0.50753713
   0.75208445  0.24790811  0.61044913
   0.08333333  0.83333333  0.40830017
   0.91421472  0.91753719  0.51052578
   0.66442150  0.41524376  0.50959142
   0.58333333  0.58333333  0.40830017
   0.16788803  0.16431828  0.50806240
   0.83333333  0.83333333  0.40830017
   0.16607588  0.42233954  0.50955135
   0.24731306  0.25048800  0.61397115
   0.33333333  0.58333333  0.40830017
   0.24741184  0.50250809  0.61085673
   0.83333333  0.08333333  0.40830017
   0.16919077  0.91673752  0.50707974
   0.49972640  0.75055567  0.60943096
   0.58333333  0.08333333  0.40830017
   0.41855737  0.16484908  0.50988692
   0.50217031 -0.00261673  0.61059636
   0.49872298  0.50100237  0.60997494
   0.16772042  0.66511109  0.50726014
   0.25091507 -0.00059723  0.60404214
   0.33333333  0.08333333  0.40830017
  -0.00217780  0.74900073  0.60370733
   0.91797781  0.16476792  0.50822788
   0.91718332  0.66904778  0.50533778
   0.08333333  0.58333333  0.40830017
   0.00026856  0.25037162  0.60488388
   0.33333333  0.83333333  0.40830017
  -0.00188900  0.50161669  0.60551742
   0.66599654  0.91766872  0.50721905
   0.08333333  0.08333333  0.40830017
   0.41600236  0.41751373  0.50775580
   0.49976520  0.24957210  0.60320228
   0.24791607  0.75079005  0.60308353
   0.83333333  0.58333333  0.40830017
   0.66667711  0.16663549  0.50763479
   0.75047086  0.50141630  0.60559387
   0.41941536  0.91431965  0.50474187
   0.58333333  0.83333333  0.40830017
   0.74880121 -0.00131390  0.60383312
   0.41719277  0.66624087  0.50680327
   0.58333333  0.33333333  0.40830017
   0.75435316  0.74754086  0.60327618
Direct configuration=     9
   0.33333333  0.33333333  0.40830017
   0.00202909 -0.00132100  0.61268537
   0.08333333  0.33333333  0.40830017
   0.91614707  0.41807653  0.50936089
   0.83333333  0.33333333  0.40830017
   0.66634709  0.66949073  0.50770720
   0.75126040  0.24822019  0.61084077
   0.08333333  0.83333333  0.40830017
   0.91541191  0.91701999  0.51059355
   0.66497493  0.41366602  0.50979171
   0.58333333  0.58333333  0.40830017
   0.16765989  0.16517204  0.50811619
   0.83333333  0.83333333  0.40830017
   0.16528475  0.42147321  0.50988483
   0.24770825  0.25006711  0.61452133
   0.33333333  0.58333333  0.40830017
   0.24777410  0.50268423  0.61138543
   0.83333333  0.08333333  0.40830017
   0.16979836  0.91580966  0.50724910
   0.49936266  0.75054647  0.60973504
   0.58333333  0.08333333  0.40830017
   0.41873176  0.16477891  0.50990150
   0.50223846 -0.00220901  0.61089910
   0.49841455  0.50067703  0.61037885
   0.16783554  0.66574546  0.50774072
   0.25074041 -0.00062398  0.60461084
   0.33333333  0.08333333  0.40830017
  -0.00170228  0.74906227  0.60428827
   0.91715538  0.16578772  0.50881191
   0.91701005  0.66836598  0.50586438
   0.08333333  0.58333333  0.40830017
   0.00022867  0.25037175  0.60553294
   0.33333333  0.83333333  0.40830017
  -0.00200234  0.50127011  0.60596204
   0.66582241  0.91707802  0.50773865
   0.08333333  0.08333333  0.40830017
   0.41669545  0.41765132  0.50822464
   0.50010157  0.24965754  0.60413345
   0.24846718  0.75043646  0.60360798
   0.83333333  0.58333333  0.40830017
   0.66590286  0.16768466  0.50791892
   0.75094188  0.50071889  0.60628167
   0.41889656  0.91470010  0.50559886
   0.58333333  0.83333333  0.40830017
   0.74857912 -0.00083917  0.60468529
   0.41578084  0.66701900  0.50738515
   0.58333333  0.33333333  0.40830017
   0.75354467  0.74812233  0.60364631
Direct configuration=    10
   0.33333333  0.33333333  0.40830017
   0.00204361 -0.00136441  0.61276661
   0.08333333  0.33333333  0.40830017
   0.91638143  0.41803123  0.50936489
   0.83333333  0.33333333  0.40830017
   0.66644958  0.66966846  0.50774009
   0.75110101  0.24828055  0.61091652
   0.08333333  0.83333333  0.40830017
   0.91564347  0.91691995  0.51060666
   0.66508197  0.41336085  0.50983044
   0.58333333  0.58333333  0.40830017
   0.16761576  0.16533718  0.50812659
   0.83333333  0.83333333  0.40830017
   0.16513174  0.42130564  0.50994933
   0.24778469  0.24998570  0.61462774
   0.33333333  0.58333333  0.40830017
   0.24784416  0.50271830  0.61148769
   0.83333333  0.08333333  0.40830017
   0.16991588  0.91563019  0.50728186
   0.49929231  0.75054469  0.60979386
   0.58333333  0.08333333  0.40830017
   0.41876549  0.16476534  0.50990432
   0.50225164 -0.00213015  0.61095766
   0.49835490  0.50061410  0.61045698
   0.16785781  0.66586815  0.50783367
   0.25070663 -0.00062915  0.60472084
   0.33333333  0.08333333  0.40830017
  -0.00161031  0.74907417  0.60440064
   0.91699630  0.16598497  0.50892488
   0.91697653  0.66823411  0.50596624
   0.08333333  0.58333333  0.40830017
   0.00022095  0.25037178  0.60565848
   0.33333333  0.83333333  0.40830017
  -0.00202426  0.50120308  0.60604804
   0.66578873  0.91696377  0.50783915
   0.08333333  0.08333333  0.40830017
   0.41682951  0.41767793  0.50831533
   0.50016664  0.24967406  0.60431355
   0.24857377  0.75036807  0.60370942
   0.83333333  0.58333333  0.40830017
   0.66575310  0.16788759  0.50797387
   0.75103298  0.50058400  0.60641471
   0.41879622  0.91477368  0.50576462
   0.58333333  0.83333333  0.40830017
   0.74853616 -0.00074735  0.60485012
   0.41550774  0.66716950  0.50749770
   0.58333333  0.33333333  0.40830017
   0.75338830  0.74823479  0.60371790
Direct configuration=    11
   0.33333333  0.33333333  0.40830017
   0.00214328 -0.00160678  0.61281648
   0.08333333  0.33333333  0.40830017
   0.91576166  0.41838154  0.50937592
   0.83333333  0.33333333  0.40830017
   0.66616422  0.66974287  0.50764265
   0.75087198  0.24830656  0.61110217
   0.08333333  0.83333333  0.40830017
   0.91590688  0.91702249  0.51065562
   0.66519933  0.41410967  0.50974012
   0.58333333  0.58333333  0.40830017
   0.16796998  0.16521291  0.50799603
   0.83333333  0.83333333  0.40830017
   0.16582708  0.42103678  0.51000117
   0.24803656  0.24987229  0.61483250
   0.33333333  0.58333333  0.40830017
   0.24763956  0.50257247  0.61166926
   0.83333333  0.08333333  0.40830017
   0.16937315  0.91524637  0.50725169
   0.49934143  0.75024385  0.60982046
   0.58333333  0.08333333  0.40830017
   0.41863554  0.16485785  0.50968486
   0.50229317 -0.00176216  0.61098287
   0.49858470  0.50061524  0.61059361
   0.16786248  0.66609574  0.50805622
   0.25030705 -0.00053044  0.60512036
   0.33333333  0.08333333  0.40830017
  -0.00167105  0.74916342  0.60468780
   0.91682991  0.16577634  0.50922343
   0.91704344  0.66831485  0.50635292
   0.08333333  0.58333333  0.40830017
   0.00015177  0.25034592  0.60608014
   0.33333333  0.83333333  0.40830017
  -0.00212061  0.50122043  0.60633005
   0.66594790  0.91683539  0.50809941
   0.08333333  0.08333333  0.40830017
   0.41640984  0.41803563  0.50847164
   0.50024828  0.24951835  0.60500420
   0.24857290  0.75061181  0.60410434
   0.83333333  0.58333333  0.40830017
   0.66598714  0.16725220  0.50809227
   0.75128373  0.50019823  0.60664530
   0.41901902  0.91493458  0.50624332
   0.58333333  0.83333333  0.40830017
   0.74877564 -0.00069249  0.60524913
   0.41565221  0.66695330  0.50767651
   0.58333333  0.33333333  0.40830017
   0.75320441  0.74846345  0.60398243
Direct configuration=    12
   0.33333333  0.33333333  0.40830017
   0.00219795 -0.00173970  0.61284383
   0.08333333  0.33333333  0.40830017
   0.91542176  0.41857366  0.50938197
   0.83333333  0.33333333  0.40830017
   0.66600771  0.66978368  0.50758920
   0.75074638  0.24832083  0.61120399
   0.08333333  0.83333333  0.40830017
   0.91605134  0.91707873  0.51068248
   0.66526369  0.41452034  0.50969058
   0.58333333  0.58333333  0.40830017
   0.16816424  0.16514476  0.50792442
   0.83333333  0.83333333  0.40830017
   0.16620843  0.42088933  0.51002960
   0.24817469  0.24981009  0.61494480
   0.33333333  0.58333333  0.40830017
   0.24752735  0.50249249  0.61176883
   0.83333333  0.08333333  0.40830017
   0.16907550  0.91503586  0.50723515
   0.49936837  0.75007886  0.60983505
   0.58333333  0.08333333  0.40830017
   0.41856426  0.16490858  0.50956451
   0.50231594 -0.00156034  0.61099670
   0.49871073  0.50061586  0.61066855
   0.16786504  0.66622056  0.50817827
   0.25008791 -0.00047630  0.60533946
   0.33333333  0.08333333  0.40830017
  -0.00170436  0.74921237  0.60484529
   0.91673866  0.16566192  0.50938716
   0.91708014  0.66835914  0.50656499
   0.08333333  0.58333333  0.40830017
   0.00011382  0.25033173  0.60631140
   0.33333333  0.83333333  0.40830017
  -0.00217345  0.50122995  0.60648471
   0.66603519  0.91676498  0.50824215
   0.08333333  0.08333333  0.40830017
   0.41617969  0.41823181  0.50855737
   0.50029306  0.24943295  0.60538297
   0.24857242  0.75074549  0.60432092
   0.83333333  0.58333333  0.40830017
   0.66611550  0.16690373  0.50815721
   0.75142124  0.49998667  0.60677177
   0.41914121  0.91502282  0.50650586
   0.58333333  0.83333333  0.40830017
   0.74890698 -0.00066241  0.60546796
   0.41573144  0.66683474  0.50777457
   0.58333333  0.33333333  0.40830017
   0.75310356  0.74858885  0.60412751
Direct configuration=    13
   0.33333333  0.33333333  0.40830017
   0.00209071 -0.00168366  0.61284648
   0.08333333  0.33333333  0.40830017
   0.91551133  0.41854565  0.50952828
   0.83333333  0.33333333  0.40830017
   0.66572638  0.66996931  0.50752709
   0.75084016  0.24821419  0.61130596
   0.08333333  0.83333333  0.40830017
   0.91545186  0.91708924  0.51080817
   0.66488222  0.41485937  0.50958498
   0.58333333  0.58333333  0.40830017
   0.16790453  0.16468278  0.50795077
   0.83333333  0.83333333  0.40830017
   0.16616158  0.42124892  0.51005361
   0.24805495  0.24980339  0.61500624
   0.33333333  0.58333333  0.40830017
   0.24741043  0.50245006  0.61185712
   0.83333333  0.08333333  0.40830017
   0.16921539  0.91531930  0.50726191
   0.49959388  0.75012459  0.60980088
   0.58333333  0.08333333  0.40830017
   0.41893174  0.16507566  0.50948285
   0.50223697 -0.00156649  0.61094767
   0.49878247  0.50054651  0.61070965
   0.16782957  0.66596803  0.50834904
   0.24984177 -0.00029571  0.60555277
   0.33333333  0.08333333  0.40830017
  -0.00192211  0.74923080  0.60504605
   0.91689682  0.16559174  0.50958660
   0.91739044  0.66843220  0.50685006
   0.08333333  0.58333333  0.40830017
   0.00021006  0.25030358  0.60650687
   0.33333333  0.83333333  0.40830017
  -0.00221775  0.50121362  0.60661048
   0.66636842  0.91682326  0.50839604
   0.08333333  0.08333333  0.40830017
   0.41640575  0.41806294  0.50870117
   0.50020026  0.24939937  0.60572778
   0.24846396  0.75080793  0.60462703
   0.83333333  0.58333333  0.40830017
   0.66608944  0.16679559  0.50832312
   0.75153093  0.49995384  0.60683283
   0.41904053  0.91498667  0.50679125
   0.58333333  0.83333333  0.40830017
   0.74928178 -0.00085519  0.60567045
   0.41594132  0.66683904  0.50780510
   0.58333333  0.33333333  0.40830017
   0.75315921  0.74845000  0.60433565
Direct configuration=    14
   0.33333333  0.33333333  0.40830017
   0.00208460 -0.00168047  0.61284663
   0.08333333  0.33333333  0.40830017
   0.91551643  0.41854406  0.50953662
   0.83333333  0.33333333  0.40830017
   0.66571035  0.66997989  0.50752355
   0.75084550  0.24820811  0.61131177
   0.08333333  0.83333333  0.40830017
   0.91541770  0.91708983  0.51081534
   0.66486048  0.41487869  0.50957896
   0.58333333  0.58333333  0.40830017
   0.16788973  0.16465645  0.50795227
   0.83333333  0.83333333  0.40830017
   0.16615891  0.42126942  0.51005498
   0.24804813  0.24980301  0.61500974
   0.33333333  0.58333333  0.40830017
   0.24740377  0.50244764  0.61186215
   0.83333333  0.08333333  0.40830017
   0.16922336  0.91533546  0.50726344
   0.49960673  0.75012720  0.60979893
   0.58333333  0.08333333  0.40830017
   0.41895269  0.16508518  0.50947819
   0.50223247 -0.00156684  0.61094488
   0.49878656  0.50054256  0.61071200
   0.16782755  0.66595364  0.50835877
   0.24982774 -0.00028542  0.60556493
   0.33333333  0.08333333  0.40830017
  -0.00193452  0.74923185  0.60505750
   0.91690584  0.16558774  0.50959797
   0.91740812  0.66843636  0.50686631
   0.08333333  0.58333333  0.40830017
   0.00021554  0.25030197  0.60651801
   0.33333333  0.83333333  0.40830017
  -0.00222028  0.50121269  0.60661765
   0.66638741  0.91682658  0.50840481
   0.08333333  0.08333333  0.40830017
   0.41641864  0.41805331  0.50870937
   0.50019497  0.24939745  0.60574743
   0.24845778  0.75081149  0.60464447
   0.83333333  0.58333333  0.40830017
   0.66608796  0.16678943  0.50833258
   0.75153718  0.49995197  0.60683631
   0.41903480  0.91498461  0.50680752
   0.58333333  0.83333333  0.40830017
   0.74930314 -0.00086617  0.60568199
   0.41595329  0.66683929  0.50780684
   0.58333333  0.33333333  0.40830017
   0.75316239  0.74844208  0.60434751
Direct configuration=    15
   0.33333333  0.33333333  0.40830017
   0.00204999 -0.00161486  0.61284400
   0.08333333  0.33333333  0.40830017
   0.91577025  0.41845928  0.50967623
   0.83333333  0.33333333  0.40830017
   0.66594620  0.67009380  0.50751472
   0.75092410  0.24823500  0.61133346
   0.08333333  0.83333333  0.40830017
   0.91530664  0.91705233  0.51089596
   0.66481109  0.41460369  0.50954348
   0.58333333  0.58333333  0.40830017
   0.16782205  0.16476600  0.50804773
   0.83333333  0.83333333  0.40830017
   0.16595242  0.42118233  0.51005349
   0.24787367  0.24982595  0.61496613
   0.33333333  0.58333333  0.40830017
   0.24741281  0.50248767  0.61191413
   0.83333333  0.08333333  0.40830017
   0.16941481  0.91516857  0.50734254
   0.49967480  0.75024301  0.60977140
   0.58333333  0.08333333  0.40830017
   0.41895320  0.16516007  0.50952542
   0.50219949 -0.00164807  0.61088448
   0.49872655  0.50052960  0.61070213
   0.16789551  0.66604343  0.50846227
   0.24979107 -0.00024277  0.60566033
   0.33333333  0.08333333  0.40830017
  -0.00198776  0.74919452  0.60519737
   0.91675938  0.16572915  0.50966827
   0.91740857  0.66839668  0.50695340
   0.08333333  0.58333333  0.40830017
   0.00025812  0.25032971  0.60656844
   0.33333333  0.83333333  0.40830017
  -0.00220504  0.50115743  0.60665156
   0.66643410  0.91678172  0.50847491
   0.08333333  0.08333333  0.40830017
   0.41672565  0.41783734  0.50881646
   0.50013264  0.24933972  0.60582614
   0.24842011  0.75075707  0.60475291
   0.83333333  0.58333333  0.40830017
   0.66605595  0.16713517  0.50850577
   0.75150055  0.50002847  0.60678896
   0.41899571  0.91508773  0.50687577
   0.58333333  0.83333333  0.40830017
   0.74932266 -0.00099610  0.60580423
   0.41571578  0.66706521  0.50779894
   0.58333333  0.33333333  0.40830017
   0.75323758  0.74825784  0.60445702
Direct configuration=    16
   0.33333333  0.33333333  0.40830017
   0.00204396 -0.00160343  0.61284354
   0.08333333  0.33333333  0.40830017
   0.91581448  0.41844451  0.50970056
   0.83333333  0.33333333  0.40830017
   0.66598730  0.67011365  0.50751318
   0.75093779  0.24823968  0.61133724
   0.08333333  0.83333333  0.40830017
   0.91528729  0.91704580  0.51091001
   0.66480249  0.41455577  0.50953730
   0.58333333  0.58333333  0.40830017
   0.16781026  0.16478509  0.50806437
   0.83333333  0.83333333  0.40830017
   0.16591644  0.42116716  0.51005323
   0.24784328  0.24982995  0.61495853
   0.33333333  0.58333333  0.40830017
   0.24741438  0.50249465  0.61192319
   0.83333333  0.08333333  0.40830017
   0.16944817  0.91513950  0.50735632
   0.49968667  0.75026319  0.60976661
   0.58333333  0.08333333  0.40830017
   0.41895329  0.16517312  0.50953365
   0.50219375 -0.00166222  0.61087396
   0.49871609  0.50052735  0.61070041
   0.16790735  0.66605908  0.50848030
   0.24978468 -0.00023534  0.60567696
   0.33333333  0.08333333  0.40830017
  -0.00199703  0.74918802  0.60522174
   0.91673386  0.16575379  0.50968052
   0.91740865  0.66838977  0.50696857
   0.08333333  0.58333333  0.40830017
   0.00026554  0.25033454  0.60657723
   0.33333333  0.83333333  0.40830017
  -0.00220238  0.50114780  0.60665746
   0.66644223  0.91677391  0.50848712
   0.08333333  0.08333333  0.40830017
   0.41677915  0.41779970  0.50883512
   0.50012178  0.24932967  0.60583985
   0.24841355  0.75074759  0.60477181
   0.83333333  0.58333333  0.40830017
   0.66605037  0.16719542  0.50853595
   0.75149417  0.50004180  0.60678070
   0.41898890  0.91510570  0.50688766
   0.58333333  0.83333333  0.40830017
   0.74932606 -0.00101874  0.60582553
   0.41567440  0.66710458  0.50779756
   0.58333333  0.33333333  0.40830017
   0.75325068  0.74822574  0.60447610
Direct configuration=    17
   0.33333333  0.33333333  0.40830017
   0.00204268 -0.00159641  0.61284184
   0.08333333  0.33333333  0.40830017
   0.91573947  0.41842090  0.50978109