<?xml version="1.0" encoding="ISO-8859-1"?>
<modeling>
 <generator>
  <i name="program" type="string">vasp </i>
  <i name="version" type="string">5.4.1  </i>
  <i name="subversion" type="string">24Jun15 (build Mar 14 2019 10:18:33) complex                          parallel </i>
  <i name="platform" type="string">INTEL-19.0.2+OPENMPI-3.1.3 </i>
  <i name="date" type="string">2023 01 22 </i>
  <i name="time" type="string">04:31:06 </i>
 </generator>
 <incar>
  <i type="int" name="ISTART">     0</i>
  <i type="string" name="PREC">normal</i>
  <i type="string" name="ALGO"> Fast</i>
  <i type="int" name="NELM">   500</i>
  <i type="int" name="IBRION">     2</i>
  <i type="int" name="NFREE">     2</i>
  <i name="EDIFF">      0.00000100</i>
  <i name="EDIFFG">     -0.02000000</i>
  <i type="int" name="NSW">   500</i>
  <i type="int" name="ISIF">     0</i>
  <i type="int" name="ISYM">     2</i>
  <i name="ENCUT">    400.00000000</i>
  <i name="POTIM">      0.35000000</i>
  <i type="string" name="LREAL"> Auto</i>
  <i type="logical" name="LPLANE"> T  </i>
  <i type="int" name="ISMEAR">     0</i>
  <i name="SIGMA">      0.10000000</i>
  <i type="int" name="NWRITE">     1</i>
  <i type="logical" name="LWAVE"> F  </i>
  <i type="logical" name="LCHARG"> F  </i>
  <i type="logical" name="LVTOT"> F  </i>
  <i type="logical" name="LORBIT"> F  </i>
  <i type="logical" name="LAECHG"> F  </i>
  <v type="int" name="KPOINT_BSE">    -1     0     0     0</v>
  <i type="int" name="NELM">   500</i>
  <i type="string" name="GGA"> PE          ! optPBE-vdW XC-functional</i>
  <i type="int" name="VOSKOWN">     1</i>
  <i type="logical" name="LDIPOL"> T  </i>
  <i type="logical" name="LMONO"> F  </i>
  <i type="int" name="IDIPOL">     3</i>
  <v name="DIPOL">      0.00000000      0.00000000      0.50000000</v>
 </incar>
 <kpoints>
  <generation param="Monkhorst-Pack">
   <v type="int" name="divisions">       2        2        1 </v>
   <v name="usershift">      0.00000000       0.00000000       0.00000000 </v>
   <v name="genvec1">      0.50000000       0.00000000       0.00000000 </v>
   <v name="genvec2">      0.00000000       0.50000000       0.00000000 </v>
   <v name="genvec3">      0.00000000       0.00000000       1.00000000 </v>
   <v name="shift">      0.50000000       0.50000000       0.00000000 </v>
  </generation>
  <varray name="kpointlist" >
   <v>       0.25000000       0.25000000       0.00000000 </v>
   <v>       0.00000000       0.25000000       0.00000000 </v>
   <v>      -0.25000000       0.00000000       0.00000000 </v>
   <v>      -0.25000000       0.25000000       0.00000000 </v>
   <v>       0.50000000      -0.25000000       0.00000000 </v>
   <v>      -0.25000000       0.50000000       0.00000000 </v>
  </varray>
  <varray name="weights" >
   <v>       0.16666667 </v>
   <v>       0.16666667 </v>
   <v>       0.16666667 </v>
   <v>       0.16666667 </v>
   <v>       0.16666667 </v>
   <v>       0.16666667 </v>
  </varray>
 </kpoints>
 <parameters>
  <separator name="general" >
   <i type="string" name="SYSTEM">unknown system</i>
   <i type="logical" name="LCOMPAT"> F  </i>
  </separator>
  <separator name="electronic" >
   <i type="string" name="PREC">normal</i>
   <i name="ENMAX">    400.00000000</i>
   <i name="ENAUG">    605.39200000</i>
   <i name="EDIFF">      0.00000100</i>
   <i type="int" name="IALGO">    68</i>
   <i type="int" name="IWAVPR">    11</i>
   <i type="int" name="NBANDS">   336</i>
   <i name="NELECT">    552.00000000</i>
   <i type="int" name="TURBO">     0</i>
   <i type="int" name="IRESTART">     0</i>
   <i type="int" name="NREBOOT">     0</i>
   <i type="int" name="NMIN">     0</i>
   <i name="EREF">      0.00000000</i>
   <separator name="electronic smearing" >
    <i type="int" name="ISMEAR">     0</i>
    <i name="SIGMA">      0.10000000</i>
    <i name="KSPACING">      0.50000000</i>
    <i type="logical" name="KGAMMA"> T  </i>
   </separator>
   <separator name="electronic projectors" >
    <i type="logical" name="LREAL"> T  </i>
    <v name="ROPT">     -0.00050000     -0.00050000     -0.00050000</v>
    <i type="int" name="LMAXPAW">  -100</i>
    <i type="int" name="LMAXMIX">     2</i>
    <i type="logical" name="NLSPLINE"> F  </i>
   </separator>
   <separator name="electronic startup" >
    <i type="int" name="ISTART">     0</i>
    <i type="int" name="ICHARG">     2</i>
    <i type="int" name="INIWAV">     1</i>
   </separator>
   <separator name="electronic spin" >
    <i type="int" name="ISPIN">     1</i>
    <i type="logical" name="LNONCOLLINEAR"> F  </i>
    <v name="MAGMOM">      1.00000000      1.00000000      1.00000000      1.00000000      1.00000000      1.00000000      1.00000000      1.00000000      1.00000000      1.00000000      1.00000000      1.00000000      1.00000000      1.00000000      1.00000000      1.00000000      1.00000000      1.00000000      1.00000000      1.00000000
      1.00000000      1.00000000      1.00000000      1.00000000      1.00000000      1.00000000      1.00000000      1.00000000      1.00000000      1.00000000      1.00000000      1.00000000      1.00000000      1.00000000      1.00000000      1.00000000      1.00000000      1.00000000      1.00000000      1.00000000
      1.00000000      1.00000000      1.00000000      1.00000000      1.00000000      1.00000000      1.00000000      1.00000000      1.00000000      1.00000000      1.00000000      1.00000000      1.00000000      1.00000000      1.00000000      1.00000000</v>
    <i name="NUPDOWN">     -1.00000000</i>
    <i type="logical" name="LSORBIT"> F  </i>
    <v name="SAXIS">      0.00000000      0.00000000      1.00000000</v>
    <i type="logical" name="LSPIRAL"> F  </i>
    <v name="QSPIRAL">      0.00000000      0.00000000      0.00000000</v>
    <i type="logical" name="LZEROZ"> F  </i>
   </separator>
   <separator name="electronic exchange-correlation" >
    <i type="logical" name="LASPH"> F  </i>
    <i type="logical" name="LMETAGGA"> F  </i>
   </separator>
   <separator name="electronic convergence" >
    <i type="int" name="NELM">   500</i>
    <i type="int" name="NELMDL">    -5</i>
    <i type="int" name="NELMIN">     2</i>
    <i name="ENINI">    400.00000000</i>
    <separator name="electronic convergence detail" >
     <i type="logical" name="LDIAG"> T  </i>
     <i type="logical" name="LSUBROT"> F  </i>
     <i name="WEIMIN">      0.00100000</i>
     <i name="EBREAK">      0.00000000</i>
     <i name="DEPER">      0.30000000</i>
     <i type="int" name="NRMM">     4</i>
     <i name="TIME">      0.40000000</i>
    </separator>
   </separator>
   <separator name="electronic mixer" >
    <i name="AMIX">      0.40000000</i>
    <i name="BMIX">      1.00000000</i>
    <i name="AMIN">      0.10000000</i>
    <i name="AMIX_MAG">      1.60000000</i>
    <i name="BMIX_MAG">      1.00000000</i>
    <separator name="electronic mixer details" >
     <i type="int" name="IMIX">     4</i>
     <i type="logical" name="MIXFIRST"> F  </i>
     <i type="int" name="MAXMIX">   -45</i>
     <i name="WC">    100.00000000</i>
     <i type="int" name="INIMIX">     1</i>
     <i type="int" name="MIXPRE">     1</i>
     <i type="int" name="MREMOVE">     5</i>
    </separator>
   </separator>
   <separator name="electronic dipolcorrection" >
    <i type="logical" name="LDIPOL"> T  </i>
    <i type="logical" name="LMONO"> F  </i>
    <i type="int" name="IDIPOL">     3</i>
    <i name="EPSILON">      1.00000000</i>
    <v name="DIPOL">      0.00000000      0.00000000      0.50000000</v>
    <i name="EFIELD">      0.00000000</i>
   </separator>
  </separator>
  <separator name="grids" >
   <i type="int" name="NGX">    54</i>
   <i type="int" name="NGY">    54</i>
   <i type="int" name="NGZ">   128</i>
   <i type="int" name="NGXF">   108</i>
   <i type="int" name="NGYF">   108</i>
   <i type="int" name="NGZF">   256</i>
   <i type="logical" name="ADDGRID"> F  </i>
  </separator>
  <separator name="ionic" >
   <i type="int" name="NSW">   500</i>
   <i type="int" name="IBRION">     2</i>
   <i type="int" name="ISIF">     0</i>
   <i name="PSTRESS">      0.00000000</i>
   <i name="EDIFFG">     -0.02000000</i>
   <i type="int" name="NFREE">     2</i>
   <i name="POTIM">      0.35000000</i>
   <i name="SMASS">     -3.00000000</i>
   <i name="SCALEE">      1.00000000</i>
  </separator>
  <separator name="ionic md" >
   <i name="TEBEG">      0.00010000</i>
   <i name="TEEND">      0.00010000</i>
   <i type="int" name="NBLOCK">     1</i>
   <i type="int" name="KBLOCK">   500</i>
   <i type="int" name="NPACO">   256</i>
   <i name="APACO">     16.00000000</i>
  </separator>
  <separator name="symmetry" >
   <i type="int" name="ISYM">     2</i>
   <i name="SYMPREC">      0.00001000</i>
  </separator>
  <separator name="dos" >
   <i type="logical" name="LORBIT"> F  </i>
   <v name="RWIGS">     -1.00000000     -1.00000000     -1.00000000</v>
   <i type="int" name="NEDOS">   301</i>
   <i name="EMIN">     10.00000000</i>
   <i name="EMAX">    -10.00000000</i>
   <i name="EFERMI">      0.00000000</i>
  </separator>
  <separator name="writing" >
   <i type="int" name="NWRITE">     1</i>
   <i type="logical" name="LWAVE"> F  </i>
   <i type="logical" name="LCHARG"> F  </i>
   <i type="logical" name="LPARD"> F  </i>
   <i type="logical" name="LVTOT"> F  </i>
   <i type="logical" name="LVHAR"> F  </i>
   <i type="logical" name="LELF"> F  </i>
   <i type="logical" name="LOPTICS"> F  </i>
   <v name="STM">      0.00000000      0.00000000      0.00000000      0.00000000      0.00000000      0.00000000      0.00000000</v>
  </separator>
  <separator name="performance" >
   <i type="int" name="NPAR">     6</i>
   <i type="int" name="NSIM">     4</i>
   <i type="int" name="NBLK">    -1</i>
   <i type="logical" name="LPLANE"> T  </i>
   <i type="logical" name="LSCALAPACK"> T  </i>
   <i type="logical" name="LSCAAWARE"> F  </i>
   <i type="logical" name="LSCALU"> F  </i>
   <i type="logical" name="LASYNC"> F  </i>
   <i type="logical" name="LORBITALREAL"> F  </i>
  </separator>
  <separator name="miscellaneous" >
   <i type="int" name="IDIOT">     3</i>
   <i type="logical" name="LMUSIC"> F  </i>
   <v name="POMASS">    196.96600000     16.00000000    106.42000000</v>
   <v name="DARWINR">      0.00000000      0.00000000      0.00000000</v>
   <v name="DARWINV">      1.00000000      1.00000000      1.00000000</v>
   <i type="logical" name="LCORR"> T  </i>
  </separator>
  <i type="logical" name="GGA_COMPAT"> T  </i>
  <i type="logical" name="LBERRY"> F  </i>
  <i type="int" name="ICORELEVEL">     0</i>
  <i type="logical" name="LDAU"> F  </i>
  <i type="int" name="I_CONSTRAINED_M">     0</i>
  <separator name="electronic exchange-correlation" >
   <i type="string" name="GGA">PE</i>
   <i type="int" name="VOSKOWN">     1</i>
   <i type="logical" name="LHFCALC"> F  </i>
   <i type="string" name="PRECFOCK"></i>
   <i type="logical" name="LSYMGRAD"> F  </i>
   <i type="logical" name="LHFONE"> F  </i>
   <i type="logical" name="LRHFCALC"> F  </i>
   <i type="logical" name="LTHOMAS"> F  </i>
   <i type="logical" name="LMODELHF"> F  </i>
   <i name="ENCUT4O">     -1.00000000</i>
   <i type="int" name="EXXOEP">     0</i>
   <i type="int" name="FOURORBIT">     0</i>
   <i name="AEXX">      0.00000000</i>
   <i name="HFALPHA">      0.00000000</i>
   <i name="MCALPHA">      0.00000000</i>
   <i name="ALDAX">      1.00000000</i>
   <i name="AGGAX">      1.00000000</i>
   <i name="ALDAC">      1.00000000</i>
   <i name="AGGAC">      1.00000000</i>
   <i type="int" name="NKREDX">     1</i>
   <i type="int" name="NKREDY">     1</i>
   <i type="int" name="NKREDZ">     1</i>
   <i type="logical" name="SHIFTRED"> F  </i>
   <i type="logical" name="ODDONLY"> F  </i>
   <i type="logical" name="EVENONLY"> F  </i>
   <i type="int" name="LMAXFOCK">     0</i>
   <i type="int" name="NMAXFOCKAE">     0</i>
   <i type="logical" name="LFOCKAEDFT"> F  </i>
   <i name="HFSCREEN">      0.00000000</i>
   <i name="HFSCREENC">      0.00000000</i>
   <i type="int" name="NBANDSGWLOW">     0</i>
  </separator>
  <separator name="vdW DFT" >
   <i type="logical" name="LUSE_VDW"> F  </i>
   <i name="Zab_VDW">     -0.84910000</i>
   <i name="PARAM1">      0.12340000</i>
   <i name="PARAM2">      1.00000000</i>
   <i name="PARAM3">      0.00000000</i>
  </separator>
  <separator name="model GW" >
   <i type="int" name="MODEL_GW">     0</i>
   <i name="MODEL_EPS0">     29.42037089</i>
   <i name="MODEL_ALPHA">      1.00000000</i>
  </separator>
  <separator name="linear response parameters" >
   <i type="logical" name="LEPSILON"> F  </i>
   <i type="logical" name="LRPA"> F  </i>
   <i type="logical" name="LNABLA"> F  </i>
   <i type="logical" name="LVEL"> F  </i>
   <i type="int" name="KINTER">     0</i>
   <i name="CSHIFT">      0.10000000</i>
   <i name="OMEGAMAX">     -1.00000000</i>
   <i name="DEG_THRESHOLD">      0.00200000</i>
  </separator>
  <separator name="orbital magnetization" >
   <i type="logical" name="NUCIND"> F  </i>
   <v name="MAGPOS">      0.00000000      0.00000000      0.00000000</v>
   <i type="logical" name="LNICSALL"> T  </i>
   <i type="logical" name="ORBITALMAG"> F  </i>
   <i type="logical" name="LMAGBLOCH"> F  </i>
   <i type="logical" name="LCHIMAG"> F  </i>
   <i type="logical" name="LGAUGE"> T  </i>
   <i type="int" name="MAGATOM">     0</i>
   <v name="MAGDIPOL">      0.00000000      0.00000000      0.00000000</v>
   <v name="AVECCONST">      0.00000000      0.00000000      0.00000000</v>
  </separator>
  <separator name="response functions" >
   <i type="logical" name="LADDER"> F  </i>
   <i type="logical" name="LFXC"> F  </i>
   <i type="logical" name="LHARTREE"> T  </i>
   <i type="int" name="IBSE">     0</i>
   <v type="int" name="KPOINT">    -1     0     0     0</v>
   <i type="logical" name="LTCTE"> F  </i>
   <i type="logical" name="LTETE"> F  </i>
   <i type="logical" name="LTRIPLET"> F  </i>
   <i type="logical" name="LFXCEPS"> F  </i>
   <i type="logical" name="LFXHEG"> F  </i>
   <i type="int" name="NATURALO">     0</i>
   <i type="logical" name="L2ORDER"> F  </i>
   <i type="logical" name="LUSEW"> F  </i>
   <i name="ENCUTGW">     -2.00000000</i>
   <i name="ENCUTGWSOFT">     -2.00000000</i>
   <i name="ENCUTLF">     -1.00000000</i>
   <i type="int" name="LMAXMP2">    -1</i>
   <i name="SCISSOR">      0.00000000</i>
   <i type="int" name="NOMEGA">     0</i>
   <i type="int" name="NOMEGAR">     0</i>
   <i type="int" name="NBANDSGW">    -1</i>
   <i type="int" name="NBANDSO">    -1</i>
   <i type="int" name="NBANDSV">    -1</i>
   <i type="int" name="NELM">   500</i>
   <i type="int" name="NELMHF">     1</i>
   <i type="int" name="DIM">     3</i>
   <i type="int" name="ANTIRES">     0</i>
   <i name="OMEGAMAX">    -30.00000000</i>
   <i name="OMEGAMIN">    -30.00000000</i>
   <i name="OMEGATL">   -200.00000000</i>
   <i type="int" name="OMEGAGRID">     0</i>
   <i name="CSHIFT">     -0.10000000</i>
   <i type="logical" name="SELFENERGY"> F  </i>
   <i type="logical" name="LSPECTRAL"> F  </i>
   <i type="logical" name="LSPECTRALGW"> F  </i>
   <i type="logical" name="LSINGLES"> F  </i>
   <i type="logical" name="LFERMIGW"> F  </i>
   <i type="logical" name="ODDONLYGW"> F  </i>
   <i type="logical" name="EVENONLYGW"> F  </i>
   <i type="int" name="NKREDLFX">     1</i>
   <i type="int" name="NKREDLFY">     1</i>
   <i type="int" name="NKREDLFZ">     1</i>
   <i type="int" name="MAXMEM">  1800</i>
   <i type="int" name="TELESCOPE">     0</i>
   <i type="int" name="TAUPAR">     1</i>
   <i type="int" name="OMEGAPAR">    -1</i>
   <i name="LAMBDA">      1.00000000</i>
  </separator>
  <separator name="External order field" >
   <i name="OFIELD_KAPPA">      0.00000000</i>
   <v name="OFIELD_K">      0.00000000      0.00000000      0.00000000</v>
   <i name="OFIELD_Q6_NEAR">      0.00000000</i>
   <i name="OFIELD_Q6_FAR">      0.00000000</i>
   <i name="OFIELD_A">      0.00000000</i>
  </separator>
 </parameters>
 <atominfo>
  <atoms>      56 </atoms>
  <types>       3 </types>
  <array name="atoms" >
   <dimension dim="1">ion</dimension>
   <field type="string">element</field>
   <field type="int">atomtype</field>
   <set>
    <rc><c>Au</c><c>   1</c></rc>
    <rc><c>Au</c><c>   1</c></rc>
    <rc><c>Au</c><c>   1</c></rc>
    <rc><c>Au</c><c>   1</c></rc>
    <rc><c>Au</c><c>   1</c></rc>
    <rc><c>Au</c><c>   1</c></rc>
    <rc><c>Au</c><c>   1</c></rc>
    <rc><c>Au</c><c>   1</c></rc>
    <rc><c>Au</c><c>   1</c></rc>
    <rc><c>Au</c><c>   1</c></rc>
    <rc><c>Au</c><c>   1</c></rc>
    <rc><c>Au</c><c>   1</c></rc>
    <rc><c>Au</c><c>   1</c></rc>
    <rc><c>Au</c><c>   1</c></rc>
    <rc><c>Au</c><c>   1</c></rc>
    <rc><c>Au</c><c>   1</c></rc>
    <rc><c>Au</c><c>   1</c></rc>
    <rc><c>Au</c><c>   1</c></rc>
    <rc><c>Au</c><c>   1</c></rc>
    <rc><c>Au</c><c>   1</c></rc>
    <rc><c>Au</c><c>   1</c></rc>
    <rc><c>Au</c><c>   1</c></rc>
    <rc><c>Au</c><c>   1</c></rc>
    <rc><c>Au</c><c>   1</c></rc>
    <rc><c>O </c><c>   2</c></rc>
    <rc><c>O </c><c>   2</c></rc>
    <rc><c>O </c><c>   2</c></rc>
    <rc><c>O </c><c>   2</c></rc>
    <rc><c>O </c><c>   2</c></rc>
    <rc><c>O </c><c>   2</c></rc>
    <rc><c>O </c><c>   2</c></rc>
    <rc><c>O </c><c>   2</c></rc>
    <rc><c>Pd</c><c>   3</c></rc>
    <rc><c>Pd</c><c>   3</c></rc>
    <rc><c>Pd</c><c>   3</c></rc>
    <rc><c>Pd</c><c>   3</c></rc>
    <rc><c>Pd</c><c>   3</c></rc>
    <rc><c>Pd</c><c>   3</c></rc>
    <rc><c>Pd</c><c>   3</c></rc>
    <rc><c>Pd</c><c>   3</c></rc>
    <rc><c>Pd</c><c>   3</c></rc>
    <rc><c>Pd</c><c>   3</c></rc>
    <rc><c>Pd</c><c>   3</c></rc>
    <rc><c>Pd</c><c>   3</c></rc>
    <rc><c>Pd</c><c>   3</c></rc>
    <rc><c>Pd</c><c>   3</c></rc>
    <rc><c>Pd</c><c>   3</c></rc>
    <rc><c>Pd</c><c>   3</c></rc>
    <rc><c>Pd</c><c>   3</c></rc>
    <rc><c>Pd</c><c>   3</c></rc>
    <rc><c>Pd</c><c>   3</c></rc>
    <rc><c>Pd</c><c>   3</c></rc>
    <rc><c>Pd</c><c>   3</c></rc>
    <rc><c>Pd</c><c>   3</c></rc>
    <rc><c>Pd</c><c>   3</c></rc>
    <rc><c>Pd</c><c>   3</c></rc>
   </set>
  </array>
  <array name="atomtypes" >
   <dimension dim="1">type</dimension>
   <field type="int">atomspertype</field>
   <field type="string">element</field>
   <field>mass</field>
   <field>valence</field>
   <field type="string">pseudopotential</field>
   <set>
    <rc><c>  24</c><c>Au</c><c>    196.96600000</c><c>     11.00000000</c><c>  PAW_PBE Au 04Oct2007                  </c></rc>
    <rc><c>   8</c><c>O </c><c>     16.00000000</c><c>      6.00000000</c><c>  PAW_PBE O 08Apr2002                   </c></rc>
    <rc><c>  24</c><c>Pd</c><c>    106.42000000</c><c>     10.00000000</c><c>  PAW_PBE Pd 04Jan2005                  </c></rc>
   </set>
  </array>
 </atominfo>
 <structure name="initialpos" >
  <crystal>
   <varray name="basis" >
    <v>      11.00258152       0.00000000       0.00000000 </v>
    <v>       5.50129076       9.52851510       0.00000000 </v>
    <v>       0.00000000       0.00000000      26.19178509 </v>
   </varray>
   <i name="volume">   2745.90128299 </i>
   <varray name="rec_basis" >
    <v>       0.09088776      -0.05247407       0.00000000 </v>
    <v>       0.00000000       0.10494815       0.00000000 </v>
    <v>       0.00000000       0.00000000       0.03817991 </v>
   </varray>
  </crystal>
  <varray name="positions" >
   <v>       0.33333333       0.33333333       0.38179910 </v>
   <v>       0.25000000       0.50000000       0.55329505 </v>
   <v>       0.41666667       0.16666667       0.46754708 </v>
   <v>       0.91666667       0.16666667       0.46754708 </v>
   <v>       0.00000000       0.00000000       0.55329505 </v>
   <v>       0.66666667       0.91666667       0.46754708 </v>
   <v>       0.50000000       0.25000000       0.55329505 </v>
   <v>       0.41666667       0.41666667       0.46754708 </v>
   <v>       0.00000000       0.25000000       0.55329505 </v>
   <v>       0.75000000       0.50000000       0.55329505 </v>
   <v>       0.66666667       0.66666667       0.46754708 </v>
   <v>       0.58333333       0.08333333       0.38179910 </v>
   <v>       0.41666667       0.91666667       0.46754708 </v>
   <v>       0.91666667       0.91666667       0.46754708 </v>
   <v>       0.00000000       0.75000000       0.55329505 </v>
   <v>       0.66666667       0.41666667       0.46754708 </v>
   <v>       0.83333333       0.33333333       0.38179910 </v>
   <v>       0.75000000       0.00000000       0.55329505 </v>
   <v>       0.75000000       0.75000000       0.55329505 </v>
   <v>       0.25000000       0.75000000       0.55329505 </v>
   <v>       0.33333333       0.83333333       0.38179910 </v>
   <v>       0.16666667       0.41666667       0.46754708 </v>
   <v>       0.25000000       0.25000000       0.55329505 </v>
   <v>       0.33333333       0.58333333       0.38179910 </v>
   <v>       0.83333333       0.33333333       0.61820090 </v>
   <v>       0.83333333       0.58333333       0.61820090 </v>
   <v>       0.08333333       0.33333333       0.61820090 </v>
   <v>       0.33333333       0.08333333       0.61820090 </v>
   <v>       0.33333333       0.33333333       0.61820090 </v>
   <v>       0.33333333       0.83333333       0.61820090 </v>
   <v>       0.58333333       0.83333333       0.61820090 </v>
   <v>       0.58333333       0.08333333       0.61820090 </v>
   <v>       0.08333333       0.83333333       0.38179910 </v>
   <v>       0.08333333       0.58333333       0.38179910 </v>
   <v>       0.58333333       0.58333333       0.38179910 </v>
   <v>       0.91666667       0.41666667       0.46754708 </v>
   <v>       0.16666667       0.16666667       0.46754708 </v>
   <v>       0.25000000       0.00000000       0.55329505 </v>
   <v>       0.16666667       0.66666667       0.46754708 </v>
   <v>       0.08333333       0.33333333       0.38179910 </v>
   <v>       0.16666667       0.91666667       0.46754708 </v>
   <v>       0.50000000       0.00000000       0.55329505 </v>
   <v>       0.58333333       0.33333333       0.38179910 </v>
   <v>       0.33333333       0.08333333       0.38179910 </v>
   <v>       0.08333333       0.08333333       0.38179910 </v>
   <v>       0.41666667       0.66666667       0.46754708 </v>
   <v>       0.83333333       0.08333333       0.38179910 </v>
   <v>       0.83333333       0.83333333       0.38179910 </v>
   <v>       0.58333333       0.83333333       0.38179910 </v>
   <v>       0.83333333       0.58333333       0.38179910 </v>
   <v>       0.75000000       0.25000000       0.55329505 </v>
   <v>       0.66666667       0.16666667       0.46754708 </v>
   <v>       0.50000000       0.75000000       0.55329505 </v>
   <v>       0.50000000       0.50000000       0.55329505 </v>
   <v>       0.91666667       0.66666667       0.46754708 </v>
   <v>       0.00000000       0.50000000       0.55329505 </v>
  </varray>
  <varray name="selective"  type="logical" >
   <v type="logical" >  F  F  F </v>
   <v type="logical" >  T  T  T </v>
   <v type="logical" >  T  T  T </v>
   <v type="logical" >  T  T  T </v>
   <v type="logical" >  T  T  T </v>
   <v type="logical" >  T  T  T </v>
   <v type="logical" >  T  T  T </v>
   <v type="logical" >  T  T  T </v>
   <v type="logical" >  T  T  T </v>
   <v type="logical" >  T  T  T </v>
   <v type="logical" >  T  T  T </v>
   <v type="logical" >  F  F  F </v>
   <v type="logical" >  T  T  T </v>
   <v type="logical" >  T  T  T </v>
   <v type="logical" >  T  T  T </v>
   <v type="logical" >  T  T  T </v>
   <v type="logical" >  F  F  F </v>
   <v type="logical" >  T  T  T </v>
   <v type="logical" >  T  T  T </v>
   <v type="logical" >  T  T  T </v>
   <v type="logical" >  F  F  F </v>
   <v type="logical" >  T  T  T </v>
   <v type="logical" >  T  T  T </v>
   <v type="logical" >  F  F  F </v>
   <v type="logical" >  T  T  T </v>
   <v type="logical" >  T  T  T </v>
   <v type="logical" >  T  T  T </v>
   <v type="logical" >  T  T  T </v>
   <v type="logical" >  T  T  T </v>
   <v type="logical" >  T  T  T </v>
   <v type="logical" >  T  T  T </v>
   <v type="logical" >  T  T  T </v>
   <v type="logical" >  F  F  F </v>
   <v type="logical" >  F  F  F </v>
   <v type="logical" >  F  F  F </v>
   <v type="logical" >  T  T  T </v>
   <v type="logical" >  T  T  T </v>
   <v type="logical" >  T  T  T </v>
   <v type="logical" >  T  T  T </v>
   <v type="logical" >  F  F  F </v>
   <v type="logical" >  T  T  T </v>
   <v type="logical" >  T  T  T </v>
   <v type="logical" >  F  F  F </v>
   <v type="logical" >  F  F  F </v>
   <v type="logical" >  F  F  F </v>
   <v type="logical" >  T  T  T </v>
   <v type="logical" >  F  F  F </v>
   <v type="logical" >  F  F  F </v>
   <v type="logical" >  F  F  F </v>
   <v type="logical" >  F  F  F </v>
   <v type="logical" >  T  T  T </v>
   <v type="logical" >  T  T  T </v>
   <v type="logical" >  T  T  T </v>
   <v type="logical" >  T  T  T </v>
   <v type="logical" >  T  T  T </v>
   <v type="logical" >  T  T  T </v>
  </varray>
  <nose>
   <v>      -3.00000000       0.00000000       0.00010000       0.00010000 </v>
  </nose>
 </structure>
 <calculation>
  <scstep>
   <time name="dav">    9.83    9.97</time>
   <time name="total">    9.89   10.04</time>
   <dipole>
    <v name="dipole">      0.00000000       0.00000000       0.00013670 </v>
    <i name="Tr[quadrupol]"> -11228.89077816 </i>
    <i name="Echarged">      0.00000000 </i>
    <i name="Edipol_quadrupol">      0.00000000 </i>
    <i name="Eion">      0.00000000 </i>
   </dipole>
   <energy>
    <i name="alphaZ">    862.57890068 </i>
    <i name="ewald"> 256118.21841511 </i>
    <i name="hartreedc">-301694.83423892 </i>
    <i name="XCdc">   -109.56326512 </i>
    <i name="pawpsdc">  43112.45544455 </i>
    <i name="pawaedc"> -41079.41300390 </i>
    <i name="eentropy">     -0.11621373 </i>
    <i name="bandstr">   1343.31140734 </i>
    <i name="atom">  45117.89144060 </i>
    <i name="e_fr_energy">   3670.52888661 </i>
    <i name="e_wo_entrp">   3670.64510034 </i>
    <i name="e_0_energy">   3670.58699348 </i>
   </energy>
  </scstep>
  <scstep>
   <time name="dav">   11.70   11.76</time>
   <time name="total">   11.70   11.77</time>
   <dipole>
    <v name="dipole">      0.00000000       0.00000000       0.00013670 </v>
    <i name="Tr[quadrupol]"> -11228.89077816 </i>
    <i name="Echarged">      0.00000000 </i>
    <i name="Edipol_quadrupol">      0.00000000 </i>
    <i name="Eion">      0.00000000 </i>
   </dipole>
   <energy>
    <i name="e_fr_energy">     58.99391890 </i>
    <i name="e_wo_entrp">     59.16316423 </i>
    <i name="e_0_energy">     59.07854156 </i>
   </energy>
  </scstep>
  <scstep>
   <time name="dav">   11.19   11.25</time>
   <time name="total">   11.19   11.25</time>
   <dipole>
    <v name="dipole">      0.00000000       0.00000000       0.00013670 </v>
    <i name="Tr[quadrupol]"> -11228.89077816 </i>
    <i name="Echarged">      0.00000000 </i>
    <i name="Edipol_quadrupol">      0.00000000 </i>
    <i name="Eion">      0.00000000 </i>
   </dipole>
   <energy>
    <i name="e_fr_energy">   -249.33093821 </i>
    <i name="e_wo_entrp">   -248.88611406 </i>
    <i name="e_0_energy">   -249.10852614 </i>
   </energy>
  </scstep>
  <scstep>
   <time name="dav">   10.71   10.84</time>
   <time name="total">   10.71   10.85</time>
   <dipole>
    <v name="dipole">      0.00000000       0.00000000       0.00013670 </v>
    <i name="Tr[quadrupol]"> -11228.89077816 </i>
    <i name="Echarged">      0.00000000 </i>
    <i name="Edipol_quadrupol">      0.00000000 </i>
    <i name="Eion">      0.00000000 </i>
   </dipole>
   <energy>
    <i name="e_fr_energy">   -260.79031626 </i>
    <i name="e_wo_entrp">   -260.32691476 </i>
    <i name="e_0_energy">   -260.55861551 </i>
   </energy>
  </scstep>
  <scstep>
   <time name="dav">   11.36   11.43</time>
   <time name="total">   11.63   11.70</time>
   <dipole>
    <v name="dipole">      0.00000000       0.00000000       0.00013670 </v>
    <i name="Tr[quadrupol]"> -11228.89077816 </i>
    <i name="Echarged">      0.00000000 </i>
    <i name="Edipol_quadrupol">      0.00000000 </i>
    <i name="Eion">      0.00000000 </i>
   </dipole>
   <energy>
    <i name="e_fr_energy">   -261.16013359 </i>
    <i name="e_wo_entrp">   -260.69601941 </i>
    <i name="e_0_energy">   -260.92807650 </i>
   </energy>
  </scstep>
  <scstep>
   <time name="diag">    1.74    1.75</time>
   <time name="diis">    5.10    5.12</time>
   <time name="orth">    0.47    0.47</time>
   <time name="total">    7.64    7.68</time>
   <dipole>
    <v name="dipole">      0.00000000       0.00000000       2.38404240 </v>
    <i name="Tr[quadrupol]"> -11219.61689267 </i>
    <i name="Echarged">      0.00000000 </i>
    <i name="Edipol_quadrupol">      0.00000000 </i>
    <i name="Eion">      0.00000000 </i>
   </dipole>
   <energy>
    <i name="e_fr_energy">   -325.36827559 </i>
    <i name="e_wo_entrp">   -325.27466948 </i>
    <i name="e_0_energy">   -325.32147253 </i>
   </energy>
  </scstep>
  <scstep>
   <time name="diag">    1.79    1.80</time>
   <time name="diis">    5.15    5.18</time>
   <time name="orth">    0.47    0.47</time>
   <time name="total">    7.74    7.79</time>
   <dipole>
    <v name="dipole">      0.00000000       0.00000000      -1.89970268 </v>
    <i name="Tr[quadrupol]"> -11223.23568964 </i>
    <i name="Echarged">      0.00000000 </i>
    <i name="Edipol_quadrupol">      0.00000000 </i>
    <i name="Eion">      0.00000000 </i>
   </dipole>
   <energy>
    <i name="e_fr_energy">   -291.48626455 </i>
    <i name="e_wo_entrp">   -291.20213537 </i>
    <i name="e_0_energy">   -291.34419996 </i>
   </energy>
  </scstep>
  <scstep>
   <time name="diag">    1.75    1.76</time>
   <time name="diis">    5.08    5.11</time>
   <time name="orth">    0.47    0.47</time>
   <time name="total">    7.62    7.67</time>
   <dipole>
    <v name="dipole">      0.00000000       0.00000000       0.37571189 </v>
    <i name="Tr[quadrupol]"> -11227.06448618 </i>
    <i name="Echarged">      0.00000000 </i>
    <i name="Edipol_quadrupol">      0.00000000 </i>
    <i name="Eion">      0.00000000 </i>
   </dipole>
   <energy>
    <i name="e_fr_energy">   -231.42783451 </i>
    <i name="e_wo_entrp">   -231.16015653 </i>
    <i name="e_0_energy">   -231.29399552 </i>
   </energy>
  </scstep>
  <scstep>
   <time name="diag">    1.78    1.79</time>
   <time name="diis">    4.89    5.01</time>
   <time name="orth">    0.47    0.47</time>
   <time name="total">    7.47    7.61</time>
   <dipole>
    <v name="dipole">      0.00000000       0.00000000       0.55631243 </v>
    <i name="Tr[quadrupol]"> -11221.38626593 </i>
    <i name="Echarged">      0.00000000 </i>
    <i name="Edipol_quadrupol">      0.00000000 </i>
    <i name="Eion">      0.00000000 </i>
   </dipole>
   <energy>
    <i name="e_fr_energy">   -252.04802156 </i>
    <i name="e_wo_entrp">   -251.86086038 </i>
    <i name="e_0_energy">   -251.95444097 </i>
   </energy>
  </scstep>
  <scstep>
   <time name="diag">    1.75    1.76</time>
   <time name="diis">    5.15    5.17</time>
   <time name="orth">    0.47    0.47</time>
   <time name="total">    7.69    7.73</time>
   <dipole>
    <v name="dipole">      0.00000000       0.00000000       1.48915317 </v>
    <i name="Tr[quadrupol]"> -11223.24998097 </i>
    <i name="Echarged">      0.00000000 </i>
    <i name="Edipol_quadrupol">      0.00000000 </i>
    <i name="Eion">      0.00000000 </i>
   </dipole>
   <energy>
    <i name="e_fr_energy">   -259.48619683 </i>
    <i name="e_wo_entrp">   -259.36038594 </i>
    <i name="e_0_energy">   -259.42329139 </i>
   </energy>
  </scstep>
  <scstep>
   <time name="diag">    1.78    1.79</time>
   <time name="diis">    5.07    5.09</time>
   <time name="orth">    0.47    0.47</time>
   <time name="total">    7.65    7.69</time>
   <dipole>
    <v name="dipole">      0.00000000       0.00000000       1.42357334 </v>
    <i name="Tr[quadrupol]"> -11224.17985054 </i>
    <i name="Echarged">      0.00000000 </i>
    <i name="Edipol_quadrupol">      0.00000000 </i>
    <i name="Eion">      0.00000000 </i>
   </dipole>
   <energy>
    <i name="e_fr_energy">   -239.51506959 </i>
    <i name="e_wo_entrp">   -239.36340070 </i>
    <i name="e_0_energy">   -239.43923514 </i>
   </energy>
  </scstep>
  <scstep>
   <time name="diag">    1.74    1.75</time>
   <time name="diis">    5.08    5.11</time>
   <time name="orth">    0.47    0.47</time>
   <time name="total">    7.61    7.65</time>
   <dipole>
    <v name="dipole">      0.00000000       0.00000000       1.08926075 </v>
    <i name="Tr[quadrupol]"> -11225.51250147 </i>
    <i name="Echarged">      0.00000000 </i>
    <i name="Edipol_quadrupol">      0.00000000 </i>
    <i name="Eion">      0.00000000 </i>
   </dipole>
   <energy>
    <i name="e_fr_energy">   -226.87940653 </i>
    <i name="e_wo_entrp">   -226.68073426 </i>
    <i name="e_0_energy">   -226.78007039 </i>
   </energy>
  </scstep>
  <scstep>
   <time name="diag">    1.77    1.78</time>
   <time name="diis">    5.08    5.11</time>
   <time name="orth">    0.47    0.47</time>
   <time name="total">    7.65    7.69</time>
   <dipole>
    <v name="dipole">      0.00000000       0.00000000       1.00889732 </v>
    <i name="Tr[quadrupol]"> -11226.05453371 </i>
    <i name="Echarged">      0.00000000 </i>
    <i name="Edipol_quadrupol">      0.00000000 </i>
    <i name="Eion">      0.00000000 </i>
   </dipole>
   <energy>
    <i name="e_fr_energy">   -220.51393000 </i>
    <i name="e_wo_entrp">   -220.24009912 </i>
    <i name="e_0_energy">   -220.37701456 </i>
   </energy>
  </scstep>
  <scstep>
   <time name="diag">    1.75    1.75</time>
   <time name="diis">    4.98    5.10</time>
   <time name="orth">    0.47    0.47</time>
   <time name="total">    7.52    7.67</time>
   <dipole>
    <v name="dipole">      0.00000000       0.00000000       1.05237920 </v>
    <i name="Tr[quadrupol]"> -11226.02837793 </i>
    <i name="Echarged">      0.00000000 </i>
    <i name="Edipol_quadrupol">      0.00000000 </i>
    <i name="Eion">      0.00000000 </i>
   </dipole>
   <energy>
    <i name="e_fr_energy">   -219.25452132 </i>
    <i name="e_wo_entrp">   -218.95425123 </i>
    <i name="e_0_energy">   -219.10438628 </i>
   </energy>
  </scstep>
  <scstep>
   <time name="diag">    1.79    1.80</time>
   <time name="diis">    5.04    5.11</time>
   <time name="orth">    0.47    0.47</time>
   <time name="total">    7.64    7.72</time>
   <dipole>
    <v name="dipole">      0.00000000       0.00000000       1.10150275 </v>
    <i name="Tr[quadrupol]"> -11225.93616743 </i>
    <i name="Echarged">      0.00000000 </i>
    <i name="Edipol_quadrupol">      0.00000000 </i>
    <i name="Eion">      0.00000000 </i>
   </dipole>
   <energy>
    <i name="e_fr_energy">   -219.20055610 </i>
    <i name="e_wo_entrp">   -218.89617528 </i>
    <i name="e_0_energy">   -219.04836569 </i>
   </energy>
  </scstep>
  <scstep>
   <time name="diag">    1.74    1.75</time>
   <time name="diis">    5.09    5.12</time>
   <time name="orth">    0.47    0.47</time>
   <time name="total">    7.64    7.67</time>
   <dipole>
    <v name="dipole">      0.00000000       0.00000000       1.11363742 </v>
    <i name="Tr[quadrupol]"> -11225.88913094 </i>
    <i name="Echarged">      0.00000000 </i>
    <i name="Edipol_quadrupol">      0.00000000 </i>
    <i name="Eion">      0.00000000 </i>
   </dipole>
   <energy>
    <i name="e_fr_energy">   -219.19024529 </i>
    <i name="e_wo_entrp">   -218.90822941 </i>
    <i name="e_0_energy">   -219.04923735 </i>
   </energy>
  </scstep>
  <scstep>
   <time name="diag">    1.78    1.79</time>
   <time name="diis">    5.10    5.12</time>
   <time name="orth">    0.47    0.47</time>
   <time name="total">    7.67    7.71</time>
   <dipole>
    <v name="dipole">      0.00000000       0.00000000       1.11871715 </v>
    <i name="Tr[quadrupol]"> -11225.93869773 </i>
    <i name="Echarged">      0.00000000 </i>
    <i name="Edipol_quadrupol">      0.00000000 </i>
    <i name="Eion">      0.00000000 </i>
   </dipole>
   <energy>
    <i name="e_fr_energy">   -219.16482770 </i>
    <i name="e_wo_entrp">   -218.85654850 </i>
    <i name="e_0_energy">   -219.01068810 </i>
   </energy>
  </scstep>
  <scstep>
   <time name="diag">    1.76    1.77</time>
   <time name="diis">    5.10    5.13</time>
   <time name="orth">    0.46    0.47</time>
   <time name="total">    7.65    7.70</time>
   <dipole>
    <v name="dipole">      0.00000000       0.00000000       1.15210168 </v>
    <i name="Tr[quadrupol]"> -11226.12080672 </i>
    <i name="Echarged">      0.00000000 </i>
    <i name="Edipol_quadrupol">      0.00000000 </i>
    <i name="Eion">      0.00000000 </i>
   </dipole>
   <energy>
    <i name="e_fr_energy">   -219.04474283 </i>
    <i name="e_wo_entrp">   -218.72362554 </i>
    <i name="e_0_energy">   -218.88418418 </i>
   </energy>
  </scstep>
  <scstep>
   <time name="diag">    1.79    1.80</time>
   <time name="diis">    5.09    5.11</time>
   <time name="orth">    0.45    0.48</time>
   <time name="total">    7.65    7.75</time>
   <dipole>
    <v name="dipole">      0.00000000       0.00000000       1.16414048 </v>
    <i name="Tr[quadrupol]"> -11226.18860788 </i>
    <i name="Echarged">      0.00000000 </i>
    <i name="Edipol_quadrupol">      0.00000000 </i>
    <i name="Eion">      0.00000000 </i>
   </dipole>
   <energy>
    <i name="e_fr_energy">   -219.16929830 </i>
    <i name="e_wo_entrp">   -218.84906785 </i>
    <i name="e_0_energy">   -219.00918308 </i>
   </energy>
  </scstep>
  <scstep>
   <time name="diag">    1.73    1.76</time>
   <time name="diis">    5.10    5.12</time>
   <time name="orth">    0.46    0.46</time>
   <time name="total">    7.61    7.67</time>
   <dipole>
    <v name="dipole">      0.00000000       0.00000000       1.16383295 </v>
    <i name="Tr[quadrupol]"> -11226.20320914 </i>
    <i name="Echarged">      0.00000000 </i>
    <i name="Edipol_quadrupol">      0.00000000 </i>
    <i name="Eion">      0.00000000 </i>
   </dipole>
   <energy>
    <i name="e_fr_energy">   -218.92090729 </i>
    <i name="e_wo_entrp">   -218.58303119 </i>
    <i name="e_0_energy">   -218.75196924 </i>
   </energy>
  </scstep>
  <scstep>
   <time name="diag">    1.76    1.77</time>
   <time name="diis">    5.14    5.17</time>
   <time name="orth">    0.47    0.47</time>
   <time name="total">    7.70    7.74</time>
   <dipole>
    <v name="dipole">      0.00000000       0.00000000       1.16408480 </v>
    <i name="Tr[quadrupol]"> -11226.24501797 </i>
    <i name="Echarged">      0.00000000 </i>
    <i name="Edipol_quadrupol">      0.00000000 </i>
    <i name="Eion">      0.00000000 </i>
   </dipole>
   <energy>
    <i name="e_fr_energy">   -218.89418444 </i>
    <i name="e_wo_entrp">   -218.55662304 </i>
    <i name="e_0_energy">   -218.72540374 </i>
   </energy>
  </scstep>
  <scstep>
   <time name="diag">    1.75    1.76</time>
   <time name="diis">    5.11    5.13</time>
   <time name="orth">    0.46    0.47</time>
   <time name="total">    7.65    7.68</time>
   <dipole>
    <v name="dipole">      0.00000000       0.00000000       1.17108052 </v>
    <i name="Tr[quadrupol]"> -11226.29403858 </i>
    <i name="Echarged">      0.00000000 </i>
    <i name="Edipol_quadrupol">      0.00000000 </i>
    <i name="Eion">      0.00000000 </i>
   </dipole>
   <energy>
    <i name="e_fr_energy">   -218.89545687 </i>
    <i name="e_wo_entrp">   -218.55827963 </i>
    <i name="e_0_energy">   -218.72686825 </i>
   </energy>
  </scstep>
  <scstep>
   <time name="diag">    1.78    1.79</time>
   <time name="diis">    5.07    5.11</time>
   <time name="orth">    0.46    0.47</time>
   <time name="total">    7.66    7.72</time>
   <dipole>
    <v name="dipole">      0.00000000       0.00000000       1.18101243 </v>
    <i name="Tr[quadrupol]"> -11226.36868920 </i>
    <i name="Echarged">      0.00000000 </i>
    <i name="Edipol_quadrupol">      0.00000000 </i>
    <i name="Eion">      0.00000000 </i>
   </dipole>
   <energy>
    <i name="e_fr_energy">   -218.88760497 </i>
    <i name="e_wo_entrp">   -218.55828599 </i>
    <i name="e_0_energy">   -218.72294548 </i>
   </energy>
  </scstep>
  <scstep>
   <time name="diag">    1.73    1.74</time>
   <time name="diis">    5.12    5.14</time>
   <time name="orth">    0.46    0.47</time>
   <time name="total">    7.64    7.68</time>
   <dipole>
    <v name="dipole">      0.00000000       0.00000000       1.19328783 </v>
    <i name="Tr[quadrupol]"> -11226.49373835 </i>
    <i name="Echarged">      0.00000000 </i>
    <i name="Edipol_quadrupol">      0.00000000 </i>
    <i name="Eion">      0.00000000 </i>
   </dipole>
   <energy>
    <i name="e_fr_energy">   -218.88472697 </i>
    <i name="e_wo_entrp">   -218.55096974 </i>
    <i name="e_0_energy">   -218.71784835 </i>
   </energy>
  </scstep>
  <scstep>
   <time name="diag">    1.77    1.78</time>
   <time name="diis">    5.05    5.17</time>
   <time name="orth">    0.46    0.47</time>
   <time name="total">    7.61    7.75</time>
   <dipole>
    <v name="dipole">      0.00000000       0.00000000       1.19837340 </v>
    <i name="Tr[quadrupol]"> -11226.55570143 </i>
    <i name="Echarged">      0.00000000 </i>
    <i name="Edipol_quadrupol">      0.00000000 </i>
    <i name="Eion">      0.00000000 </i>
   </dipole>
   <energy>
    <i name="e_fr_energy">   -218.88297152 </i>
    <i name="e_wo_entrp">   -218.55125671 </i>
    <i name="e_0_energy">   -218.71711412 </i>
   </energy>
  </scstep>
  <scstep>
   <time name="diag">    1.74    1.75</time>
   <time name="diis">    5.13    5.16</time>
   <time name="orth">    0.46    0.47</time>
   <time name="total">    7.67    7.72</time>
   <dipole>
    <v name="dipole">      0.00000000       0.00000000       1.20059544 </v>
    <i name="Tr[quadrupol]"> -11226.59881082 </i>
    <i name="Echarged">      0.00000000 </i>
    <i name="Edipol_quadrupol">      0.00000000 </i>
    <i name="Eion">      0.00000000 </i>
   </dipole>
   <energy>
    <i name="e_fr_energy">   -218.88266710 </i>
    <i name="e_wo_entrp">   -218.55013566 </i>
    <i name="e_0_energy">   -218.71640138 </i>
   </energy>
  </scstep>
  <scstep>
   <time name="diag">    1.78    1.79</time>
   <time name="diis">    5.19    5.21</time>
   <time name="orth">    0.46    0.47</time>
   <time name="total">    7.77    7.81</time>
   <dipole>
    <v name="dipole">      0.00000000       0.00000000       1.20478945 </v>
    <i name="Tr[quadrupol]"> -11226.65831844 </i>
    <i name="Echarged">      0.00000000 </i>
    <i name="Edipol_quadrupol">      0.00000000 </i>
    <i name="Eion">      0.00000000 </i>
   </dipole>
   <energy>
    <i name="e_fr_energy">   -218.88253354 </i>
    <i name="e_wo_entrp">   -218.54933354 </i>
    <i name="e_0_energy">   -218.71593354 </i>
   </energy>
  </scstep>
  <scstep>
   <time name="diag">    1.74    1.75</time>
   <time name="diis">    5.07    5.11</time>
   <time name="orth">    0.46    0.47</time>
   <time name="total">    7.61    7.67</time>
   <dipole>
    <v name="dipole">      0.00000000       0.00000000       1.20996168 </v>
    <i name="Tr[quadrupol]"> -11226.69080847 </i>
    <i name="Echarged">      0.00000000 </i>
    <i name="Edipol_quadrupol">      0.00000000 </i>
    <i name="Eion">      0.00000000 </i>
   </dipole>
   <energy>
    <i name="e_fr_energy">   -218.88281223 </i>
    <i name="e_wo_entrp">   -218.55014325 </i>
    <i name="e_0_energy">   -218.71647774 </i>
   </energy>
  </scstep>
  <scstep>
   <time name="diag">    1.77    1.77</time>
   <time name="diis">    5.16    5.19</time>
   <time name="orth">    0.46    0.47</time>
   <time name="total">    7.72    7.76</time>
   <dipole>
    <v name="dipole">      0.00000000       0.00000000       1.21722721 </v>
    <i name="Tr[quadrupol]"> -11226.73597494 </i>
    <i name="Echarged">      0.00000000 </i>
    <i name="Edipol_quadrupol">      0.00000000 </i>
    <i name="Eion">      0.00000000 </i>
   </dipole>
   <energy>
    <i name="e_fr_energy">   -218.88331636 </i>
    <i name="e_wo_entrp">   -218.55062454 </i>
    <i name="e_0_energy">   -218.71697045 </i>
   </energy>
  </scstep>
  <scstep>
   <time name="diag">    1.74    1.75</time>
   <time name="diis">    5.16    5.18</time>
   <time name="orth">    0.46    0.48</time>
   <time name="total">    7.68    7.78</time>
   <dipole>
    <v name="dipole">      0.00000000       0.00000000       1.22602454 </v>
    <i name="Tr[quadrupol]"> -11226.78033268 </i>
    <i name="Echarged">      0.00000000 </i>
    <i name="Edipol_quadrupol">      0.00000000 </i>
    <i name="Eion">      0.00000000 </i>
   </dipole>
   <energy>
    <i name="e_fr_energy">   -218.88388937 </i>
    <i name="e_wo_entrp">   -218.55099435 </i>
    <i name="e_0_energy">   -218.71744186 </i>
   </energy>
  </scstep>
  <scstep>
   <time name="diag">    1.77    1.80</time>
   <time name="diis">    5.05    5.13</time>
   <time name="orth">    0.47    0.47</time>
   <time name="total">    7.62    7.74</time>
   <dipole>
    <v name="dipole">      0.00000000       0.00000000       1.23413883 </v>
    <i name="Tr[quadrupol]"> -11226.82872748 </i>
    <i name="Echarged">      0.00000000 </i>
    <i name="Edipol_quadrupol">      0.00000000 </i>
    <i name="Eion">      0.00000000 </i>
   </dipole>
   <energy>
    <i name="e_fr_energy">   -218.88438388 </i>
    <i name="e_wo_entrp">   -218.55130482 </i>
    <i name="e_0_energy">   -218.71784435 </i>
   </energy>
  </scstep>
  <scstep>
   <time name="diag">    1.74    1.75</time>
   <time name="diis">    5.18    5.20</time>
   <time name="orth">    0.47    0.47</time>
   <time name="total">    7.71    7.76</time>
   <dipole>
    <v name="dipole">      0.00000000       0.00000000       1.24170030 </v>
    <i name="Tr[quadrupol]"> -11226.87058383 </i>
    <i name="Echarged">      0.00000000 </i>
    <i name="Edipol_quadrupol">      0.00000000 </i>
    <i name="Eion">      0.00000000 </i>
   </dipole>
   <energy>
    <i name="e_fr_energy">   -218.88478960 </i>
    <i name="e_wo_entrp">   -218.55164317 </i>
    <i name="e_0_energy">   -218.71821639 </i>
   </energy>
  </scstep>
  <scstep>
   <time name="diag">    1.77    1.77</time>
   <time name="diis">    5.22    5.24</time>
   <time name="orth">    0.47    0.47</time>
   <time name="total">    7.78    7.82</time>
   <dipole>
    <v name="dipole">      0.00000000       0.00000000       1.24864730 </v>
    <i name="Tr[quadrupol]"> -11226.90459808 </i>
    <i name="Echarged">      0.00000000 </i>
    <i name="Edipol_quadrupol">      0.00000000 </i>
    <i name="Eion">      0.00000000 </i>
   </dipole>
   <energy>
    <i name="e_fr_energy">   -218.88511477 </i>
    <i name="e_wo_entrp">   -218.55209576 </i>
    <i name="e_0_energy">   -218.71860526 </i>
   </energy>
  </scstep>
  <scstep>
   <time name="diag">    1.74    1.75</time>
   <time name="diis">    5.01    5.03</time>
   <time name="orth">    0.47    0.47</time>
   <time name="total">    7.54    7.59</time>
   <dipole>
    <v name="dipole">      0.00000000       0.00000000       1.25756165 </v>
    <i name="Tr[quadrupol]"> -11226.94433039 </i>
    <i name="Echarged">      0.00000000 </i>
    <i name="Edipol_quadrupol">      0.00000000 </i>
    <i name="Eion">      0.00000000 </i>
   </dipole>
   <energy>
    <i name="e_fr_energy">   -218.88549055 </i>
    <i name="e_wo_entrp">   -218.55245182 </i>
    <i name="e_0_energy">   -218.71897119 </i>
   </energy>
  </scstep>
  <scstep>
   <time name="diag">    1.79    1.79</time>
   <time name="diis">    5.05    5.07</time>
   <time name="orth">    0.47    0.47</time>
   <time name="total">    7.64    7.68</time>
   <dipole>
    <v name="dipole">      0.00000000       0.00000000       1.26901323 </v>
    <i name="Tr[quadrupol]"> -11226.99292779 </i>
    <i name="Echarged">      0.00000000 </i>
    <i name="Edipol_quadrupol">      0.00000000 </i>
    <i name="Eion">      0.00000000 </i>
   </dipole>
   <energy>
    <i name="e_fr_energy">   -218.88592146 </i>
    <i name="e_wo_entrp">   -218.55302105 </i>
    <i name="e_0_energy">   -218.71947125 </i>
   </energy>
  </scstep>
  <scstep>
   <time name="diag">    1.69    1.78</time>
   <time name="diis">    4.71    4.74</time>
   <time name="orth">    0.46    0.47</time>
   <time name="total">    7.20    7.32</time>
   <dipole>
    <v name="dipole">      0.00000000       0.00000000       1.27653382 </v>
    <i name="Tr[quadrupol]"> -11227.02386153 </i>
    <i name="Echarged">      0.00000000 </i>
    <i name="Edipol_quadrupol">      0.00000000 </i>
    <i name="Eion">      0.00000000 </i>
   </dipole>
   <energy>
    <i name="e_fr_energy">   -218.88613600 </i>
    <i name="e_wo_entrp">   -218.55312899 </i>
    <i name="e_0_energy">   -218.71963250 </i>
   </energy>
  </scstep>
  <scstep>
   <time name="diag">    1.77    1.78</time>
   <time name="diis">    4.20    4.22</time>
   <time name="orth">    0.47    0.47</time>
   <time name="total">    6.77    6.81</time>
   <dipole>
    <v name="dipole">      0.00000000       0.00000000       1.28155746 </v>
    <i name="Tr[quadrupol]"> -11227.04344911 </i>
    <i name="Echarged">      0.00000000 </i>
    <i name="Edipol_quadrupol">      0.00000000 </i>
    <i name="Eion">      0.00000000 </i>
   </dipole>
   <energy>
    <i name="e_fr_energy">   -218.88623242 </i>
    <i name="e_wo_entrp">   -218.55321742 </i>
    <i name="e_0_energy">   -218.71972492 </i>
   </energy>
  </scstep>
  <scstep>
   <time name="diag">    1.75    1.75</time>
   <time name="diis">    3.83    3.85</time>
   <time name="orth">    0.47    0.47</time>
   <time name="total">    6.38    6.42</time>
   <dipole>
    <v name="dipole">      0.00000000       0.00000000       1.28651345 </v>
    <i name="Tr[quadrupol]"> -11227.06039752 </i>
    <i name="Echarged">      0.00000000 </i>
    <i name="Edipol_quadrupol">      0.00000000 </i>
    <i name="Eion">      0.00000000 </i>
   </dipole>
   <energy>
    <i name="e_fr_energy">   -218.88630981 </i>
    <i name="e_wo_entrp">   -218.55325270 </i>
    <i name="e_0_energy">   -218.71978125 </i>
   </energy>
  </scstep>
  <scstep>
   <time name="diag">    1.79    1.79</time>
   <time name="diis">    3.18    3.25</time>
   <time name="orth">    0.47    0.47</time>
   <time name="total">    5.78    5.86</time>
   <dipole>
    <v name="dipole">      0.00000000       0.00000000       1.28901939 </v>
    <i name="Tr[quadrupol]"> -11227.06806721 </i>
    <i name="Echarged">      0.00000000 </i>
    <i name="Edipol_quadrupol">      0.00000000 </i>
    <i name="Eion">      0.00000000 </i>
   </dipole>
   <energy>
    <i name="e_fr_energy">   -218.88634689 </i>
    <i name="e_wo_entrp">   -218.55329232 </i>
    <i name="e_0_energy">   -218.71981961 </i>
   </energy>
  </scstep>
  <scstep>
   <time name="diag">    1.74    1.75</time>
   <time name="diis">    3.20    3.22</time>
   <time name="orth">    0.47    0.47</time>
   <time name="total">    5.74    5.77</time>
   <dipole>
    <v name="dipole">      0.00000000       0.00000000       1.29327479 </v>
    <i name="Tr[quadrupol]"> -11227.07882018 </i>
    <i name="Echarged">      0.00000000 </i>
    <i name="Edipol_quadrupol">      0.00000000 </i>
    <i name="Eion">      0.00000000 </i>
   </dipole>
   <energy>
    <i name="e_fr_energy">   -218.88641443 </i>
    <i name="e_wo_entrp">   -218.55335650 </i>
    <i name="e_0_energy">   -218.71988546 </i>
   </energy>
  </scstep>
  <scstep>
   <time name="diag">    1.78    1.79</time>
   <time name="diis">    3.05    3.08</time>
   <time name="orth">    0.47    0.47</time>
   <time name="total">    5.63    5.68</time>
   <dipole>
    <v name="dipole">      0.00000000       0.00000000       1.29521212 </v>
    <i name="Tr[quadrupol]"> -11227.08328356 </i>
    <i name="Echarged">      0.00000000 </i>
    <i name="Edipol_quadrupol">      0.00000000 </i>
    <i name="Eion">      0.00000000 </i>
   </dipole>
   <energy>
    <i name="e_fr_energy">   -218.88644559 </i>
    <i name="e_wo_entrp">   -218.55339827 </i>
    <i name="e_0_energy">   -218.71992193 </i>
   </energy>
  </scstep>
  <scstep>
   <time name="diag">    1.74    1.75</time>
   <time name="diis">    3.05    3.17</time>
   <time name="orth">    0.47    0.47</time>
   <time name="total">    5.60    5.73</time>
   <dipole>
    <v name="dipole">      0.00000000       0.00000000       1.29877282 </v>
    <i name="Tr[quadrupol]"> -11227.09007111 </i>
    <i name="Echarged">      0.00000000 </i>
    <i name="Edipol_quadrupol">      0.00000000 </i>
    <i name="Eion">      0.00000000 </i>
   </dipole>
   <energy>
    <i name="e_fr_energy">   -218.88649819 </i>
    <i name="e_wo_entrp">   -218.55344017 </i>
    <i name="e_0_energy">   -218.71996918 </i>
   </energy>
  </scstep>
  <scstep>
   <time name="diag">    1.79    1.80</time>
   <time name="diis">    3.03    3.04</time>
   <time name="orth">    0.47    0.47</time>
   <time name="total">    5.62    5.65</time>
   <dipole>
    <v name="dipole">      0.00000000       0.00000000       1.30101877 </v>
    <i name="Tr[quadrupol]"> -11227.09434055 </i>
    <i name="Echarged">      0.00000000 </i>
    <i name="Edipol_quadrupol">      0.00000000 </i>
    <i name="Eion">      0.00000000 </i>
   </dipole>
   <energy>
    <i name="e_fr_energy">   -218.88652229 </i>
    <i name="e_wo_entrp">   -218.55345143 </i>
    <i name="e_0_energy">   -218.71998686 </i>
   </energy>
  </scstep>
  <scstep>
   <time name="diag">    1.74    1.75</time>
   <time name="diis">    3.07    3.08</time>
   <time name="orth">    0.47    0.47</time>
   <time name="total">    5.61    5.64</time>
   <dipole>
    <v name="dipole">      0.00000000       0.00000000       1.30299294 </v>
    <i name="Tr[quadrupol]"> -11227.09793644 </i>
    <i name="Echarged">      0.00000000 </i>
    <i name="Edipol_quadrupol">      0.00000000 </i>
    <i name="Eion">      0.00000000 </i>
   </dipole>
   <energy>
    <i name="e_fr_energy">   -218.88653824 </i>
    <i name="e_wo_entrp">   -218.55346460 </i>
    <i name="e_0_energy">   -218.72000142 </i>
   </energy>
  </scstep>
  <scstep>
   <time name="diag">    1.78    1.78</time>
   <time name="diis">    2.78    2.79</time>
   <time name="orth">    0.47    0.47</time>
   <time name="total">    5.36    5.39</time>
   <dipole>
    <v name="dipole">      0.00000000       0.00000000       1.30395639 </v>
    <i name="Tr[quadrupol]"> -11227.09932416 </i>
    <i name="Echarged">      0.00000000 </i>
    <i name="Edipol_quadrupol">      0.00000000 </i>
    <i name="Eion">      0.00000000 </i>
   </dipole>
   <energy>
    <i name="e_fr_energy">   -218.88654523 </i>
    <i name="e_wo_entrp">   -218.55347073 </i>
    <i name="e_0_energy">   -218.72000798 </i>
   </energy>
  </scstep>
  <scstep>
   <time name="diag">    1.75    1.76</time>
   <time name="diis">    2.60    2.61</time>
   <time name="orth">    0.47    0.47</time>
   <time name="total">    5.15    5.18</time>
   <dipole>
    <v name="dipole">      0.00000000       0.00000000       1.30438367 </v>
    <i name="Tr[quadrupol]"> -11227.09966612 </i>
    <i name="Echarged">      0.00000000 </i>
    <i name="Edipol_quadrupol">      0.00000000 </i>
    <i name="Eion">      0.00000000 </i>
   </dipole>
   <energy>
    <i name="e_fr_energy">   -218.88654890 </i>
    <i name="e_wo_entrp">   -218.55347736 </i>
    <i name="e_0_energy">   -218.72001313 </i>
   </energy>
  </scstep>
  <scstep>
   <time name="diag">    1.79    1.80</time>
   <time name="diis">    2.54    2.55</time>
   <time name="orth">    0.47    0.47</time>
   <time name="total">    5.14    5.17</time>
   <dipole>
    <v name="dipole">      0.00000000       0.00000000       1.30469454 </v>
    <i name="Tr[quadrupol]"> -11227.09983690 </i>
    <i name="Echarged">      0.00000000 </i>
    <i name="Edipol_quadrupol">      0.00000000 </i>
    <i name="Eion">      0.00000000 </i>
   </dipole>
   <energy>
    <i name="e_fr_energy">   -218.88655165 </i>
    <i name="e_wo_entrp">   -218.55347973 </i>
    <i name="e_0_energy">   -218.72001569 </i>
   </energy>
  </scstep>
  <scstep>
   <time name="diag">    1.74    1.75</time>
   <time name="diis">    2.19    2.20</time>
   <time name="orth">    0.47    0.47</time>
   <time name="total">    4.74    4.76</time>
   <dipole>
    <v name="dipole">      0.00000000       0.00000000       1.30490293 </v>
    <i name="Tr[quadrupol]"> -11227.09997441 </i>
    <i name="Echarged">      0.00000000 </i>
    <i name="Edipol_quadrupol">      0.00000000 </i>
    <i name="Eion">      0.00000000 </i>
   </dipole>
   <energy>
    <i name="e_fr_energy">   -218.88655305 </i>
    <i name="e_wo_entrp">   -218.55347868 </i>
    <i name="e_0_energy">   -218.72001587 </i>
   </energy>
  </scstep>
  <scstep>
   <time name="diag">    1.77    1.78</time>
   <time name="diis">    2.11    2.12</time>
   <time name="orth">    0.47    0.47</time>
   <time name="total">    4.40    4.43</time>
   <dipole>
    <v name="dipole">      0.00000000       0.00000000       1.30493978 </v>
    <i name="Tr[quadrupol]"> -11227.09982414 </i>
    <i name="Echarged">      0.00000000 </i>
    <i name="Edipol_quadrupol">      0.00000000 </i>
    <i name="Eion">      0.00000000 </i>
   </dipole>
   <energy>
    <i name="alphaZ">    885.61580734 </i>
    <i name="ewald"> 256118.21841511 </i>
    <i name="hartreedc">-301134.66097590 </i>
    <i name="XCdc">   -123.84086162 </i>
    <i name="pawpsdc">  52934.10927599 </i>
    <i name="pawaedc"> -51031.86583747 </i>
    <i name="eentropy">     -0.33307231 </i>
    <i name="bandstr">  -2984.02074555 </i>
    <i name="atom">  45117.89144060 </i>
    <i name="e_fr_energy">   -218.88655380 </i>
    <i name="e_wo_entrp">   -218.55348149 </i>
    <i name="e_0_energy">   -218.72001764 </i>
   </energy>
  </scstep>
  <structure>
   <crystal>
    <varray name="basis" >
     <v>      11.00258152       0.00000000       0.00000000 </v>
     <v>       5.50129076       9.52851510       0.00000000 </v>
     <v>       0.00000000       0.00000000      26.19178509 </v>
    </varray>
    <i name="volume">   2745.90128299 </i>
    <varray name="rec_basis" >
     <v>       0.09088776      -0.05247407       0.00000000 </v>
     <v>       0.00000000       0.10494815       0.00000000 </v>
     <v>       0.00000000       0.00000000       0.03817991 </v>
    </varray>
   </crystal>
   <varray name="positions" >
    <v>       0.33333333       0.33333333       0.38179910 </v>
    <v>       0.25000000       0.50000000       0.55329505 </v>
    <v>       0.41666667       0.16666667       0.46754708 </v>
    <v>       0.91666667       0.16666667       0.46754708 </v>
    <v>       0.00000000       0.00000000       0.55329505 </v>
    <v>       0.66666667       0.91666667       0.46754708 </v>
    <v>       0.50000000       0.25000000       0.55329505 </v>
    <v>       0.41666667       0.41666667       0.46754708 </v>
    <v>       0.00000000       0.25000000       0.55329505 </v>
    <v>       0.75000000       0.50000000       0.55329505 </v>
    <v>       0.66666667       0.66666667       0.46754708 </v>
    <v>       0.58333333       0.08333333       0.38179910 </v>
    <v>       0.41666667       0.91666667       0.46754708 </v>
    <v>       0.91666667       0.91666667       0.46754708 </v>
    <v>       0.00000000       0.75000000       0.55329505 </v>
    <v>       0.66666667       0.41666667       0.46754708 </v>
    <v>       0.83333333       0.33333333       0.38179910 </v>
    <v>       0.75000000       0.00000000       0.55329505 </v>
    <v>       0.75000000       0.75000000       0.55329505 </v>
    <v>       0.25000000       0.75000000       0.55329505 </v>
    <v>       0.33333333       0.83333333       0.38179910 </v>
    <v>       0.16666667       0.41666667       0.46754708 </v>
    <v>       0.25000000       0.25000000       0.55329505 </v>
    <v>       0.33333333       0.58333333       0.38179910 </v>
    <v>       0.83333333       0.33333333       0.61820090 </v>
    <v>       0.83333333       0.58333333       0.61820090 </v>
    <v>       0.08333333       0.33333333       0.61820090 </v>
    <v>       0.33333333       0.08333333       0.61820090 </v>
    <v>       0.33333333       0.33333333       0.61820090 </v>
    <v>       0.33333333       0.83333333       0.61820090 </v>
    <v>       0.58333333       0.83333333       0.61820090 </v>
    <v>       0.58333333       0.08333333       0.61820090 </v>
    <v>       0.08333333       0.83333333       0.38179910 </v>
    <v>       0.08333333       0.58333333       0.38179910 </v>
    <v>       0.58333333       0.58333333       0.38179910 </v>
    <v>       0.91666667       0.41666667       0.46754708 </v>
    <v>       0.16666667       0.16666667       0.46754708 </v>
    <v>       0.25000000       0.00000000       0.55329505 </v>
    <v>       0.16666667       0.66666667       0.46754708 </v>
    <v>       0.08333333       0.33333333       0.38179910 </v>
    <v>       0.16666667       0.91666667       0.46754708 </v>
    <v>       0.50000000       0.00000000       0.55329505 </v>
    <v>       0.58333333       0.33333333       0.38179910 </v>
    <v>       0.33333333       0.08333333       0.38179910 </v>
    <v>       0.08333333       0.08333333       0.38179910 </v>
    <v>       0.41666667       0.66666667       0.46754708 </v>
    <v>       0.83333333       0.08333333       0.38179910 </v>
    <v>       0.83333333       0.83333333       0.38179910 </v>
    <v>       0.58333333       0.83333333       0.38179910 </v>
    <v>       0.83333333       0.58333333       0.38179910 </v>
    <v>       0.75000000       0.25000000       0.55329505 </v>
    <v>       0.66666667       0.16666667       0.46754708 </v>
    <v>       0.50000000       0.75000000       0.55329505 </v>
    <v>       0.50000000       0.50000000       0.55329505 </v>
    <v>       0.91666667       0.66666667       0.46754708 </v>
    <v>       0.00000000       0.50000000       0.55329505 </v>
   </varray>
  </structure>
  <varray name="forces" >
   <v>      -0.29928829      -0.00105869      -1.77128840 </v>
   <v>       0.16813735       0.54232935       2.02594788 </v>
   <v>      -0.31152782      -0.36257765       0.11799177 </v>
   <v>       0.27814973      -0.07539569      -0.22350217 </v>
   <v>       0.12279797       0.03865751       1.42578503 </v>
   <v>       0.07787093      -0.23382357      -0.13837156 </v>
   <v>       0.86923845       0.20463834       2.39184611 </v>
   <v>       0.60415118       0.17325976       0.11780514 </v>
   <v>      -0.14602205      -0.33996652       2.21223274 </v>
   <v>      -0.55735734      -0.04778992       2.42093187 </v>
   <v>      -0.05969049      -0.24221975      -0.33938712 </v>
   <v>       0.30524104      -0.14494922      -1.53380511 </v>
   <v>      -0.39124517       0.10057682       0.08540748 </v>
   <v>       0.06296202      -0.19314994      -0.65954307 </v>
   <v>       0.02291049      -0.22669405       1.28305808 </v>
   <v>      -0.23129657       0.10203515       0.07983334 </v>
   <v>       0.14295908       0.05656000      -1.49370196 </v>
   <v>       0.19062019       0.30809608       2.14289961 </v>
   <v>       0.29509392       0.04572155       2.33707132 </v>
   <v>       0.15370921      -0.10764365       1.64214928 </v>
   <v>      -0.02413848       0.12895428      -1.23720264 </v>
   <v>      -0.97556187       0.41130275      -0.12998703 </v>
   <v>      -0.33524181      -0.20522985       2.30932835 </v>
   <v>       0.03849349       0.19289240      -1.30841375 </v>
   <v>      -0.70483189      -0.45541551      -2.33520191 </v>
   <v>       0.47105197       0.15463891      -2.04931656 </v>
   <v>      -0.00941011       0.49196003      -1.89422826 </v>
   <v>      -0.44306598      -0.53123355      -2.40243806 </v>
   <v>       0.24453909       0.66088269      -1.74725634 </v>
   <v>      -0.13000121      -0.05570990      -2.87189008 </v>
   <v>      -0.24013886      -0.17899876      -2.50253262 </v>
   <v>       0.48014462      -0.24844649      -2.14343090 </v>
   <v>      -0.20523092       0.06800250      -0.50363470 </v>
   <v>      -0.26990324       0.23554204      -0.56627422 </v>
   <v>       0.15898477       0.03684010      -0.85623537 </v>
   <v>       0.39390483       0.14171434      -0.49994248 </v>
   <v>      -0.20223381      -0.13782162       0.23379415 </v>
   <v>       0.09987937      -0.31768938       2.45461972 </v>
   <v>       0.08493213       0.20403387       0.11824744 </v>
   <v>      -0.05554674      -0.11375459      -0.65121768 </v>
   <v>       0.22433131      -0.04311456      -0.05675818 </v>
   <v>      -0.29233691      -0.20515368       3.63474491 </v>
   <v>       0.20478313      -0.05145526      -0.85181128 </v>
   <v>      -0.33151767       0.09691515      -0.83908446 </v>
   <v>       0.15329792       0.05239146      -0.63384360 </v>
   <v>       0.07247926       0.12222717       0.35165232 </v>
   <v>       0.02320727      -0.08280783      -0.71802267 </v>
   <v>       0.07117085      -0.26053419      -0.73495185 </v>
   <v>       0.11069561      -0.25251451      -0.96164082 </v>
   <v>       0.09285548       0.15218144      -0.65232549 </v>
   <v>       0.12363424       0.18205981       1.78672906 </v>
   <v>       0.25986287       0.26426328       0.14508416 </v>
   <v>      -0.37854423       0.15360585       2.72512337 </v>
   <v>       0.06131077       0.15742499       0.76417653 </v>
   <v>       0.03311271      -0.35767149      -0.01947519 </v>
   <v>      -0.10238181      -0.00688779       2.52025585 </v>
  </varray>
  <energy>
   <i name="e_fr_energy">   -218.88655380 </i>
   <i name="e_wo_entrp">   -218.72001764 </i>
   <i name="e_0_energy">     -0.33307231 </i>
  </energy>
  <time name="totalsc">  367.07  370.19</time>
 </calculation>
 <calculation>
  <scstep>
   <time name="dav">   10.38   10.45</time>
   <time name="total">   10.70   10.77</time>
   <dipole>
    <v name="dipole">      0.00000000       0.00000000       1.30500389 </v>
    <i name="Tr[quadrupol]"> -11219.18560284 </i>
    <i name="Echarged">      0.00000000 </i>
    <i name="Edipol_quadrupol">      0.00000000 </i>
    <i name="Eion">      0.00000000 </i>
   </dipole>
   <energy>
    <i name="alphaZ">    884.90825586 </i>
    <i name="ewald"> 255029.77855931 </i>
    <i name="hartreedc">-300038.62462122 </i>
    <i name="XCdc">   -123.70454590 </i>
    <i name="pawpsdc">  52934.10824950 </i>
    <i name="pawaedc"> -51031.86479576 </i>
    <i name="eentropy">     -0.27896958 </i>
    <i name="bandstr">  -2993.18235076 </i>
    <i name="atom">  45117.89144060 </i>
    <i name="e_fr_energy">   -220.96877794 </i>
    <i name="e_wo_entrp">   -220.68980836 </i>
    <i name="e_0_energy">   -220.82929315 </i>
   </energy>
  </scstep>
  <scstep>
   <time name="diag">    1.74    1.75</time>
   <time name="diis">    5.05    5.08</time>
   <time name="orth">    0.47    0.47</time>
   <time name="total">    7.58    7.62</time>
   <dipole>
    <v name="dipole">      0.00000000       0.00000000       0.68167688 </v>
    <i name="Tr[quadrupol]"> -11218.72732357 </i>
    <i name="Echarged">      0.00000000 </i>
    <i name="Edipol_quadrupol">      0.00000000 </i>
    <i name="Eion">      0.00000000 </i>
   </dipole>
   <energy>
    <i name="e_fr_energy">   -230.74164580 </i>
    <i name="e_wo_entrp">   -230.39185394 </i>
    <i name="e_0_energy">   -230.56674987 </i>
   </energy>
  </scstep>
  <scstep>
   <time name="diag">    1.76    1.77</time>
   <time name="diis">    5.11    5.13</time>
   <time name="orth">    0.47    0.47</time>
   <time name="total">    7.67    7.71</time>
   <dipole>
    <v name="dipole">      0.00000000       0.00000000       1.23172844 </v>
    <i name="Tr[quadrupol]"> -11219.13970027 </i>
    <i name="Echarged">      0.00000000 </i>
    <i name="Edipol_quadrupol">      0.00000000 </i>
    <i name="Eion">      0.00000000 </i>
   </dipole>
   <energy>
    <i name="e_fr_energy">   -223.41090733 </i>
    <i name="e_wo_entrp">   -223.11796363 </i>
    <i name="e_0_energy">   -223.26443548 </i>
   </energy>
  </scstep>
  <scstep>
   <time name="diag">    1.74    1.75</time>
   <time name="diis">    5.11    5.13</time>
   <time name="orth">    0.47    0.47</time>
   <time name="total">    7.64    7.68</time>
   <dipole>
    <v name="dipole">      0.00000000       0.00000000       0.99775042 </v>
    <i name="Tr[quadrupol]"> -11219.11982310 </i>
    <i name="Echarged">      0.00000000 </i>
    <i name="Edipol_quadrupol">      0.00000000 </i>
    <i name="Eion">      0.00000000 </i>
   </dipole>
   <energy>
    <i name="e_fr_energy">   -223.76860138 </i>
    <i name="e_wo_entrp">   -223.42159469 </i>
    <i name="e_0_energy">   -223.59509803 </i>
   </energy>
  </scstep>
  <scstep>
   <time name="diag">    1.75    1.76</time>
   <time name="diis">    4.90    5.03</time>
   <time name="orth">    0.47    0.47</time>
   <time name="total">    7.45    7.59</time>
   <dipole>
    <v name="dipole">      0.00000000       0.00000000       0.99055107 </v>
    <i name="Tr[quadrupol]"> -11219.38906004 </i>
    <i name="Echarged">      0.00000000 </i>
    <i name="Edipol_quadrupol">      0.00000000 </i>
    <i name="Eion">      0.00000000 </i>
   </dipole>
   <energy>
    <i name="e_fr_energy">   -223.56770680 </i>
    <i name="e_wo_entrp">   -223.18332163 </i>
    <i name="e_0_energy">   -223.37551422 </i>
   </energy>
  </scstep>
  <scstep>
   <time name="diag">    1.74    1.75</time>
   <time name="diis">    5.07    5.10</time>
   <time name="orth">    0.46    0.46</time>
   <time name="total">    7.60    7.64</time>
   <dipole>
    <v name="dipole">      0.00000000       0.00000000       1.01519267 </v>
    <i name="Tr[quadrupol]"> -11219.50138682 </i>
    <i name="Echarged">      0.00000000 </i>
    <i name="Edipol_quadrupol">      0.00000000 </i>
    <i name="Eion">      0.00000000 </i>
   </dipole>
   <energy>
    <i name="e_fr_energy">   -223.10887494 </i>
    <i name="e_wo_entrp">   -222.78246105 </i>
    <i name="e_0_energy">   -222.94566799 </i>
   </energy>
  </scstep>
  <scstep>
   <time name="diag">    1.75    1.76</time>
   <time name="diis">    5.05    5.07</time>
   <time name="orth">    0.46    0.46</time>
   <time name="total">    7.59    7.63</time>
   <dipole>
    <v name="dipole">      0.00000000       0.00000000       1.06451508 </v>
    <i name="Tr[quadrupol]"> -11219.59161194 </i>
    <i name="Echarged">      0.00000000 </i>
    <i name="Edipol_quadrupol">      0.00000000 </i>
    <i name="Eion">      0.00000000 </i>
   </dipole>
   <energy>
    <i name="e_fr_energy">   -222.81657185 </i>
    <i name="e_wo_entrp">   -222.48831272 </i>
    <i name="e_0_energy">   -222.65244229 </i>
   </energy>
  </scstep>
  <scstep>
   <time name="diag">    1.74    1.75</time>
   <time name="diis">    4.99    5.03</time>
   <time name="orth">    0.46    0.46</time>
   <time name="total">    7.52    7.57</time>
   <dipole>
    <v name="dipole">      0.00000000       0.00000000       1.07885066 </v>
    <i name="Tr[quadrupol]"> -11219.73554481 </i>
    <i name="Echarged">      0.00000000 </i>
    <i name="Edipol_quadrupol">      0.00000000 </i>
    <i name="Eion">      0.00000000 </i>
   </dipole>
   <energy>
    <i name="e_fr_energy">   -222.72575801 </i>
    <i name="e_wo_entrp">   -222.40589814 </i>
    <i name="e_0_energy">   -222.56582807 </i>
   </energy>
  </scstep>
  <scstep>
   <time name="diag">    1.75    1.76</time>
   <time name="diis">    4.98    5.01</time>
   <time name="orth">    0.46    0.46</time>
   <time name="total">    7.52    7.57</time>
   <dipole>
    <v name="dipole">      0.00000000       0.00000000       1.08362407 </v>
    <i name="Tr[quadrupol]"> -11219.82333789 </i>
    <i name="Echarged">      0.00000000 </i>
    <i name="Edipol_quadrupol">      0.00000000 </i>
    <i name="Eion">      0.00000000 </i>
   </dipole>
   <energy>
    <i name="e_fr_energy">   -222.61228284 </i>
    <i name="e_wo_entrp">   -222.28857782 </i>
    <i name="e_0_energy">   -222.45043033 </i>
   </energy>
  </scstep>
  <scstep>
   <time name="diag">    1.74    1.75</time>
   <time name="diis">    5.00    5.11</time>
   <time name="orth">    0.46    0.46</time>
   <time name="total">    7.53    7.66</time>
   <dipole>
    <v name="dipole">      0.00000000       0.00000000       1.10038359 </v>
    <i name="Tr[quadrupol]"> -11219.84370903 </i>
    <i name="Echarged">      0.00000000 </i>
    <i name="Edipol_quadrupol">      0.00000000 </i>
    <i name="Eion">      0.00000000 </i>
   </dipole>
   <energy>
    <i name="e_fr_energy">   -222.60547809 </i>
    <i name="e_wo_entrp">   -222.28996008 </i>
    <i name="e_0_energy">   -222.44771908 </i>
   </energy>
  </scstep>
  <scstep>
   <time name="diag">    1.76    1.77</time>
   <time name="diis">    5.07    5.10</time>
   <time name="orth">    0.46    0.46</time>
   <time name="total">    7.62    7.66</time>
   <dipole>
    <v name="dipole">      0.00000000       0.00000000       1.10858821 </v>
    <i name="Tr[quadrupol]"> -11219.89756880 </i>
    <i name="Echarged">      0.00000000 </i>
    <i name="Edipol_quadrupol">      0.00000000 </i>
    <i name="Eion">      0.00000000 </i>
   </dipole>
   <energy>
    <i name="e_fr_energy">   -222.59427352 </i>
    <i name="e_wo_entrp">   -222.28294493 </i>
    <i name="e_0_energy">   -222.43860922 </i>
   </energy>
  </scstep>
  <scstep>
   <time name="diag">    1.74    1.75</time>
   <time name="diis">    5.08    5.11</time>
   <time name="orth">    0.46    0.46</time>
   <time name="total">    7.61    7.65</time>
   <dipole>
    <v name="dipole">      0.00000000       0.00000000       1.10508327 </v>
    <i name="Tr[quadrupol]"> -11219.89773470 </i>
    <i name="Echarged">      0.00000000 </i>
    <i name="Edipol_quadrupol">      0.00000000 </i>
    <i name="Eion">      0.00000000 </i>
   </dipole>
   <energy>
    <i name="e_fr_energy">   -222.59378206 </i>
    <i name="e_wo_entrp">   -222.28154701 </i>
    <i name="e_0_energy">   -222.43766454 </i>
   </energy>
  </scstep>
  <scstep>
   <time name="diag">    1.75    1.76</time>
   <time name="diis">    5.05    5.08</time>
   <time name="orth">    0.46    0.46</time>
   <time name="total">    7.59    7.63</time>
   <dipole>
    <v name="dipole">      0.00000000       0.00000000       1.10658105 </v>
    <i name="Tr[quadrupol]"> -11219.91257537 </i>
    <i name="Echarged">      0.00000000 </i>
    <i name="Edipol_quadrupol">      0.00000000 </i>
    <i name="Eion">      0.00000000 </i>
   </dipole>
   <energy>
    <i name="e_fr_energy">   -222.59282872 </i>
    <i name="e_wo_entrp">   -222.28004169 </i>
    <i name="e_0_energy">   -222.43643520 </i>
   </energy>
  </scstep>
  <scstep>
   <time name="diag">    1.74    1.75</time>
   <time name="diis">    5.01    5.03</time>
   <time name="orth">    0.46    0.46</time>
   <time name="total">    7.53    7.57</time>
   <dipole>
    <v name="dipole">      0.00000000       0.00000000       1.10593230 </v>
    <i name="Tr[quadrupol]"> -11219.92103043 </i>
    <i name="Echarged">      0.00000000 </i>
    <i name="Edipol_quadrupol">      0.00000000 </i>
    <i name="Eion">      0.00000000 </i>
   </dipole>
   <energy>
    <i name="e_fr_energy">   -222.59041116 </i>
    <i name="e_wo_entrp">   -222.27777023 </i>
    <i name="e_0_energy">   -222.43409069 </i>
   </energy>
  </scstep>
  <scstep>
   <time name="diag">    1.75    1.76</time>
   <time name="diis">    5.03    5.06</time>
   <time name="orth">    0.46    0.46</time>
   <time name="total">    7.57    7.62</time>
   <dipole>
    <v name="dipole">      0.00000000       0.00000000       1.10893974 </v>
    <i name="Tr[quadrupol]"> -11219.93164937 </i>
    <i name="Echarged">      0.00000000 </i>
    <i name="Edipol_quadrupol">      0.00000000 </i>
    <i name="Eion">      0.00000000 </i>
   </dipole>
   <energy>
    <i name="e_fr_energy">   -222.59046076 </i>
    <i name="e_wo_entrp">   -222.27806648 </i>
    <i name="e_0_energy">   -222.43426362 </i>
   </energy>
  </scstep>
  <scstep>
   <time name="diag">    1.68    1.76</time>
   <time name="diis">    5.09    5.12</time>
   <time name="orth">    0.46    0.46</time>
   <time name="total">    7.57    7.69</time>
   <dipole>
    <v name="dipole">      0.00000000       0.00000000       1.10785356 </v>
    <i name="Tr[quadrupol]"> -11219.93824161 </i>
    <i name="Echarged">      0.00000000 </i>
    <i name="Edipol_quadrupol">      0.00000000 </i>
    <i name="Eion">      0.00000000 </i>
   </dipole>
   <energy>
    <i name="e_fr_energy">   -222.59010168 </i>
    <i name="e_wo_entrp">   -222.27818927 </i>
    <i name="e_0_energy">   -222.43414548 </i>
   </energy>
  </scstep>
  <scstep>
   <time name="diag">    1.75    1.76</time>
   <time name="diis">    5.04    5.06</time>
   <time name="orth">    0.46    0.46</time>
   <time name="total">    7.57    7.61</time>
   <dipole>
    <v name="dipole">      0.00000000       0.00000000       1.10663175 </v>
    <i name="Tr[quadrupol]"> -11219.94845793 </i>
    <i name="Echarged">      0.00000000 </i>
    <i name="Edipol_quadrupol">      0.00000000 </i>
    <i name="Eion">      0.00000000 </i>
   </dipole>
   <energy>
    <i name="e_fr_energy">   -222.59017746 </i>
    <i name="e_wo_entrp">   -222.27801562 </i>
    <i name="e_0_energy">   -222.43409654 </i>
   </energy>
  </scstep>
  <scstep>
   <time name="diag">    1.73    1.74</time>
   <time name="diis">    5.11    5.14</time>
   <time name="orth">    0.46    0.46</time>
   <time name="total">    7.63    7.67</time>
   <dipole>
    <v name="dipole">      0.00000000       0.00000000       1.10564594 </v>
    <i name="Tr[quadrupol]"> -11219.96141418 </i>
    <i name="Echarged">      0.00000000 </i>
    <i name="Edipol_quadrupol">      0.00000000 </i>
    <i name="Eion">      0.00000000 </i>
   </dipole>
   <energy>
    <i name="e_fr_energy">   -222.59024735 </i>
    <i name="e_wo_entrp">   -222.27794163 </i>
    <i name="e_0_energy">   -222.43409449 </i>
   </energy>
  </scstep>
  <scstep>
   <time name="diag">    1.75    1.76</time>
   <time name="diis">    5.16    5.19</time>
   <time name="orth">    0.45    0.46</time>
   <time name="total">    7.71    7.75</time>
   <dipole>
    <v name="dipole">      0.00000000       0.00000000       1.10456924 </v>
    <i name="Tr[quadrupol]"> -11219.96844347 </i>
    <i name="Echarged">      0.00000000 </i>
    <i name="Edipol_quadrupol">      0.00000000 </i>
    <i name="Eion">      0.00000000 </i>
   </dipole>
   <energy>
    <i name="e_fr_energy">   -222.59032268 </i>
    <i name="e_wo_entrp">   -222.27836223 </i>
    <i name="e_0_energy">   -222.43434245 </i>
   </energy>
  </scstep>
  <scstep>
   <time name="diag">    1.73    1.74</time>
   <time name="diis">    4.90    4.92</time>
   <time name="orth">    0.46    0.46</time>
   <time name="total">    7.41    7.45</time>
   <dipole>
    <v name="dipole">      0.00000000       0.00000000       1.10443468 </v>
    <i name="Tr[quadrupol]"> -11219.97450551 </i>
    <i name="Echarged">      0.00000000 </i>
    <i name="Edipol_quadrupol">      0.00000000 </i>
    <i name="Eion">      0.00000000 </i>
   </dipole>
   <energy>
    <i name="e_fr_energy">   -222.59036335 </i>
    <i name="e_wo_entrp">   -222.27832315 </i>
    <i name="e_0_energy">   -222.43434325 </i>
   </energy>
  </scstep>
  <scstep>
   <time name="diag">    1.75    1.77</time>
   <time name="diis">    3.72    3.84</time>
   <time name="orth">    0.45    0.46</time>
   <time name="total">    6.25    6.40</time>
   <dipole>
    <v name="dipole">      0.00000000       0.00000000       1.10421483 </v>
    <i name="Tr[quadrupol]"> -11219.97762006 </i>
    <i name="Echarged">      0.00000000 </i>
    <i name="Edipol_quadrupol">      0.00000000 </i>
    <i name="Eion">      0.00000000 </i>
   </dipole>
[...]
       <r>   -19.0189     0.0108    16.0000 </r>
       <r>   -18.9264     0.0000    16.0000 </r>
       <r>   -18.8339     0.0000    16.0000 </r>
       <r>   -18.7413     0.0000    16.0000 </r>
       <r>   -18.6488     0.0000    16.0000 </r>
       <r>   -18.5563     0.0000    16.0000 </r>
       <r>   -18.4638     0.0000    16.0000 </r>
       <r>   -18.3713     0.0000    16.0000 </r>
       <r>   -18.2787     0.0000    16.0000 </r>
       <r>   -18.1862     0.0000    16.0000 </r>
       <r>   -18.0937     0.0000    16.0000 </r>
       <r>   -18.0012     0.0000    16.0000 </r>
       <r>   -17.9086     0.0000    16.0000 </r>
       <r>   -17.8161     0.0000    16.0000 </r>
       <r>   -17.7236     0.0000    16.0000 </r>
       <r>   -17.6311     0.0000    16.0000 </r>
       <r>   -17.5385     0.0000    16.0000 </r>
       <r>   -17.4460     0.0000    16.0000 </r>
       <r>   -17.3535     0.0000    16.0000 </r>
       <r>   -17.2610     0.0000    16.0000 </r>
       <r>   -17.1685     0.0000    16.0000 </r>
       <r>   -17.0759     0.0000    16.0000 </r>
       <r>   -16.9834     0.0000    16.0000 </r>
       <r>   -16.8909     0.0000    16.0000 </r>
       <r>   -16.7984     0.0000    16.0000 </r>
       <r>   -16.7058     0.0000    16.0000 </r>
       <r>   -16.6133     0.0000    16.0000 </r>
       <r>   -16.5208     0.0000    16.0000 </r>
       <r>   -16.4283     0.0000    16.0000 </r>
       <r>   -16.3357     0.0000    16.0000 </r>
       <r>   -16.2432     0.0000    16.0000 </r>
       <r>   -16.1507     0.0000    16.0000 </r>
       <r>   -16.0582     0.0000    16.0000 </r>
       <r>   -15.9657     0.0000    16.0000 </r>
       <r>   -15.8731     0.0000    16.0000 </r>
       <r>   -15.7806     0.0000    16.0000 </r>
       <r>   -15.6881     0.0000    16.0000 </r>
       <r>   -15.5956     0.0000    16.0000 </r>
       <r>   -15.5030     0.0000    16.0000 </r>
       <r>   -15.4105     0.0000    16.0000 </r>
       <r>   -15.3180     0.0000    16.0000 </r>
       <r>   -15.2255     0.0000    16.0000 </r>
       <r>   -15.1329     0.0000    16.0000 </r>
       <r>   -15.0404     0.0000    16.0000 </r>
       <r>   -14.9479     0.0000    16.0000 </r>
       <r>   -14.8554     0.0000    16.0000 </r>
       <r>   -14.7629     0.0000    16.0000 </r>
       <r>   -14.6703     0.0000    16.0000 </r>
       <r>   -14.5778     0.0000    16.0000 </r>
       <r>   -14.4853     0.0000    16.0000 </r>
       <r>   -14.3928     0.0000    16.0000 </r>
       <r>   -14.3002     0.0000    16.0000 </r>
       <r>   -14.2077     0.0000    16.0000 </r>
       <r>   -14.1152     0.0000    16.0000 </r>
       <r>   -14.0227     0.0000    16.0000 </r>
       <r>   -13.9302     0.0000    16.0000 </r>
       <r>   -13.8376     0.0000    16.0000 </r>
       <r>   -13.7451     0.0000    16.0000 </r>
       <r>   -13.6526     0.0000    16.0000 </r>
       <r>   -13.5601     0.0000    16.0000 </r>
       <r>   -13.4675     0.0000    16.0000 </r>
       <r>   -13.3750     0.0000    16.0000 </r>
       <r>   -13.2825     0.0000    16.0000 </r>
       <r>   -13.1900     0.0000    16.0000 </r>
       <r>   -13.0974     0.0000    16.0000 </r>
       <r>   -13.0049     0.0000    16.0000 </r>
       <r>   -12.9124     0.0000    16.0000 </r>
       <r>   -12.8199     0.0000    16.0000 </r>
       <r>   -12.7274     0.0000    16.0000 </r>
       <r>   -12.6348     0.0000    16.0000 </r>
       <r>   -12.5423     0.0000    16.0000 </r>
       <r>   -12.4498     0.0000    16.0000 </r>
       <r>   -12.3573     0.0000    16.0000 </r>
       <r>   -12.2647     0.0000    16.0000 </r>
       <r>   -12.1722     0.0000    16.0000 </r>
       <r>   -12.0797     0.0000    16.0000 </r>
       <r>   -11.9872     0.0000    16.0000 </r>
       <r>   -11.8946     0.0000    16.0000 </r>
       <r>   -11.8021     0.0000    16.0000 </r>
       <r>   -11.7096     0.0000    16.0000 </r>
       <r>   -11.6171     0.0000    16.0000 </r>
       <r>   -11.5246     0.0000    16.0000 </r>
       <r>   -11.4320     0.0000    16.0000 </r>
       <r>   -11.3395     0.0000    16.0000 </r>
       <r>   -11.2470     0.0000    16.0000 </r>
       <r>   -11.1545     0.0000    16.0000 </r>
       <r>   -11.0619     0.0000    16.0000 </r>
       <r>   -10.9694     0.0000    16.0000 </r>
       <r>   -10.8769     0.0000    16.0000 </r>
       <r>   -10.7844     0.0000    16.0000 </r>
       <r>   -10.6918     0.0000    16.0000 </r>
       <r>   -10.5993     0.0000    16.0000 </r>
       <r>   -10.5068     0.0000    16.0000 </r>
       <r>   -10.4143     0.0000    16.0000 </r>
       <r>   -10.3218     0.0000    16.0000 </r>
       <r>   -10.2292     0.0000    16.0000 </r>
       <r>   -10.1367     0.0000    16.0000 </r>
       <r>   -10.0442     0.0000    16.0000 </r>
       <r>    -9.9517     0.0000    16.0000 </r>
       <r>    -9.8591     0.0000    16.0000 </r>
       <r>    -9.7666     0.0000    16.0000 </r>
       <r>    -9.6741     0.0000    16.0000 </r>
       <r>    -9.5816     0.0000    16.0000 </r>
       <r>    -9.4891     0.0000    16.0000 </r>
       <r>    -9.3965     0.0020    16.0002 </r>
       <r>    -9.3040     0.1306    16.0123 </r>
       <r>    -9.2115     1.7443    16.1737 </r>
       <r>    -9.1190     5.2653    16.6608 </r>
       <r>    -9.0264     5.4304    17.1633 </r>
       <r>    -8.9339     5.6461    17.6857 </r>
       <r>    -8.8414     3.0390    17.9668 </r>
       <r>    -8.7489     1.0644    18.0653 </r>
       <r>    -8.6563     2.8282    18.3270 </r>
       <r>    -8.5638     6.0551    18.8872 </r>
       <r>    -8.4713     8.8214    19.7034 </r>
       <r>    -8.3788     9.1904    20.5537 </r>
       <r>    -8.2863     7.9459    21.2889 </r>
       <r>    -8.1937     9.8631    22.2015 </r>
       <r>    -8.1012    16.4593    23.7243 </r>
       <r>    -8.0087    19.4722    25.5260 </r>
       <r>    -7.9162    18.4070    27.2290 </r>
       <r>    -7.8236    19.7597    29.0573 </r>
       <r>    -7.7311    24.8124    31.3530 </r>
       <r>    -7.6386    32.4191    34.3525 </r>
       <r>    -7.5461    40.0499    38.0580 </r>
       <r>    -7.4535    47.2941    42.4338 </r>
       <r>    -7.3610    49.4327    47.0075 </r>
       <r>    -7.2685    48.1707    51.4644 </r>
       <r>    -7.1760    46.9135    55.8049 </r>
       <r>    -7.0835    50.7087    60.4966 </r>
       <r>    -6.9909    57.8350    65.8477 </r>
       <r>    -6.8984    59.0631    71.3124 </r>
       <r>    -6.8059    62.3399    77.0803 </r>
       <r>    -6.7134    70.8312    83.6338 </r>
       <r>    -6.6208    79.0437    90.9471 </r>
       <r>    -6.5283    79.4818    98.3010 </r>
       <r>    -6.4358    77.9841   105.5163 </r>
       <r>    -6.3433    80.2618   112.9424 </r>
       <r>    -6.2507    82.2701   120.5543 </r>
       <r>    -6.1582    79.1944   127.8816 </r>
       <r>    -6.0657    81.0730   135.3827 </r>
       <r>    -5.9732    85.4371   143.2876 </r>
       <r>    -5.8807    85.4073   151.1897 </r>
       <r>    -5.7881    82.0285   158.7792 </r>
       <r>    -5.6956    82.8843   166.4479 </r>
       <r>    -5.6031    83.6313   174.1857 </r>
       <r>    -5.5106    84.9368   182.0443 </r>
       <r>    -5.4180    84.5588   189.8680 </r>
       <r>    -5.3255    81.7339   197.4302 </r>
       <r>    -5.2330    85.9310   205.3808 </r>
       <r>    -5.1405    90.9773   213.7983 </r>
       <r>    -5.0479    93.1898   222.4205 </r>
       <r>    -4.9554    86.8584   230.4569 </r>
       <r>    -4.8629    83.0010   238.1364 </r>
       <r>    -4.7704    87.6306   246.2442 </r>
       <r>    -4.6779    87.3378   254.3250 </r>
       <r>    -4.5853    80.4287   261.7665 </r>
       <r>    -4.4928    80.7427   269.2370 </r>
       <r>    -4.4003    85.4387   277.1421 </r>
       <r>    -4.3078    87.5992   285.2470 </r>
       <r>    -4.2152    89.5126   293.5290 </r>
       <r>    -4.1227    97.5748   302.5569 </r>
       <r>    -4.0302   101.4517   311.9435 </r>
       <r>    -3.9377    98.2355   321.0325 </r>
       <r>    -3.8452    97.3182   330.0367 </r>
       <r>    -3.7526    95.3422   338.8581 </r>
       <r>    -3.6601    94.5612   347.6071 </r>
       <r>    -3.5676    96.7200   356.5559 </r>
       <r>    -3.4751    95.2986   365.3733 </r>
       <r>    -3.3825    94.8354   374.1477 </r>
       <r>    -3.2900    97.0141   383.1237 </r>
       <r>    -3.1975    97.4923   392.1440 </r>
       <r>    -3.1050    94.7908   400.9143 </r>
       <r>    -3.0124    92.7770   409.4983 </r>
       <r>    -2.9199    92.0542   418.0155 </r>
       <r>    -2.8274    95.6895   426.8689 </r>
       <r>    -2.7349   100.1820   436.1381 </r>
       <r>    -2.6424    99.5661   445.3502 </r>
       <r>    -2.5498    94.2742   454.0727 </r>
       <r>    -2.4573    86.4528   462.0716 </r>
       <r>    -2.3648    83.0282   469.7536 </r>
       <r>    -2.2723    84.3860   477.5613 </r>
       <r>    -2.1797    94.3297   486.2889 </r>
       <r>    -2.0872    99.1585   495.4634 </r>
       <r>    -1.9947    97.0938   504.4468 </r>
       <r>    -1.9022    95.6549   513.2970 </r>
       <r>    -1.8096    95.2144   522.1066 </r>
       <r>    -1.7171    90.0702   530.4401 </r>
       <r>    -1.6246    79.5582   537.8011 </r>
       <r>    -1.5321    64.9238   543.8080 </r>
       <r>    -1.4396    52.4610   548.6619 </r>
       <r>    -1.3470    43.9041   552.7240 </r>
       <r>    -1.2545    39.2667   556.3571 </r>
       <r>    -1.1620    37.9525   559.8685 </r>
       <r>    -1.0695    26.9174   562.3590 </r>
       <r>    -0.9769    20.9785   564.3000 </r>
       <r>    -0.8844    23.1844   566.4451 </r>
       <r>    -0.7919    23.8761   568.6542 </r>
       <r>    -0.6994    22.6868   570.7532 </r>
       <r>    -0.6068    23.6648   572.9428 </r>
       <r>    -0.5143    25.1320   575.2681 </r>
       <r>    -0.4218    23.2972   577.4236 </r>
       <r>    -0.3293    20.1407   579.2871 </r>
       <r>    -0.2368    17.2042   580.8788 </r>
       <r>    -0.1442    15.0592   582.2722 </r>
       <r>    -0.0517    13.9193   583.5600 </r>
       <r>     0.0408    11.5285   584.6267 </r>
       <r>     0.1333    11.8331   585.7215 </r>
       <r>     0.2259    14.9193   587.1019 </r>
       <r>     0.3184    15.0283   588.4923 </r>
       <r>     0.4109    16.3320   590.0034 </r>
       <r>     0.5034    18.0267   591.6713 </r>
       <r>     0.5960    18.7190   593.4032 </r>
       <r>     0.6885    18.1793   595.0853 </r>
       <r>     0.7810    16.2145   596.5855 </r>
       <r>     0.8735    12.4135   597.7340 </r>
       <r>     0.9660    11.0450   598.7559 </r>
       <r>     1.0586    15.5430   600.1940 </r>
       <r>     1.1511    15.8309   601.6587 </r>
       <r>     1.2436    13.8198   602.9374 </r>
       <r>     1.3361    12.2657   604.0722 </r>
       <r>     1.4287    10.9853   605.0886 </r>
       <r>     1.5212    12.6617   606.2601 </r>
       <r>     1.6137    12.2115   607.3900 </r>
       <r>     1.7062    13.3864   608.6285 </r>
       <r>     1.7987    19.6602   610.4475 </r>
       <r>     1.8913    20.1704   612.3138 </r>
       <r>     1.9838    15.9073   613.7856 </r>
       <r>     2.0763    14.9080   615.1649 </r>
       <r>     2.1688    15.8862   616.6347 </r>
       <r>     2.2614    17.8341   618.2848 </r>
       <r>     2.3539    16.0235   619.7673 </r>
       <r>     2.4464    13.4846   621.0150 </r>
       <r>     2.5389    13.3919   622.2540 </r>
       <r>     2.6315    16.0787   623.7417 </r>
       <r>     2.7240    15.4480   625.1710 </r>
       <r>     2.8165    13.0059   626.3743 </r>
       <r>     2.9090    13.9851   627.6682 </r>
       <r>     3.0015    13.7160   628.9373 </r>
       <r>     3.0941    13.1753   630.1563 </r>
       <r>     3.1866    15.0372   631.5476 </r>
       <r>     3.2791    15.1317   632.9476 </r>
       <r>     3.3716    16.4814   634.4725 </r>
       <r>     3.4642    17.3222   636.0752 </r>
       <r>     3.5567    16.6749   637.6181 </r>
       <r>     3.6492    17.7438   639.2598 </r>
       <r>     3.7417    15.4654   640.6907 </r>
       <r>     3.8343    18.7141   642.4221 </r>
       <r>     3.9268    18.6019   644.1432 </r>
       <r>     4.0193    15.2707   645.5561 </r>
       <r>     4.1118    16.6870   647.1001 </r>
       <r>     4.2043    17.7165   648.7392 </r>
       <r>     4.2969    15.3360   650.1582 </r>
       <r>     4.3894    16.8723   651.7193 </r>
       <r>     4.4819    20.1987   653.5881 </r>
       <r>     4.5744    22.7142   655.6897 </r>
       <r>     4.6670    24.0134   657.9115 </r>
       <r>     4.7595    24.8012   660.2061 </r>
       <r>     4.8520    27.7983   662.7781 </r>
       <r>     4.9445    29.8378   665.5388 </r>
       <r>     5.0371    30.5063   668.3613 </r>
       <r>     5.1296    25.2605   670.6985 </r>
       <r>     5.2221    11.7384   671.7846 </r>
       <r>     5.3146     2.1966   671.9878 </r>
       <r>     5.4071     0.1298   671.9998 </r>
       <r>     5.4997     0.0019   672.0000 </r>
       <r>     5.5922     0.0000   672.0000 </r>
       <r>     5.6847     0.0000   672.0000 </r>
       <r>     5.7772     0.0000   672.0000 </r>
       <r>     5.8698     0.0000   672.0000 </r>
       <r>     5.9623     0.0000   672.0000 </r>
       <r>     6.0548     0.0000   672.0000 </r>
       <r>     6.1473     0.0000   672.0000 </r>
       <r>     6.2398     0.0000   672.0000 </r>
       <r>     6.3324     0.0000   672.0000 </r>
       <r>     6.4249     0.0000   672.0000 </r>
      </set>
     </set>
    </array>
   </total>
  </dos>
 </calculation>
 <structure name="finalpos" >
  <crystal>
   <varray name="basis" >
    <v>      11.00258152       0.00000000       0.00000000 </v>
    <v>       5.50129076       9.52851510       0.00000000 </v>
    <v>       0.00000000       0.00000000      26.19178509 </v>
   </varray>
   <i name="volume">   2745.90128299 </i>
   <varray name="rec_basis" >
    <v>       0.09088776      -0.05247407       0.00000000 </v>
    <v>       0.00000000       0.10494815       0.00000000 </v>
    <v>       0.00000000       0.00000000       0.03817991 </v>
   </varray>
  </crystal>
  <varray name="positions" >
   <v>       0.33333333       0.33333333       0.38179910 </v>
   <v>       0.25840029       0.47885948       0.56915575 </v>
   <v>       0.42506414       0.15825810       0.47593272 </v>
   <v>       0.92299886       0.16190056       0.47273454 </v>
   <v>       0.00069000      -0.01016614       0.56517793 </v>
   <v>       0.67071906       0.90777273       0.47396585 </v>
   <v>       0.53273614       0.25647910       0.63084028 </v>
   <v>       0.41996183       0.41120289       0.47556307 </v>
   <v>       0.01704859       0.22584111       0.56484927 </v>
   <v>       0.71023803       0.51119379       0.60090865 </v>
   <v>       0.66987666       0.66026230       0.47671108 </v>
   <v>       0.58333333       0.08333333       0.38179910 </v>
   <v>       0.41627357       0.91358867       0.47942787 </v>
   <v>       0.91977115       0.91044837       0.47092857 </v>
   <v>       0.00408222       0.74067039       0.56485711 </v>
   <v>       0.66883109       0.41476632       0.47464540 </v>
   <v>       0.83333333       0.33333333       0.38179910 </v>
   <v>       0.73723432       0.00493442       0.56257560 </v>
   <v>       0.75293038       0.75026902       0.56787672 </v>
   <v>       0.25011349       0.74262547       0.56034195 </v>
   <v>       0.33333333       0.83333333       0.38179910 </v>
   <v>       0.16526005       0.41244623       0.47796054 </v>
   <v>       0.29929260       0.20431679       0.56563723 </v>
   <v>       0.33333333       0.58333333       0.38179910 </v>
   <v>       0.81743638       0.30496708       0.62049825 </v>
   <v>       0.85401741       0.57154294       0.62201229 </v>
   <v>       0.11049823       0.31680943       0.61088211 </v>
   <v>       0.30273257       0.05297238       0.66420577 </v>
   <v>       0.41319557       0.46232845       0.62684162 </v>
   <v>       0.34289355       0.78504619       0.62402861 </v>
   <v>       0.57593960       0.84027078       0.62125788 </v>
   <v>       0.64871005       0.04853717       0.63802601 </v>
   <v>       0.08333333       0.83333333       0.38179910 </v>
   <v>       0.08333333       0.58333333       0.38179910 </v>
   <v>       0.58333333       0.58333333       0.38179910 </v>
   <v>       0.91999806       0.41297850       0.47323918 </v>
   <v>       0.17240848       0.16085947       0.47345988 </v>
   <v>       0.22200136      -0.01223749       0.61541465 </v>
   <v>       0.16965331       0.66174924       0.47317245 </v>
   <v>       0.08333333       0.33333333       0.38179910 </v>
   <v>       0.17073796       0.91311871       0.47163024 </v>
   <v>       0.47400958       0.03918415       0.64377038 </v>
   <v>       0.58333333       0.33333333       0.38179910 </v>
   <v>       0.33333333       0.08333333       0.38179910 </v>
   <v>       0.08333333       0.08333333       0.38179910 </v>
   <v>       0.42089161       0.66408064       0.47404870 </v>
   <v>       0.83333333       0.08333333       0.38179910 </v>
   <v>       0.83333333       0.83333333       0.38179910 </v>
   <v>       0.58333333       0.83333333       0.38179910 </v>
   <v>       0.83333333       0.58333333       0.38179910 </v>
   <v>       0.74756110       0.24415678       0.56209310 </v>
   <v>       0.67029758       0.16367461       0.47374076 </v>
   <v>       0.49469014       0.75858654       0.57274122 </v>
   <v>       0.50230535       0.49341537       0.56349299 </v>
   <v>       0.92020729       0.65883395       0.47402999 </v>
   <v>       0.00509168       0.49118480       0.56958218 </v>
  </varray>
  <varray name="selective"  type="logical" >
   <v type="logical" >  F  F  F </v>
   <v type="logical" >  T  T  T </v>
   <v type="logical" >  T  T  T </v>
   <v type="logical" >  T  T  T </v>
   <v type="logical" >  T  T  T </v>
   <v type="logical" >  T  T  T </v>
   <v type="logical" >  T  T  T </v>
   <v type="logical" >  T  T  T </v>
   <v type="logical" >  T  T  T </v>
   <v type="logical" >  T  T  T </v>
   <v type="logical" >  T  T  T </v>
   <v type="logical" >  F  F  F </v>
   <v type="logical" >  T  T  T </v>
   <v type="logical" >  T  T  T </v>
   <v type="logical" >  T  T  T </v>
   <v type="logical" >  T  T  T </v>
   <v type="logical" >  F  F  F </v>
   <v type="logical" >  T  T  T </v>
   <v type="logical" >  T  T  T </v>
   <v type="logical" >  T  T  T </v>
   <v type="logical" >  F  F  F </v>
   <v type="logical" >  T  T  T </v>
   <v type="logical" >  T  T  T </v>
   <v type="logical" >  F  F  F </v>
   <v type="logical" >  T  T  T </v>
   <v type="logical" >  T  T  T </v>
   <v type="logical" >  T  T  T </v>
   <v type="logical" >  T  T  T </v>
   <v type="logical" >  T  T  T </v>
   <v type="logical" >  T  T  T </v>
   <v type="logical" >  T  T  T </v>
   <v type="logical" >  T  T  T </v>
   <v type="logical" >  F  F  F </v>
   <v type="logical" >  F  F  F </v>
   <v type="logical" >  F  F  F </v>
   <v type="logical" >  T  T  T </v>
   <v type="logical" >  T  T  T </v>
   <v type="logical" >  T  T  T </v>
   <v type="logical" >  T  T  T </v>
   <v type="logical" >  F  F  F </v>
   <v type="logical" >  T  T  T </v>
   <v type="logical" >  T  T  T </v>
   <v type="logical" >  F  F  F </v>
   <v type="logical" >  F  F  F </v>
   <v type="logical" >  F  F  F </v>
   <v type="logical" >  T  T  T </v>
   <v type="logical" >  F  F  F </v>
   <v type="logical" >  F  F  F </v>
   <v type="logical" >  F  F  F </v>
   <v type="logical" >  F  F  F </v>
   <v type="logical" >  T  T  T </v>
   <v type="logical" >  T  T  T </v>
   <v type="logical" >  T  T  T </v>
   <v type="logical" >  T  T  T </v>
   <v type="logical" >  T  T  T </v>
   <v type="logical" >  T  T  T </v>
  </varray>
  <nose>
   <v>      -3.00000000       0.00000000       0.00010000       0.00010000 </v>
  </nose>
 </structure>
</modeling>
