  56  56   0   0
  0.4903395E+02  0.1100258E-08  0.1100258E-08  0.2619179E-08  0.3500000E-15
  1.000000000000000E-004
  CAR 
 unknown system                          
      6.42041198    -21.34582457  301     -1.39815300      1.00000000
    -21.346  0.0000E+00  0.0000E+00
    -21.253  0.0000E+00  0.0000E+00
    -21.161  0.0000E+00  0.0000E+00
    -21.068  0.0000E+00  0.0000E+00
    -20.976  0.0000E+00  0.0000E+00
    -20.883  0.0000E+00  0.0000E+00
    -20.790  0.0000E+00  0.0000E+00
    -20.698  0.0000E+00  0.0000E+00
    -20.605  0.3331E-14  0.3083E-15
    -20.513  0.2685E-10  0.2486E-11
    -20.420  0.4064E-07  0.3763E-08
    -20.328  0.1177E-04  0.1093E-05
    -20.235  0.6738E-03  0.6345E-04
    -20.143  0.8018E-02  0.8056E-03
    -20.050  0.2196E-01  0.2838E-02
    -19.958  0.2296E-01  0.4963E-02
    -19.865  0.2430E-01  0.7211E-02
    -19.772  0.2314E-01  0.9353E-02
    -19.680  0.3721E-01  0.1280E-01
    -19.587  0.5045E-01  0.1747E-01
    -19.495  0.4060E-01  0.2122E-01
    -19.402  0.4189E-01  0.2510E-01
    -19.310  0.4153E-01  0.2895E-01
    -19.217  0.2596E-01  0.3135E-01
    -19.125  0.6605E-02  0.3196E-01
    -19.032  0.4331E-03  0.3200E-01
    -18.939  0.6052E-05  0.3200E-01
    -18.847  0.1673E-07  0.3200E-01
    -18.754  0.8838E-11  0.3200E-01
    -18.662  0.8741E-15  0.3200E-01
    -18.569  0.0000E+00  0.3200E-01
    -18.477  0.0000E+00  0.3200E-01
    -18.384  0.0000E+00  0.3200E-01
    -18.292  0.0000E+00  0.3200E-01
    -18.199  0.0000E+00  0.3200E-01
    -18.106  0.0000E+00  0.3200E-01
    -18.014  0.0000E+00  0.3200E-01
    -17.921  0.0000E+00  0.3200E-01
    -17.829  0.0000E+00  0.3200E-01
    -17.736  0.0000E+00  0.3200E-01
    -17.644  0.0000E+00  0.3200E-01
    -17.551  0.0000E+00  0.3200E-01
    -17.459  0.0000E+00  0.3200E-01
    -17.366  0.0000E+00  0.3200E-01
    -17.273  0.0000E+00  0.3200E-01
    -17.181  0.0000E+00  0.3200E-01
    -17.088  0.0000E+00  0.3200E-01
    -16.996  0.0000E+00  0.3200E-01
    -16.903  0.0000E+00  0.3200E-01
    -16.811  0.0000E+00  0.3200E-01
    -16.718  0.0000E+00  0.3200E-01
    -16.626  0.0000E+00  0.3200E-01
    -16.533  0.0000E+00  0.3200E-01
    -16.440  0.0000E+00  0.3200E-01
    -16.348  0.0000E+00  0.3200E-01
    -16.255  0.0000E+00  0.3200E-01
    -16.163  0.0000E+00  0.3200E-01
    -16.070  0.0000E+00  0.3200E-01
    -15.978  0.0000E+00  0.3200E-01
    -15.885  0.0000E+00  0.3200E-01
    -15.793  0.0000E+00  0.3200E-01
    -15.700  0.0000E+00  0.3200E-01
    -15.607  0.0000E+00  0.3200E-01
    -15.515  0.0000E+00  0.3200E-01
    -15.422  0.0000E+00  0.3200E-01
    -15.330  0.0000E+00  0.3200E-01
    -15.237  0.0000E+00  0.3200E-01
    -15.145  0.0000E+00  0.3200E-01
    -15.052  0.0000E+00  0.3200E-01
    -14.960  0.0000E+00  0.3200E-01
    -14.867  0.0000E+00  0.3200E-01
    -14.774  0.0000E+00  0.3200E-01
    -14.682  0.0000E+00  0.3200E-01
    -14.589  0.0000E+00  0.3200E-01
    -14.497  0.0000E+00  0.3200E-01
    -14.404  0.0000E+00  0.3200E-01
    -14.312  0.0000E+00  0.3200E-01
    -14.219  0.0000E+00  0.3200E-01
    -14.127  0.0000E+00  0.3200E-01
    -14.034  0.0000E+00  0.3200E-01
    -13.941  0.0000E+00  0.3200E-01
    -13.849  0.0000E+00  0.3200E-01
    -13.756  0.0000E+00  0.3200E-01
    -13.664  0.0000E+00  0.3200E-01
    -13.571  0.0000E+00  0.3200E-01
    -13.479  0.0000E+00  0.3200E-01
    -13.386  0.0000E+00  0.3200E-01
    -13.294  0.0000E+00  0.3200E-01
    -13.201  0.0000E+00  0.3200E-01
    -13.109  0.0000E+00  0.3200E-01
    -13.016  0.0000E+00  0.3200E-01
    -12.923  0.0000E+00  0.3200E-01
    -12.831  0.0000E+00  0.3200E-01
    -12.738  0.0000E+00  0.3200E-01
    -12.646  0.0000E+00  0.3200E-01
    -12.553  0.0000E+00  0.3200E-01
    -12.461  0.0000E+00  0.3200E-01
    -12.368  0.0000E+00  0.3200E-01
    -12.276  0.0000E+00  0.3200E-01
    -12.183  0.0000E+00  0.3200E-01
    -12.090  0.0000E+00  0.3200E-01
    -11.998  0.0000E+00  0.3200E-01
    -11.905  0.0000E+00  0.3200E-01
    -11.813  0.0000E+00  0.3200E-01
    -11.720  0.0000E+00  0.3200E-01
    -11.628  0.0000E+00  0.3200E-01
    -11.535  0.0000E+00  0.3200E-01
    -11.443  0.0000E+00  0.3200E-01
    -11.350  0.0000E+00  0.3200E-01
    -11.257  0.0000E+00  0.3200E-01
    -11.165  0.0000E+00  0.3200E-01
    -11.072  0.0000E+00  0.3200E-01
    -10.980  0.0000E+00  0.3200E-01
    -10.887  0.0000E+00  0.3200E-01
    -10.795  0.0000E+00  0.3200E-01
    -10.702  0.0000E+00  0.3200E-01
    -10.610  0.0000E+00  0.3200E-01
    -10.517  0.0000E+00  0.3200E-01
    -10.424  0.0000E+00  0.3200E-01
    -10.332  0.0000E+00  0.3200E-01
    -10.239  0.0000E+00  0.3200E-01
    -10.147  0.0000E+00  0.3200E-01
    -10.054  0.0000E+00  0.3200E-01
     -9.962  0.0000E+00  0.3200E-01
     -9.869  0.0000E+00  0.3200E-01
     -9.777  0.0000E+00  0.3200E-01
     -9.684  0.0000E+00  0.3200E-01
     -9.591  0.0000E+00  0.3200E-01
     -9.499  0.1521E-14  0.3200E-01
     -9.406  0.1102E-10  0.3200E-01
     -9.314  0.1547E-07  0.3200E-01
     -9.221  0.4348E-05  0.3200E-01
     -9.129  0.2555E-03  0.3202E-01
     -9.036  0.3331E-02  0.3233E-01
     -8.944  0.1077E-01  0.3333E-01
     -8.851  0.1262E-01  0.3450E-01
     -8.758  0.1032E-01  0.3545E-01
     -8.666  0.5222E-02  0.3594E-01
     -8.573  0.2964E-02  0.3621E-01
     -8.481  0.5361E-02  0.3671E-01
     -8.388  0.1356E-01  0.3796E-01
     -8.296  0.2963E-01  0.4070E-01
     -8.203  0.3181E-01  0.4365E-01
     -8.111  0.3061E-01  0.4648E-01
     -8.018  0.3669E-01  0.4988E-01
     -7.925  0.3760E-01  0.5336E-01
     -7.833  0.4157E-01  0.5720E-01
     -7.740  0.4841E-01  0.6168E-01
     -7.648  0.5736E-01  0.6699E-01
     -7.555  0.6947E-01  0.7342E-01
     -7.463  0.7382E-01  0.8026E-01
     -7.370  0.7438E-01  0.8714E-01
     -7.278  0.7387E-01  0.9398E-01
     -7.185  0.8277E-01  0.1016E+00
     -7.092  0.1091E+00  0.1117E+00
     -7.000  0.1292E+00  0.1237E+00
     -6.907  0.1352E+00  0.1362E+00
     -6.815  0.1392E+00  0.1491E+00
     -6.722  0.1466E+00  0.1627E+00
     -6.630  0.1502E+00  0.1766E+00
     -6.537  0.1524E+00  0.1907E+00
     -6.445  0.1579E+00  0.2053E+00
     -6.352  0.1608E+00  0.2202E+00
     -6.260  0.1643E+00  0.2354E+00
     -6.167  0.1679E+00  0.2509E+00
     -6.074  0.1693E+00  0.2666E+00
     -5.982  0.1655E+00  0.2819E+00
     -5.889  0.1640E+00  0.2971E+00
     -5.797  0.1662E+00  0.3125E+00
     -5.704  0.1700E+00  0.3282E+00
     -5.612  0.1681E+00  0.3438E+00
     -5.519  0.1600E+00  0.3586E+00
     -5.427  0.1608E+00  0.3734E+00
     -5.334  0.1682E+00  0.3890E+00
     -5.241  0.1762E+00  0.4053E+00
     -5.149  0.1781E+00  0.4218E+00
     -5.056  0.1805E+00  0.4385E+00
     -4.964  0.1812E+00  0.4553E+00
     -4.871  0.1779E+00  0.4717E+00
     -4.779  0.1823E+00  0.4886E+00
     -4.686  0.1882E+00  0.5060E+00
     -4.594  0.1920E+00  0.5238E+00
     -4.501  0.1975E+00  0.5421E+00
     -4.408  0.1980E+00  0.5604E+00
     -4.316  0.1888E+00  0.5779E+00
     -4.223  0.1848E+00  0.5950E+00
     -4.131  0.1869E+00  0.6123E+00
     -4.038  0.1888E+00  0.6298E+00
     -3.946  0.1853E+00  0.6469E+00
     -3.853  0.1901E+00  0.6645E+00
     -3.761  0.1869E+00  0.6818E+00
     -3.668  0.1859E+00  0.6990E+00
     -3.575  0.1930E+00  0.7169E+00
     -3.483  0.1947E+00  0.7349E+00
     -3.390  0.1943E+00  0.7529E+00
     -3.298  0.1975E+00  0.7712E+00
     -3.205  0.1972E+00  0.7894E+00
     -3.113  0.1884E+00  0.8069E+00
     -3.020  0.1848E+00  0.8240E+00
     -2.928  0.1837E+00  0.8410E+00
     -2.835  0.1861E+00  0.8582E+00
     -2.742  0.1867E+00  0.8755E+00
     -2.650  0.1841E+00  0.8925E+00
     -2.557  0.1843E+00  0.9096E+00
     -2.465  0.1893E+00  0.9271E+00
     -2.372  0.1884E+00  0.9445E+00
     -2.280  0.1868E+00  0.9618E+00
     -2.187  0.1892E+00  0.9793E+00
     -2.095  0.1977E+00  0.9976E+00
     -2.002  0.1993E+00  0.1016E+01
     -1.909  0.1856E+00  0.1033E+01
     -1.817  0.1767E+00  0.1050E+01
     -1.724  0.1638E+00  0.1065E+01
     -1.632  0.1471E+00  0.1078E+01
     -1.539  0.1249E+00  0.1090E+01
     -1.447  0.1040E+00  0.1100E+01
     -1.354  0.8753E-01  0.1108E+01
     -1.262  0.6440E-01  0.1114E+01
     -1.169  0.4937E-01  0.1118E+01
     -1.076  0.5017E-01  0.1123E+01
     -0.984  0.5779E-01  0.1128E+01
     -0.891  0.6196E-01  0.1134E+01
     -0.799  0.4961E-01  0.1138E+01
     -0.706  0.4247E-01  0.1142E+01
     -0.614  0.4217E-01  0.1146E+01
     -0.521  0.4409E-01  0.1150E+01
     -0.429  0.4934E-01  0.1155E+01
     -0.336  0.5004E-01  0.1160E+01
     -0.243  0.4591E-01  0.1164E+01
     -0.151  0.3162E-01  0.1167E+01
     -0.058  0.1684E-01  0.1168E+01
      0.034  0.1780E-01  0.1170E+01
      0.127  0.2594E-01  0.1172E+01
      0.219  0.2279E-01  0.1174E+01
      0.312  0.1758E-01  0.1176E+01
      0.404  0.2701E-01  0.1179E+01
      0.497  0.4205E-01  0.1183E+01
      0.590  0.4544E-01  0.1187E+01
      0.682  0.4290E-01  0.1191E+01
      0.775  0.3513E-01  0.1194E+01
      0.867  0.2515E-01  0.1196E+01
      0.960  0.2493E-01  0.1199E+01
      1.052  0.2683E-01  0.1201E+01
      1.145  0.2895E-01  0.1204E+01
      1.237  0.2827E-01  0.1206E+01
      1.330  0.2495E-01  0.1209E+01
      1.422  0.2259E-01  0.1211E+01
      1.515  0.2904E-01  0.1213E+01
      1.608  0.3264E-01  0.1216E+01
      1.700  0.3341E-01  0.1220E+01
      1.793  0.2658E-01  0.1222E+01
      1.885  0.3003E-01  0.1225E+01
      1.978  0.4067E-01  0.1229E+01
      2.070  0.3938E-01  0.1232E+01
      2.163  0.3534E-01  0.1235E+01
      2.255  0.2979E-01  0.1238E+01
      2.348  0.2489E-01  0.1241E+01
      2.441  0.2588E-01  0.1243E+01
      2.533  0.2661E-01  0.1245E+01
      2.626  0.2815E-01  0.1248E+01
      2.718  0.2032E-01  0.1250E+01
      2.811  0.1392E-01  0.1251E+01
      2.903  0.1955E-01  0.1253E+01
      2.996  0.2900E-01  0.1256E+01
      3.088  0.3498E-01  0.1259E+01
      3.181  0.3748E-01  0.1262E+01
      3.274  0.3781E-01  0.1266E+01
      3.366  0.3593E-01  0.1269E+01
      3.459  0.3776E-01  0.1273E+01
      3.551  0.3404E-01  0.1276E+01
      3.644  0.2970E-01  0.1279E+01
      3.736  0.3287E-01  0.1282E+01
      3.829  0.4071E-01  0.1285E+01
      3.921  0.4418E-01  0.1289E+01
      4.014  0.3438E-01  0.1293E+01
      4.107  0.2792E-01  0.1295E+01
      4.199  0.2622E-01  0.1298E+01
      4.292  0.3398E-01  0.1301E+01
      4.384  0.4381E-01  0.1305E+01
      4.477  0.4104E-01  0.1309E+01
      4.569  0.4340E-01  0.1313E+01
      4.662  0.5710E-01  0.1318E+01
      4.754  0.5691E-01  0.1323E+01
      4.847  0.5142E-01  0.1328E+01
      4.940  0.5428E-01  0.1333E+01
      5.032  0.5363E-01  0.1338E+01
      5.125  0.4148E-01  0.1342E+01
      5.217  0.1945E-01  0.1344E+01
      5.310  0.3741E-02  0.1344E+01
      5.402  0.2144E-03  0.1344E+01
      5.495  0.3000E-05  0.1344E+01
      5.587  0.9086E-08  0.1344E+01
      5.680  0.5547E-11  0.1344E+01
      5.773  0.6541E-15  0.1344E+01
      5.865  0.0000E+00  0.1344E+01
      5.958  0.0000E+00  0.1344E+01
      6.050  0.0000E+00  0.1344E+01
      6.143  0.0000E+00  0.1344E+01
      6.235  0.0000E+00  0.1344E+01
      6.328  0.0000E+00  0.1344E+01
      6.420  0.0000E+00  0.1344E+01
