  48  48   0   0
  0.5349325E+02  0.1100258E-08  0.1100258E-08  0.2449179E-08  0.3500000E-15
  1.000000000000000E-004
  CAR 
 unknown system                          
      6.40497929     -9.88368828  301     -1.09028510      1.00000000
     -9.884  0.0000E+00  0.0000E+00
     -9.829  0.0000E+00  0.0000E+00
     -9.775  0.0000E+00  0.0000E+00
     -9.721  0.0000E+00  0.0000E+00
     -9.667  0.0000E+00  0.0000E+00
     -9.612  0.0000E+00  0.0000E+00
     -9.558  0.0000E+00  0.0000E+00
     -9.504  0.0000E+00  0.0000E+00
     -9.449  0.8861E-17  0.4811E-18
     -9.395  0.3510E-14  0.1911E-15
     -9.341  0.7810E-12  0.4259E-13
     -9.286  0.9823E-10  0.5376E-11
     -9.232  0.7005E-08  0.3857E-09
     -9.178  0.2841E-06  0.1581E-07
     -9.124  0.6578E-05  0.3730E-06
     -9.069  0.8722E-04  0.5108E-05
     -9.015  0.6648E-03  0.4120E-04
     -8.961  0.2928E-02  0.2002E-03
     -8.906  0.7547E-02  0.6099E-03
     -8.852  0.1186E-01  0.1254E-02
     -8.798  0.1301E-01  0.1961E-02
     -8.743  0.1272E-01  0.2651E-02
     -8.689  0.1173E-01  0.3288E-02
     -8.635  0.8192E-02  0.3733E-02
     -8.581  0.3701E-02  0.3934E-02
     -8.526  0.1025E-02  0.3990E-02
     -8.472  0.1712E-03  0.3999E-02
     -8.418  0.2742E-04  0.4001E-02
     -8.363  0.1063E-03  0.4006E-02
     -8.309  0.5992E-03  0.4039E-02
     -8.255  0.2001E-02  0.4148E-02
     -8.201  0.4148E-02  0.4373E-02
     -8.146  0.6050E-02  0.4701E-02
     -8.092  0.7666E-02  0.5117E-02
     -8.038  0.9998E-02  0.5660E-02
     -7.983  0.1324E-01  0.6379E-02
     -7.929  0.1607E-01  0.7252E-02
     -7.875  0.1666E-01  0.8156E-02
     -7.820  0.1483E-01  0.8961E-02
     -7.766  0.1314E-01  0.9675E-02
     -7.712  0.1407E-01  0.1044E-01
     -7.658  0.1667E-01  0.1134E-01
     -7.603  0.1872E-01  0.1236E-01
     -7.549  0.2028E-01  0.1346E-01
     -7.495  0.2189E-01  0.1465E-01
     -7.440  0.2326E-01  0.1591E-01
     -7.386  0.2413E-01  0.1722E-01
     -7.332  0.2499E-01  0.1858E-01
     -7.278  0.2650E-01  0.2002E-01
     -7.223  0.2841E-01  0.2156E-01
     -7.169  0.3236E-01  0.2332E-01
     -7.115  0.3969E-01  0.2547E-01
     -7.060  0.4779E-01  0.2807E-01
     -7.006  0.5667E-01  0.3115E-01
     -6.952  0.6513E-01  0.3468E-01
     -6.897  0.6887E-01  0.3842E-01
     -6.843  0.6953E-01  0.4220E-01
     -6.789  0.7073E-01  0.4604E-01
     -6.735  0.7207E-01  0.4995E-01
     -6.680  0.7525E-01  0.5403E-01
     -6.626  0.8366E-01  0.5858E-01
     -6.572  0.9615E-01  0.6380E-01
     -6.517  0.1076E+00  0.6964E-01
     -6.463  0.1155E+00  0.7591E-01
     -6.409  0.1218E+00  0.8253E-01
     -6.354  0.1276E+00  0.8946E-01
     -6.300  0.1321E+00  0.9663E-01
     -6.246  0.1351E+00  0.1040E+00
     -6.192  0.1369E+00  0.1114E+00
     -6.137  0.1373E+00  0.1189E+00
     -6.083  0.1374E+00  0.1263E+00
     -6.029  0.1405E+00  0.1339E+00
     -5.974  0.1454E+00  0.1418E+00
     -5.920  0.1487E+00  0.1499E+00
     -5.866  0.1510E+00  0.1581E+00
     -5.812  0.1517E+00  0.1663E+00
     -5.757  0.1465E+00  0.1743E+00
     -5.703  0.1381E+00  0.1818E+00
     -5.649  0.1357E+00  0.1892E+00
     -5.594  0.1395E+00  0.1967E+00
     -5.540  0.1430E+00  0.2045E+00
     -5.486  0.1453E+00  0.2124E+00
     -5.431  0.1498E+00  0.2205E+00
     -5.377  0.1569E+00  0.2290E+00
     -5.323  0.1634E+00  0.2379E+00
     -5.269  0.1680E+00  0.2470E+00
     -5.214  0.1725E+00  0.2564E+00
     -5.160  0.1771E+00  0.2660E+00
     -5.106  0.1780E+00  0.2757E+00
     -5.051  0.1729E+00  0.2851E+00
     -4.997  0.1672E+00  0.2942E+00
     -4.943  0.1647E+00  0.3031E+00
     -4.888  0.1615E+00  0.3119E+00
     -4.834  0.1578E+00  0.3204E+00
     -4.780  0.1582E+00  0.3290E+00
     -4.726  0.1627E+00  0.3379E+00
     -4.671  0.1679E+00  0.3470E+00
     -4.617  0.1725E+00  0.3563E+00
     -4.563  0.1766E+00  0.3659E+00
     -4.508  0.1806E+00  0.3757E+00
     -4.454  0.1844E+00  0.3857E+00
     -4.400  0.1865E+00  0.3959E+00
     -4.346  0.1826E+00  0.4058E+00
     -4.291  0.1730E+00  0.4152E+00
     -4.237  0.1673E+00  0.4243E+00
     -4.183  0.1709E+00  0.4335E+00
     -4.128  0.1762E+00  0.4431E+00
     -4.074  0.1770E+00  0.4527E+00
     -4.020  0.1753E+00  0.4622E+00
     -3.965  0.1739E+00  0.4717E+00
     -3.911  0.1755E+00  0.4812E+00
     -3.857  0.1808E+00  0.4910E+00
     -3.803  0.1887E+00  0.5013E+00
     -3.748  0.1982E+00  0.5120E+00
     -3.694  0.2051E+00  0.5232E+00
     -3.640  0.2052E+00  0.5343E+00
     -3.585  0.2015E+00  0.5452E+00
     -3.531  0.1985E+00  0.5560E+00
     -3.477  0.1942E+00  0.5666E+00
     -3.423  0.1874E+00  0.5767E+00
     -3.368  0.1829E+00  0.5867E+00
     -3.314  0.1815E+00  0.5965E+00
     -3.260  0.1793E+00  0.6063E+00
     -3.205  0.1762E+00  0.6158E+00
     -3.151  0.1764E+00  0.6254E+00
     -3.097  0.1806E+00  0.6352E+00
     -3.042  0.1844E+00  0.6452E+00
     -2.988  0.1869E+00  0.6554E+00
     -2.934  0.1881E+00  0.6656E+00
     -2.880  0.1888E+00  0.6758E+00
     -2.825  0.1932E+00  0.6863E+00
     -2.771  0.2006E+00  0.6972E+00
     -2.717  0.2035E+00  0.7083E+00
     -2.662  0.1994E+00  0.7191E+00
     -2.608  0.1912E+00  0.7295E+00
     -2.554  0.1832E+00  0.7394E+00
     -2.499  0.1777E+00  0.7491E+00
     -2.445  0.1745E+00  0.7585E+00
     -2.391  0.1744E+00  0.7680E+00
     -2.337  0.1796E+00  0.7778E+00
     -2.282  0.1891E+00  0.7880E+00
     -2.228  0.1960E+00  0.7987E+00
     -2.174  0.1953E+00  0.8093E+00
     -2.119  0.1890E+00  0.8195E+00
     -2.065  0.1843E+00  0.8295E+00
     -2.011  0.1855E+00  0.8396E+00
     -1.957  0.1898E+00  0.8499E+00
     -1.902  0.1927E+00  0.8604E+00
     -1.848  0.1951E+00  0.8710E+00
     -1.794  0.1976E+00  0.8817E+00
     -1.739  0.1981E+00  0.8925E+00
     -1.685  0.1989E+00  0.9033E+00
     -1.631  0.2044E+00  0.9144E+00
     -1.576  0.2098E+00  0.9257E+00
     -1.522  0.2090E+00  0.9371E+00
     -1.468  0.2046E+00  0.9482E+00
     -1.414  0.2015E+00  0.9591E+00
     -1.359  0.1954E+00  0.9698E+00
     -1.305  0.1811E+00  0.9796E+00
     -1.251  0.1621E+00  0.9884E+00
     -1.196  0.1426E+00  0.9961E+00
     -1.142  0.1219E+00  0.1003E+01
     -1.088  0.1006E+00  0.1008E+01
     -1.034  0.8187E-01  0.1013E+01
     -0.979  0.6358E-01  0.1016E+01
     -0.925  0.4331E-01  0.1018E+01
     -0.871  0.2648E-01  0.1020E+01
     -0.816  0.1817E-01  0.1021E+01
     -0.762  0.1540E-01  0.1022E+01
     -0.708  0.1538E-01  0.1023E+01
     -0.653  0.1939E-01  0.1024E+01
     -0.599  0.2694E-01  0.1025E+01
     -0.545  0.3537E-01  0.1027E+01
     -0.491  0.4190E-01  0.1029E+01
     -0.436  0.4331E-01  0.1032E+01
     -0.382  0.3817E-01  0.1034E+01
     -0.328  0.3161E-01  0.1035E+01
     -0.273  0.3148E-01  0.1037E+01
     -0.219  0.3765E-01  0.1039E+01
     -0.165  0.4020E-01  0.1041E+01
     -0.110  0.3412E-01  0.1043E+01
     -0.056  0.2676E-01  0.1045E+01
     -0.002  0.2358E-01  0.1046E+01
      0.052  0.2341E-01  0.1047E+01
      0.107  0.2732E-01  0.1049E+01
      0.161  0.3417E-01  0.1051E+01
      0.215  0.3721E-01  0.1053E+01
      0.270  0.3561E-01  0.1055E+01
      0.324  0.3396E-01  0.1056E+01
      0.378  0.3436E-01  0.1058E+01
      0.432  0.3745E-01  0.1060E+01
      0.487  0.4212E-01  0.1063E+01
      0.541  0.4694E-01  0.1065E+01
      0.595  0.5006E-01  0.1068E+01
      0.650  0.4849E-01  0.1070E+01
      0.704  0.4327E-01  0.1073E+01
      0.758  0.3848E-01  0.1075E+01
      0.813  0.3364E-01  0.1077E+01
      0.867  0.2706E-01  0.1078E+01
      0.921  0.2106E-01  0.1079E+01
      0.975  0.1814E-01  0.1080E+01
      1.030  0.1870E-01  0.1081E+01
      1.084  0.2100E-01  0.1082E+01
      1.138  0.2219E-01  0.1084E+01
      1.193  0.2026E-01  0.1085E+01
      1.247  0.1669E-01  0.1086E+01
      1.301  0.1383E-01  0.1086E+01
      1.355  0.1180E-01  0.1087E+01
      1.410  0.1220E-01  0.1088E+01
      1.464  0.1802E-01  0.1089E+01
      1.518  0.2825E-01  0.1090E+01
      1.573  0.3602E-01  0.1092E+01
      1.627  0.3575E-01  0.1094E+01
      1.681  0.3137E-01  0.1096E+01
      1.736  0.3144E-01  0.1098E+01
      1.790  0.3653E-01  0.1100E+01
      1.844  0.3729E-01  0.1102E+01
      1.898  0.2831E-01  0.1103E+01
      1.953  0.1783E-01  0.1104E+01
      2.007  0.1606E-01  0.1105E+01
      2.061  0.2225E-01  0.1106E+01
      2.116  0.3028E-01  0.1108E+01
      2.170  0.3588E-01  0.1110E+01
      2.224  0.3695E-01  0.1112E+01
      2.279  0.3727E-01  0.1114E+01
      2.333  0.4254E-01  0.1116E+01
      2.387  0.4859E-01  0.1119E+01
      2.441  0.4625E-01  0.1121E+01
      2.496  0.3806E-01  0.1123E+01
      2.550  0.3461E-01  0.1125E+01
      2.604  0.3916E-01  0.1127E+01
      2.659  0.4708E-01  0.1130E+01
      2.713  0.5181E-01  0.1133E+01
      2.767  0.4659E-01  0.1135E+01
      2.821  0.3195E-01  0.1137E+01
      2.876  0.1801E-01  0.1138E+01
      2.930  0.1252E-01  0.1139E+01
      2.984  0.1207E-01  0.1139E+01
      3.039  0.1052E-01  0.1140E+01
      3.093  0.1066E-01  0.1140E+01
      3.147  0.1759E-01  0.1141E+01
      3.202  0.2641E-01  0.1143E+01
      3.256  0.2711E-01  0.1144E+01
      3.310  0.1983E-01  0.1145E+01
      3.364  0.1339E-01  0.1146E+01
      3.419  0.1220E-01  0.1147E+01
      3.473  0.1586E-01  0.1148E+01
      3.527  0.2274E-01  0.1149E+01
      3.582  0.3045E-01  0.1150E+01
      3.636  0.3722E-01  0.1152E+01
      3.690  0.4141E-01  0.1155E+01
      3.744  0.4191E-01  0.1157E+01
      3.799  0.3814E-01  0.1159E+01
      3.853  0.3096E-01  0.1161E+01
      3.907  0.2443E-01  0.1162E+01
      3.962  0.2238E-01  0.1163E+01
      4.016  0.2453E-01  0.1165E+01
      4.070  0.2636E-01  0.1166E+01
      4.125  0.2532E-01  0.1167E+01
      4.179  0.2385E-01  0.1169E+01
      4.233  0.2293E-01  0.1170E+01
      4.287  0.2044E-01  0.1171E+01
      4.342  0.1752E-01  0.1172E+01
      4.396  0.1921E-01  0.1173E+01
      4.450  0.2527E-01  0.1174E+01
      4.505  0.3152E-01  0.1176E+01
      4.559  0.3988E-01  0.1178E+01
      4.613  0.5193E-01  0.1181E+01
      4.668  0.5862E-01  0.1184E+01
      4.722  0.5273E-01  0.1187E+01
      4.776  0.4374E-01  0.1190E+01
      4.830  0.4323E-01  0.1192E+01
      4.885  0.4770E-01  0.1195E+01
      4.939  0.5211E-01  0.1197E+01
      4.993  0.5928E-01  0.1201E+01
      5.048  0.6717E-01  0.1204E+01
      5.102  0.6910E-01  0.1208E+01
      5.156  0.6648E-01  0.1212E+01
      5.210  0.6553E-01  0.1215E+01
      5.265  0.6188E-01  0.1218E+01
      5.319  0.4791E-01  0.1221E+01
      5.373  0.2912E-01  0.1223E+01
      5.428  0.1500E-01  0.1223E+01
      5.482  0.6729E-02  0.1224E+01
      5.536  0.2287E-02  0.1224E+01
      5.591  0.5057E-03  0.1224E+01
      5.645  0.6721E-04  0.1224E+01
      5.699  0.5202E-05  0.1224E+01
      5.753  0.2313E-06  0.1224E+01
      5.808  0.5864E-08  0.1224E+01
      5.862  0.8440E-10  0.1224E+01
      5.916  0.6869E-12  0.1224E+01
      5.971  0.3150E-14  0.1224E+01
      6.025  0.8179E-17  0.1224E+01
      6.079  0.0000E+00  0.1224E+01
      6.134  0.0000E+00  0.1224E+01
      6.188  0.0000E+00  0.1224E+01
      6.242  0.0000E+00  0.1224E+01
      6.296  0.0000E+00  0.1224E+01
      6.351  0.0000E+00  0.1224E+01
      6.405  0.0000E+00  0.1224E+01
