       N       E                     dE             d eps       ncg     rms          rms(c)
DAV:   1     0.320009063252E+04    0.32001E+04   -0.18978E+05  3672   0.112E+03
DAV:   2     0.156916701384E+02   -0.31844E+04   -0.29300E+04  4380   0.263E+02
DAV:   3    -0.200737515878E+03   -0.21643E+03   -0.20104E+03  4152   0.651E+01
DAV:   4    -0.206539502642E+03   -0.58020E+01   -0.57350E+01  4224   0.108E+01
DAV:   5    -0.206729244558E+03   -0.18974E+00   -0.18919E+00  4428   0.200E+00    0.624E+01
RMM:   6    -0.202619071962E+03    0.41102E+01   -0.96486E+01  3678   0.153E+01    0.558E+01
RMM:   7    -0.212141636885E+03   -0.95226E+01   -0.57311E+01  3681   0.124E+01    0.477E+01
RMM:   8    -0.225598776344E+03   -0.13457E+02   -0.93828E+01  3678   0.146E+01    0.469E+01
RMM:   9    -0.215216155173E+03    0.10383E+02   -0.61980E+01  3679   0.120E+01    0.389E+01
RMM:  10    -0.198825561221E+03    0.16391E+02   -0.18851E+01  3681   0.730E+00    0.229E+01
RMM:  11    -0.193019355851E+03    0.58062E+01   -0.14283E+01  3679   0.599E+00    0.147E+01
RMM:  12    -0.189806677864E+03    0.32127E+01   -0.68234E+00  3680   0.399E+00    0.102E+01
RMM:  13    -0.189143409186E+03    0.66327E+00   -0.18295E+00  3680   0.212E+00    0.691E+00
RMM:  14    -0.189244318804E+03   -0.10091E+00   -0.10243E+00  3678   0.154E+00    0.647E+00
RMM:  15    -0.189180657637E+03    0.63661E-01   -0.29224E-01  3679   0.846E-01    0.598E+00
RMM:  16    -0.188967513293E+03    0.21314E+00   -0.23281E-01  3679   0.763E-01    0.428E+00
RMM:  17    -0.188831448609E+03    0.13606E+00   -0.17934E-01  3678   0.650E-01    0.272E+00
RMM:  18    -0.188756602691E+03    0.74846E-01   -0.90232E-02  3681   0.451E-01    0.168E+00
RMM:  19    -0.188726653018E+03    0.29950E-01   -0.28389E-02  3679   0.248E-01    0.948E-01
RMM:  20    -0.188718433215E+03    0.82198E-02   -0.83820E-03  3681   0.134E-01    0.639E-01
RMM:  21    -0.188716233261E+03    0.22000E-02   -0.27138E-03  3681   0.768E-02    0.518E-01
RMM:  22    -0.188713434568E+03    0.27987E-02   -0.24774E-03  3679   0.726E-02    0.350E-01
RMM:  23    -0.188712270022E+03    0.11645E-02   -0.21952E-03  3679   0.659E-02    0.255E-01
RMM:  24    -0.188711694393E+03    0.57563E-03   -0.91391E-04  3681   0.438E-02    0.116E-01
RMM:  25    -0.188711685951E+03    0.84427E-05   -0.33348E-04  3680   0.259E-02    0.621E-02
RMM:  26    -0.188712102508E+03   -0.41656E-03   -0.13580E-04  3678   0.162E-02    0.471E-02
RMM:  27    -0.188712512304E+03   -0.40980E-03   -0.10159E-04  3678   0.137E-02    0.538E-02
RMM:  28    -0.188713017917E+03   -0.50561E-03   -0.41020E-05  3672   0.913E-03    0.232E-02
RMM:  29    -0.188713424351E+03   -0.40643E-03   -0.24031E-05  3647   0.679E-03    0.217E-02
RMM:  30    -0.188714215048E+03   -0.79070E-03   -0.42092E-05  3671   0.877E-03    0.122E-02
RMM:  31    -0.188714692435E+03   -0.47739E-03   -0.32652E-05  3592   0.752E-03    0.131E-02
RMM:  32    -0.188714957643E+03   -0.26521E-03   -0.18641E-05  3111   0.529E-03    0.472E-03
RMM:  33    -0.188715060439E+03   -0.10280E-03   -0.43030E-06  2609   0.253E-03    0.452E-03
RMM:  34    -0.188715147636E+03   -0.87197E-04   -0.20201E-06  2334   0.197E-03    0.236E-03
RMM:  35    -0.188715205825E+03   -0.58189E-04   -0.10131E-06  2173   0.138E-03    0.217E-03
RMM:  36    -0.188715236742E+03   -0.30917E-04   -0.57816E-07  2140   0.105E-03    0.139E-03
RMM:  37    -0.188715265474E+03   -0.28732E-04   -0.60713E-07  2159   0.113E-03    0.102E-03
RMM:  38    -0.188715271160E+03   -0.56853E-05   -0.18420E-07  1260   0.550E-04    0.694E-04
RMM:  39    -0.188715274533E+03   -0.33730E-05   -0.11837E-07  1522   0.532E-04    0.371E-04
RMM:  40    -0.188715275432E+03   -0.89937E-06   -0.27181E-08   798   0.355E-04
   1 F= -.18871528E+03 E0= -.18859626E+03  d E =-.188715E+03
       N       E                     dE             d eps       ncg     rms          rms(c)
DAV:   1    -0.189330165819E+03   -0.61489E+00   -0.21863E+02  3672   0.226E+01    0.261E+00
RMM:   2    -0.189564647734E+03   -0.23448E+00   -0.23138E+00  3683   0.327E+00    0.198E+00
RMM:   3    -0.189720035961E+03   -0.15539E+00   -0.24950E-01  3704   0.837E-01    0.344E+00
RMM:   4    -0.189570537953E+03    0.14950E+00   -0.12330E-01  3684   0.543E-01    0.197E+00
RMM:   5    -0.189544053500E+03    0.26484E-01   -0.57092E-02  3680   0.383E-01    0.970E-01
RMM:   6    -0.189540329150E+03    0.37244E-02   -0.17898E-02  3684   0.223E-01    0.561E-01
RMM:   7    -0.189537508486E+03    0.28207E-02   -0.70475E-03  3680   0.135E-01    0.348E-01
RMM:   8    -0.189536245432E+03    0.12631E-02   -0.21225E-03  3681   0.723E-02    0.196E-01
RMM:   9    -0.189535903663E+03    0.34177E-03   -0.95118E-04  3683   0.489E-02    0.120E-01
RMM:  10    -0.189535802775E+03    0.10089E-03   -0.39295E-04  3684   0.305E-02    0.856E-02
RMM:  11    -0.189535736152E+03    0.66622E-04   -0.10749E-04  3686   0.166E-02    0.332E-02
RMM:  12    -0.189535736115E+03    0.36933E-07   -0.25102E-05  3678   0.805E-03    0.252E-02
RMM:  13    -0.189535730937E+03    0.51786E-05   -0.11868E-05  3519   0.561E-03    0.131E-02
RMM:  14    -0.189535731144E+03   -0.20718E-06   -0.42314E-06  2807   0.334E-03
   2 F= -.18953573E+03 E0= -.18941611E+03  d E =-.820456E+00
       N       E                     dE             d eps       ncg     rms          rms(c)
DAV:   1    -0.188778561358E+03    0.75717E+00   -0.16230E+03  3672   0.625E+01    0.579E+00
RMM:   2    -0.190446880965E+03   -0.16683E+01   -0.16915E+01  3680   0.887E+00    0.405E+00
RMM:   3    -0.190943286290E+03   -0.49641E+00   -0.13341E+00  3705   0.197E+00    0.620E+00
RMM:   4    -0.190418495969E+03    0.52479E+00   -0.48662E-01  3686   0.111E+00    0.380E+00
RMM:   5    -0.190358326317E+03    0.60170E-01   -0.21917E-01  3683   0.736E-01    0.274E+00
RMM:   6    -0.190340136654E+03    0.18190E-01   -0.16744E-01  3683   0.649E-01    0.213E+00
RMM:   7    -0.190303412325E+03    0.36724E-01   -0.78332E-02  3680   0.447E-01    0.122E+00
RMM:   8    -0.190288877031E+03    0.14535E-01   -0.22245E-02  3682   0.238E-01    0.615E-01
RMM:   9    -0.190284822623E+03    0.40544E-02   -0.87185E-03  3681   0.147E-01    0.322E-01
RMM:  10    -0.190283968276E+03    0.85435E-03   -0.32490E-03  3681   0.858E-02    0.229E-01
RMM:  11    -0.190283620695E+03    0.34758E-03   -0.83440E-04  3686   0.456E-02    0.147E-01
RMM:  12    -0.190283486482E+03    0.13421E-03   -0.32169E-04  3683   0.289E-02    0.841E-02
RMM:  13    -0.190283475912E+03    0.10569E-04   -0.16310E-04  3678   0.204E-02    0.652E-02
RMM:  14    -0.190283451540E+03    0.24373E-04   -0.62819E-05  3680   0.128E-02    0.351E-02
RMM:  15    -0.190283443201E+03    0.83388E-05   -0.19576E-05  3672   0.720E-03    0.150E-02
RMM:  16    -0.190283447502E+03   -0.43012E-05   -0.62077E-06  2987   0.401E-03    0.118E-02
RMM:  17    -0.190283450226E+03   -0.27242E-05   -0.23960E-06  2311   0.268E-03    0.575E-03
RMM:  18    -0.190283454472E+03   -0.42456E-05   -0.94784E-07  2068   0.169E-03    0.506E-03
RMM:  19    -0.190283457591E+03   -0.31193E-05   -0.37519E-07  2018   0.108E-03    0.185E-03
RMM:  20    -0.190283460518E+03   -0.29269E-05   -0.88714E-08  1178   0.504E-04    0.147E-03
RMM:  21    -0.190283463345E+03   -0.28268E-05   -0.52814E-08  1028   0.459E-04    0.111E-03
RMM:  22    -0.190283469585E+03   -0.62406E-05   -0.21697E-07  1912   0.644E-04    0.193E-03
RMM:  23    -0.190283473509E+03   -0.39238E-05   -0.13536E-07  1223   0.444E-04    0.151E-03
RMM:  24    -0.190283476852E+03   -0.33432E-05   -0.14937E-07  1299   0.474E-04    0.978E-04
RMM:  25    -0.190283478999E+03   -0.21470E-05   -0.10052E-07  1122   0.459E-04    0.618E-04
RMM:  26    -0.190283479959E+03   -0.96005E-06   -0.77022E-08  1027   0.406E-04
   3 F= -.19028348E+03 E0= -.19016031E+03  d E =-.156820E+01
       N       E                     dE             d eps       ncg     rms          rms(c)
DAV:   1    -0.190627516551E+03   -0.34404E+00   -0.44091E+02  3672   0.323E+01    0.237E+00
RMM:   2    -0.191093594424E+03   -0.46608E+00   -0.44335E+00  3681   0.460E+00    0.228E+00
RMM:   3    -0.191203578688E+03   -0.10998E+00   -0.33016E-01  3716   0.989E-01    0.359E+00
RMM:   4    -0.191059253165E+03    0.14433E+00   -0.69182E-02  3680   0.446E-01    0.188E+00
RMM:   5    -0.191038149238E+03    0.21104E-01   -0.36796E-02  3683   0.314E-01    0.125E+00
RMM:   6    -0.191037026194E+03    0.11230E-02   -0.57835E-02  3683   0.378E-01    0.107E+00
RMM:   7    -0.191028774803E+03    0.82514E-02   -0.21251E-02  3680   0.233E-01    0.731E-01
RMM:   8    -0.191023758876E+03    0.50159E-02   -0.50277E-03  3683   0.114E-01    0.354E-01
RMM:   9    -0.191022480308E+03    0.12786E-02   -0.19222E-03  3681   0.708E-02    0.158E-01
RMM:  10    -0.191022346005E+03    0.13430E-03   -0.57461E-04  3682   0.378E-02    0.131E-01
RMM:  11    -0.191022210840E+03    0.13516E-03   -0.23008E-04  3682   0.240E-02    0.848E-02
RMM:  12    -0.191022161156E+03    0.49684E-04   -0.15843E-04  3684   0.196E-02    0.589E-02
RMM:  13    -0.191022138100E+03    0.23056E-04   -0.70580E-05  3684   0.132E-02    0.306E-02
RMM:  14    -0.191022135821E+03    0.22790E-05   -0.19695E-05  3673   0.706E-03    0.168E-02
RMM:  15    -0.191022134383E+03    0.14380E-05   -0.40043E-06  2719   0.336E-03    0.791E-03
RMM:  16    -0.191022134365E+03    0.18183E-07   -0.12576E-06  2029   0.199E-03
   4 F= -.19102213E+03 E0= -.19090074E+03  d E =-.738654E+00
       N       E                     dE             d eps       ncg     rms          rms(c)
DAV:   1    -0.189795562723E+03    0.12266E+01   -0.23661E+03  3672   0.763E+01    0.476E+00
RMM:   2    -0.192101925601E+03   -0.23064E+01   -0.22831E+01  3681   0.105E+01    0.428E+00
RMM:   3    -0.192451306789E+03   -0.34938E+00   -0.14393E+00  3709   0.207E+00    0.619E+00
RMM:   4    -0.191980691910E+03    0.47061E+00   -0.24790E-01  3682   0.848E-01    0.373E+00
RMM:   5    -0.191925500507E+03    0.55191E-01   -0.12860E-01  3684   0.575E-01    0.296E+00
RMM:   6    -0.191893112726E+03    0.32388E-01   -0.26761E-01  3681   0.810E-01    0.245E+00
RMM:   7    -0.191869089065E+03    0.24024E-01   -0.14367E-01  3680   0.605E-01    0.204E+00
RMM:   8    -0.191831139002E+03    0.37950E-01   -0.40376E-02  3685   0.324E-01    0.888E-01
RMM:   9    -0.191823558976E+03    0.75800E-02   -0.11721E-02  3682   0.173E-01    0.466E-01
RMM:  10    -0.191822029302E+03    0.15297E-02   -0.41134E-03  3682   0.103E-01    0.352E-01
RMM:  11    -0.191821210497E+03    0.81881E-03   -0.21541E-03  3683   0.726E-02    0.268E-01
RMM:  12    -0.191820533682E+03    0.67681E-03   -0.13327E-03  3682   0.570E-02    0.138E-01
RMM:  13    -0.191820507953E+03    0.25730E-04   -0.73864E-04  3684   0.426E-02    0.110E-01
RMM:  14    -0.191820404518E+03    0.10343E-03   -0.20305E-04  3681   0.230E-02    0.372E-02
RMM:  15    -0.191820396135E+03    0.83826E-05   -0.30244E-05  3675   0.895E-03    0.227E-02
RMM:  16    -0.191820392573E+03    0.35622E-05   -0.12406E-05  3672   0.571E-03    0.130E-02
RMM:  17    -0.191820393871E+03   -0.12982E-05   -0.43088E-06  2831   0.337E-03    0.861E-03
RMM:  18    -0.191820397762E+03   -0.38913E-05   -0.25275E-06  2138   0.278E-03    0.377E-03
RMM:  19    -0.191820399668E+03   -0.19057E-05   -0.69624E-07  2004   0.161E-03    0.234E-03
RMM:  20    -0.191820402441E+03   -0.27735E-05   -0.18320E-07  2036   0.761E-04    0.186E-03
RMM:  21    -0.191820404578E+03   -0.21368E-05   -0.60110E-08  1012   0.464E-04    0.107E-03
RMM:  22    -0.191820406057E+03   -0.14783E-05   -0.33754E-08   870   0.448E-04    0.390E-04
RMM:  23    -0.191820409164E+03   -0.31071E-05   -0.16481E-07  1808   0.581E-04    0.835E-04
RMM:  24    -0.191820410484E+03   -0.13201E-05   -0.40385E-08   767   0.359E-04    0.768E-04
RMM:  25    -0.191820411465E+03   -0.98091E-06   -0.74936E-08   935   0.401E-04
   5 F= -.19182041E+03 E0= -.19170230E+03  d E =-.153693E+01
       N       E                     dE             d eps       ncg     rms          rms(c)
DAV:   1    -0.191748687317E+03    0.71723E-01   -0.11205E+02  3696   0.163E+01    0.954E-01
RMM:   2    -0.191871217433E+03   -0.12253E+00   -0.11576E+00  3681   0.235E+00    0.115E+00
RMM:   3    -0.191881145894E+03   -0.99285E-02   -0.77757E-02  3724   0.490E-01    0.143E+00
RMM:   4    -0.191859952859E+03    0.21193E-01   -0.11781E-02  3680   0.188E-01    0.803E-01
RMM:   5    -0.191856273204E+03    0.36797E-02   -0.52142E-03  3684   0.119E-01    0.564E-01
RMM:   6    -0.191854666068E+03    0.16071E-02   -0.14970E-02  3682   0.192E-01    0.478E-01
RMM:   7    -0.191853249255E+03    0.14168E-02   -0.67685E-03  3680   0.130E-01    0.317E-01
RMM:   8    -0.191852414639E+03    0.83462E-03   -0.12085E-03  3685   0.557E-02    0.183E-01
RMM:   9    -0.191852074369E+03    0.34027E-03   -0.43344E-04  3681   0.339E-02    0.867E-02
RMM:  10    -0.191852006698E+03    0.67671E-04   -0.18390E-04  3682   0.211E-02    0.579E-02
RMM:  11    -0.191851976458E+03    0.30240E-04   -0.69343E-05  3682   0.130E-02    0.346E-02
RMM:  12    -0.191851969423E+03    0.70347E-05   -0.60426E-05  3684   0.119E-02    0.257E-02
RMM:  13    -0.191851964716E+03    0.47071E-05   -0.20644E-05  3678   0.711E-03    0.123E-02
RMM:  14    -0.191851964319E+03    0.39703E-06   -0.32014E-06  2480   0.305E-03
   6 F= -.19185196E+03 E0= -.19173451E+03  d E =-.156848E+01
       N       E                     dE             d eps       ncg     rms          rms(c)
DAV:   1    -0.191649383696E+03    0.20258E+00   -0.56598E+02  3672   0.370E+01    0.255E+00
RMM:   2    -0.192287135771E+03   -0.63775E+00   -0.61565E+00  3683   0.532E+00    0.270E+00
RMM:   3    -0.192417808474E+03   -0.13067E+00   -0.43846E-01  3707   0.111E+00    0.400E+00
RMM:   4    -0.192225435725E+03    0.19237E+00   -0.83471E-02  3684   0.491E-01    0.151E+00
RMM:   5    -0.192215056300E+03    0.10379E-01   -0.38068E-02  3681   0.316E-01    0.126E+00
RMM:   6    -0.192206031575E+03    0.90247E-02   -0.63186E-02  3683   0.395E-01    0.912E-01
RMM:   7    -0.192204403319E+03    0.16283E-02   -0.26351E-02  3681   0.255E-01    0.741E-01
RMM:   8    -0.192199254878E+03    0.51484E-02   -0.55195E-03  3683   0.120E-01    0.379E-01
RMM:   9    -0.192197860267E+03    0.13946E-02   -0.21664E-03  3683   0.740E-02    0.182E-01
RMM:  10    -0.192197461948E+03    0.39832E-03   -0.82802E-04  3681   0.453E-02    0.112E-01
RMM:  11    -0.192197334055E+03    0.12789E-03   -0.34834E-04  3683   0.288E-02    0.682E-02
RMM:  12    -0.192197311845E+03    0.22210E-04   -0.21275E-04  3682   0.224E-02    0.557E-02
RMM:  13    -0.192197289812E+03    0.22033E-04   -0.61996E-05  3682   0.125E-02    0.281E-02
RMM:  14    -0.192197287296E+03    0.25158E-05   -0.15727E-05  3672   0.644E-03    0.170E-02
RMM:  15    -0.192197285039E+03    0.22569E-05   -0.45504E-06  2809   0.353E-03    0.717E-03
RMM:  16    -0.192197285181E+03   -0.14232E-06   -0.13705E-06  2028   0.205E-03
   7 F= -.19219729E+03 E0= -.19208213E+03  d E =-.345321E+00
       N       E                     dE             d eps       ncg     rms          rms(c)
DAV:   1    -0.192196971442E+03    0.31360E-03   -0.78766E-01  3768   0.137E+00    0.882E-02
RMM:   2    -0.192197871855E+03   -0.90041E-03   -0.87299E-03  3683   0.200E-01    0.105E-01
RMM:   3    -0.192197995063E+03   -0.12321E-03   -0.61733E-04  3717   0.421E-02    0.151E-01
RMM:   4    -0.192197756546E+03    0.23852E-03   -0.10154E-04  3684   0.175E-02    0.487E-02
RMM:   5    -0.192197768239E+03   -0.11693E-04   -0.52899E-05  3682   0.118E-02    0.495E-02
RMM:   6    -0.192197771657E+03   -0.34183E-05   -0.96926E-05  3682   0.156E-02    0.364E-02
RMM:   7    -0.192197762598E+03    0.90590E-05   -0.33436E-05  3679   0.914E-03    0.179E-02
RMM:   8    -0.192197761058E+03    0.15405E-05   -0.62880E-06  2980   0.403E-03    0.127E-02
RMM:   9    -0.192197759276E+03    0.17821E-05   -0.24149E-06  2226   0.270E-03    0.746E-03
RMM:  10    -0.192197758907E+03    0.36930E-06   -0.10745E-06  1951   0.181E-03
   8 F= -.19219776E+03 E0= -.19208252E+03  d E =-.345795E+00
       N       E                     dE             d eps       ncg     rms          rms(c)
DAV:   1    -0.192191690004E+03    0.60693E-02   -0.54170E+01  3672   0.114E+01    0.779E-01
RMM:   2    -0.192260604631E+03   -0.68915E-01   -0.63876E-01  3683   0.168E+00    0.103E+00
RMM:   3    -0.192265481208E+03   -0.48766E-02   -0.46354E-02  3714   0.356E-01    0.114E+00
RMM:   4    -0.192250594205E+03    0.14887E-01   -0.74387E-03  3688   0.147E-01    0.438E-01
RMM:   5    -0.192250190853E+03    0.40335E-03   -0.32358E-03  3683   0.929E-02    0.401E-01
RMM:   6    -0.192249765570E+03    0.42528E-03   -0.74483E-03  3681   0.134E-01    0.342E-01
RMM:   7    -0.192249058943E+03    0.70663E-03   -0.29767E-03  3681   0.851E-02    0.198E-01
RMM:   8    -0.192248696644E+03    0.36230E-03   -0.49116E-04  3685   0.358E-02    0.104E-01
RMM:   9    -0.192248570799E+03    0.12584E-03   -0.17955E-04  3679   0.212E-02    0.539E-02
RMM:  10    -0.192248537270E+03    0.33530E-04   -0.73259E-05  3680   0.132E-02    0.352E-02
RMM:  11    -0.192248523362E+03    0.13908E-04   -0.35208E-05  3682   0.893E-03    0.205E-02
RMM:  12    -0.192248521101E+03    0.22610E-05   -0.27764E-05  3680   0.786E-03    0.143E-02
RMM:  13    -0.192248520292E+03    0.80836E-06   -0.86743E-06  3627   0.455E-03
   9 F= -.19224852E+03 E0= -.19213390E+03  d E =-.507614E-01
       N       E                     dE             d eps       ncg     rms          rms(c)
DAV:   1    -0.192246862663E+03    0.16584E-02   -0.38926E+00  3696   0.304E+00    0.206E-01
RMM:   2    -0.192251895813E+03   -0.50331E-02   -0.46153E-02  3682   0.450E-01    0.295E-01
RMM:   3    -0.192251964771E+03   -0.68958E-04   -0.33701E-03  3713   0.961E-02    0.296E-01
RMM:   4    -0.192251024757E+03    0.94001E-03   -0.50614E-04  3689   0.387E-02    0.115E-01
RMM:   5    -0.192251026439E+03   -0.16819E-05   -0.23564E-04  3683   0.251E-02    0.109E-01
RMM:   6    -0.192251033716E+03   -0.72766E-05   -0.57028E-04  3681   0.371E-02    0.962E-02
RMM:   7    -0.192250971356E+03    0.62359E-04   -0.21409E-04  3681   0.229E-02    0.462E-02
RMM:   8    -0.192250954935E+03    0.16422E-04   -0.33576E-05  3683   0.936E-03    0.291E-02
RMM:   9    -0.192250944644E+03    0.10291E-04   -0.12589E-05  3672   0.563E-03    0.139E-02
RMM:  10    -0.192250942548E+03    0.20951E-05   -0.51221E-06  2968   0.352E-03    0.929E-03
RMM:  11    -0.192250941683E+03    0.86499E-06   -0.27890E-06  2149   0.279E-03
  10 F= -.19225094E+03 E0= -.19213645E+03  d E =-.531828E-01
       N       E                     dE             d eps       ncg     rms          rms(c)
DAV:   1    -0.192250880753E+03    0.61795E-04   -0.12871E+01  3672   0.549E+00    0.393E-01
RMM:   2    -0.192267783784E+03   -0.16903E-01   -0.15861E-01  3682   0.821E-01    0.519E-01
RMM:   3    -0.192268864341E+03   -0.10806E-02   -0.12070E-02  3710   0.181E-01    0.562E-01
RMM:   4    -0.192265959074E+03    0.29053E-02   -0.24792E-03  3686   0.816E-02    0.347E-01
RMM:   5    -0.192265074430E+03    0.88464E-03   -0.89052E-04  3681   0.492E-02    0.173E-01
RMM:   6    -0.192265212651E+03   -0.13822E-03   -0.17898E-03  3680   0.650E-02    0.182E-01
RMM:   7    -0.192264947485E+03    0.26517E-03   -0.11227E-03  3680   0.518E-02    0.890E-02
RMM:   8    -0.192264876888E+03    0.70597E-04   -0.14187E-04  3685   0.191E-02    0.602E-02
RMM:   9    -0.192264833953E+03    0.42934E-04   -0.51450E-05  3678   0.114E-02    0.290E-02
RMM:  10    -0.192264826087E+03    0.78663E-05   -0.20126E-05  3672   0.675E-03    0.187E-02
RMM:  11    -0.192264822813E+03    0.32738E-05   -0.91068E-06  3573   0.452E-03    0.111E-02
RMM:  12    -0.192264822035E+03    0.77808E-06   -0.82677E-06  3639   0.423E-03
  11 F= -.19226482E+03 E0= -.19215028E+03  d E =-.138804E-01
       N       E                     dE             d eps       ncg     rms          rms(c)
DAV:   1    -0.192262953421E+03    0.18694E-02   -0.34960E+00  3684   0.286E+00    0.203E-01
RMM:   2    -0.192267572060E+03   -0.46186E-02   -0.43231E-02  3682   0.429E-01    0.278E-01
RMM:   3    -0.192267751160E+03   -0.17910E-03   -0.32945E-03  3710   0.944E-02    0.290E-01
RMM:   4    -0.192267014110E+03    0.73705E-03   -0.66061E-04  3686   0.422E-02    0.179E-01
RMM:   5    -0.192266789205E+03    0.22491E-03   -0.23923E-04  3681   0.256E-02    0.909E-02
RMM:   6    -0.192266842352E+03   -0.53148E-04   -0.47979E-04  3680   0.337E-02    0.960E-02
RMM:   7    -0.192266772238E+03    0.70114E-04   -0.31898E-04  3680   0.276E-02    0.447E-02
RMM:   8    -0.192266755087E+03    0.17151E-04   -0.38595E-05  3684   0.100E-02    0.317E-02
RMM:   9    -0.192266743293E+03    0.11793E-04   -0.13758E-05  3671   0.591E-03    0.157E-02
RMM:  10    -0.192266741124E+03    0.21692E-05   -0.55603E-06  3000   0.360E-03    0.100E-02
RMM:  11    -0.192266740201E+03    0.92293E-06   -0.26828E-06  2182   0.271E-03
  12 F= -.19226674E+03 E0= -.19215214E+03  d E =-.157985E-01
       N       E                     dE             d eps       ncg     rms          rms(c)
DAV:   1    -0.192264936703E+03    0.18044E-02   -0.61137E+00  3672   0.382E+00    0.263E-01
RMM:   2    -0.192272109762E+03   -0.71731E-02   -0.69865E-02  3682   0.561E-01    0.289E-01
RMM:   3    -0.192273192328E+03   -0.10826E-02   -0.50724E-03  3703   0.119E-01    0.404E-01
RMM:   4    -0.192271631574E+03    0.15608E-02   -0.10537E-03  3686   0.535E-02    0.221E-01
RMM:   5    -0.192271316954E+03    0.31462E-03   -0.44736E-04  3680   0.345E-02    0.127E-01
RMM:   6    -0.192271363355E+03   -0.46402E-04   -0.80691E-04  3680   0.444E-02    0.125E-01
RMM:   7    -0.192271235350E+03    0.12801E-03   -0.47297E-04  3680   0.342E-02    0.608E-02
RMM:   8    -0.192271210585E+03    0.24765E-04   -0.74375E-05  3685   0.138E-02    0.433E-02
RMM:   9    -0.192271186164E+03    0.24421E-04   -0.26358E-05  3677   0.833E-03    0.172E-02
RMM:  10    -0.192271183942E+03    0.22218E-05   -0.74488E-06  3544   0.421E-03    0.118E-02
RMM:  11    -0.192271182320E+03    0.16220E-05   -0.41745E-06  2721   0.320E-03    0.640E-03
RMM:  12    -0.192271182010E+03    0.31044E-06   -0.33403E-06  2189   0.307E-03
  13 F= -.19227118E+03 E0= -.19215662E+03  d E =-.444181E-02
       N       E                     dE             d eps       ncg     rms          rms(c)
DAV:   1    -0.192271148315E+03    0.34005E-04   -0.93732E-02  3744   0.473E-01    0.323E-02
RMM:   2    -0.192271261664E+03   -0.11335E-03   -0.10758E-03  3684   0.697E-02    0.410E-02
RMM:   3    -0.192271269370E+03   -0.77060E-05   -0.78862E-05  3705   0.149E-02    0.481E-02
RMM:   4    -0.192271248202E+03    0.21168E-04   -0.15593E-05  3682   0.656E-03    0.273E-02
RMM:   5    -0.192271244016E+03    0.41861E-05   -0.68621E-06  3184   0.433E-03    0.159E-02
RMM:   6    -0.192271245753E+03   -0.17369E-05   -0.13539E-05  3672   0.581E-03    0.164E-02
RMM:   7    -0.192271243427E+03    0.23255E-05   -0.77310E-06  3317   0.442E-03    0.747E-03
RMM:   8    -0.192271243041E+03    0.38581E-06   -0.11701E-06  1987   0.190E-03
  14 F= -.19227124E+03 E0= -.19215667E+03  d E =-.450284E-02
       N       E                     dE             d eps       ncg     rms          rms(c)
DAV:   1    -0.192270925340E+03    0.31809E-03   -0.23681E+00  3672   0.238E+00    0.139E-01
RMM:   2    -0.192273607563E+03   -0.26822E-02   -0.26410E-02  3682   0.348E-01    0.164E-01
RMM:   3    -0.192273873441E+03   -0.26588E-03   -0.17883E-03  3708   0.722E-02    0.221E-01
RMM:   4    -0.192273389817E+03    0.48362E-03   -0.28210E-04  3690   0.284E-02    0.112E-01
RMM:   5    -0.192273327265E+03    0.62552E-04   -0.99998E-05  3684   0.167E-02    0.742E-02
RMM:   6    -0.192273322265E+03    0.49995E-05   -0.24532E-04  3680   0.244E-02    0.755E-02
RMM:   7    -0.192273282057E+03    0.40208E-04   -0.22720E-04  3683   0.236E-02    0.351E-02
RMM:   8    -0.192273278596E+03    0.34610E-05   -0.31917E-05  3676   0.905E-03    0.279E-02
RMM:   9    -0.192273268976E+03    0.96198E-05   -0.84610E-06  3595   0.476E-03    0.125E-02
RMM:  10    -0.192273267518E+03    0.14580E-05   -0.29849E-06  2363   0.281E-03    0.907E-03
RMM:  11    -0.192273266340E+03    0.11779E-05   -0.39115E-06  2538   0.325E-03    0.412E-03
RMM:  12    -0.192273266282E+03    0.58113E-07   -0.16400E-06  1951   0.227E-03
  15 F= -.19227327E+03 E0= -.19215878E+03  d E =-.202324E-02
       N       E                     dE             d eps       ncg     rms          rms(c)
DAV:   1    -0.192272485924E+03    0.78042E-03   -0.11910E+00  3672   0.169E+00    0.972E-02
RMM:   2    -0.192273841169E+03   -0.13552E-02   -0.13269E-02  3682   0.247E-01    0.120E-01
RMM:   3    -0.192273943676E+03   -0.10251E-03   -0.89615E-04  3709   0.511E-02    0.152E-01
RMM:   4    -0.192273716641E+03    0.22704E-03   -0.13731E-04  3689   0.199E-02    0.795E-02
RMM:   5    -0.192273685706E+03    0.30935E-04   -0.49323E-05  3684   0.117E-02    0.532E-02
RMM:   6    -0.192273684621E+03    0.10851E-05   -0.12709E-04  3680   0.175E-02    0.541E-02
RMM:   7    -0.192273663701E+03    0.20920E-04   -0.11875E-04  3683   0.170E-02    0.243E-02
RMM:   8    -0.192273662109E+03    0.15918E-05   -0.15879E-05  3668   0.639E-03    0.196E-02
RMM:   9    -0.192273657344E+03    0.47646E-05   -0.41094E-06  2787   0.336E-03    0.917E-03
RMM:  10    -0.192273656583E+03    0.76181E-06   -0.16101E-06  1964   0.218E-03
  16 F= -.19227366E+03 E0= -.19215922E+03  d E =-.241354E-02
       N       E                     dE             d eps       ncg     rms          rms(c)
DAV:   1    -0.192272872647E+03    0.78470E-03   -0.22320E+00  3672   0.230E+00    0.129E-01
RMM:   2    -0.192275392658E+03   -0.25200E-02   -0.24430E-02  3682   0.337E-01    0.164E-01
RMM:   3    -0.192275579749E+03   -0.18709E-03   -0.16337E-03  3717   0.696E-02    0.206E-01
RMM:   4    -0.192275145139E+03    0.43461E-03   -0.23949E-04  3684   0.265E-02    0.999E-02
RMM:   5    -0.192275101443E+03    0.43695E-04   -0.84550E-05  3683   0.154E-02    0.721E-02
RMM:   6    -0.192275093787E+03    0.76567E-05   -0.25738E-04  3680   0.250E-02    0.723E-02
RMM:   7    -0.192275057123E+03    0.36664E-04   -0.20130E-04  3683   0.222E-02    0.336E-02
RMM:   8    -0.192275053837E+03    0.32853E-05   -0.27774E-05  3678   0.844E-03    0.266E-02
RMM:   9    -0.192275045516E+03    0.83213E-05   -0.72576E-06  3317   0.443E-03    0.124E-02
RMM:  10    -0.192275043691E+03    0.18254E-05   -0.38338E-06  2631   0.315E-03    0.872E-03
RMM:  11    -0.192275042516E+03    0.11751E-05   -0.39969E-06  2565   0.329E-03    0.358E-03
RMM:  12    -0.192275042555E+03   -0.39188E-07   -0.16034E-06  1951   0.224E-03
  17 F= -.19227504E+03 E0= -.19216064E+03  d E =-.138597E-02
       N       E                     dE             d eps       ncg     rms          rms(c)
DAV:   1    -0.192274681459E+03    0.36106E-03   -0.56752E-01  3672   0.116E+00    0.644E-02
RMM:   2    -0.192275323553E+03   -0.64209E-03   -0.61951E-03  3682   0.170E-01    0.860E-02
RMM:   3    -0.192275354122E+03   -0.30569E-04   -0.41366E-04  3718   0.351E-02    0.101E-01
RMM:   4    -0.192275250417E+03    0.10371E-03   -0.58562E-05  3684   0.132E-02    0.501E-02
RMM:   5    -0.192275240372E+03    0.10044E-04   -0.20986E-05  3681   0.769E-03    0.369E-02
RMM:   6    -0.192275239449E+03    0.92330E-06   -0.69007E-05  3679   0.129E-02    0.371E-02
RMM:   7    -0.192275229603E+03    0.98460E-05   -0.52925E-05  3684   0.114E-02    0.170E-02
RMM:   8    -0.192275228648E+03    0.95490E-06   -0.69518E-06  3082   0.428E-03
  18 F= -.19227523E+03 E0= -.19216080E+03  d E =-.157207E-02
       N       E                     dE             d eps       ncg     rms          rms(c)
DAV:   1    -0.192275103133E+03    0.12647E-03   -0.67172E-01  3672   0.126E+00    0.763E-02
RMM:   2    -0.192275847248E+03   -0.74411E-03   -0.74139E-03  3682   0.184E-01    0.831E-02
RMM:   3    -0.192275956048E+03   -0.10880E-03   -0.50666E-04  3729   0.387E-02    0.123E-01
RMM:   4    -0.192275791920E+03    0.16413E-03   -0.92721E-05  3682   0.161E-02    0.530E-02
RMM:   5    -0.192275785000E+03    0.69197E-05   -0.38009E-05  3683   0.101E-02    0.438E-02
RMM:   6    -0.192275782542E+03    0.24587E-05   -0.78519E-05  3677   0.139E-02    0.406E-02
RMM:   7    -0.192275771932E+03    0.10609E-04   -0.54448E-05  3681   0.116E-02    0.207E-02
RMM:   8    -0.192275769534E+03    0.23983E-05   -0.85867E-06  3302   0.473E-03    0.144E-02
RMM:   9    -0.192275766903E+03    0.26313E-05   -0.26517E-06  2305   0.276E-03    0.700E-03
RMM:  10    -0.192275766173E+03    0.73026E-06   -0.17561E-06  1949   0.226E-03
  19 F= -.19227577E+03 E0= -.19216132E+03  d E =-.537524E-03
       N       E                     dE             d eps       ncg     rms          rms(c)
DAV:   1    -0.192275427062E+03    0.33984E-03   -0.35476E-01  3672   0.913E-01    0.548E-02
RMM:   2    -0.192275817244E+03   -0.39018E-03   -0.39069E-03  3682   0.134E-01    0.597E-02
RMM:   3    -0.192275871480E+03   -0.54236E-04   -0.26433E-04  3729   0.281E-02    0.870E-02
RMM:   4    -0.192275788480E+03    0.83000E-04   -0.47091E-05  3681   0.115E-02    0.391E-02
RMM:   5    -0.192275784843E+03    0.36373E-05   -0.19557E-05  3679   0.725E-03    0.324E-02
RMM:   6    -0.192275782727E+03    0.21160E-05   -0.43601E-05  3676   0.103E-02    0.286E-02
RMM:   7    -0.192275776732E+03    0.59949E-05   -0.29671E-05  3680   0.859E-03    0.129E-02
RMM:   8    -0.192275775938E+03    0.79448E-06   -0.36329E-06  2660   0.315E-03
  20 F= -.19227578E+03 E0= -.19216127E+03  d E =-.547289E-03
       N       E                     dE             d eps       ncg     rms          rms(c)
DAV:   1    -0.192275753148E+03    0.23584E-04   -0.62478E-02  3732   0.383E-01    0.217E-02
RMM:   2    -0.192275820965E+03   -0.67816E-04   -0.65741E-04  3682   0.557E-02    0.267E-02
RMM:   3    -0.192275823259E+03   -0.22949E-05   -0.42897E-05  3730   0.115E-02    0.294E-02
RMM:   4    -0.192275815016E+03    0.82436E-05   -0.64805E-06  3274   0.434E-03    0.180E-02
RMM:   5    -0.192275813614E+03    0.14017E-05   -0.31236E-06  2414   0.306E-03    0.140E-02
RMM:   6    -0.192275814428E+03   -0.81387E-06   -0.10107E-05  3669   0.508E-03    0.151E-02
RMM:   7    -0.192275812996E+03    0.14319E-05   -0.75624E-06  3566   0.435E-03    0.540E-03
RMM:   8    -0.192275812868E+03    0.12760E-06   -0.70968E-07  1940   0.148E-03
  21 F= -.19227581E+03 E0= -.19216135E+03  d E =-.584220E-03
       N       E                     dE             d eps       ncg     rms          rms(c)
DAV:   1    -0.192275686647E+03    0.12635E-03   -0.39688E-01  3672   0.962E-01    0.528E-02
RMM:   2    -0.192276100843E+03   -0.41420E-03   -0.42745E-03  3682   0.141E-01    0.509E-02
RMM:   3    -0.192276138575E+03   -0.37732E-04   -0.26272E-04  3728   0.286E-02    0.721E-02
RMM:   4    -0.192276087140E+03    0.51435E-04   -0.43317E-05  3679   0.109E-02    0.428E-02
RMM:   5    -0.192276077767E+03    0.93729E-05   -0.18890E-05  3680   0.706E-03    0.326E-02
RMM:   6    -0.192276078734E+03   -0.96630E-06   -0.41466E-05  3678   0.101E-02    0.372E-02
RMM:   7    -0.192276068368E+03    0.10366E-04   -0.43516E-05  3683   0.103E-02    0.137E-02
RMM:   8    -0.192276068157E+03    0.21106E-06   -0.50198E-06  2896   0.369E-03
  22 F= -.19227607E+03 E0= -.19216155E+03  d E =-.255288E-03
