 vasp.5.4.1 24Jun15 (build Mar 14 2019 10:18:33) complex                        
  
 executed on INTEL-19.0.2+OPENMPI date 2023.01.31  00:19:17
 running on   36 total cores
 distrk:  each k-point on   36 cores,    1 groups
 distr:  one band on NCORES_PER_BAND=   6 cores,    6 groups


--------------------------------------------------------------------------------------------------------


 INCAR:
 POTCAR:    PAW_PBE Au 04Oct2007                  
 POTCAR:    PAW_PBE Pd 04Jan2005                  
 POTCAR:    PAW_PBE Au 04Oct2007                  
  local pseudopotential read in
  partial core-charges read in
  partial kinetic energy density read in
  atomic valenz-charges read in
  non local Contribution for L=           2  read in
    real space projection operators read in
  non local Contribution for L=           2  read in
    real space projection operators read in
  non local Contribution for L=           0  read in
    real space projection operators read in
  non local Contribution for L=           0  read in
    real space projection operators read in
  non local Contribution for L=           1  read in
    real space projection operators read in
  non local Contribution for L=           1  read in
    real space projection operators read in
    PAW grid and wavefunctions read in
 
   number of l-projection  operators is LMAX  =           6
   number of lm-projection operators is LMMAX =          18
 
 POTCAR:    PAW_PBE Pd 04Jan2005                  
  local pseudopotential read in
  partial core-charges read in
  partial kinetic energy density read in
  atomic valenz-charges read in
  non local Contribution for L=           2  read in
    real space projection operators read in
  non local Contribution for L=           2  read in
    real space projection operators read in
  non local Contribution for L=           0  read in
    real space projection operators read in
  non local Contribution for L=           0  read in
    real space projection operators read in
  non local Contribution for L=           1  read in
    real space projection operators read in
  non local Contribution for L=           1  read in
    real space projection operators read in
    PAW grid and wavefunctions read in
 
   number of l-projection  operators is LMAX  =           6
   number of lm-projection operators is LMMAX =          18
 
 Optimization of the real space projectors (new method)

 maximal supplied QI-value         = 15.12
 optimisation between [QCUT,QGAM] = [ 10.13, 20.41] = [ 28.73,116.64] Ry 
 Optimized for a Real-space Cutoff    1.51 Angstroem

   l    n(q)    QCUT    max X(q) W(low)/X(q) W(high)/X(q)  e(spline) 
   2      8    10.129    60.898    0.46E-03    0.46E-03    0.14E-06
   2      8    10.129    58.894    0.47E-03    0.47E-03    0.14E-06
   0      9    10.129   109.617    0.16E-03    0.11E-03    0.54E-07
   0      9    10.129    75.026    0.15E-03    0.11E-03    0.52E-07
   1      9    10.129    16.344    0.96E-04    0.15E-03    0.14E-06
   1      9    10.129    10.160    0.81E-04    0.12E-03    0.11E-06
 Optimization of the real space projectors (new method)

 maximal supplied QI-value         = 14.36
 optimisation between [QCUT,QGAM] = [ 10.20, 20.39] = [ 29.12,116.47] Ry 
 Optimized for a Real-space Cutoff    1.51 Angstroem

   l    n(q)    QCUT    max X(q) W(low)/X(q) W(high)/X(q)  e(spline) 
   2      8    10.197    59.108    0.26E-03    0.14E-03    0.96E-07
   2      8    10.197    58.101    0.27E-03    0.14E-03    0.98E-07
   0      9    10.197   102.235    0.54E-04    0.60E-05    0.72E-07
   0      9    10.197    58.388    0.52E-04    0.60E-05    0.68E-07
   1      9    10.197    22.191    0.18E-03    0.25E-03    0.79E-07
   1      9    10.197    15.590    0.15E-03    0.21E-03    0.69E-07
  PAW_PBE Au 04Oct2007                  :
 energy of atom  1       EATOM= -926.0867
 kinetic energy error for atom=    0.0062 (will be added to EATOM!!)
  PAW_PBE Pd 04Jan2005                  :
 energy of atom  2       EATOM= -809.7530
 kinetic energy error for atom=    0.0091 (will be added to EATOM!!)
 
 
 POSCAR: Au Pd                                   
  positions in cartesian coordinates
  No initial velocities read in
 exchange correlation table for  LEXCH =        8
   RHO(1)=    0.500       N(1)  =     2000
   RHO(2)=  100.500       N(2)  =     4000

 VTST: version 3.2, (02/03/18)

 CHAIN: initializing optimizer
 
 OPT: Using VASP Conjugate-Gradient optimizer
 CHAIN: Read ICHAIN            0
 
 POSCAR: Au Pd                                   
  positions in cartesian coordinates
  No initial velocities read in
 


--------------------------------------------------------------------------------------------------------


 ion  position               nearest neighbor table
   1  0.250  0.750  0.592-  35 2.75  21 2.75   5 2.75  24 2.75  33 2.75  20 2.75  34 2.75  36 2.75
                            25 2.75
   2  0.917  0.417  0.500-  11 2.75  32 2.75  13 2.75   4 2.75   6 2.75  28 2.75   9 2.75  12 2.75
                            15 2.75  41 2.75   7 2.75  29 2.75
   3  0.333  0.083  0.408-  38 2.75  19 2.75  27 2.75  29 2.75  18 2.75  37 2.75  39 2.75  40 2.75
                            28 2.75
   4  0.667  0.667  0.500-  10 2.75  13 2.75  36 2.75   2 2.75  12 2.75  40 2.75  47 2.75  21 2.75
                             6 2.75  19 2.75  41 2.75  48 2.75
   5  0.000  0.000  0.592-   9 2.75  35 2.75  32 2.75  34 2.75   1 2.75  44 2.75  17 2.75  24 2.75
                            30 2.75
   6  0.917  0.667  0.500-  41 2.75   7 2.75  48 2.75  30 2.75   2 2.75  47 2.75  15 2.75   4 2.75
                            25 2.75  45 2.75  31 2.75  34 2.75
   7  0.000  0.500  0.592-   6 2.75  15 2.75  16 2.75  32 2.75  34 2.75  48 2.75  13 2.75  33 2.75
                             2 2.75
   8  0.083  0.833  0.408-  35 2.75  31 2.75  26 2.75  39 2.75  43 2.75  18 2.75  45 2.75  25 2.75
                            30 2.75
   9  0.917  0.167  0.500-  43 2.75   5 2.75  44 2.75  30 2.75  35 2.75   2 2.75  12 2.75  28 2.75
                            42 2.75  11 2.75  39 2.75  32 2.75
  10  0.583  0.583  0.408-   4 2.75  11 2.75  18 2.75  19 2.75  22 2.75  26 2.75  41 2.75  12 2.75
                            21 2.75
  11  0.833  0.333  0.408-   2 2.75  10 2.75  39 2.75  41 2.75  43 2.75  29 2.75  22 2.75   9 2.75
                            12 2.75
  12  0.667  0.417  0.500-  22 2.75  44 2.75  20 2.75  21 2.75   9 2.75  42 2.75   4 2.75   2 2.75
                            23 2.75  10 2.75  11 2.75  13 2.75
  13  0.750  0.500  0.592-   4 2.75   2 2.75  32 2.75  36 2.75  44 2.75  48 2.75   7 2.75  20 2.75
                            12 2.75
  14  0.500  0.250  0.592-  23 2.75  42 2.75  17 2.75  33 2.75  20 2.75  46 2.75  44 2.75  16 2.75
                            38 2.75
  15  0.167  0.417  0.500-  29 2.75  16 2.75   7 2.75  25 2.75  28 2.75   6 2.75  38 2.75   2 2.75
                            23 2.75  31 2.75  33 2.75  27 2.75
  16  0.250  0.250  0.592-  15 2.75  38 2.75  24 2.75  33 2.75   7 2.75  46 2.75  32 2.75  14 2.75
                            28 2.75
  17  0.750  0.000  0.592-  42 2.75  30 2.75  34 2.75  14 2.75  44 2.75  48 2.75  46 2.75   5 2.75
                            47 2.75
  18  0.333  0.833  0.408-  40 2.75  10 2.75  26 2.75  39 2.75   3 2.75  19 2.75   8 2.75  21 2.75
                            35 2.75
  19  0.583  0.833  0.408-  47 2.75  10 2.75  37 2.75  41 2.75   3 2.75  45 2.75  18 2.75   4 2.75
                            40 2.75
  20  0.500  0.500  0.592-  21 2.75  12 2.75  14 2.75   1 2.75  36 2.75  44 2.75  13 2.75  33 2.75
                            23 2.75
  21  0.417  0.667  0.500-  26 2.75  20 2.75   1 2.75  23 2.75  12 2.75  35 2.75  40 2.75  25 2.75
                             4 2.75  18 2.75  36 2.75  10 2.75
  22  0.583  0.333  0.408-  12 2.75  10 2.75  26 2.75  37 2.75  43 2.75  11 2.75  27 2.75  42 2.75
                            23 2.75
  23  0.417  0.417  0.500-  27 2.75  14 2.75  33 2.75  21 2.75  25 2.75  38 2.75  42 2.75  12 2.75
                            15 2.75  26 2.75  20 2.75  22 2.75
  24  0.250  0.000  0.592-  28 2.75  40 2.75   1 2.75  32 2.75  36 2.75  16 2.75   5 2.75  46 2.75
                            35 2.75
  25  0.167  0.667  0.500-  31 2.75  33 2.75  34 2.75  15 2.75  23 2.75  30 2.75  35 2.75   6 2.75
                            21 2.75   8 2.75  26 2.75   1 2.75
  26  0.333  0.583  0.408-  21 2.75  18 2.75   8 2.75  22 2.75  27 2.75  10 2.75  31 2.75  23 2.75
                            25 2.75
  27  0.333  0.333  0.408-  23 2.75   3 2.75  26 2.75  31 2.75  37 2.75  22 2.75  29 2.75  38 2.75
                            15 2.75
  28  0.167  0.167  0.500-  39 2.75  24 2.75  32 2.75  15 2.75  35 2.75   2 2.75  40 2.75   9 2.75
                            38 2.75  29 2.75  16 2.75   3 2.75
  29  0.083  0.333  0.408-  15 2.75   3 2.75  31 2.75  39 2.75  41 2.75  27 2.75  11 2.75  28 2.75
                             2 2.75
  30  0.917  0.917  0.500-  45 2.75  34 2.75  17 2.75  25 2.75   9 2.75  42 2.75   6 2.75  35 2.75
                            47 2.75  43 2.75   8 2.75   5 2.75
  31  0.083  0.583  0.408-  25 2.75   8 2.75  27 2.75  29 2.75  45 2.75  41 2.75  26 2.75  15 2.75
                             6 2.75
  32  0.000  0.250  0.592-   2 2.75  28 2.75   7 2.75  13 2.75  24 2.75   5 2.75  16 2.75  44 2.75
                             9 2.75
  33  0.250  0.500  0.592-  25 2.75  23 2.75  16 2.75   1 2.75  14 2.75  34 2.75  20 2.75   7 2.75
                            15 2.75
  34  0.000  0.750  0.592-  30 2.75  25 2.75  17 2.75   5 2.75   7 2.75  33 2.75   1 2.75  48 2.75
                             6 2.75
  35  0.167  0.917  0.500-   8 2.75   1 2.75   5 2.75   9 2.75  21 2.75  25 2.75  28 2.75  30 2.75
                            40 2.75  39 2.75  24 2.75  18 2.75
  36  0.500  0.750  0.592-  40 2.75   4 2.75  20 2.75  24 2.75  13 2.75  46 2.75   1 2.75  48 2.75
                            21 2.75
  37  0.583  0.083  0.408-  42 2.75  22 2.75  27 2.75  19 2.75  45 2.75  43 2.75   3 2.75  47 2.75
                            38 2.75
  38  0.417  0.167  0.500-   3 2.75  46 2.75  16 2.75  23 2.75  40 2.75  15 2.75  47 2.75  28 2.75
                            42 2.75  27 2.75  14 2.75  37 2.75
  39  0.083  0.083  0.408-  28 2.75  11 2.75  18 2.75   8 2.75  29 2.75   3 2.75  43 2.75  35 2.75
                             9 2.75
  40  0.417  0.917  0.500-  18 2.75  36 2.75  24 2.75   4 2.75  28 2.75  21 2.75  38 2.75  35 2.75
                            47 2.75   3 2.75  46 2.75  19 2.75
  41  0.833  0.583  0.408-   6 2.75  11 2.75  19 2.75  29 2.75  45 2.75  31 2.75  10 2.75   2 2.75
                             4 2.75
  42  0.667  0.167  0.500-  37 2.75  17 2.75  14 2.75  23 2.75  30 2.75  12 2.75  47 2.75  38 2.75
                             9 2.75  22 2.75  44 2.75  43 2.75
  43  0.833  0.083  0.408-   9 2.75   8 2.75  11 2.75  22 2.75  45 2.75  39 2.75  37 2.75  30 2.75
                            42 2.75
  44  0.750  0.250  0.592-  12 2.75   9 2.75   5 2.75  13 2.75  17 2.75  20 2.75  14 2.75  32 2.75
                            42 2.75
  45  0.833  0.833  0.408-  30 2.75  31 2.75  37 2.75  41 2.75  43 2.75  19 2.75   8 2.75   6 2.75
                            47 2.75
  46  0.500  0.000  0.592-  38 2.75  47 2.75  36 2.75  14 2.75  16 2.75  48 2.75  17 2.75  24 2.75
                            40 2.75
  47  0.667  0.917  0.500-  19 2.75  48 2.75  46 2.75  38 2.75  42 2.75   6 2.75   4 2.75  40 2.75
                            30 2.75  37 2.75  17 2.75  45 2.75
  48  0.750  0.750  0.592-  47 2.75   6 2.75  13 2.75  17 2.75  46 2.75   7 2.75  34 2.75  36 2.75
                             4 2.75
 
  LATTYP: Found a hexagonal cell.
 ALAT       =    11.0025815153
 C/A-ratio  =     2.2260035120
  
  Lattice vectors:
  
 A1 = (   5.5012907576,  -9.5285150994,   0.0000000000)
 A2 = ( -11.0025815153,   0.0000000000,   0.0000000000)
 A3 = (   0.0000000000,   0.0000000000, -24.4917850943)


Analysis of symmetry for initial positions (statically):
=====================================================================
 Subroutine PRICEL returns:
 Original cell was already a primitive cell.
 

 Routine SETGRP: Setting up the symmetry group for a 
 hexagonal supercell.


 Subroutine GETGRP returns: Found  1 space group operations
 (whereof  1 operations were pure point group operations)
 out of a pool of 24 trial point group operations.


The static configuration has the point symmetry C_1 .


Analysis of symmetry for dynamics (positions and initial velocities):
=====================================================================
 Subroutine PRICEL returns:
 Original cell was already a primitive cell.
 

 Routine SETGRP: Setting up the symmetry group for a 
 hexagonal supercell.


 Subroutine GETGRP returns: Found  1 space group operations
 (whereof  1 operations were pure point group operations)
 out of a pool of 24 trial point group operations.


The dynamic configuration has the point symmetry C_1 .


Analysis of constrained symmetry for selective dynamics:
=====================================================================
 Subroutine PRICEL returns:
 Original cell was already a primitive cell.
 

 Routine SETGRP: Setting up the symmetry group for a 
 hexagonal supercell.


 Subroutine GETGRP returns: Found  1 space group operations
 (whereof  1 operations were pure point group operations)
 out of a pool of 24 trial point group operations.


The constrained configuration has the point symmetry C_1 .
 
 
 KPOINTS: Automatic mesh                          

Automatic generation of k-mesh.
Space group operators:
 irot       det(A)        alpha          n_x          n_y          n_z        tau_x        tau_y        tau_z
    1     1.000000     0.000000     1.000000     0.000000     0.000000     0.000000     0.000000     0.000000
 
 Subroutine IBZKPT returns following result:
 ===========================================
 
 Found      6 irreducible k-points:
 
 Following reciprocal coordinates:
            Coordinates               Weight
  0.250000  0.250000  0.000000     16.000000
  0.000000  0.250000  0.000000     16.000000
 -0.250000  0.000000  0.000000     16.000000
 -0.250000  0.250000  0.000000     16.000000
  0.500000 -0.250000  0.000000     16.000000
 -0.250000  0.500000  0.000000     16.000000
 
 Following cartesian coordinates:
            Coordinates               Weight
  0.022722  0.013119  0.000000     16.000000
  0.000000  0.026237  0.000000     16.000000
 -0.022722  0.013119  0.000000     16.000000
 -0.022722  0.039356  0.000000     16.000000
  0.045444 -0.052474  0.000000     16.000000
 -0.022722  0.065593  0.000000     16.000000
 


--------------------------------------------------------------------------------------------------------




 Dimension of arrays:
   k-points           NKPTS =      6   k-points in BZ     NKDIM =      6   number of bands    NBANDS=    306
   number of dos      NEDOS =    301   number of ions     NIONS =     48
   non local maximal  LDIM  =      6   non local SUM 2l+1 LMDIM =     18
   total plane-waves  NPLWV = 349920
   max r-space proj   IRMAX =   2009   max aug-charges    IRDMAX=   8532
   dimension x,y,z NGX =    54 NGY =   54 NGZ =  120
   dimension x,y,z NGXF=   108 NGYF=  108 NGZF=  240
   support grid    NGXF=   108 NGYF=  108 NGZF=  240
   ions per type =              24  24
 NGX,Y,Z   is equivalent  to a cutoff of   8.16,  8.16,  8.15 a.u.
 NGXF,Y,Z  is equivalent  to a cutoff of  16.32, 16.32, 16.29 a.u.


 I would recommend the setting:
   dimension x,y,z NGX =    54 NGY =   54 NGZ =  120
 SYSTEM =  unknown system                          
 POSCAR =  Au Pd                                   

 Startparameter for this run:
   NWRITE =      1    write-flag & timer
   PREC   = normal    normal or accurate (medium, high low for compatibility)
   ISTART =      0    job   : 0-new  1-cont  2-samecut
   ICHARG =      2    charge: 1-file 2-atom 10-const
   ISPIN  =      1    spin polarized calculation?
   LNONCOLLINEAR =      F non collinear calculations
   LSORBIT =      F    spin-orbit coupling
   INIWAV =      1    electr: 0-lowe 1-rand  2-diag
   LASPH  =      F    aspherical Exc in radial PAW
   METAGGA=      F    non-selfconsistent MetaGGA calc.

 Electronic Relaxation 1
   ENCUT  =  400.0 eV  29.40 Ry    5.42 a.u.  17.94 17.94 39.94*2*pi/ulx,y,z
   ENINI  =  400.0     initial cutoff
   ENAUG  =  416.2 eV  augmentation charge cutoff
   NELM   =    500;   NELMIN=  2; NELMDL= -5     # of ELM steps 
   EDIFF  = 0.1E-05   stopping-criterion for ELM
   LREAL  =      T    real-space projection
   NLSPLINE    = F    spline interpolate recip. space projectors
   LCOMPAT=      F    compatible to vasp.4.4
   GGA_COMPAT  = T    GGA compatible to vasp.4.4-vasp.4.6
   LMAXPAW     = -100 max onsite density
   LMAXMIX     =    2 max onsite mixed and CHGCAR
   VOSKOWN=      1    Vosko Wilk Nusair interpolation
   ROPT   =   -0.00050  -0.00050
 Ionic relaxation
   EDIFFG = -.2E-01   stopping-criterion for IOM
   NSW    =    500    number of steps for IOM
   NBLOCK =      1;   KBLOCK =    500    inner block; outer block 
   IBRION =      2    ionic relax: 0-MD 1-quasi-New 2-CG
   NFREE  =      2    steps in history (QN), initial steepest desc. (CG)
   ISIF   =      0    stress and relaxation
   IWAVPR =     11    prediction:  0-non 1-charg 2-wave 3-comb
   ISYM   =      2    0-nonsym 1-usesym 2-fastsym
   LCORR  =      T    Harris-Foulkes like correction to forces

   POTIM  = 0.3500    time-step for ionic-motion
   TEIN   =    0.0    initial temperature
   TEBEG  =    0.0;   TEEND  =   0.0 temperature during run
   SMASS  =  -3.00    Nose mass-parameter (am)
   estimated Nose-frequenzy (Omega)   =  0.10E-29 period in steps =****** mass=  -0.277E-26a.u.
   SCALEE = 1.0000    scale energy and forces
   NPACO  =    256;   APACO  = 16.0  distance and # of slots for P.C.
   PSTRESS=    0.0 pullay stress

  Mass of Ions in am
   POMASS = 196.97106.42
  Ionic Valenz
   ZVAL   =  11.00 10.00
  Atomic Wigner-Seitz radii
   RWIGS  =  -1.00 -1.00
  virtual crystal weights 
   VCA    =   1.00  1.00
   NELECT =     504.0000    total number of electrons
   NUPDOWN=      -1.0000    fix difference up-down

 DOS related values:
   EMIN   =  10.00;   EMAX   =-10.00  energy-range for DOS
   EFERMI =   0.00
   ISMEAR =     0;   SIGMA  =   0.10  broadening in eV -4-tet -1-fermi 0-gaus

 Electronic relaxation 2 (details)
   IALGO  =     68    algorithm
   LDIAG  =      T    sub-space diagonalisation (order eigenvalues)
   LSUBROT=      F    optimize rotation matrix (better conditioning)
   TURBO    =      0    0=normal 1=particle mesh
   IRESTART =      0    0=no restart 2=restart with 2 vectors
   NREBOOT  =      0    no. of reboots
   NMIN     =      0    reboot dimension
   EREF     =   0.00    reference energy to select bands
   IMIX   =      4    mixing-type and parameters
     AMIX     =   0.40;   BMIX     =  1.00
     AMIX_MAG =   1.60;   BMIX_MAG =  1.00
     AMIN     =   0.10
     WC   =   100.;   INIMIX=   1;  MIXPRE=   1;  MAXMIX= -45

 Intra band minimization:
   WEIMIN = 0.0010     energy-eigenvalue tresh-hold
   EBREAK =  0.82E-09  absolut break condition
   DEPER  =   0.30     relativ break condition  

   TIME   =   0.40     timestep for ELM

  volume/ion in A,a.u.               =      53.49       360.99
  Fermi-wavevector in a.u.,A,eV,Ry     =   0.951418  1.797920 12.315955  0.905197
  Thomas-Fermi vector in A             =   2.079887
 
 Write flags
   LWAVE  =      F    write WAVECAR
   LCHARG =      F    write CHGCAR
   LVTOT  =      F    write LOCPOT, total local potential
   LVHAR  =      F    write LOCPOT, Hartree potential only
   LELF   =      F    write electronic localiz. function (ELF)
   LORBIT =      0    0 simple, 1 ext, 2 COOP (PROOUT)


 Dipole corrections
   LMONO  =      F    monopole corrections only (constant potential shift)
   LDIPOL =      T    correct potential (dipole corrections)
   IDIPOL =      3    1-x, 2-y, 3-z, 4-all directions 
   EPSILON=  1.0000000 bulk dielectric constant

 Exchange correlation treatment:
   GGA     =    PE    GGA type
   LEXCH   =     8    internal setting for exchange type
   VOSKOWN=      1    Vosko Wilk Nusair interpolation
   LHFCALC =     F    Hartree Fock is set to
   LHFONE  =     F    Hartree Fock one center treatment
   AEXX    =    0.0000 exact exchange contribution

 Linear response parameters
   LEPSILON=     F    determine dielectric tensor
   LRPA    =     F    only Hartree local field effects (RPA)
   LNABLA  =     F    use nabla operator in PAW spheres
   LVEL    =     F    velocity operator in full k-point grid
   LINTERFAST=   F  fast interpolation
   KINTER  =     0    interpolate to denser k-point grid
   CSHIFT  =0.1000    complex shift for real part using Kramers Kronig
   OMEGAMAX=  -1.0    maximum frequency
   DEG_THRESHOLD= 0.2000000E-02 threshold for treating states as degnerate
   RTIME   =    0.100 relaxation time in fs

 Orbital magnetization related:
   ORBITALMAG=     F  switch on orbital magnetization
   LCHIMAG   =     F  perturbation theory with respect to B field
   DQ        =  0.001000  dq finite difference perturbation B field



--------------------------------------------------------------------------------------------------------


 conjugate gradient relaxation of ions
   using selective dynamics as specified on POSCAR
   WARNING: If single coordinates had been selected the selection of coordinates
            is made according to the corresponding   d i r e c t   coordinates!
            Don't support selection of single cartesian coordinates -- sorry ...
  !
 charge density and potential will be updated during run
 non-spin polarized calculation
 RMM-DIIS sequential band-by-band and
  variant of blocked Davidson during initial phase
 perform sub-space diagonalisation
    before iterative eigenvector-optimisation
 modified Broyden-mixing scheme, WC =      100.0
 initial mixing is a Kerker type mixing with AMIX =  0.4000 and BMIX =      1.0000
 Hartree-type preconditioning will be used
 using additional bands           54
 real space projection scheme for non local part
 use partial core corrections
 calculate Harris-corrections to forces 
   (improved forces if not selfconsistent)
 use gradient corrections 
 use of overlap-Matrix (Vanderbilt PP)
 Gauss-broadening in eV      SIGMA  =   0.10


--------------------------------------------------------------------------------------------------------


  energy-cutoff  :      400.00
  volume of cell :     2567.68
      direct lattice vectors                 reciprocal lattice vectors
    11.002581515  0.000000000  0.000000000     0.090887761 -0.052474073  0.000000000
     5.501290758  9.528515099  0.000000000     0.000000000  0.104948147  0.000000000
     0.000000000  0.000000000 24.491785094     0.000000000  0.000000000  0.040830017

  length of vectors
    11.002581515 11.002581515 24.491785094     0.104948147  0.104948147  0.040830017


 
 k-points in units of 2pi/SCALE and weight: Automatic mesh                          
   0.02272194  0.01311852  0.00000000       0.167
   0.00000000  0.02623704  0.00000000       0.167
  -0.02272194  0.01311852  0.00000000       0.167
  -0.02272194  0.03935555  0.00000000       0.167
   0.04544388 -0.05247407  0.00000000       0.167
  -0.02272194  0.06559259  0.00000000       0.167
 
 k-points in reciprocal lattice and weights: Automatic mesh                          
   0.25000000  0.25000000  0.00000000       0.167
   0.00000000  0.25000000  0.00000000       0.167
  -0.25000000  0.00000000  0.00000000       0.167
  -0.25000000  0.25000000  0.00000000       0.167
   0.50000000 -0.25000000  0.00000000       0.167
  -0.25000000  0.50000000  0.00000000       0.167
 
 position of ions in fractional coordinates (direct lattice) 
   0.25000000  0.75000000  0.59169983
   0.91666667  0.41666667  0.50000000
   0.33333333  0.08333333  0.40830017
   0.66666667  0.66666667  0.50000000
   0.00000000  0.00000000  0.59169983
   0.91666667  0.66666667  0.50000000
   0.00000000  0.50000000  0.59169983
   0.08333333  0.83333333  0.40830017
   0.91666667  0.16666667  0.50000000
   0.58333333  0.58333333  0.40830017
   0.83333333  0.33333333  0.40830017
   0.66666667  0.41666667  0.50000000
   0.75000000  0.50000000  0.59169983
   0.50000000  0.25000000  0.59169983
   0.16666667  0.41666667  0.50000000
   0.25000000  0.25000000  0.59169983
   0.75000000  0.00000000  0.59169983
   0.33333333  0.83333333  0.40830017
   0.58333333  0.83333333  0.40830017
   0.50000000  0.50000000  0.59169983
   0.41666667  0.66666667  0.50000000
   0.58333333  0.33333333  0.40830017
   0.41666667  0.41666667  0.50000000
   0.25000000  0.00000000  0.59169983
   0.16666667  0.66666667  0.50000000
   0.33333333  0.58333333  0.40830017
   0.33333333  0.33333333  0.40830017
   0.16666667  0.16666667  0.50000000
   0.08333333  0.33333333  0.40830017
   0.91666667  0.91666667  0.50000000
   0.08333333  0.58333333  0.40830017
   0.00000000  0.25000000  0.59169983
   0.25000000  0.50000000  0.59169983
   0.00000000  0.75000000  0.59169983
   0.16666667  0.91666667  0.50000000
   0.50000000  0.75000000  0.59169983
   0.58333333  0.08333333  0.40830017
   0.41666667  0.16666667  0.50000000
   0.08333333  0.08333333  0.40830017
   0.41666667  0.91666667  0.50000000
   0.83333333  0.58333333  0.40830017
   0.66666667  0.16666667  0.50000000
   0.83333333  0.08333333  0.40830017
   0.75000000  0.25000000  0.59169983
   0.83333333  0.83333333  0.40830017
   0.50000000  0.00000000  0.59169983
   0.66666667  0.91666667  0.50000000
   0.75000000  0.75000000  0.59169983
 
 position of ions in cartesian coordinates  (Angst):
   6.87661345  7.14638632 14.49178509
  12.37790420  3.97021462 12.24589255
   4.12596807  0.79404292 10.00000000
  11.00258152  6.35234340 12.24589255
   0.00000000  0.00000000 14.49178509
  13.75322689  6.35234340 12.24589255
   2.75064538  4.76425755 14.49178509
   5.50129076  7.94042925 10.00000000
  11.00258152  1.58808585 12.24589255
   9.62725883  5.55830047 10.00000000
  11.00258152  3.17617170 10.00000000
   9.62725883  3.97021462 12.24589255
  11.00258152  4.76425755 14.49178509
   6.87661345  2.38212877 14.49178509
   4.12596807  3.97021462 12.24589255
   4.12596807  2.38212877 14.49178509
   8.25193614  0.00000000 14.49178509
   8.25193614  7.94042925 10.00000000
  11.00258152  7.94042925 10.00000000
   8.25193614  4.76425755 14.49178509
   8.25193614  6.35234340 12.24589255
   8.25193614  3.17617170 10.00000000
   6.87661345  3.97021462 12.24589255
   2.75064538  0.00000000 14.49178509
   5.50129076  6.35234340 12.24589255
   6.87661345  5.55830047 10.00000000
   5.50129076  3.17617170 10.00000000
   2.75064538  1.58808585 12.24589255
   2.75064538  3.17617170 10.00000000
  15.12854958  8.73447217 12.24589255
   4.12596807  5.55830047 10.00000000
   1.37532269  2.38212877 14.49178509
   5.50129076  4.76425755 14.49178509
   4.12596807  7.14638632 14.49178509
   6.87661345  8.73447217 12.24589255
   9.62725883  7.14638632 14.49178509
   6.87661345  0.79404292 10.00000000
   5.50129076  1.58808585 12.24589255
   1.37532269  0.79404292 10.00000000
   9.62725883  8.73447217 12.24589255
  12.37790420  5.55830047 10.00000000
   8.25193614  1.58808585 12.24589255
   9.62725883  0.79404292 10.00000000
   9.62725883  2.38212877 14.49178509
  13.75322689  7.94042925 10.00000000
   5.50129076  0.00000000 14.49178509
  12.37790420  8.73447217 12.24589255
  12.37790420  7.14638632 14.49178509
 


--------------------------------------------------------------------------------------------------------


 k-point  1 :   0.2500 0.2500 0.0000  plane waves:   46635
 k-point  2 :   0.0000 0.2500 0.0000  plane waves:   46635
 k-point  3 :  -0.2500 0.0000 0.0000  plane waves:   46635
 k-point  4 :  -0.2500 0.2500 0.0000  plane waves:   46644
 k-point  5 :   0.5000-0.2500 0.0000  plane waves:   46644
 k-point  6 :  -0.2500 0.5000 0.0000  plane waves:   46644

 maximum and minimum number of plane-waves per node :      7818     7732

 maximum number of plane-waves:     46644
 maximum index in each direction: 
   IXMAX=   18   IYMAX=   18   IZMAX=   39
   IXMIN=  -18   IYMIN=  -18   IZMIN=  -39

 WARNING: aliasing errors must be expected set NGX to  74 to avoid them
 WARNING: aliasing errors must be expected set NGY to  74 to avoid them
 WARNING: aliasing errors must be expected set NGZ to 158 to avoid them
 aliasing errors are usually negligible using standard VASP settings
 and one can safely disregard these warnings

 real space projection operators:
  total allocation   :      12803.06 KBytes
  max/ min on nodes  :       2145.66       2127.94


 parallel 3D FFT for wavefunctions:
    minimum data exchange during FFTs selected (reduces bandwidth)
 parallel 3D FFT for charge:
    minimum data exchange during FFTs selected (reduces bandwidth)


 total amount of memory used by VASP on root node    84353. kBytes
========================================================================

   base      :      30000. kBytes
   nonlr-proj:       4285. kBytes
   fftplans  :       4447. kBytes
   grid      :       6721. kBytes
   one-center:        124. kBytes
   wavefun   :      38776. kBytes
 
     INWAV:  cpu time    0.0000: real time    0.0001
 Broyden mixing: mesh for mixing (old mesh)
   NGX = 35   NGY = 35   NGZ = 79
  (NGX  =108   NGY  =108   NGZ  =240)
  gives a total of  96775 points

 initial charge density was supplied:
 charge density of overlapping atoms calculated
 number of electron     504.0000000 magnetization 
 keeping initial charge density in first step


--------------------------------------------------------------------------------------------------------


 Maximum index for non-local projection operator          355
 Maximum index for augmentation-charges          437 (set IRDMAX)


--------------------------------------------------------------------------------------------------------


 First call to EWALD:  gamma=   0.129
 Maximum number of real-space cells 4x 4x 2
 Maximum number of reciprocal cells 2x 2x 5

 FEWALD executed in parallel
    FEWALD:  cpu time    0.0025: real time    0.0025


----------------------------------------- Iteration    1(   1)  ---------------------------------------


    POTLOK:  cpu time    0.0454: real time    0.0455
    SETDIJ:  cpu time    0.0057: real time    0.0057
     EDDAV:  cpu time    7.1027: real time    7.1255
       DOS:  cpu time    0.0013: real time    0.0013
    --------------------------------------------
      LOOP:  cpu time    7.1578: real time    7.1846

 eigenvalue-minimisations  :  3672
 total energy-change (2. order) : 0.3200091E+04  (-0.1897821E+05)
 number of electron     504.0000000 magnetization 
 augmentation part      504.0000000 magnetization 

 DIPCOR: dipole corrections for dipol
 direction  3 min pos     1,
 dipolmoment           0.000000      0.000000     -0.000001 electrons x Angstroem
 Tr[quadrupol]    -10347.938584

 energy correction for charged system         0.000000 eV
 dipol+quadrupol energy correction           -0.000000 eV
 added-field ion interaction          0.000000 eV  (added to PSCEN)


 Free energy of the ion-electron system (eV)
  ---------------------------------------------------
  alpha Z        PSCENC =       805.86936475
  Ewald energy   TEWEN  =    200167.42781109
  -Hartree energ DENC   =   -242581.78663693
  -exchange      EXHF   =         0.00000000
  -V(xc)+E(xc)   XCENC  =      -327.63006544
  PAW double counting   =     40340.05962942   -38292.62782345
  entropy T*S    EENTRO =        -0.11620566
  eigenvalues    EBANDS =      1429.10868641
  atomic energy  EATOM  =     41659.78587232
  Solvation  Ediel_sol  =         0.00000000
  ---------------------------------------------------
  free energy    TOTEN  =      3200.09063252 eV

  energy without entropy =     3200.20683818  energy(sigma->0) =     3200.14873535


--------------------------------------------------------------------------------------------------------




----------------------------------------- Iteration    1(   2)  ---------------------------------------


     EDDAV:  cpu time    8.4299: real time    8.5234
       DOS:  cpu time    0.0014: real time    0.0014
    --------------------------------------------
      LOOP:  cpu time    8.4320: real time    8.5276

 eigenvalue-minimisations  :  4380
 total energy-change (2. order) :-0.3184399E+04  (-0.2929958E+04)
 number of electron     504.0000000 magnetization 
 augmentation part      504.0000000 magnetization 

 DIPCOR: dipole corrections for dipol
 direction  3 min pos     1,
 dipolmoment           0.000000      0.000000     -0.000001 electrons x Angstroem
 Tr[quadrupol]    -10347.938584

 energy correction for charged system         0.000000 eV
 dipol+quadrupol energy correction           -0.000000 eV
 added-field ion interaction          0.000000 eV  (added to PSCEN)


 Free energy of the ion-electron system (eV)
  ---------------------------------------------------
  alpha Z        PSCENC =       805.86936475
  Ewald energy   TEWEN  =    200167.42781109
  -Hartree energ DENC   =   -242581.78663693
  -exchange      EXHF   =         0.00000000
  -V(xc)+E(xc)   XCENC  =      -327.63006544
  PAW double counting   =     40340.05962942   -38292.62782345
  entropy T*S    EENTRO =        -0.13963679
  eigenvalues    EBANDS =     -1755.26684484
  atomic energy  EATOM  =     41659.78587232
  Solvation  Ediel_sol  =         0.00000000
  ---------------------------------------------------
  free energy    TOTEN  =        15.69167014 eV

  energy without entropy =       15.83130692  energy(sigma->0) =       15.76148853


--------------------------------------------------------------------------------------------------------




----------------------------------------- Iteration    1(   3)  ---------------------------------------


     EDDAV:  cpu time    8.1578: real time    8.1796
       DOS:  cpu time    0.0014: real time    0.0014
    --------------------------------------------
      LOOP:  cpu time    8.1600: real time    8.1850

 eigenvalue-minimisations  :  4152
 total energy-change (2. order) :-0.2164292E+03  (-0.2010406E+03)
 number of electron     504.0000000 magnetization 
 augmentation part      504.0000000 magnetization 

 DIPCOR: dipole corrections for dipol
 direction  3 min pos     1,
 dipolmoment           0.000000      0.000000     -0.000001 electrons x Angstroem
 Tr[quadrupol]    -10347.938584

 energy correction for charged system         0.000000 eV
 dipol+quadrupol energy correction           -0.000000 eV
 added-field ion interaction          0.000000 eV  (added to PSCEN)


 Free energy of the ion-electron system (eV)
  ---------------------------------------------------
  alpha Z        PSCENC =       805.86936475
  Ewald energy   TEWEN  =    200167.42781109
  -Hartree energ DENC   =   -242581.78663693
  -exchange      EXHF   =         0.00000000
  -V(xc)+E(xc)   XCENC  =      -327.63006544
  PAW double counting   =     40340.05962942   -38292.62782345
  entropy T*S    EENTRO =        -0.19937710
  eigenvalues    EBANDS =     -1971.63629055
  atomic energy  EATOM  =     41659.78587232
  Solvation  Ediel_sol  =         0.00000000
  ---------------------------------------------------
  free energy    TOTEN  =      -200.73751588 eV

  energy without entropy =     -200.53813878  energy(sigma->0) =     -200.63782733


--------------------------------------------------------------------------------------------------------




----------------------------------------- Iteration    1(   4)  ---------------------------------------


     EDDAV:  cpu time    8.2732: real time    8.2980
       DOS:  cpu time    0.0014: real time    0.0014
    --------------------------------------------
      LOOP:  cpu time    8.2755: real time    8.3046

 eigenvalue-minimisations  :  4224
 total energy-change (2. order) :-0.5801987E+01  (-0.5734966E+01)
 number of electron     504.0000000 magnetization 
 augmentation part      504.0000000 magnetization 

 DIPCOR: dipole corrections for dipol
 direction  3 min pos     1,
 dipolmoment           0.000000      0.000000     -0.000001 electrons x Angstroem
 Tr[quadrupol]    -10347.938584

 energy correction for charged system         0.000000 eV
 dipol+quadrupol energy correction           -0.000000 eV
 added-field ion interaction          0.000000 eV  (added to PSCEN)


 Free energy of the ion-electron system (eV)
  ---------------------------------------------------
  alpha Z        PSCENC =       805.86936475
  Ewald energy   TEWEN  =    200167.42781109
  -Hartree energ DENC   =   -242581.78663693
  -exchange      EXHF   =         0.00000000
  -V(xc)+E(xc)   XCENC  =      -327.63006544
  PAW double counting   =     40340.05962942   -38292.62782345
  entropy T*S    EENTRO =        -0.20801080
  eigenvalues    EBANDS =     -1977.42964361
  atomic energy  EATOM  =     41659.78587232
  Solvation  Ediel_sol  =         0.00000000
  ---------------------------------------------------
  free energy    TOTEN  =      -206.53950264 eV

  energy without entropy =     -206.33149184  energy(sigma->0) =     -206.43549724


--------------------------------------------------------------------------------------------------------




----------------------------------------- Iteration    1(   5)  ---------------------------------------


     EDDAV:  cpu time    8.5588: real time    8.5919
       DOS:  cpu time    0.0014: real time    0.0014
    CHARGE:  cpu time    0.2182: real time    0.2187
    MIXING:  cpu time    0.0020: real time    0.0021
    --------------------------------------------
      LOOP:  cpu time    8.7811: real time    8.8179

 eigenvalue-minimisations  :  4428
 total energy-change (2. order) :-0.1897419E+00  (-0.1891943E+00)
 number of electron     503.9998405 magnetization 
 augmentation part      191.2878466 magnetization 

 DIPCOR: dipole corrections for dipol
 direction  3 min pos     1,
 dipolmoment           0.000000      0.000000     -0.000001 electrons x Angstroem
 Tr[quadrupol]    -10347.938584

 energy correction for charged system         0.000000 eV
 dipol+quadrupol energy correction           -0.000000 eV
 added-field ion interaction          0.000000 eV  (added to PSCEN)


 Broyden mixing:
  rms(total) = 0.62366E+01    rms(broyden)= 0.62366E+01
  rms(prec ) = 0.63683E+01
  weight for this iteration     100.00

 Free energy of the ion-electron system (eV)
  ---------------------------------------------------
  alpha Z        PSCENC =       805.86936475
  Ewald energy   TEWEN  =    200167.42781109
  -Hartree energ DENC   =   -242581.78663693
  -exchange      EXHF   =         0.00000000
  -V(xc)+E(xc)   XCENC  =      -327.63006544
  PAW double counting   =     40340.05962942   -38292.62782345
  entropy T*S    EENTRO =        -0.20816181
  eigenvalues    EBANDS =     -1977.61923451
  atomic energy  EATOM  =     41659.78587232
  Solvation  Ediel_sol  =         0.00000000
  ---------------------------------------------------
  free energy    TOTEN  =      -206.72924456 eV

  energy without entropy =     -206.52108274  energy(sigma->0) =     -206.62516365


--------------------------------------------------------------------------------------------------------




----------------------------------------- Iteration    1(   6)  ---------------------------------------


    POTLOK:  cpu time    0.0410: real time    0.0411
    SETDIJ:  cpu time    0.0045: real time    0.0052
    EDDIAG:  cpu time    1.2840: real time    1.2872
  RMM-DIIS:  cpu time    3.4391: real time    3.4482
    ORTHCH:  cpu time    0.3546: real time    0.3555
       DOS:  cpu time    0.0014: real time    0.0014
    CHARGE:  cpu time    0.2303: real time    0.2309
    MIXING:  cpu time    0.0019: real time    0.0020
    --------------------------------------------
      LOOP:  cpu time    5.3575: real time    5.3752

 eigenvalue-minimisations  :  3678
 total energy-change (2. order) : 0.4110173E+01  (-0.9648587E+01)
 number of electron     503.9998428 magnetization 
 augmentation part      191.3766450 magnetization 

 DIPCOR: dipole corrections for dipol
 direction  3 min pos     1,
 dipolmoment           0.000000      0.000000     -0.672231 electrons x Angstroem
 Tr[quadrupol]    -10349.317522

 energy correction for charged system         0.000000 eV
 dipol+quadrupol energy correction           -0.015924 eV
 added-field ion interaction          0.212799 eV  (added to PSCEN)


 Broyden mixing:
  rms(total) = 0.55841E+01    rms(broyden)= 0.55839E+01
  rms(prec ) = 0.58683E+01
  weight for this iteration     100.00

 eigenvalues of (default mixing * dielectric matrix)
  average eigenvalue GAMMA=   0.7047
  0.7047

 Free energy of the ion-electron system (eV)
  ---------------------------------------------------
  alpha Z        PSCENC =       806.06624007
  Ewald energy   TEWEN  =    200167.42781109
  -Hartree energ DENC   =   -242330.27704380
  -exchange      EXHF   =         0.00000000
  -V(xc)+E(xc)   XCENC  =      -340.18809905
  PAW double counting   =     43918.86872085   -41930.76916675
  entropy T*S    EENTRO =        -0.21431791
  eigenvalues    EBANDS =     -2153.31908878
  atomic energy  EATOM  =     41659.78587232
  Solvation  Ediel_sol  =         0.00000000
  ---------------------------------------------------
  free energy    TOTEN  =      -202.61907196 eV

  energy without entropy =     -202.40475405  energy(sigma->0) =     -202.51191301


--------------------------------------------------------------------------------------------------------




----------------------------------------- Iteration    1(   7)  ---------------------------------------


    POTLOK:  cpu time    0.0417: real time    0.0419
    SETDIJ:  cpu time    0.0049: real time    0.0052
    EDDIAG:  cpu time    1.2872: real time    1.2922
  RMM-DIIS:  cpu time    3.3405: real time    3.4317
    ORTHCH:  cpu time    0.3551: real time    0.3560
       DOS:  cpu time    0.0014: real time    0.0014
    CHARGE:  cpu time    0.2235: real time    0.2240
    MIXING:  cpu time    0.0020: real time    0.0020
    --------------------------------------------
      LOOP:  cpu time    5.2570: real time    5.3587

 eigenvalue-minimisations  :  3681
 total energy-change (2. order) :-0.9522565E+01  (-0.5731140E+01)
 number of electron     503.9998376 magnetization 
 augmentation part      195.0387120 magnetization 

 DIPCOR: dipole corrections for dipol
 direction  3 min pos     1,
 dipolmoment           0.000000      0.000000      1.223375 electrons x Angstroem
 Tr[quadrupol]    -10347.723874

 energy correction for charged system         0.000000 eV
 dipol+quadrupol energy correction           -0.052738 eV
 added-field ion interaction         -0.387268 eV  (added to PSCEN)


 Broyden mixing:
  rms(total) = 0.47700E+01    rms(broyden)= 0.47696E+01
  rms(prec ) = 0.55603E+01
  weight for this iteration     100.00

 eigenvalues of (default mixing * dielectric matrix)
  average eigenvalue GAMMA=   0.8717
  1.4070  0.3363

 Free energy of the ion-electron system (eV)
  ---------------------------------------------------
  alpha Z        PSCENC =       805.42935863
  Ewald energy   TEWEN  =    200167.42781109
  -Hartree energ DENC   =   -242176.09196669
  -exchange      EXHF   =         0.00000000
  -V(xc)+E(xc)   XCENC  =      -342.41577837
  PAW double counting   =     45255.87190779   -43292.52935796
  entropy T*S    EENTRO =        -0.21545150
  eigenvalues    EBANDS =     -2289.40403220
  atomic energy  EATOM  =     41659.78587232
  Solvation  Ediel_sol  =         0.00000000
  ---------------------------------------------------
  free energy    TOTEN  =      -212.14163688 eV

  energy without entropy =     -211.92618538  energy(sigma->0) =     -212.03391113


--------------------------------------------------------------------------------------------------------




----------------------------------------- Iteration    1(   8)  ---------------------------------------


    POTLOK:  cpu time    0.0408: real time    0.0414
    SETDIJ:  cpu time    0.0057: real time    0.0057
    EDDIAG:  cpu time    1.2786: real time    1.2825
  RMM-DIIS:  cpu time    3.4264: real time    3.4348
    ORTHCH:  cpu time    0.3522: real time    0.3531
       DOS:  cpu time    0.0014: real time    0.0014
    CHARGE:  cpu time    0.2231: real time    0.2237
    MIXING:  cpu time    0.0020: real time    0.0020
    --------------------------------------------
      LOOP:  cpu time    5.3308: real time    5.3486

 eigenvalue-minimisations  :  3678
 total energy-change (2. order) :-0.1345714E+02  (-0.9382802E+01)
 number of electron     503.9998354 magnetization 
 augmentation part      196.0347415 magnetization 

 DIPCOR: dipole corrections for dipol
 direction  3 min pos     1,
 dipolmoment           0.000000      0.000000     -1.929904 electrons x Angstroem
 Tr[quadrupol]    -10349.233812

 energy correction for charged system         0.000000 eV
 dipol+quadrupol energy correction           -0.131242 eV
 added-field ion interaction          0.610925 eV  (added to PSCEN)


 Broyden mixing:
  rms(total) = 0.46873E+01    rms(broyden)= 0.46869E+01
  rms(prec ) = 0.57294E+01
  weight for this iteration     100.00

 eigenvalues of (default mixing * dielectric matrix)
  average eigenvalue GAMMA=   0.8910
  2.0138  0.4240  0.2353

 Free energy of the ion-electron system (eV)
  ---------------------------------------------------
  alpha Z        PSCENC =       806.34904642
  Ewald energy   TEWEN  =    200167.42781109
  -Hartree energ DENC   =   -242145.64278326
  -exchange      EXHF   =         0.00000000
  -V(xc)+E(xc)   XCENC  =      -344.72776670
  PAW double counting   =     46916.10300101   -44979.88405894
  entropy T*S    EENTRO =        -0.27236162
  eigenvalues    EBANDS =     -2304.73753666
  atomic energy  EATOM  =     41659.78587232
  Solvation  Ediel_sol  =         0.00000000
  ---------------------------------------------------
  free energy    TOTEN  =      -225.59877634 eV

  energy without entropy =     -225.32641472  energy(sigma->0) =     -225.46259553


--------------------------------------------------------------------------------------------------------




----------------------------------------- Iteration    1(   9)  ---------------------------------------


    POTLOK:  cpu time    0.0405: real time    0.0407
    SETDIJ:  cpu time    0.0052: real time    0.0052
    EDDIAG:  cpu time    1.2800: real time    1.2900
  RMM-DIIS:  cpu time    3.4189: real time    3.4611
    ORTHCH:  cpu time    0.3526: real time    0.3535
       DOS:  cpu time    0.0013: real time    0.0013
    CHARGE:  cpu time    0.2249: real time    0.2255
    MIXING:  cpu time    0.0021: real time    0.0021
    --------------------------------------------
      LOOP:  cpu time    5.3261: real time    5.3822

 eigenvalue-minimisations  :  3679
 total energy-change (2. order) : 0.1038262E+02  (-0.6197992E+01)
 number of electron     503.9998336 magnetization 
 augmentation part      198.5281882 magnetization 

 DIPCOR: dipole corrections for dipol
 direction  3 min pos     1,
 dipolmoment           0.000000      0.000000      0.400405 electrons x Angstroem
 Tr[quadrupol]    -10350.672970

 energy correction for charged system         0.000000 eV
 dipol+quadrupol energy correction           -0.005649 eV
 added-field ion interaction         -0.126751 eV  (added to PSCEN)


 Broyden mixing:
  rms(total) = 0.38858E+01    rms(broyden)= 0.38855E+01
  rms(prec ) = 0.42621E+01
  weight for this iteration     100.00

 eigenvalues of (default mixing * dielectric matrix)
  average eigenvalue GAMMA=   0.8121
  2.2591  0.4521  0.2687  0.2687

 Free energy of the ion-electron system (eV)
  ---------------------------------------------------
  alpha Z        PSCENC =       805.73696392
  Ewald energy   TEWEN  =    200167.42781109
  -Hartree energ DENC   =   -242150.13920574
  -exchange      EXHF   =         0.00000000
  -V(xc)+E(xc)   XCENC  =      -346.61057135
  PAW double counting   =     48380.96052087   -46467.89421459
  entropy T*S    EENTRO =        -0.21653661
  eigenvalues    EBANDS =     -2264.26679507
  atomic energy  EATOM  =     41659.78587232
  Solvation  Ediel_sol  =         0.00000000
  ---------------------------------------------------
  free energy    TOTEN  =      -215.21615517 eV

  energy without entropy =     -214.99961856  energy(sigma->0) =     -215.10788687


--------------------------------------------------------------------------------------------------------




----------------------------------------- Iteration    1(  10)  ---------------------------------------


    POTLOK:  cpu time    0.0407: real time    0.0409
    SETDIJ:  cpu time    0.0047: real time    0.0052
    EDDIAG:  cpu time    1.2791: real time    1.2837
  RMM-DIIS:  cpu time    3.4377: real time    3.4462
    ORTHCH:  cpu time    0.3524: real time    0.3532
       DOS:  cpu time    0.0014: real time    0.0014
    CHARGE:  cpu time    0.2268: real time    0.2274
    MIXING:  cpu time    0.0021: real time    0.0021
    --------------------------------------------
      LOOP:  cpu time    5.3456: real time    5.3627

 eigenvalue-minimisations  :  3681
 total energy-change (2. order) : 0.1639059E+02  (-0.1885130E+01)
 number of electron     503.9998332 magnetization 
 augmentation part      199.3903770 magnetization 

 DIPCOR: dipole corrections for dipol
 direction  3 min pos     1,
 dipolmoment           0.000000      0.000000     -0.361176 electrons x Angstroem
 Tr[quadrupol]    -10349.190137

 energy correction for charged system         0.000000 eV
 dipol+quadrupol energy correction           -0.004597 eV
 added-field ion interaction          0.114333 eV  (added to PSCEN)


 Broyden mixing:
  rms(total) = 0.22896E+01    rms(broyden)= 0.22894E+01
  rms(prec ) = 0.26334E+01
  weight for this iteration     100.00

 eigenvalues of (default mixing * dielectric matrix)
  average eigenvalue GAMMA=   0.7495
  2.3070  0.4279  0.4279  0.3563  0.2285

 Free energy of the ion-electron system (eV)
  ---------------------------------------------------
  alpha Z        PSCENC =       805.97910036
  Ewald energy   TEWEN  =    200167.42781109
  -Hartree energ DENC   =   -242110.23945091
  -exchange      EXHF   =         0.00000000
  -V(xc)+E(xc)   XCENC  =      -346.48013251
  PAW double counting   =     49081.75586779   -47176.43670680
  entropy T*S    EENTRO =        -0.16037572
  eigenvalues    EBANDS =     -2280.45754683
  atomic energy  EATOM  =     41659.78587232
  Solvation  Ediel_sol  =         0.00000000
  ---------------------------------------------------
  free energy    TOTEN  =      -198.82556122 eV

  energy without entropy =     -198.66518550  energy(sigma->0) =     -198.74537336


--------------------------------------------------------------------------------------------------------




----------------------------------------- Iteration    1(  11)  ---------------------------------------


    POTLOK:  cpu time    0.0402: real time    0.0403
    SETDIJ:  cpu time    0.0051: real time    0.0051
    EDDIAG:  cpu time    1.2769: real time    1.2800
  RMM-DIIS:  cpu time    3.3986: real time    3.4070
    ORTHCH:  cpu time    0.3525: real time    0.3534
       DOS:  cpu time    0.0014: real time    0.0014
    CHARGE:  cpu time    0.2215: real time    0.2220
    MIXING:  cpu time    0.0022: real time    0.0023
    --------------------------------------------
      LOOP:  cpu time    5.2992: real time    5.3138

 eigenvalue-minimisations  :  3679
 total energy-change (2. order) : 0.5806205E+01  (-0.1428343E+01)
 number of electron     503.9998340 magnetization 
 augmentation part      199.0219482 magnetization 

 DIPCOR: dipole corrections for dipol
 direction  3 min pos     1,
 dipolmoment           0.000000      0.000000     -0.055997 electrons x Angstroem
 Tr[quadrupol]    -10350.299235

 energy correction for charged system         0.000000 eV
 dipol+quadrupol energy correction           -0.000110 eV
 added-field ion interaction          0.017726 eV  (added to PSCEN)


 Broyden mixing:
  rms(total) = 0.14660E+01    rms(broyden)= 0.14657E+01
  rms(prec ) = 0.16560E+01
  weight for this iteration     100.00

 eigenvalues of (default mixing * dielectric matrix)
  average eigenvalue GAMMA=   0.7076
  2.2108  0.5937  0.5937  0.3312  0.2943  0.2221

 Free energy of the ion-electron system (eV)
  ---------------------------------------------------
  alpha Z        PSCENC =       805.88698004
  Ewald energy   TEWEN  =    200167.42781109
  -Hartree energ DENC   =   -242171.48283974
  -exchange      EXHF   =         0.00000000
  -V(xc)+E(xc)   XCENC  =      -346.02180462
  PAW double counting   =     49240.00937793   -47333.09394295
  entropy T*S    EENTRO =        -0.19287322
  eigenvalues    EBANDS =     -2215.33793669
  atomic energy  EATOM  =     41659.78587232
  Solvation  Ediel_sol  =         0.00000000
  ---------------------------------------------------
  free energy    TOTEN  =      -193.01935585 eV

  energy without entropy =     -192.82648263  energy(sigma->0) =     -192.92291924


--------------------------------------------------------------------------------------------------------




----------------------------------------- Iteration    1(  12)  ---------------------------------------


    POTLOK:  cpu time    0.0406: real time    0.0407
    SETDIJ:  cpu time    0.0051: real time    0.0051
    EDDIAG:  cpu time    1.2788: real time    1.2819
  RMM-DIIS:  cpu time    3.4346: real time    3.4434
    ORTHCH:  cpu time    0.3517: real time    0.3533
       DOS:  cpu time    0.0015: real time    0.0015
    CHARGE:  cpu time    0.2212: real time    0.2217
    MIXING:  cpu time    0.0025: real time    0.0025
    --------------------------------------------
      LOOP:  cpu time    5.3366: real time    5.3535

 eigenvalue-minimisations  :  3680
 total energy-change (2. order) : 0.3212678E+01  (-0.6823377E+00)
 number of electron     503.9998358 magnetization 
 augmentation part      197.7542725 magnetization 

 DIPCOR: dipole corrections for dipol
 direction  3 min pos     1,
 dipolmoment           0.000000      0.000000     -0.096426 electrons x Angstroem
 Tr[quadrupol]    -10350.204405

 energy correction for charged system         0.000000 eV
 dipol+quadrupol energy correction           -0.000328 eV
 added-field ion interaction          0.030524 eV  (added to PSCEN)


 Broyden mixing:
  rms(total) = 0.10153E+01    rms(broyden)= 0.10151E+01
  rms(prec ) = 0.11126E+01
  weight for this iteration     100.00

 eigenvalues of (default mixing * dielectric matrix)
  average eigenvalue GAMMA=   0.6637
  2.2429  0.5205  0.5205  0.5206  0.3128  0.3128  0.2156

 Free energy of the ion-electron system (eV)
  ---------------------------------------------------
  alpha Z        PSCENC =       805.89956090
  Ewald energy   TEWEN  =    200167.42781109
  -Hartree energ DENC   =   -242210.51794067
  -exchange      EXHF   =         0.00000000
  -V(xc)+E(xc)   XCENC  =      -344.85080983
  PAW double counting   =     49231.27512977   -47318.46404438
  entropy T*S    EENTRO =        -0.21419280
  eigenvalues    EBANDS =     -2180.14806426
  atomic energy  EATOM  =     41659.78587232
  Solvation  Ediel_sol  =         0.00000000
  ---------------------------------------------------
  free energy    TOTEN  =      -189.80667786 eV

  energy without entropy =     -189.59248506  energy(sigma->0) =     -189.69958146


--------------------------------------------------------------------------------------------------------




----------------------------------------- Iteration    1(  13)  ---------------------------------------


    POTLOK:  cpu time    0.0407: real time    0.0408
    SETDIJ:  cpu time    0.0054: real time    0.0060
    EDDIAG:  cpu time    1.2765: real time    1.2909
  RMM-DIIS:  cpu time    3.4189: real time    3.4288
    ORTHCH:  cpu time    0.3524: real time    0.3538
       DOS:  cpu time    0.0022: real time    0.0022
    CHARGE:  cpu time    0.2289: real time    0.2294
    MIXING:  cpu time    0.0027: real time    0.0027
    --------------------------------------------
      LOOP:  cpu time    5.3284: real time    5.3581

 eigenvalue-minimisations  :  3680
 total energy-change (2. order) : 0.6632687E+00  (-0.1829475E+00)
 number of electron     503.9998358 magnetization 
 augmentation part      197.5460945 magnetization 

 DIPCOR: dipole corrections for dipol
 direction  3 min pos     1,
 dipolmoment           0.000000      0.000000     -0.066518 electrons x Angstroem
 Tr[quadrupol]    -10350.628332

 energy correction for charged system         0.000000 eV
 dipol+quadrupol energy correction           -0.000156 eV
 added-field ion interaction          0.021057 eV  (added to PSCEN)


 Broyden mixing:
  rms(total) = 0.69095E+00    rms(broyden)= 0.69081E+00
  rms(prec ) = 0.76805E+00
  weight for this iteration     100.00

 eigenvalues of (default mixing * dielectric matrix)
  average eigenvalue GAMMA=   0.6866
  2.2573  0.7058  0.7058  0.7298  0.3127  0.3127  0.2524  0.2164

 Free energy of the ion-electron system (eV)
  ---------------------------------------------------
  alpha Z        PSCENC =       805.89026505
  Ewald energy   TEWEN  =    200167.42781109
  -Hartree energ DENC   =   -242230.36170306
  -exchange      EXHF   =         0.00000000
  -V(xc)+E(xc)   XCENC  =      -344.65386301
  PAW double counting   =     49285.40415339   -47371.68574908
  entropy T*S    EENTRO =        -0.22827258
  eigenvalues    EBANDS =     -2160.72192330
  atomic energy  EATOM  =     41659.78587232
  Solvation  Ediel_sol  =         0.00000000
  ---------------------------------------------------
  free energy    TOTEN  =      -189.14340919 eV

  energy without entropy =     -188.91513660  energy(sigma->0) =     -189.02927289


--------------------------------------------------------------------------------------------------------




----------------------------------------- Iteration    1(  14)  ---------------------------------------


    POTLOK:  cpu time    0.0409: real time    0.0412
    SETDIJ:  cpu time    0.0056: real time    0.0056
    EDDIAG:  cpu time    1.2838: real time    1.2885
  RMM-DIIS:  cpu time    3.4698: real time    3.4924
    ORTHCH:  cpu time    0.3501: real time    0.3509
       DOS:  cpu time    0.0014: real time    0.0014
    CHARGE:  cpu time    0.2289: real time    0.2294
    MIXING:  cpu time    0.0028: real time    0.0028
    --------------------------------------------
      LOOP:  cpu time    5.3839: real time    5.4149

 eigenvalue-minimisations  :  3678
 total energy-change (2. order) :-0.1009096E+00  (-0.1024258E+00)
 number of electron     503.9998359 magnetization 
 augmentation part      197.4503149 magnetization 

 DIPCOR: dipole corrections for dipol
 direction  3 min pos     1,
 dipolmoment           0.000000      0.000000     -0.047278 electrons x Angstroem
 Tr[quadrupol]    -10350.918045

 energy correction for charged system         0.000000 eV
 dipol+quadrupol energy correction           -0.000079 eV
 added-field ion interaction          0.014966 eV  (added to PSCEN)


 Broyden mixing:
  rms(total) = 0.64670E+00    rms(broyden)= 0.64657E+00
  rms(prec ) = 0.71319E+00
  weight for this iteration     100.00

 eigenvalues of (default mixing * dielectric matrix)
  average eigenvalue GAMMA=   0.6954
  2.2159  0.8875  0.8875  0.7677  0.3872  0.3872  0.2582  0.2582  0.2094

 Free energy of the ion-electron system (eV)
  ---------------------------------------------------
  alpha Z        PSCENC =       805.88425155
  Ewald energy   TEWEN  =    200167.42781109
  -Hartree energ DENC   =   -242245.94452026
  -exchange      EXHF   =         0.00000000
  -V(xc)+E(xc)   XCENC  =      -344.42464875
  PAW double counting   =     49322.69651849   -47407.63398547
  entropy T*S    EENTRO =        -0.20527869
  eigenvalues    EBANDS =     -2146.83033908
  atomic energy  EATOM  =     41659.78587232
  Solvation  Ediel_sol  =         0.00000000
  ---------------------------------------------------
  free energy    TOTEN  =      -189.24431880 eV

  energy without entropy =     -189.03904011  energy(sigma->0) =     -189.14167946


--------------------------------------------------------------------------------------------------------




----------------------------------------- Iteration    1(  15)  ---------------------------------------


    POTLOK:  cpu time    0.0402: real time    0.0403
    SETDIJ:  cpu time    0.0052: real time    0.0052
    EDDIAG:  cpu time    1.2669: real time    1.3447
  RMM-DIIS:  cpu time    3.4379: real time    3.4463
    ORTHCH:  cpu time    0.3485: real time    0.3493
       DOS:  cpu time    0.0014: real time    0.0014
    CHARGE:  cpu time    0.2221: real time    0.2240
    MIXING:  cpu time    0.0029: real time    0.0029
    --------------------------------------------
      LOOP:  cpu time    5.3259: real time    5.4186

 eigenvalue-minimisations  :  3679
 total energy-change (2. order) : 0.6366117E-01  (-0.2922420E-01)
 number of electron     503.9998359 magnetization 
 augmentation part      197.4000996 magnetization 

 DIPCOR: dipole corrections for dipol
 direction  3 min pos     1,
 dipolmoment           0.000000      0.000000     -0.026041 electrons x Angstroem
 Tr[quadrupol]    -10351.114654

 energy correction for charged system         0.000000 eV
 dipol+quadrupol energy correction           -0.000024 eV
 added-field ion interaction          0.008243 eV  (added to PSCEN)


 Broyden mixing:
  rms(total) = 0.59830E+00    rms(broyden)= 0.59824E+00
  rms(prec ) = 0.67701E+00
  weight for this iteration     100.00

 eigenvalues of (default mixing * dielectric matrix)
  average eigenvalue GAMMA=   0.6873
  2.1824  1.0578  1.0578  0.7356  0.4314  0.4314  0.2671  0.2671  0.2177  0.2250

 Free energy of the ion-electron system (eV)
  ---------------------------------------------------
  alpha Z        PSCENC =       805.87758387
  Ewald energy   TEWEN  =    200167.42781109
  -Hartree energ DENC   =   -242257.76742896
  -exchange      EXHF   =         0.00000000
  -V(xc)+E(xc)   XCENC  =      -344.21747253
  PAW double counting   =     49315.38217384   -47398.73169370
  entropy T*S    EENTRO =        -0.22379248
  eigenvalues    EBANDS =     -2136.71371109
  atomic energy  EATOM  =     41659.78587232
  Solvation  Ediel_sol  =         0.00000000
  ---------------------------------------------------
  free energy    TOTEN  =      -189.18065764 eV

  energy without entropy =     -188.95686515  energy(sigma->0) =     -189.06876140


--------------------------------------------------------------------------------------------------------




----------------------------------------- Iteration    1(  16)  ---------------------------------------


    POTLOK:  cpu time    0.0404: real time    0.0413
    SETDIJ:  cpu time    0.0051: real time    0.0051
    EDDIAG:  cpu time    1.2785: real time    1.2824
  RMM-DIIS:  cpu time    3.4601: real time    3.4687
    ORTHCH:  cpu time    0.3468: real time    0.3494
       DOS:  cpu time    0.0014: real time    0.0014
    CHARGE:  cpu time    0.2210: real time    0.2215
    MIXING:  cpu time    0.0029: real time    0.0029
    --------------------------------------------
      LOOP:  cpu time    5.3569: real time    5.3763

 eigenvalue-minimisations  :  3679
 total energy-change (2. order) : 0.2131443E+00  (-0.2328057E-01)
 number of electron     503.9998360 magnetization 
 augmentation part      197.3726181 magnetization 

 DIPCOR: dipole corrections for dipol
 direction  3 min pos     1,
 dipolmoment           0.000000      0.000000     -0.009773 electrons x Angstroem
 Tr[quadrupol]    -10351.338951

 energy correction for charged system         0.000000 eV
 dipol+quadrupol energy correction           -0.000003 eV
 added-field ion interaction          0.003094 eV  (added to PSCEN)


 Broyden mixing:
  rms(total) = 0.42764E+00    rms(broyden)= 0.42757E+00
  rms(prec ) = 0.47953E+00
  weight for this iteration     100.00

 eigenvalues of (default mixing * dielectric matrix)
  average eigenvalue GAMMA=   0.7140
  2.1429  1.3700  1.3700  0.6042  0.5291  0.5291  0.3230  0.3230  0.2478  0.2155
  0.1992

 Free energy of the ion-electron system (eV)
  ---------------------------------------------------
  alpha Z        PSCENC =       805.87245452
  Ewald energy   TEWEN  =    200167.42781109
  -Hartree energ DENC   =   -242269.49389548
  -exchange      EXHF   =         0.00000000
  -V(xc)+E(xc)   XCENC  =      -344.05927974
  PAW double counting   =     49316.18937045   -47398.27270673
  entropy T*S    EENTRO =        -0.21345210
  eigenvalues    EBANDS =     -2126.20368761
  atomic energy  EATOM  =     41659.78587232
  Solvation  Ediel_sol  =         0.00000000
  ---------------------------------------------------
  free energy    TOTEN  =      -188.96751329 eV

  energy without entropy =     -188.75406119  energy(sigma->0) =     -188.86078724


--------------------------------------------------------------------------------------------------------




----------------------------------------- Iteration    1(  17)  ---------------------------------------


    POTLOK:  cpu time    0.0401: real time    0.0402
    SETDIJ:  cpu time    0.0050: real time    0.0050
    EDDIAG:  cpu time    1.2772: real time    1.2802
  RMM-DIIS:  cpu time    3.4759: real time    3.4863
    ORTHCH:  cpu time    0.3482: real time    0.3490
       DOS:  cpu time    0.0014: real time    0.0014
    CHARGE:  cpu time    0.2239: real time    0.2245
    MIXING:  cpu time    0.0029: real time    0.0030
    --------------------------------------------
      LOOP:  cpu time    5.3754: real time    5.3923

 eigenvalue-minimisations  :  3678
 total energy-change (2. order) : 0.1360647E+00  (-0.1793447E-01)
 number of electron     503.9998361 magnetization 
 augmentation part      197.2816972 magnetization 

 DIPCOR: dipole corrections for dipol
 direction  3 min pos     1,
 dipolmoment           0.000000      0.000000     -0.039264 electrons x Angstroem
 Tr[quadrupol]    -10351.650330

 energy correction for charged system         0.000000 eV
 dipol+quadrupol energy correction           -0.000054 eV
 added-field ion interaction          0.012429 eV  (added to PSCEN)


 Broyden mixing:
  rms(total) = 0.27232E+00    rms(broyden)= 0.27226E+00
  rms(prec ) = 0.31286E+00
  weight for this iteration     100.00

 eigenvalues of (default mixing * dielectric matrix)
  average eigenvalue GAMMA=   0.7224
  2.1075  1.5903  1.5903  0.5957  0.5957  0.5370  0.3614  0.3614  0.2635  0.2635
  0.2103  0.1917

 Free energy of the ion-electron system (eV)
  ---------------------------------------------------
  alpha Z        PSCENC =       805.88173925
  Ewald energy   TEWEN  =    200167.42781109
  -Hartree energ DENC   =   -242286.34774347
  -exchange      EXHF   =         0.00000000
  -V(xc)+E(xc)   XCENC  =      -343.84030089
  PAW double counting   =     49328.32183019   -47408.75021143
  entropy T*S    EENTRO =        -0.23302538
  eigenvalues    EBANDS =     -2111.07742028
  atomic energy  EATOM  =     41659.78587232
  Solvation  Ediel_sol  =         0.00000000
  ---------------------------------------------------
  free energy    TOTEN  =      -188.83144861 eV

  energy without entropy =     -188.59842323  energy(sigma->0) =     -188.71493592


--------------------------------------------------------------------------------------------------------




----------------------------------------- Iteration    1(  18)  ---------------------------------------


    POTLOK:  cpu time    0.0403: real time    0.0404
    SETDIJ:  cpu time    0.0052: real time    0.0052
    EDDIAG:  cpu time    1.2773: real time    1.2805
  RMM-DIIS:  cpu time    3.4219: real time    3.4306
    ORTHCH:  cpu time    0.3502: real time    0.3513
       DOS:  cpu time    0.0014: real time    0.0015
    CHARGE:  cpu time    0.2256: real time    0.2263
    MIXING:  cpu time    0.0031: real time    0.0031
    --------------------------------------------
      LOOP:  cpu time    5.3257: real time    5.3415

 eigenvalue-minimisations  :  3681
 total energy-change (2. order) : 0.7484592E-01  (-0.9023235E-02)
 number of electron     503.9998363 magnetization 
 augmentation part      197.1834499 magnetization 

 DIPCOR: dipole corrections for dipol
 direction  3 min pos     1,
 dipolmoment           0.000000      0.000000     -0.052452 electrons x Angstroem
 Tr[quadrupol]    -10351.926178

 energy correction for charged system         0.000000 eV
 dipol+quadrupol energy correction           -0.000097 eV
 added-field ion interaction          0.016604 eV  (added to PSCEN)


 Broyden mixing:
  rms(total) = 0.16825E+00    rms(broyden)= 0.16820E+00
  rms(prec ) = 0.19810E+00
  weight for this iteration     100.00

 eigenvalues of (default mixing * dielectric matrix)
  average eigenvalue GAMMA=   0.7082
  2.0532  1.7081  1.6339  0.6317  0.6317  0.5493  0.4083  0.4083  0.2747  0.2747
  0.2254  0.2180  0.1889

 Free energy of the ion-electron system (eV)
  ---------------------------------------------------
  alpha Z        PSCENC =       805.88587135
  Ewald energy   TEWEN  =    200167.42781109
  -Hartree energ DENC   =   -242300.46737272
  -exchange      EXHF   =         0.00000000
  -V(xc)+E(xc)   XCENC  =      -343.67604055
  PAW double counting   =     49344.65390556   -47423.93501311
  entropy T*S    EENTRO =        -0.22890528
  eigenvalues    EBANDS =     -2098.20273135
  atomic energy  EATOM  =     41659.78587232
  Solvation  Ediel_sol  =         0.00000000
  ---------------------------------------------------
  free energy    TOTEN  =      -188.75660269 eV

  energy without entropy =     -188.52769741  energy(sigma->0) =     -188.64215005


--------------------------------------------------------------------------------------------------------




----------------------------------------- Iteration    1(  19)  ---------------------------------------


    POTLOK:  cpu time    0.0408: real time    0.0410
    SETDIJ:  cpu time    0.0052: real time    0.0052
    EDDIAG:  cpu time    1.2782: real time    1.2815
  RMM-DIIS:  cpu time    3.3781: real time    3.3879
    ORTHCH:  cpu time    0.3487: real time    0.3495
       DOS:  cpu time    0.0014: real time    0.0014
    CHARGE:  cpu time    0.2215: real time    0.2221
    MIXING:  cpu time    0.0033: real time    0.0033
    --------------------------------------------
      LOOP:  cpu time    5.2779: real time    5.2945

 eigenvalue-minimisations  :  3679
 total energy-change (2. order) : 0.2994967E-01  (-0.2838908E-02)
 number of electron     503.9998363 magnetization 
 augmentation part      197.1442755 magnetization 

 DIPCOR: dipole corrections for dipol
 direction  3 min pos     1,
 dipolmoment           0.000000      0.000000     -0.035344 electrons x Angstroem
 Tr[quadrupol]    -10352.051077

 energy correction for charged system         0.000000 eV
 dipol+quadrupol energy correction           -0.000044 eV
 added-field ion interaction          0.011188 eV  (added to PSCEN)


 Broyden mixing:
  rms(total) = 0.94780E-01    rms(broyden)= 0.94754E-01
  rms(prec ) = 0.10845E+00
  weight for this iteration     100.00

 eigenvalues of (default mixing * dielectric matrix)
  average eigenvalue GAMMA=   0.7051
  2.1852  1.6752  1.6752  0.6849  0.6849  0.5323  0.4643  0.4643  0.3065  0.3065
  0.2518  0.2401  0.2125  0.1879

 Free energy of the ion-electron system (eV)
  ---------------------------------------------------
  alpha Z        PSCENC =       805.88050853
  Ewald energy   TEWEN  =    200167.42781109
  -Hartree energ DENC   =   -242306.83459026
  -exchange      EXHF   =         0.00000000
  -V(xc)+E(xc)   XCENC  =      -343.59864330
  PAW double counting   =     49353.25759172   -47432.07024762
  entropy T*S    EENTRO =        -0.23612734
  eigenvalues    EBANDS =     -2092.33882815
  atomic energy  EATOM  =     41659.78587232
  Solvation  Ediel_sol  =         0.00000000
  ---------------------------------------------------
  free energy    TOTEN  =      -188.72665302 eV

  energy without entropy =     -188.49052568  energy(sigma->0) =     -188.60858935


--------------------------------------------------------------------------------------------------------




----------------------------------------- Iteration    1(  20)  ---------------------------------------


    POTLOK:  cpu time    0.0407: real time    0.0408
    SETDIJ:  cpu time    0.0052: real time    0.0052
    EDDIAG:  cpu time    1.2758: real time    1.2790
  RMM-DIIS:  cpu time    3.3464: real time    3.3942
    ORTHCH:  cpu time    0.3501: real time    0.3510
       DOS:  cpu time    0.0015: real time    0.0015
    CHARGE:  cpu time    0.2202: real time    0.2207
    MIXING:  cpu time    0.0036: real time    0.0036
    --------------------------------------------
      LOOP:  cpu time    5.2441: real time    5.2983

 eigenvalue-minimisations  :  3681
 total energy-change (2. order) : 0.8219803E-02  (-0.8382041E-03)
 number of electron     503.9998363 magnetization 
 augmentation part      197.1235707 magnetization 

 DIPCOR: dipole corrections for dipol
 direction  3 min pos     1,
 dipolmoment           0.000000      0.000000     -0.021740 electrons x Angstroem
 Tr[quadrupol]    -10352.155794

 energy correction for charged system         0.000000 eV
 dipol+quadrupol energy correction           -0.000017 eV
 added-field ion interaction          0.006882 eV  (added to PSCEN)


 Broyden mixing:
  rms(total) = 0.63936E-01    rms(broyden)= 0.63926E-01
  rms(prec ) = 0.70822E-01
  weight for this iteration     100.00

 eigenvalues of (default mixing * dielectric matrix)
  average eigenvalue GAMMA=   0.7098
  2.2517  1.6757  1.6757  0.7944  0.7944  0.5374  0.5374  0.5066  0.3768  0.3336
  0.2711  0.2711  0.2137  0.2206  0.1872

 Free energy of the ion-electron system (eV)
  ---------------------------------------------------
  alpha Z        PSCENC =       805.87622966
  Ewald energy   TEWEN  =    200167.42781109
  -Hartree energ DENC   =   -242311.33629218
  -exchange      EXHF   =         0.00000000
  -V(xc)+E(xc)   XCENC  =      -343.56606586
  PAW double counting   =     49360.13943870   -47438.78168990
  entropy T*S    EENTRO =        -0.23564658
  eigenvalues    EBANDS =     -2088.02809046
  atomic energy  EATOM  =     41659.78587232
  Solvation  Ediel_sol  =         0.00000000
  ---------------------------------------------------
  free energy    TOTEN  =      -188.71843322 eV

  energy without entropy =     -188.48278664  energy(sigma->0) =     -188.60060993


--------------------------------------------------------------------------------------------------------




----------------------------------------- Iteration    1(  21)  ---------------------------------------


    POTLOK:  cpu time    0.0403: real time    0.0404
    SETDIJ:  cpu time    0.0050: real time    0.0050
    EDDIAG:  cpu time    1.2781: real time    1.2814
  RMM-DIIS:  cpu time    3.4493: real time    3.4596
    ORTHCH:  cpu time    0.3488: real time    0.3497
       DOS:  cpu time    0.0015: real time    0.0015
    CHARGE:  cpu time    0.2239: real time    0.2246
    MIXING:  cpu time    0.0036: real time    0.0036
    --------------------------------------------
      LOOP:  cpu time    5.3511: real time    5.3714

 eigenvalue-minimisations  :  3681
 total energy-change (2. order) : 0.2199955E-02  (-0.2713827E-03)
 number of electron     503.9998363 magnetization 
 augmentation part      197.1063227 magnetization 

 DIPCOR: dipole corrections for dipol
 direction  3 min pos     1,
 dipolmoment           0.000000      0.000000     -0.017197 electrons x Angstroem
 Tr[quadrupol]    -10352.250692

 energy correction for charged system         0.000000 eV
 dipol+quadrupol energy correction           -0.000010 eV
 added-field ion interaction          0.005444 eV  (added to PSCEN)


 Broyden mixing:
  rms(total) = 0.51791E-01    rms(broyden)= 0.51788E-01
  rms(prec ) = 0.57937E-01
  weight for this iteration     100.00

 eigenvalues of (default mixing * dielectric matrix)
  average eigenvalue GAMMA=   0.7264
  2.3230  1.7307  1.7307  0.9367  0.9367  0.5980  0.5980  0.5375  0.3933  0.3933
  0.2813  0.2813  0.2563  0.2131  0.2257  0.1872

 Free energy of the ion-electron system (eV)
  ---------------------------------------------------
  alpha Z        PSCENC =       805.87479779
  Ewald energy   TEWEN  =    200167.42781109
  -Hartree energ DENC   =   -242315.31986807
  -exchange      EXHF   =         0.00000000
  -V(xc)+E(xc)   XCENC  =      -343.54207949
  PAW double counting   =     49365.14852594   -47443.69030232
  entropy T*S    EENTRO =        -0.23800190
  eigenvalues    EBANDS =     -2084.16298861
  atomic energy  EATOM  =     41659.78587232
  Solvation  Ediel_sol  =         0.00000000
  ---------------------------------------------------
  free energy    TOTEN  =      -188.71623326 eV

  energy without entropy =     -188.47823136  energy(sigma->0) =     -188.59723231


--------------------------------------------------------------------------------------------------------




----------------------------------------- Iteration    1(  22)  ---------------------------------------


    POTLOK:  cpu time    0.0404: real time    0.0405
    SETDIJ:  cpu time    0.0051: real time    0.0051
    EDDIAG:  cpu time    1.2773: real time    1.2872
  RMM-DIIS:  cpu time    3.3685: real time    3.4644
    ORTHCH:  cpu time    0.3503: real time    0.3512
       DOS:  cpu time    0.0014: real time    0.0014
    CHARGE:  cpu time    0.2271: real time    0.2277
    MIXING:  cpu time    0.0039: real time    0.0039
    --------------------------------------------
      LOOP:  cpu time    5.2748: real time    5.3844

 eigenvalue-minimisations  :  3679
 total energy-change (2. order) : 0.2798693E-02  (-0.2477366E-03)
 number of electron     503.9998363 magnetization 
 augmentation part      197.0842311 magnetization 

 DIPCOR: dipole corrections for dipol
 direction  3 min pos     1,
 dipolmoment           0.000000      0.000000     -0.016170 electrons x Angstroem
 Tr[quadrupol]    -10352.392860

 energy correction for charged system         0.000000 eV
 dipol+quadrupol energy correction           -0.000009 eV
 added-field ion interaction          0.005119 eV  (added to PSCEN)


 Broyden mixing:
  rms(total) = 0.34970E-01    rms(broyden)= 0.34967E-01
  rms(prec ) = 0.39405E-01
  weight for this iteration     100.00

 eigenvalues of (default mixing * dielectric matrix)
  average eigenvalue GAMMA=   0.7598
  2.3421  1.9873  1.9873  0.9614  0.9614  0.7399  0.6479  0.6479  0.4439  0.4439
  0.3004  0.3004  0.2653  0.2653  0.2136  0.2217  0.1871

 Free energy of the ion-electron system (eV)
  ---------------------------------------------------
  alpha Z        PSCENC =       805.87447381
  Ewald energy   TEWEN  =    200167.42781109
  -Hartree energ DENC   =   -242321.23592214
  -exchange      EXHF   =         0.00000000
  -V(xc)+E(xc)   XCENC  =      -343.50735413
  PAW double counting   =     49370.92635351   -47449.33003162
  entropy T*S    EENTRO =        -0.23649929
  eigenvalues    EBANDS =     -2078.41813811
  atomic energy  EATOM  =     41659.78587232
  Solvation  Ediel_sol  =         0.00000000
  ---------------------------------------------------
  free energy    TOTEN  =      -188.71343457 eV

  energy without entropy =     -188.47693528  energy(sigma->0) =     -188.59518492


--------------------------------------------------------------------------------------------------------




----------------------------------------- Iteration    1(  23)  ---------------------------------------


    POTLOK:  cpu time    0.0439: real time    0.0449
    SETDIJ:  cpu time    0.0057: real time    0.0057
    EDDIAG:  cpu time    1.2773: real time    1.2817
  RMM-DIIS:  cpu time    3.4112: real time    3.4202
[...]
    275       1.7387      0.00000
    276       1.8152      0.00000
    277       2.0874      0.00000
    278       2.1681      0.00000
    279       2.2416      0.00000
    280       2.3767      0.00000
    281       2.4810      0.00000
    282       2.5659      0.00000
    283       2.7443      0.00000
    284       2.9763      0.00000
    285       3.1498      0.00000
    286       3.2290      0.00000
    287       3.5629      0.00000
    288       3.5913      0.00000
    289       3.7716      0.00000
    290       4.0220      0.00000
    291       4.0667      0.00000
    292       4.1793      0.00000
    293       4.4979      0.00000
    294       4.5206      0.00000
    295       4.6147      0.00000
    296       4.6344      0.00000
    297       4.6761      0.00000
    298       4.8289      0.00000
    299       4.8529      0.00000
    300       4.9597      0.00000
    301       5.0159      0.00000
    302       5.0360      0.00000
    303       5.0662      0.00000
    304       5.1030      0.00000
    305       5.2104      0.00000
    306       5.2419      0.00000


--------------------------------------------------------------------------------------------------------


 soft charge-density along one line, spin component           1
         0         1         2         3         4         5         6         7         8         9
 total charge-density along one line
 
 pseudopotential strength for first ion, spin component:           1
 -8.030  -0.003  -0.003   0.000   0.001  -8.177  -0.003  -0.003
 -0.003  -7.960   0.001   0.003  -0.004  -0.003  -8.108   0.001
 -0.003   0.001  -7.954   0.001  -0.003  -0.003   0.001  -8.103
  0.000   0.003   0.001  -7.956  -0.001   0.000   0.003   0.001
  0.001  -0.004  -0.003  -0.001  -8.030   0.001  -0.004  -0.003
 -8.177  -0.003  -0.003   0.000   0.001  -8.308  -0.003  -0.003
 -0.003  -8.108   0.001   0.003  -0.004  -0.003  -8.241   0.001
 -0.003   0.001  -8.103   0.001  -0.003  -0.003   0.001  -8.235
  0.000   0.003   0.001  -8.104  -0.001   0.000   0.002   0.001
  0.001  -0.004  -0.003  -0.001  -8.178   0.001  -0.004  -0.003
 -0.001  -0.001  -0.024   0.001  -0.002  -0.001  -0.001  -0.024
 -0.002  -0.002  -0.034   0.001  -0.003  -0.002  -0.002  -0.034
  0.003   0.005  -0.001   0.000  -0.002   0.003   0.005  -0.001
  0.000   0.002   0.007   0.003  -0.000   0.000   0.002   0.007
  0.002   0.000  -0.001   0.005   0.003   0.002   0.000  -0.001
  0.004   0.005  -0.002   0.000  -0.003   0.004   0.005  -0.002
  0.000   0.002   0.008   0.004  -0.000   0.000   0.002   0.008
  0.003   0.000  -0.002   0.005   0.003   0.002   0.000  -0.002
 total augmentation occupancy for first ion, spin component:           1
  4.574  -0.035   0.081   0.027   0.127  -2.735   0.004  -0.082  -0.050  -0.115   0.114  -0.065  -0.042   0.006   0.003   0.005
 -0.035   4.029   0.113  -0.041   0.017   0.004  -1.781  -0.102   0.049  -0.055   0.019   0.005   0.126   0.028   0.013  -0.002
  0.081   0.113   4.353  -0.073   0.223  -0.082  -0.102  -2.254   0.090  -0.224   0.973  -0.126   0.027   0.214  -0.006  -0.003
  0.027  -0.041  -0.073   4.140  -0.021  -0.049   0.049   0.090  -1.873   0.022   0.003  -0.034   0.014  -0.026   0.167   0.000
  0.127   0.017   0.223  -0.021   4.152  -0.115  -0.056  -0.224   0.022  -2.333   0.164  -0.071   0.043   0.018   0.020  -0.004
 -2.735   0.004  -0.082  -0.049  -0.115   2.783   0.019   0.082   0.067   0.105  -0.104   0.060   0.032  -0.008  -0.007  -0.002
  0.004  -1.781  -0.102   0.049  -0.056   0.019   1.503   0.094  -0.056   0.084  -0.013  -0.006  -0.118  -0.025  -0.014   0.004
 -0.082  -0.102  -2.254   0.090  -0.224   0.082   0.094   2.096  -0.103   0.224  -0.916   0.148  -0.021  -0.224   0.008   0.001
 -0.050   0.049   0.090  -1.873   0.022   0.067  -0.056  -0.103   1.576  -0.022  -0.003   0.030  -0.015   0.021  -0.159   0.000
 -0.115  -0.055  -0.224   0.022  -2.333   0.105   0.084   0.224  -0.022   2.398  -0.151   0.070  -0.035  -0.019  -0.021   0.002
  0.114   0.019   0.973   0.003   0.164  -0.104  -0.013  -0.916  -0.003  -0.151   2.411  -0.501   0.002  -0.117   0.003  -0.000
 -0.065   0.005  -0.126  -0.034  -0.071   0.060  -0.006   0.148   0.030   0.070  -0.501   0.145  -0.010   0.052  -0.012   0.000
 -0.042   0.126   0.027   0.014   0.043   0.032  -0.118  -0.021  -0.015  -0.035   0.002  -0.010   0.196  -0.001  -0.003  -0.006
  0.006   0.028   0.214  -0.026   0.018  -0.008  -0.025  -0.224   0.021  -0.019  -0.117   0.052  -0.001   0.091   0.001  -0.000
  0.003   0.013  -0.006   0.167   0.020  -0.007  -0.014   0.008  -0.159  -0.021   0.003  -0.012  -0.003   0.001   0.182   0.000
  0.005  -0.002  -0.003   0.000  -0.004  -0.002   0.004   0.001   0.000   0.002  -0.000   0.000  -0.006  -0.000   0.000   0.000
  0.000   0.002   0.002   0.005  -0.000   0.000   0.000   0.005  -0.002   0.001   0.008  -0.002   0.000  -0.003   0.000   0.000
  0.002   0.000  -0.001  -0.003   0.002  -0.000   0.000  -0.000   0.006   0.000  -0.000   0.000   0.000   0.000  -0.005  -0.000


------------------------ aborting loop because EDIFF is reached ----------------------------------------


    CHARGE:  cpu time    0.2136: real time    0.2143
    FORLOC:  cpu time    0.0159: real time    0.0160
    FORNL :  cpu time    1.3252: real time    1.3289
    FORCOR:  cpu time    0.0558: real time    0.0571
    FORHAR:  cpu time    0.0240: real time    0.0240
    MIXING:  cpu time    0.0026: real time    0.0026
    OFIELD:  cpu time    0.0000: real time    0.0000

 VOLUME and BASIS-vectors are now :
 -----------------------------------------------------------------------------
  energy-cutoff  :      400.00
  volume of cell :     2567.68
      direct lattice vectors                 reciprocal lattice vectors
    11.002581515  0.000000000  0.000000000     0.090887761 -0.052474073  0.000000000
     5.501290758  9.528515099  0.000000000     0.000000000  0.104948147  0.000000000
     0.000000000  0.000000000 24.491785094     0.000000000  0.000000000  0.040830017

  length of vectors
    11.002581515 11.002581515 24.491785094     0.104948147  0.104948147  0.040830017


 FORCES acting on ions
    electron-ion (+dipol)            ewald-force                    non-local-force                 convergence-correction
 -----------------------------------------------------------------------------------------------
   0.132E+02 -.721E+01 -.225E+04   -.138E+02 0.670E+01 0.225E+04   0.643E+00 0.498E+00 0.313E+00   0.468E-03 0.586E-02 0.103E-02
   -.899E+00 -.756E+01 -.438E+01   0.141E+01 0.694E+01 0.384E+01   -.517E+00 0.623E+00 0.511E+00   0.783E-03 -.523E-02 0.196E-01
   -.112E+01 -.243E+02 0.222E+04   0.909E+00 0.252E+02 -.222E+04   0.152E+00 -.513E+00 -.718E+00   0.277E-01 -.273E-02 0.907E-02
   -.236E+01 0.119E+02 -.265E+02   0.248E+01 -.110E+02 0.272E+02   -.128E+00 -.903E+00 -.737E+00   -.332E-03 0.531E-02 0.115E-01
   0.555E+01 0.314E+01 -.223E+04   -.588E+01 -.292E+01 0.223E+04   0.333E+00 -.234E+00 0.263E+00   -.909E-02 0.861E-02 0.306E-02
   -.688E+00 0.723E+01 0.478E+02   0.125E+01 -.622E+01 -.482E+02   -.560E+00 -.103E+01 0.457E+00   -.860E-02 0.161E-01 0.286E-02
   -.142E+02 -.775E+01 -.229E+04   0.144E+02 0.819E+01 0.229E+04   -.270E+00 -.447E+00 -.203E+00   -.432E-02 0.166E-02 0.144E-02
   0.141E+02 -.955E+00 0.223E+04   -.146E+02 0.860E+00 -.223E+04   0.301E+00 0.104E+00 -.569E+00   -.157E-01 -.120E-03 0.303E-03
   0.158E+01 0.505E+01 0.209E+02   -.156E+01 -.590E+01 -.209E+02   -.547E-02 0.840E+00 -.795E-01   -.168E-01 0.202E-01 0.204E-01
   -.950E+00 0.101E+02 0.221E+04   0.103E+01 -.101E+02 -.221E+04   -.768E-01 -.276E-01 0.391E+00   0.262E-02 -.162E-02 0.890E-02
   -.116E+02 0.716E+01 0.222E+04   0.124E+02 -.759E+01 -.222E+04   -.614E+00 0.281E+00 0.535E+00   -.141E-01 0.420E-02 0.106E-01
   0.809E+00 -.555E+01 -.110E+03   -.114E+01 0.466E+01 0.111E+03   0.333E+00 0.897E+00 -.700E+00   -.509E-02 -.152E-01 -.801E-02
   -.149E+02 -.530E+01 -.234E+04   0.149E+02 0.521E+01 0.234E+04   -.158E-01 0.826E-01 -.295E+00   0.111E-01 -.605E-02 -.352E-01
   0.944E+01 0.145E+02 -.222E+04   -.933E+01 -.146E+02 0.222E+04   -.114E+00 0.102E+00 0.150E+00   0.126E-02 -.164E-01 -.154E-01
   0.644E+01 0.954E+00 0.499E+02   -.600E+01 -.125E+01 -.510E+02   -.436E+00 0.318E+00 0.105E+01   -.115E-04 -.201E-01 0.117E-01
   -.155E+01 0.525E+01 -.221E+04   0.149E+01 -.538E+01 0.221E+04   0.560E-01 0.136E+00 0.289E+00   0.509E-02 -.498E-02 -.677E-03
   0.485E+01 0.121E+02 -.220E+04   -.514E+01 -.125E+02 0.220E+04   0.297E+00 0.363E+00 0.397E+00   -.113E-01 0.542E-02 -.108E-01
   0.146E+02 -.373E+01 0.222E+04   -.151E+02 0.402E+01 -.222E+04   0.285E+00 -.235E+00 -.264E+00   0.131E-01 -.340E-02 0.311E-02
   -.249E+02 -.350E+01 0.222E+04   0.262E+02 0.371E+01 -.222E+04   -.832E+00 -.180E+00 -.570E-01   0.136E-01 0.129E-01 0.122E-01
   0.148E+02 -.114E+01 -.235E+04   -.148E+02 0.112E+01 0.235E+04   -.631E-02 0.221E-01 -.271E+00   -.426E-02 -.830E-02 -.366E-01
   0.617E+01 0.671E+01 -.410E+02   -.663E+01 -.593E+01 0.410E+02   0.445E+00 -.780E+00 -.682E-02   0.221E-01 -.594E-02 0.842E-02
   0.111E+02 0.134E+02 0.222E+04   -.120E+02 -.142E+02 -.222E+04   0.643E+00 0.526E+00 0.116E+00   -.678E-02 -.166E-01 0.179E-01
   -.683E+01 0.305E+01 0.182E+02   0.618E+01 -.308E+01 -.187E+02   0.639E+00 0.689E-01 0.481E+00   0.144E-01 -.333E-01 0.743E-02
   -.644E+01 -.382E+01 -.221E+04   0.704E+01 0.392E+01 0.221E+04   -.612E+00 -.119E+00 0.622E+00   0.167E-01 0.983E-02 -.144E-02
   -.161E+01 -.172E+01 0.361E+02   0.145E+01 0.194E+01 -.361E+02   0.161E+00 -.224E+00 -.199E-01   -.815E-02 0.607E-02 0.128E-01
   0.194E+02 0.912E+01 0.203E+04   -.198E+02 -.919E+01 -.203E+04   0.283E+00 0.105E-01 -.150E+01   0.345E-02 -.890E-02 0.906E-03
   0.496E+01 -.455E+01 0.204E+04   -.511E+01 0.449E+01 -.204E+04   0.102E+00 0.931E-01 -.161E+01   0.120E-01 -.158E-01 0.940E-02
   -.174E+01 -.168E+01 0.263E+02   0.170E+01 0.135E+01 -.267E+02   0.294E-01 0.326E+00 0.339E+00   0.606E-02 0.545E-02 0.252E-01
   -.449E+01 -.619E+01 0.204E+04   0.467E+01 0.618E+01 -.204E+04   -.126E+00 0.516E-01 -.157E+01   0.668E-02 0.362E-02 0.563E-02
   -.313E+00 -.441E+01 0.437E+02   0.137E+00 0.434E+01 -.442E+02   0.206E+00 0.677E-01 0.538E+00   -.270E-01 0.189E-02 0.324E-03
   0.250E+01 0.770E+01 0.204E+04   -.251E+01 -.777E+01 -.204E+04   -.474E-01 -.371E-01 -.164E+01   -.426E-02 0.482E-02 0.934E-03
   -.572E+01 0.101E+02 -.196E+04   0.552E+01 -.101E+02 0.196E+04   0.189E+00 -.257E-01 0.140E+01   0.138E-02 0.162E-02 0.704E-04
   0.125E+02 -.631E+01 -.194E+04   -.127E+02 0.675E+01 0.194E+04   0.146E+00 -.433E+00 0.115E+01   0.136E-02 -.820E-02 0.136E-01
   0.242E+01 -.198E+01 -.194E+04   -.239E+01 0.173E+01 0.194E+04   -.219E-01 0.247E+00 0.167E+01   -.107E-01 0.260E-02 0.116E-01
   0.391E+01 -.572E-01 0.157E+01   -.391E+01 0.343E+00 -.208E+01   -.113E-01 -.269E+00 0.503E+00   0.532E-02 -.103E-01 0.135E-01
   -.102E+02 -.227E+02 -.199E+04   0.107E+02 0.231E+02 0.199E+04   -.462E+00 -.349E+00 0.166E+01   0.887E-02 0.949E-02 -.191E-01
   -.127E+02 -.349E+01 0.203E+04   0.131E+02 0.343E+01 -.203E+04   -.171E+00 0.747E-01 -.209E+01   0.335E-02 -.206E-02 0.215E-01
   -.178E+01 -.344E+01 0.298E+02   0.197E+01 0.278E+01 -.302E+02   -.218E+00 0.669E+00 0.345E+00   0.257E-01 -.886E-02 -.277E-03
   0.408E+01 -.940E+01 0.203E+04   -.410E+01 0.960E+01 -.203E+04   -.623E-01 -.868E-01 -.172E+01   -.261E-02 0.251E-03 0.131E-02
   0.277E+01 -.514E+01 -.111E+01   -.258E+01 0.558E+01 0.209E+01   -.207E+00 -.434E+00 -.993E+00   0.170E-01 -.321E-02 0.569E-02
   -.211E+02 0.335E+01 0.204E+04   0.215E+02 -.340E+01 -.203E+04   -.153E+00 0.579E-01 -.144E+01   -.158E-02 0.119E-01 0.590E-02
   0.187E+01 0.169E+01 0.283E+02   -.206E+01 -.232E+01 -.289E+02   0.208E+00 0.640E+00 0.545E+00   -.160E-01 -.767E-02 0.213E-02
   0.979E+01 0.901E+01 0.203E+04   -.999E+01 -.928E+01 -.203E+04   0.104E+00 0.123E+00 -.186E+01   -.258E-01 -.633E-03 0.136E-01
   -.182E+01 0.209E+02 -.200E+04   0.197E+01 -.209E+02 0.200E+04   -.146E+00 0.128E-01 0.154E+01   -.179E-02 -.105E-01 -.233E-01
   -.306E+01 -.472E+01 0.204E+04   0.297E+01 0.492E+01 -.204E+04   0.812E-01 -.130E+00 -.178E+01   -.990E-02 0.138E-01 0.119E-01
   -.345E+01 0.638E+01 -.194E+04   0.346E+01 -.688E+01 0.194E+04   -.139E-01 0.501E+00 0.199E+01   0.996E-02 0.226E-02 0.436E-02
   -.643E+01 -.537E+01 0.481E+02   0.642E+01 0.596E+01 -.481E+02   -.750E-02 -.606E+00 0.327E-01   0.584E-02 0.229E-01 -.728E-02
   -.584E+01 -.169E+02 -.197E+04   0.573E+01 0.174E+02 0.197E+04   0.979E-01 -.458E+00 0.151E+01   0.946E-02 0.156E-01 -.351E-02
 -----------------------------------------------------------------------------------------------
   0.548E-01 -.182E+00 0.114E+01   0.206E-12 -.348E-12 0.455E-11   -.102E+00 0.214E+00 -.133E+01   0.410E-01 -.238E-01 0.148E+00
 
 
 POSITION                                       TOTAL-FORCE (eV/Angst)
 -----------------------------------------------------------------------------------
      6.84823      7.13473     14.96254         0.002121     -0.001761      0.001053
     12.39677      3.96083     12.45070        -0.003612     -0.004963     -0.001231
      4.12597      0.79404     10.00000        -0.032280      0.377321     -0.105114
     11.01090      6.38087     12.48562        -0.005127      0.003569      0.002597
     -0.01283      0.00598     14.93033        -0.003780     -0.004206      0.001265
     13.77040      6.38601     12.39539        -0.006161     -0.004304     -0.000274
      2.76018      4.78756     15.03663        -0.003073      0.001416      0.000080
      5.50129      7.94043     10.00000        -0.154819      0.008801     -0.149655
     10.99437      1.55718     12.43657        -0.002629      0.011505     -0.001813
      9.62726      5.55830     10.00000         0.009097     -0.081480     -0.231062
     11.00258      3.17617     10.00000         0.244936     -0.144730     -0.364303
      9.61168      3.95857     12.58521        -0.000858     -0.003720      0.009704
     11.00945      4.77032     15.11553        -0.004652     -0.004125      0.013199
      6.87485      2.37362     14.92727        -0.002345      0.003615      0.002726
      4.13098      3.95971     12.38833         0.007013      0.001148     -0.000876
      4.12315      2.37858     14.90979         0.000115      0.004180     -0.000638
      8.23923     -0.01567     14.87364        -0.002875     -0.003706     -0.001092
      8.25194      7.94043     10.00000        -0.229322      0.054104     -0.162388
     11.00258      7.94043     10.00000         0.397145      0.043344     -0.235806
      8.24673      4.76495     15.13544         0.003128      0.000049      0.011664
      8.22649      6.37774     12.49770         0.005644      0.002083      0.004880
      8.25194      3.17617     10.00000        -0.230359     -0.233825     -0.194333
      6.85808      3.96903     12.42750        -0.004753      0.000804     -0.004162
      2.76152     -0.00436     14.89106        -0.001445     -0.005867      0.000041
      5.49842      6.38351     12.40627        -0.003190      0.004255     -0.004604
      6.87661      5.55830     10.00000        -0.186154     -0.064596      0.205969
      5.50129      3.17617     10.00000        -0.033185      0.022016      0.096769
      2.76010      1.56291     12.42264        -0.004469      0.002461      0.000674
      2.75065      3.17617     10.00000         0.055775      0.037401      0.147235
     15.12138      8.74486     12.39643         0.003650      0.001038      0.004243
      4.12597      5.55830     10.00000        -0.061464     -0.106610      0.070956
      1.36831      2.39440     14.82719        -0.005609      0.008504     -0.005477
      5.49643      4.76879     14.81110        -0.003130     -0.001036     -0.004481
      4.11317      7.13964     14.77906        -0.004745     -0.000465     -0.010131
      6.87028      8.74610     12.44690        -0.001787      0.006058      0.004293
      9.64038      7.14720     14.85240        -0.002384     -0.004126      0.003192
      6.87661      0.79404     10.00000         0.235785      0.007928      0.217730
      5.50579      1.57191     12.41593         0.001978      0.000455     -0.001478
      1.37532      0.79404     10.00000        -0.084949      0.115110      0.231277
      9.62514      8.76200     12.45646        -0.000969     -0.000269     -0.004622
     12.37790      5.55830     10.00000         0.252832      0.013373      0.181505
      8.23246      1.56218     12.42153         0.001558      0.000627      0.003013
      9.62726      0.79404     10.00000        -0.121704     -0.147680      0.185856
      9.62762      2.37803     14.89137         0.005194      0.002776     -0.002511
     13.75323      7.94043     10.00000        -0.018789      0.082819      0.098922
      5.50448     -0.01723     14.77195        -0.001778     -0.003690     -0.006314
     12.38226      8.77052     12.39682        -0.004081      0.006343     -0.001826
     12.37560      7.15764     14.81834         0.000509     -0.001944     -0.004650
 -----------------------------------------------------------------------------------
    total drift:                               -0.006256      0.007800     -0.044800


--------------------------------------------------------------------------------------------------------



  FREE ENERGIE OF THE ION-ELECTRON SYSTEM (eV)
  ---------------------------------------------------
  free  energy   TOTEN  =      -192.27606816 eV

  energy  without entropy=     -192.04702687  energy(sigma->0) =     -192.16154752
 
 d Force = 0.2785441E-03[ 0.132E-03, 0.425E-03]  d Energy = 0.2552884E-03 0.233E-04
 d Force = 0.2788875E+02[ 0.279E+02, 0.279E+02]  d Ewald  = 0.2788875E+02 0.126E-05


--------------------------------------------------------------------------------------------------------


    POTLOK:  cpu time    0.0473: real time    0.0474


--------------------------------------------------------------------------------------------------------


 stress matrix after NEB project (eV)
      0.00000      0.00000      0.00000
      0.00000      0.00000      0.00000
      0.00000      0.00000      0.00000
  FORCES: max atom, RMS     0.014589    0.006080
  FORCE total and by dimension    0.042125    0.013199
  Stress total and by dimension    0.000000    0.000000
 Conjugate gradient step on ions:
 trial-energy change:   -0.000255  1 .order   -0.000279   -0.000425   -0.000132
  (g-gl).g = 0.187E-03      g.g   = 0.179E-03  gl.gl    = 0.390E-03
 g(Force)  = 0.179E-03   g(Stress)= 0.000E+00 ortho     =-0.468E-05
 gamma     =   0.47953
 trial     =   2.40064
 opt step  =   3.48725  (harmonic =   3.48725) maximal distance =0.00550350
 next E    =  -192.276121   (d E  =  -0.00031)


--------------------------------------------------------------------------------------------------------


  
 reached required accuracy - stopping structural energy minimisation
     LOOP+:  cpu time   45.5647: real time   45.8910
    4ORBIT:  cpu time    0.0000: real time    0.0000

 total amount of memory used by VASP on root node    84353. kBytes
========================================================================

   base      :      30000. kBytes
   nonlr-proj:       4285. kBytes
   fftplans  :       4447. kBytes
   grid      :       6721. kBytes
   one-center:        124. kBytes
   wavefun   :      38776. kBytes
 
  
  
 General timing and accounting informations for this job:
 ========================================================
  
                  Total CPU time used (sec):     1654.383
                            User time (sec):     1577.137
                          System time (sec):       77.246
                         Elapsed time (sec):     1664.957
  
                   Maximum memory used (kb):      880684.
                   Average memory used (kb):           0.
  
                          Minor page faults:       775546
                          Major page faults:            0
                 Voluntary context switches:        11110
