unknown system                          
           1
    11.002582    0.000000    0.000000
     5.501291    9.528515    0.000000
     0.000000    0.000000   24.491785
   Au   Pd
  24  24
Direct configuration=     1
   0.25000000  0.75000000  0.59169983
   0.91666667  0.41666667  0.50000000
   0.33333333  0.08333333  0.40830017
   0.66666667  0.66666667  0.50000000
   0.00000000  0.00000000  0.59169983
   0.91666667  0.66666667  0.50000000
   0.00000000  0.50000000  0.59169983
   0.08333333  0.83333333  0.40830017
   0.91666667  0.16666667  0.50000000
   0.58333333  0.58333333  0.40830017
   0.83333333  0.33333333  0.40830017
   0.66666667  0.41666667  0.50000000
   0.75000000  0.50000000  0.59169983
   0.50000000  0.25000000  0.59169983
   0.16666667  0.41666667  0.50000000
   0.25000000  0.25000000  0.59169983
   0.75000000  0.00000000  0.59169983
   0.33333333  0.83333333  0.40830017
   0.58333333  0.83333333  0.40830017
   0.50000000  0.50000000  0.59169983
   0.41666667  0.66666667  0.50000000
   0.58333333  0.33333333  0.40830017
   0.41666667  0.41666667  0.50000000
   0.25000000  0.00000000  0.59169983
   0.16666667  0.66666667  0.50000000
   0.33333333  0.58333333  0.40830017
   0.33333333  0.33333333  0.40830017
   0.16666667  0.16666667  0.50000000
   0.08333333  0.33333333  0.40830017
   0.91666667  0.91666667  0.50000000
   0.08333333  0.58333333  0.40830017
   0.00000000  0.25000000  0.59169983
   0.25000000  0.50000000  0.59169983
   0.00000000  0.75000000  0.59169983
   0.16666667  0.91666667  0.50000000
   0.50000000  0.75000000  0.59169983
   0.58333333  0.08333333  0.40830017
   0.41666667  0.16666667  0.50000000
   0.08333333  0.08333333  0.40830017
   0.41666667  0.91666667  0.50000000
   0.83333333  0.58333333  0.40830017
   0.66666667  0.16666667  0.50000000
   0.83333333  0.08333333  0.40830017
   0.75000000  0.25000000  0.59169983
   0.83333333  0.83333333  0.40830017
   0.50000000  0.00000000  0.59169983
   0.66666667  0.91666667  0.50000000
   0.75000000  0.75000000  0.59169983
Direct configuration=     2
   0.24929962  0.74968493  0.59353914
   0.91852401  0.41527984  0.49958115
   0.33333333  0.08333333  0.40830017
   0.66619589  0.66913391  0.50037549
  -0.00050140  0.00017275  0.59350950
   0.91648257  0.66903684  0.49962857
   0.00001004  0.50076118  0.59421673
   0.08333333  0.83333333  0.40830017
   0.91758754  0.16490662  0.49999048
   0.58333333  0.58333333  0.40830017
   0.83333333  0.33333333  0.40830017
   0.66715045  0.41478601  0.50038875
   0.74997802  0.50002464  0.59425742
   0.50035152  0.24928666  0.59358364
   0.16782767  0.41622929  0.49924218
   0.25034810  0.24931181  0.59356974
   0.74980318 -0.00057209  0.59323540
   0.33333333  0.83333333  0.40830017
   0.58333333  0.83333333  0.40830017
   0.49999896  0.49996010  0.59426319
   0.41474337  0.66851520  0.50004627
   0.58333333  0.33333333  0.40830017
   0.41506024  0.41641032  0.49956967
   0.25083768  0.00008380  0.59319309
   0.16575080  0.66735231  0.49988001
   0.33333333  0.58333333  0.40830017
   0.33333333  0.33333333  0.40830017
   0.16711554  0.16588840  0.49975458
   0.08333333  0.33333333  0.40830017
   0.91637635  0.91634677  0.49964953
   0.08333333  0.58333333  0.40830017
  -0.00016823  0.24990168  0.59295265
   0.24956754  0.50063532  0.59296914
  -0.00001837  0.74983758  0.59262342
   0.16628960  0.91722770  0.49975128
   0.50040816  0.75074461  0.59286958
   0.58333333  0.08333333  0.40830017
   0.41761997  0.16538712  0.49974741
   0.08333333  0.08333333  0.40830017
   0.41663548  0.91770865  0.50050869
   0.83333333  0.58333333  0.40830017
   0.66706021  0.16500188  0.49970576
   0.83333333  0.08333333  0.40830017
   0.75024132  0.24982979  0.59296485
   0.83333333  0.83333333  0.40830017
   0.50040763 -0.00062983  0.59242133
   0.66614443  0.91779099  0.50002036
   0.74931758  0.75100420  0.59281744
Direct configuration=     3
   0.24742158  0.74884008  0.59847116
   0.92350438  0.41156115  0.49845804
   0.33333333  0.08333333  0.40830017
   0.66493353  0.67574967  0.50138234
  -0.00184587  0.00063597  0.59836203
   0.91598891  0.67539233  0.49863259
   0.00003698  0.50280224  0.60096566
   0.08333333  0.83333333  0.40830017
   0.92005683  0.16018717  0.49996496
   0.58333333  0.58333333  0.40830017
   0.83333333  0.33333333  0.40830017
   0.66844770  0.40974315  0.50143115
   0.74991907  0.50009071  0.60111545
   0.50129410  0.24737387  0.59863496
   0.17094084  0.41505651  0.49721014
   0.25128149  0.24746648  0.59858379
   0.74927543 -0.00210612  0.59735294
   0.33333333  0.83333333  0.40830017
   0.58333333  0.83333333  0.40830017
   0.49999619  0.49985312  0.60113667
   0.40958617  0.67347193  0.50017034
   0.58333333  0.33333333  0.40830017
   0.41075270  0.41572296  0.49841578
   0.25308386  0.00030850  0.59719719
   0.16329494  0.66919084  0.49955828
   0.33333333  0.58333333  0.40830017
   0.33333333  0.33333333  0.40830017
   0.16831917  0.16380153  0.49909650
   0.08333333  0.33333333  0.40830017
   0.91559789  0.91548899  0.49870977
   0.08333333  0.58333333  0.40830017
  -0.00061935  0.24963806  0.59631203
   0.24840793  0.50233889  0.59637270
  -0.00006763  0.74940208  0.59509995
   0.16527851  0.91873206  0.49908435
   0.50150262  0.75274124  0.59600618
   0.58333333  0.08333333  0.40830017
   0.42017620  0.16195608  0.49907010
   0.08333333  0.08333333  0.40830017
   0.41655186  0.92050268  0.50187270
   0.83333333  0.58333333  0.40830017
   0.66811548  0.16053787  0.49891676
   0.83333333  0.08333333  0.40830017
   0.75088841  0.24937340  0.59635692
   0.83333333  0.83333333  0.40830017
   0.50150068 -0.00231866  0.59435599
   0.66474409  0.92080580  0.50007495
   0.74748771  0.75369690  0.59581426
Direct configuration=     4
   0.24723291  0.74923022  0.60086834
   0.92339243  0.41308531  0.50051127
   0.33333333  0.08333333  0.40830017
   0.66611143  0.67387972  0.50320574
  -0.00182155  0.00047534  0.60074934
   0.91614217  0.67391109  0.50005896
  -0.00020730  0.50316083  0.60368529
   0.08333333  0.83333333  0.40830017
   0.92045021  0.15880848  0.50152401
   0.58333333  0.58333333  0.40830017
   0.83333333  0.33333333  0.40830017
   0.66744629  0.41064453  0.50382252
   0.75026451  0.50038709  0.60400589
   0.50114159  0.24757698  0.60085292
   0.16931699  0.41475582  0.49895108
   0.25099622  0.24835521  0.60071049
   0.74962812 -0.00239924  0.59947315
   0.33333333  0.83333333  0.40830017
   0.58333333  0.83333333  0.40830017
   0.49980700  0.50002018  0.60407637
   0.40996914  0.67255564  0.50228628
   0.58333333  0.33333333  0.40830017
   0.41213167  0.41587637  0.50034553
   0.25271409 -0.00025920  0.59927869
   0.16312685  0.67011118  0.50068612
   0.33333333  0.58333333  0.40830017
   0.33333333  0.33333333  0.40830017
   0.16948125  0.16307147  0.50035845
   0.08333333  0.33333333  0.40830017
   0.91530538  0.91682774  0.49976762
   0.08333333  0.58333333  0.40830017
  -0.00077325  0.25009971  0.59771680
   0.24861953  0.50154761  0.59778639
  -0.00071308  0.74955180  0.59641338
   0.16485396  0.91920222  0.50061526
   0.50158090  0.75223441  0.59767133
   0.58333333  0.08333333  0.40830017
   0.42037123  0.16186550  0.50028177
   0.08333333  0.08333333  0.40830017
   0.41545613  0.92166833  0.50311482
   0.83333333  0.58333333  0.40830017
   0.66789776  0.15960935  0.50008139
   0.83333333  0.08333333  0.40830017
   0.75086629  0.24908424  0.59799460
   0.83333333  0.83333333  0.40830017
   0.50196471 -0.00229911  0.59568500
   0.66450674  0.92242918  0.50095915
   0.74796323  0.75340721  0.59743996
Direct configuration=     5
   0.24680216  0.75012096  0.60634140
   0.92313683  0.41656515  0.50519903
   0.33333333  0.08333333  0.40830017
   0.66880070  0.66961040  0.50736878
  -0.00176604  0.00010858  0.60619987
   0.91649208  0.67052923  0.50331552
  -0.00076502  0.50397953  0.60989453
   0.08333333  0.83333333  0.40830017
   0.92134834  0.15566076  0.50508350
   0.58333333  0.58333333  0.40830017
   0.83333333  0.33333333  0.40830017
   0.66515994  0.41270250  0.50928230
   0.75105319  0.50106376  0.61060510
   0.50079338  0.24804073  0.60591678
   0.16560955  0.41406931  0.50292584
   0.25034491  0.25038431  0.60556601
   0.75043336 -0.00306848  0.60431383
   0.33333333  0.83333333  0.40830017
   0.58333333  0.83333333  0.40830017
   0.49937505  0.50040159  0.61078806
   0.41084350  0.67046365  0.50711721
   0.58333333  0.33333333  0.40830017
   0.41528000  0.41622664  0.50475138
   0.25186987 -0.00155535  0.60403100
   0.16274309  0.67221244  0.50326112
   0.33333333  0.58333333  0.40830017
   0.33333333  0.33333333  0.40830017
   0.17213443  0.16140465  0.50323963
   0.08333333  0.33333333  0.40830017
   0.91463754  0.91988426  0.50218281
   0.08333333  0.58333333  0.40830017
  -0.00112464  0.25115372  0.60092407
   0.24910262  0.49974105  0.60101401
  -0.00218673  0.74989364  0.59941208
   0.16388467  0.92027564  0.50411053
   0.50175963  0.75107725  0.60147307
   0.58333333  0.08333333  0.40830017
   0.42081649  0.16165869  0.50304815
   0.08333333  0.08333333  0.40830017
   0.41295444  0.92432966  0.50595072
   0.83333333  0.58333333  0.40830017
   0.66740069  0.15748943  0.50274038
   0.83333333  0.08333333  0.40830017
   0.75081578  0.24842405  0.60173363
   0.83333333  0.83333333  0.40830017
   0.50302414 -0.00225446  0.59871926
   0.66396482  0.92613554  0.50297789
   0.74904892  0.75274583  0.60115162
Direct configuration=     6
   0.24670691  0.75031793  0.60755168
   0.92308031  0.41733466  0.50623566
   0.33333333  0.08333333  0.40830017
   0.66939540  0.66866631  0.50828938
  -0.00175377  0.00002748  0.60740518
   0.91656946  0.66978138  0.50403566
  -0.00088835  0.50416057  0.61126761
   0.08333333  0.83333333  0.40830017
   0.92154695  0.15496469  0.50587063
   0.58333333  0.58333333  0.40830017
   0.83333333  0.33333333  0.40830017
   0.66465435  0.41315758  0.51048965
   0.75122759  0.50121339  0.61206441
   0.50071638  0.24814328  0.60703658
   0.16478970  0.41391750  0.50380480
   0.25020089  0.25083301  0.60663973
   0.75061143 -0.00321647  0.60538428
   0.33333333  0.83333333  0.40830017
   0.58333333  0.83333333  0.40830017
   0.49927954  0.50048593  0.61227225
   0.41103685  0.67000104  0.50818549
   0.58333333  0.33333333  0.40830017
   0.41597621  0.41630410  0.50572567
   0.25168318 -0.00184197  0.60508190
   0.16265823  0.67267711  0.50383055
   0.33333333  0.58333333  0.40830017
   0.33333333  0.33333333  0.40830017
   0.17272113  0.16103605  0.50387676
   0.08333333  0.33333333  0.40830017
   0.91448985  0.92056017  0.50271689
   0.08333333  0.58333333  0.40830017
  -0.00120234  0.25138679  0.60163331
   0.24920944  0.49934155  0.60172775
  -0.00251261  0.74996923  0.60007519
   0.16367032  0.92051301  0.50488345
   0.50179915  0.75082137  0.60231377
   0.58333333  0.08333333  0.40830017
   0.42091496  0.16161296  0.50365989
   0.08333333  0.08333333  0.40830017
   0.41240123  0.92491817  0.50657783
   0.83333333  0.58333333  0.40830017
   0.66729077  0.15702064  0.50332837
   0.83333333  0.08333333  0.40830017
   0.75080461  0.24827806  0.60256046
   0.83333333  0.83333333  0.40830017
   0.50325841 -0.00224458  0.59939025
   0.66384499  0.92695515  0.50342430
   0.74928901  0.75259957  0.60197240
Direct configuration=     7
   0.24700349  0.74935328  0.60951062
   0.91872482  0.41469630  0.50813912
   0.33333333  0.08333333  0.40830017
   0.66688488  0.66891725  0.50940634
  -0.00147889  0.00004766  0.60947159
   0.91623638  0.67151251  0.50544175
  -0.00066391  0.50361617  0.61348373
   0.08333333  0.83333333  0.40830017
   0.91792839  0.16347346  0.50734274
   0.58333333  0.58333333  0.40830017
   0.83333333  0.33333333  0.40830017
   0.66734089  0.41326145  0.51220399
   0.75098622  0.50075926  0.61446245
   0.50095330  0.24843454  0.60867286
   0.16956237  0.41396890  0.50568450
   0.24988759  0.24998744  0.60813195
   0.75050450 -0.00213285  0.60709163
   0.33333333  0.83333333  0.40830017
   0.58333333  0.83333333  0.40830017
   0.49926152  0.50056393  0.61482697
   0.41262928  0.67025318  0.50984980
   0.58333333  0.33333333  0.40830017
   0.41441601  0.41573950  0.50741562
   0.25110396 -0.00065493  0.60681724
   0.16326995  0.67151203  0.50536563
   0.33333333  0.58333333  0.40830017
   0.33333333  0.33333333  0.40830017
   0.17024376  0.16314290  0.50582157
   0.08333333  0.33333333  0.40830017
   0.91543713  0.91668089  0.50450491
   0.08333333  0.58333333  0.40830017
  -0.00070801  0.25139977  0.60278235
   0.24915153  0.49999566  0.60280887
  -0.00158238  0.74980432  0.60123936
   0.16680777  0.91731461  0.50685930
   0.50150630  0.75025799  0.60394553
   0.58333333  0.08333333  0.40830017
   0.41776676  0.16635126  0.50542967
   0.08333333  0.08333333  0.40830017
   0.41488224  0.92001532  0.50768522
   0.83333333  0.58333333  0.40830017
   0.66630878  0.16275178  0.50530070
   0.83333333  0.08333333  0.40830017
   0.75047048  0.24845170  0.60434830
   0.83333333  0.83333333  0.40830017
   0.50210310 -0.00148595  0.60103393
   0.66578942  0.92049248  0.50468875
   0.74965235  0.75182475  0.60348996
Direct configuration=     8
   0.24699237  0.74938944  0.60943718
   0.91888809  0.41479520  0.50806777
   0.33333333  0.08333333  0.40830017
   0.66697899  0.66890784  0.50936447
  -0.00148920  0.00004691  0.60939412
   0.91624886  0.67144761  0.50538904
  -0.00067232  0.50363658  0.61340066
   0.08333333  0.83333333  0.40830017
   0.91806404  0.16315450  0.50728755
   0.58333333  0.58333333  0.40830017
   0.83333333  0.33333333  0.40830017
   0.66724018  0.41325755  0.51213972
   0.75099527  0.50077628  0.61437256
   0.50094441  0.24842362  0.60861153
   0.16938346  0.41396697  0.50561404
   0.24989933  0.25001914  0.60807602
   0.75050851 -0.00217347  0.60702762
   0.33333333  0.83333333  0.40830017
   0.58333333  0.83333333  0.40830017
   0.49926220  0.50056101  0.61473120
   0.41256958  0.67024373  0.50978741
   0.58333333  0.33333333  0.40830017
   0.41447449  0.41576066  0.50735227
   0.25112567 -0.00069943  0.60675219
   0.16324702  0.67155570  0.50530808
   0.33333333  0.58333333  0.40830017
   0.33333333  0.33333333  0.40830017
   0.17033663  0.16306392  0.50574867
   0.08333333  0.33333333  0.40830017
   0.91540162  0.91682631  0.50443789
   0.08333333  0.58333333  0.40830017
  -0.00072654  0.25139928  0.60273928
   0.24915370  0.49997114  0.60276835
  -0.00161725  0.74981050  0.60119572
   0.16669016  0.91743451  0.50678524
   0.50151728  0.75027911  0.60388436
   0.58333333  0.08333333  0.40830017
   0.41788477  0.16617364  0.50536333
   0.08333333  0.08333333  0.40830017
   0.41478923  0.92019911  0.50764370
   0.83333333  0.58333333  0.40830017
   0.66634559  0.16253694  0.50522677
   0.83333333  0.08333333  0.40830017
   0.75048300  0.24844519  0.60428128
   0.83333333  0.83333333  0.40830017
   0.50214641 -0.00151439  0.60097232
   0.66571653  0.92073474  0.50464136
   0.74963873  0.75185379  0.60343307
Direct configuration=     9
   0.24742951  0.74881911  0.60994786
   0.91895102  0.41525775  0.50810977
   0.33333333  0.08333333  0.40830017
   0.66610472  0.66916679  0.50920296
  -0.00131149  0.00039716  0.60962850
   0.91676089  0.66943010  0.50559134
  -0.00033937  0.50305709  0.61378026
   0.08333333  0.83333333  0.40830017
   0.91819906  0.16316205  0.50730967
   0.58333333  0.58333333  0.40830017
   0.83333333  0.33333333  0.40830017
   0.66599991  0.41501541  0.51220914
   0.75063209  0.50041528  0.61511634
   0.50087770  0.24859047  0.60895513
   0.16787432  0.41549120  0.50584925
   0.24998354  0.24933274  0.60834126
   0.75003600 -0.00158629  0.60715786
   0.33333333  0.83333333  0.40830017
   0.58333333  0.83333333  0.40830017
   0.49956802  0.50028104  0.61548510
   0.41358976  0.66879324  0.50983588
   0.58333333  0.33333333  0.40830017
   0.41500085  0.41680158  0.50740003
   0.25122235 -0.00019671  0.60711481
   0.16464050  0.67013952  0.50573545
   0.33333333  0.58333333  0.40830017
   0.33333333  0.33333333  0.40830017
   0.16926130  0.16389994  0.50640258
   0.08333333  0.33333333  0.40830017
   0.91564311  0.91759891  0.50522689
   0.08333333  0.58333333  0.40830017
  -0.00047534  0.25112065  0.60355342
   0.24897169  0.50067977  0.60337362
  -0.00084829  0.74963825  0.60181290
   0.16606942  0.91767261  0.50750511
   0.50113301  0.75044754  0.60479061
   0.58333333  0.08333333  0.40830017
   0.41777877  0.16584365  0.50605360
   0.08333333  0.08333333  0.40830017
   0.41599385  0.91890314  0.50781866
   0.83333333  0.58333333  0.40830017
   0.66631008  0.16386667  0.50605045
   0.83333333  0.08333333  0.40830017
   0.75039060  0.24878736  0.60536664
   0.83333333  0.83333333  0.40830017
   0.50133682 -0.00115499  0.60151054
   0.66550446  0.91923907  0.50525885
   0.74947311  0.75164337  0.60397346
Direct configuration=    10
   0.24754673  0.74866617  0.61008480
   0.91896790  0.41538178  0.50812103
   0.33333333  0.08333333  0.40830017
   0.66587028  0.66923623  0.50915965
  -0.00126384  0.00049108  0.60969134
   0.91689818  0.66888910  0.50564559
  -0.00025008  0.50290171  0.61388206
   0.08333333  0.83333333  0.40830017
   0.91823527  0.16316407  0.50731560
   0.58333333  0.58333333  0.40830017
   0.83333333  0.33333333  0.40830017
   0.66566733  0.41548678  0.51222775
   0.75053471  0.50031847  0.61531579
   0.50085981  0.24863521  0.60904727
   0.16746964  0.41589992  0.50591232
   0.25000612  0.24914868  0.60841239
   0.74990930 -0.00142884  0.60719278
   0.33333333  0.83333333  0.40830017
   0.58333333  0.83333333  0.40830017
   0.49965003  0.50020596  0.61568726
   0.41386332  0.66840429  0.50984888
   0.58333333  0.33333333  0.40830017
   0.41514200  0.41708070  0.50741283
   0.25124828 -0.00006190  0.60721205
   0.16501416  0.66975977  0.50585004
   0.33333333  0.58333333  0.40830017
   0.33333333  0.33333333  0.40830017
   0.16897295  0.16412412  0.50657793
   0.08333333  0.33333333  0.40830017
   0.91570786  0.91780608  0.50543846
   0.08333333  0.58333333  0.40830017
  -0.00040798  0.25104593  0.60377174
   0.24892289  0.50086979  0.60353592
  -0.00064209  0.74959206  0.60197840
   0.16590297  0.91773645  0.50769814
   0.50102997  0.75049270  0.60503362
   0.58333333  0.08333333  0.40830017
   0.41775034  0.16575517  0.50623870
   0.08333333  0.08333333  0.40830017
   0.41631687  0.91855562  0.50786558
   0.83333333  0.58333333  0.40830017
   0.66630056  0.16422323  0.50627132
   0.83333333  0.08333333  0.40830017
   0.75036582  0.24887911  0.60565768
   0.83333333  0.83333333  0.40830017
   0.50111973 -0.00105861  0.60165486
   0.66544759  0.91883800  0.50542443
   0.74942870  0.75158694  0.60411836
Direct configuration=    11
   0.24799960  0.74887391  0.61029286
   0.91895623  0.41564500  0.50802373
   0.33333333  0.08333333  0.40830017
   0.66618325  0.66900295  0.50915370
  -0.00118149  0.00066473  0.60965093
   0.91678409  0.66910421  0.50572171
  -0.00024406  0.50261457  0.61397187
   0.08333333  0.83333333  0.40830017
   0.91812478  0.16291410  0.50726157
   0.58333333  0.58333333  0.40830017
   0.83333333  0.33333333  0.40830017
   0.66598978  0.41559521  0.51231577
   0.75050560  0.50024215  0.61566770
   0.50032239  0.24906224  0.60915097
   0.16743252  0.41585785  0.50585745
   0.25012785  0.24956809  0.60848929
   0.74982224 -0.00162861  0.60705501
   0.33333333  0.83333333  0.40830017
   0.58333333  0.83333333  0.40830017
   0.49976154  0.49999663  0.61614329
   0.41321806  0.66899151  0.50979044
   0.58333333  0.33333333  0.40830017
   0.41506498  0.41672236  0.50727238
   0.25146993 -0.00057296  0.60732588
   0.16519119  0.66969791  0.50598244
   0.33333333  0.58333333  0.40830017
   0.33333333  0.33333333  0.40830017
   0.16917061  0.16406801  0.50678505
   0.08333333  0.33333333  0.40830017
   0.91550392  0.91785657  0.50581985
   0.08333333  0.58333333  0.40830017
  -0.00084335  0.25119200  0.60436943
   0.24914935  0.50055523  0.60399975
  -0.00081657  0.74964882  0.60231101
   0.16586606  0.91764402  0.50801770
   0.50091766  0.75053737  0.60554987
   0.58333333  0.08333333  0.40830017
   0.41791904  0.16537053  0.50652060
   0.08333333  0.08333333  0.40830017
   0.41565591  0.91895250  0.50791418
   0.83333333  0.58333333  0.40830017
   0.66630976  0.16380739  0.50667471
   0.83333333  0.08333333  0.40830017
   0.75049744  0.24931222  0.60628992
   0.83333333  0.83333333  0.40830017
   0.50107888 -0.00123554  0.60200685
   0.66565129  0.91950901  0.50574190
   0.74935829  0.75141549  0.60434937
Direct configuration=    12
   0.24823563  0.74898219  0.61040130
   0.91895015  0.41578218  0.50797301
   0.33333333  0.08333333  0.40830017
   0.66634637  0.66888137  0.50915061
  -0.00113857  0.00075523  0.60962986
   0.91672462  0.66921632  0.50576138
  -0.00024092  0.50246491  0.61401867
   0.08333333  0.83333333  0.40830017
   0.91806719  0.16278382  0.50723341
   0.58333333  0.58333333  0.40830017
   0.83333333  0.33333333  0.40830017
   0.66615783  0.41565173  0.51236165
   0.75049043  0.50020237  0.61585112
   0.50004228  0.24928481  0.60920502
   0.16741317  0.41583593  0.50582885
   0.25019130  0.24978669  0.60852938
   0.74977686 -0.00173273  0.60698320
   0.33333333  0.83333333  0.40830017
   0.58333333  0.83333333  0.40830017
   0.49981965  0.49988752  0.61638097
   0.41288175  0.66929757  0.50975998
   0.58333333  0.33333333  0.40830017
   0.41502484  0.41653559  0.50719917
   0.25158545 -0.00083933  0.60738521
   0.16528345  0.66966567  0.50605145
   0.33333333  0.58333333  0.40830017
   0.33333333  0.33333333  0.40830017
   0.16927362  0.16403877  0.50689300
   0.08333333  0.33333333  0.40830017
   0.91539763  0.91788289  0.50601863
   0.08333333  0.58333333  0.40830017
  -0.00107026  0.25126814  0.60468095
   0.24926738  0.50039128  0.60424150
  -0.00090750  0.74967840  0.60248437
   0.16584682  0.91759585  0.50818425
   0.50085913  0.75056066  0.60581894
   0.58333333  0.08333333  0.40830017
   0.41800696  0.16517006  0.50666752
   0.08333333  0.08333333  0.40830017
   0.41531142  0.91915936  0.50793951
   0.83333333  0.58333333  0.40830017
   0.66631455  0.16359065  0.50688496
   0.83333333  0.08333333  0.40830017
   0.75056604  0.24953796  0.60661945
   0.83333333  0.83333333  0.40830017
   0.50105759 -0.00132775  0.60219030
   0.66575746  0.91985874  0.50590737
   0.74932160  0.75132613  0.60446977
Direct configuration=    13
   0.24832140  0.74871972  0.61054394
   0.91930906  0.41520462  0.50801486
   0.33333333  0.08333333  0.40830017
   0.66600000  0.66955883  0.50936307
  -0.00133942  0.00082595  0.60958768
   0.91664424  0.67006644  0.50585444
  -0.00037069  0.50248645  0.61403484
   0.08333333  0.83333333  0.40830017
   0.91793915  0.16304556  0.50731574
   0.58333333  0.58333333  0.40830017
   0.83333333  0.33333333  0.40830017
   0.66625766  0.41511040  0.51261931
   0.75036098  0.50052884  0.61611734
   0.50026446  0.24928755  0.60927618
   0.16783249  0.41546637  0.50577809
   0.24991373  0.24983617  0.60857682
   0.74966039 -0.00156781  0.60696778
   0.33333333  0.83333333  0.40830017
   0.58333333  0.83333333  0.40830017
   0.49974489  0.49993379  0.61666935
   0.41291392  0.66949175  0.50983605
   0.58333333  0.33333333  0.40830017
   0.41512675  0.41619331  0.50714658
   0.25153706 -0.00051788  0.60750881
   0.16480352  0.66987747  0.50619204
   0.33333333  0.58333333  0.40830017
   0.33333333  0.33333333  0.40830017
   0.16917801  0.16402009  0.50704080
   0.08333333  0.33333333  0.40830017
   0.91556190  0.91745564  0.50616831
   0.08333333  0.58333333  0.40830017
  -0.00107094  0.25128452  0.60497253
   0.24924920  0.50061830  0.60452485
  -0.00081976  0.74946330  0.60273012
   0.16556362  0.91775646  0.50826528
   0.50129425  0.75019321  0.60601914
   0.58333333  0.08333333  0.40830017
   0.41806037  0.16494841  0.50675832
   0.08333333  0.08333333  0.40830017
   0.41516908  0.91938609  0.50804301
   0.83333333  0.58333333  0.40830017
   0.66622946  0.16363401  0.50708105
   0.83333333  0.08333333  0.40830017
   0.75052352  0.24961074  0.60699691
   0.83333333  0.83333333  0.40830017
   0.50110571 -0.00158335  0.60247757
   0.66568198  0.92021836  0.50602855
   0.74927247  0.75102279  0.60459436
Direct configuration=    14
   0.24833202  0.74868723  0.61056160
   0.91935349  0.41513312  0.50802004
   0.33333333  0.08333333  0.40830017
   0.66595712  0.66964269  0.50938937
  -0.00136428  0.00083470  0.60958246
   0.91663429  0.67017167  0.50586596
  -0.00038675  0.50248911  0.61403684
   0.08333333  0.83333333  0.40830017
   0.91792330  0.16307796  0.50732594
   0.58333333  0.58333333  0.40830017
   0.83333333  0.33333333  0.40830017
   0.66627001  0.41504339  0.51265121
   0.75034496  0.50056925  0.61615030
   0.50029196  0.24928789  0.60928499
   0.16788439  0.41542063  0.50577181
   0.24987937  0.24984229  0.60858270
   0.74964597 -0.00154739  0.60696587
   0.33333333  0.83333333  0.40830017
   0.58333333  0.83333333  0.40830017
   0.49973563  0.49993952  0.61670505
   0.41291790  0.66951578  0.50984547
   0.58333333  0.33333333  0.40830017
   0.41513937  0.41615095  0.50714007
   0.25153107 -0.00047809  0.60752411
   0.16474411  0.66990369  0.50620944
   0.33333333  0.58333333  0.40830017
   0.33333333  0.33333333  0.40830017
   0.16916618  0.16401778  0.50705910
   0.08333333  0.33333333  0.40830017
   0.91558224  0.91740275  0.50618683
   0.08333333  0.58333333  0.40830017
  -0.00107103  0.25128655  0.60500863
   0.24924695  0.50064640  0.60455992
  -0.00080890  0.74943668  0.60276054
   0.16552857  0.91777634  0.50827531
   0.50134811  0.75014773  0.60604392
   0.58333333  0.08333333  0.40830017
   0.41806698  0.16492097  0.50676956
   0.08333333  0.08333333  0.40830017
   0.41515146  0.91941415  0.50805582
   0.83333333  0.58333333  0.40830017
   0.66621892  0.16363937  0.50710532
   0.83333333  0.08333333  0.40830017
   0.75051826  0.24961975  0.60704364
   0.83333333  0.83333333  0.40830017
   0.50111166 -0.00161498  0.60251313
   0.66567263  0.92026287  0.50604355
   0.74926639  0.75098524  0.60460978
Direct configuration=    15
   0.24821885  0.74870476  0.61064832
   0.91935079  0.41528826  0.50812017
   0.33333333  0.08333333  0.40830017
   0.66599226  0.66976693  0.50955190
  -0.00142464  0.00071303  0.60956043
   0.91656025  0.67003937  0.50592678
  -0.00042939  0.50257969  0.61399994
   0.08333333  0.83333333  0.40830017
   0.91782833  0.16308670  0.50746092
   0.58333333  0.58333333  0.40830017
   0.83333333  0.33333333  0.40830017
   0.66610413  0.41501260  0.51294530
   0.75031194  0.50063144  0.61633985
   0.50037985  0.24917779  0.60934092
   0.16790041  0.41545446  0.50577524
   0.24981153  0.24986498  0.60862664
   0.74964854 -0.00156262  0.60704994
   0.33333333  0.83333333  0.40830017
   0.58333333  0.83333333  0.40830017
   0.49967336  0.50003378  0.61693419
   0.41313922  0.66925000  0.50997501
   0.58333333  0.33333333  0.40830017
   0.41508608  0.41636331  0.50719339
   0.25148151 -0.00039796  0.60763643
   0.16473888  0.66986079  0.50632274
   0.33333333  0.58333333  0.40830017
   0.33333333  0.33333333  0.40830017
   0.16906778  0.16389662  0.50713419
   0.08333333  0.33333333  0.40830017
   0.91569014  0.91759852  0.50617666
   0.08333333  0.58333333  0.40830017
  -0.00113950  0.25135247  0.60513537
   0.24919136  0.50070111  0.60465217
  -0.00074619  0.74929442  0.60298640
   0.16532890  0.91793537  0.50826467
   0.50143019  0.75000771  0.60611157
   0.58333333  0.08333333  0.40830017
   0.41810647  0.16475688  0.50679047
   0.08333333  0.08333333  0.40830017
   0.41515092  0.91954925  0.50818322
   0.83333333  0.58333333  0.40830017
   0.66635075  0.16369253  0.50713186
   0.83333333  0.08333333  0.40830017
   0.75046053  0.24963823  0.60726541
   0.83333333  0.83333333  0.40830017
   0.50119839 -0.00176034  0.60271853
   0.66533651  0.92041874  0.50605111
   0.74930751  0.75101433  0.60470852
Direct configuration=    16
   0.24813860  0.74871719  0.61070981
   0.91934888  0.41539827  0.50819118
   0.33333333  0.08333333  0.40830017
   0.66601717  0.66985503  0.50966715
  -0.00146744  0.00062675  0.60954480
   0.91650775  0.66994556  0.50596991
  -0.00045961  0.50264391  0.61397377
   0.08333333  0.83333333  0.40830017
   0.91776099  0.16309289  0.50755664
   0.58333333  0.58333333  0.40830017
   0.83333333  0.33333333  0.40830017
   0.66598650  0.41499076  0.51315384
   0.75028852  0.50067553  0.61647426
   0.50044217  0.24909972  0.60938058
   0.16791177  0.41547845  0.50577767
   0.24976342  0.24988106  0.60865780
   0.74965036 -0.00157342  0.60710955
   0.33333333  0.83333333  0.40830017
   0.58333333  0.83333333  0.40830017
   0.49962920  0.50010062  0.61709667
   0.41329614  0.66906153  0.51006686
   0.58333333  0.33333333  0.40830017
   0.41504829  0.41651389  0.50723119
   0.25144636 -0.00034113  0.60771607
   0.16473516  0.66983037  0.50640307
   0.33333333  0.58333333  0.40830017
   0.33333333  0.33333333  0.40830017
   0.16899800  0.16381071  0.50718743
   0.08333333  0.33333333  0.40830017
   0.91576665  0.91773733  0.50616945
   0.08333333  0.58333333  0.40830017
  -0.00118805  0.25139920  0.60522525
   0.24915194  0.50073990  0.60471759
  -0.00070172  0.74919355  0.60314656
   0.16518731  0.91804813  0.50825712
   0.50148839  0.74990843  0.60615954
   0.58333333  0.08333333  0.40830017
   0.41813447  0.16464052  0.50680530
   0.08333333  0.08333333  0.40830017
   0.41515053  0.91964504  0.50827355
   0.83333333  0.58333333  0.40830017
   0.66644423  0.16373023  0.50715067
   0.83333333  0.08333333  0.40830017
   0.75041960  0.24965133  0.60742267
   0.83333333  0.83333333  0.40830017
   0.50125989 -0.00186340  0.60286417
   0.66509816  0.92052927  0.50605647
   0.74933668  0.75103496  0.60477854
Direct configuration=    17
   0.24803393  0.74888099  0.61079055
   0.91912534  0.41553439  0.50829628
   0.33333333  0.08333333  0.40830017
   0.66602669  0.66970590  0.50975931