  56  56   0   0
  0.4903395E+02  0.1100258E-08  0.1100258E-08  0.2619179E-08  0.3500000E-15
  1.000000000000000E-004
  CAR 
 unknown system                          
      6.45300890    -21.56600931  301     -1.21943028      1.00000000
    -21.566  0.0000E+00  0.0000E+00
    -21.473  0.0000E+00  0.0000E+00
    -21.379  0.0000E+00  0.0000E+00
    -21.286  0.0000E+00  0.0000E+00
    -21.192  0.0000E+00  0.0000E+00
    -21.099  0.0000E+00  0.0000E+00
    -21.006  0.0000E+00  0.0000E+00
    -20.912  0.0000E+00  0.0000E+00
    -20.819  0.1648E-14  0.1539E-15
    -20.725  0.1609E-10  0.1503E-11
    -20.632  0.2860E-07  0.2672E-08
    -20.539  0.9433E-05  0.8837E-06
    -20.445  0.5965E-03  0.5659E-04
    -20.352  0.7594E-02  0.7658E-03
    -20.258  0.2069E-01  0.2698E-02
    -20.165  0.1452E-01  0.4054E-02
    -20.072  0.1778E-01  0.5714E-02
    -19.978  0.3465E-01  0.8950E-02
    -19.885  0.2752E-01  0.1152E-01
    -19.791  0.1832E-01  0.1323E-01
    -19.698  0.2496E-01  0.1556E-01
    -19.605  0.2668E-01  0.1806E-01
    -19.511  0.2896E-01  0.2076E-01
    -19.418  0.2526E-01  0.2312E-01
    -19.324  0.1581E-01  0.2460E-01
    -19.231  0.2104E-01  0.2656E-01
    -19.138  0.1342E-01  0.2781E-01
    -19.044  0.1966E-02  0.2800E-01
    -18.951  0.1520E-02  0.2814E-01
    -18.858  0.1186E-01  0.2925E-01
    -18.764  0.2077E-01  0.3119E-01
    -18.671  0.8029E-02  0.3194E-01
    -18.577  0.6629E-03  0.3200E-01
    -18.484  0.1103E-04  0.3200E-01
    -18.391  0.3522E-07  0.3200E-01
    -18.297  0.2087E-10  0.3200E-01
    -18.204  0.2251E-14  0.3200E-01
    -18.110  0.0000E+00  0.3200E-01
    -18.017  0.0000E+00  0.3200E-01
    -17.924  0.0000E+00  0.3200E-01
    -17.830  0.0000E+00  0.3200E-01
    -17.737  0.0000E+00  0.3200E-01
    -17.643  0.0000E+00  0.3200E-01
    -17.550  0.0000E+00  0.3200E-01
    -17.457  0.0000E+00  0.3200E-01
    -17.363  0.0000E+00  0.3200E-01
    -17.270  0.0000E+00  0.3200E-01
    -17.176  0.0000E+00  0.3200E-01
    -17.083  0.0000E+00  0.3200E-01
    -16.990  0.0000E+00  0.3200E-01
    -16.896  0.0000E+00  0.3200E-01
    -16.803  0.0000E+00  0.3200E-01
    -16.709  0.0000E+00  0.3200E-01
    -16.616  0.0000E+00  0.3200E-01
    -16.523  0.0000E+00  0.3200E-01
    -16.429  0.0000E+00  0.3200E-01
    -16.336  0.0000E+00  0.3200E-01
    -16.242  0.0000E+00  0.3200E-01
    -16.149  0.0000E+00  0.3200E-01
    -16.056  0.0000E+00  0.3200E-01
    -15.962  0.0000E+00  0.3200E-01
    -15.869  0.0000E+00  0.3200E-01
    -15.775  0.0000E+00  0.3200E-01
    -15.682  0.0000E+00  0.3200E-01
    -15.589  0.0000E+00  0.3200E-01
    -15.495  0.0000E+00  0.3200E-01
    -15.402  0.0000E+00  0.3200E-01
    -15.308  0.0000E+00  0.3200E-01
    -15.215  0.0000E+00  0.3200E-01
    -15.122  0.0000E+00  0.3200E-01
    -15.028  0.0000E+00  0.3200E-01
    -14.935  0.0000E+00  0.3200E-01
    -14.841  0.0000E+00  0.3200E-01
    -14.748  0.0000E+00  0.3200E-01
    -14.655  0.0000E+00  0.3200E-01
    -14.561  0.0000E+00  0.3200E-01
    -14.468  0.0000E+00  0.3200E-01
    -14.374  0.0000E+00  0.3200E-01
    -14.281  0.0000E+00  0.3200E-01
    -14.188  0.0000E+00  0.3200E-01
    -14.094  0.0000E+00  0.3200E-01
    -14.001  0.0000E+00  0.3200E-01
    -13.907  0.0000E+00  0.3200E-01
    -13.814  0.0000E+00  0.3200E-01
    -13.721  0.0000E+00  0.3200E-01
    -13.627  0.0000E+00  0.3200E-01
    -13.534  0.0000E+00  0.3200E-01
    -13.440  0.0000E+00  0.3200E-01
    -13.347  0.0000E+00  0.3200E-01
    -13.254  0.0000E+00  0.3200E-01
    -13.160  0.0000E+00  0.3200E-01
    -13.067  0.0000E+00  0.3200E-01
    -12.974  0.0000E+00  0.3200E-01
    -12.880  0.0000E+00  0.3200E-01
    -12.787  0.0000E+00  0.3200E-01
    -12.693  0.0000E+00  0.3200E-01
    -12.600  0.0000E+00  0.3200E-01
    -12.507  0.0000E+00  0.3200E-01
    -12.413  0.0000E+00  0.3200E-01
    -12.320  0.0000E+00  0.3200E-01
    -12.226  0.0000E+00  0.3200E-01
    -12.133  0.0000E+00  0.3200E-01
    -12.040  0.0000E+00  0.3200E-01
    -11.946  0.0000E+00  0.3200E-01
    -11.853  0.0000E+00  0.3200E-01
    -11.759  0.0000E+00  0.3200E-01
    -11.666  0.0000E+00  0.3200E-01
    -11.573  0.0000E+00  0.3200E-01
    -11.479  0.0000E+00  0.3200E-01
    -11.386  0.0000E+00  0.3200E-01
    -11.292  0.0000E+00  0.3200E-01
    -11.199  0.0000E+00  0.3200E-01
    -11.106  0.0000E+00  0.3200E-01
    -11.012  0.0000E+00  0.3200E-01
    -10.919  0.0000E+00  0.3200E-01
    -10.825  0.0000E+00  0.3200E-01
    -10.732  0.0000E+00  0.3200E-01
    -10.639  0.0000E+00  0.3200E-01
    -10.545  0.0000E+00  0.3200E-01
    -10.452  0.0000E+00  0.3200E-01
    -10.358  0.0000E+00  0.3200E-01
    -10.265  0.0000E+00  0.3200E-01
    -10.172  0.0000E+00  0.3200E-01
    -10.078  0.0000E+00  0.3200E-01
     -9.985  0.0000E+00  0.3200E-01
     -9.891  0.0000E+00  0.3200E-01
     -9.798  0.0000E+00  0.3200E-01
     -9.705  0.0000E+00  0.3200E-01
     -9.611  0.0000E+00  0.3200E-01
     -9.518  0.1189E-17  0.3200E-01
     -9.424  0.2919E-13  0.3200E-01
     -9.331  0.1524E-09  0.3200E-01
     -9.238  0.1457E-06  0.3200E-01
     -9.144  0.2611E-04  0.3200E-01
     -9.051  0.9110E-03  0.3209E-01
     -8.957  0.6555E-02  0.3270E-01
     -8.864  0.1090E-01  0.3372E-01
     -8.771  0.9382E-02  0.3459E-01
     -8.677  0.1065E-01  0.3559E-01
     -8.584  0.4224E-02  0.3598E-01
     -8.490  0.3907E-02  0.3635E-01
     -8.397  0.1841E-01  0.3807E-01
     -8.304  0.2789E-01  0.4067E-01
     -8.210  0.2548E-01  0.4305E-01
     -8.117  0.3670E-01  0.4648E-01
     -8.023  0.3211E-01  0.4948E-01
     -7.930  0.1932E-01  0.5128E-01
     -7.837  0.2354E-01  0.5348E-01
     -7.743  0.2975E-01  0.5626E-01
     -7.650  0.3124E-01  0.5918E-01
     -7.557  0.3632E-01  0.6257E-01
     -7.463  0.4051E-01  0.6635E-01
     -7.370  0.5026E-01  0.7105E-01
     -7.276  0.6659E-01  0.7727E-01
     -7.183  0.9216E-01  0.8587E-01
     -7.090  0.1213E+00  0.9721E-01
     -6.996  0.1371E+00  0.1100E+00
     -6.903  0.1303E+00  0.1222E+00
     -6.809  0.1188E+00  0.1333E+00
     -6.716  0.1132E+00  0.1438E+00
     -6.623  0.1096E+00  0.1541E+00
     -6.529  0.1211E+00  0.1654E+00
     -6.436  0.1354E+00  0.1780E+00
     -6.342  0.1501E+00  0.1920E+00
     -6.249  0.1586E+00  0.2069E+00
     -6.156  0.1676E+00  0.2225E+00
     -6.062  0.1742E+00  0.2388E+00
     -5.969  0.1661E+00  0.2543E+00
     -5.875  0.1636E+00  0.2696E+00
     -5.782  0.1640E+00  0.2849E+00
     -5.689  0.1566E+00  0.2995E+00
     -5.595  0.1583E+00  0.3143E+00
     -5.502  0.1700E+00  0.3302E+00
     -5.408  0.1803E+00  0.3470E+00
     -5.315  0.1832E+00  0.3642E+00
     -5.222  0.1817E+00  0.3811E+00
     -5.128  0.1815E+00  0.3981E+00
     -5.035  0.1767E+00  0.4146E+00
     -4.941  0.1807E+00  0.4315E+00
     -4.848  0.1809E+00  0.4484E+00
     -4.755  0.1844E+00  0.4656E+00
     -4.661  0.1890E+00  0.4832E+00
     -4.568  0.1918E+00  0.5011E+00
     -4.474  0.1913E+00  0.5190E+00
     -4.381  0.1898E+00  0.5367E+00
     -4.288  0.1904E+00  0.5545E+00
     -4.194  0.1906E+00  0.5723E+00
     -4.101  0.1910E+00  0.5902E+00
     -4.007  0.1937E+00  0.6083E+00
     -3.914  0.1972E+00  0.6267E+00
     -3.821  0.1918E+00  0.6446E+00
     -3.727  0.1943E+00  0.6627E+00
     -3.634  0.2024E+00  0.6816E+00
     -3.540  0.2040E+00  0.7007E+00
     -3.447  0.1993E+00  0.7193E+00
     -3.354  0.1912E+00  0.7372E+00
     -3.260  0.1854E+00  0.7545E+00
     -3.167  0.1880E+00  0.7720E+00
     -3.073  0.1820E+00  0.7890E+00
     -2.980  0.1777E+00  0.8056E+00
     -2.887  0.1775E+00  0.8222E+00
     -2.793  0.1869E+00  0.8397E+00
     -2.700  0.1979E+00  0.8582E+00
     -2.606  0.1888E+00  0.8758E+00
     -2.513  0.1835E+00  0.8929E+00
     -2.420  0.1832E+00  0.9100E+00
     -2.326  0.1802E+00  0.9269E+00
     -2.233  0.1887E+00  0.9445E+00
     -2.139  0.1901E+00  0.9622E+00
     -2.046  0.1910E+00  0.9801E+00
     -1.953  0.1979E+00  0.9986E+00
     -1.859  0.1919E+00  0.1016E+01
     -1.766  0.1808E+00  0.1033E+01
     -1.673  0.1679E+00  0.1049E+01
     -1.579  0.1560E+00  0.1064E+01
     -1.486  0.1446E+00  0.1077E+01
     -1.392  0.1289E+00  0.1089E+01
     -1.299  0.9984E-01  0.1098E+01
     -1.206  0.6770E-01  0.1105E+01
     -1.112  0.5473E-01  0.1110E+01
     -1.019  0.5047E-01  0.1115E+01
     -0.925  0.4926E-01  0.1119E+01
     -0.832  0.5224E-01  0.1124E+01
     -0.739  0.5570E-01  0.1129E+01
     -0.645  0.6158E-01  0.1135E+01
     -0.552  0.6290E-01  0.1141E+01
     -0.458  0.5349E-01  0.1146E+01
     -0.365  0.4773E-01  0.1150E+01
     -0.272  0.4500E-01  0.1155E+01
     -0.178  0.3358E-01  0.1158E+01
     -0.085  0.2592E-01  0.1160E+01
      0.009  0.2524E-01  0.1163E+01
      0.102  0.2341E-01  0.1165E+01
      0.195  0.1954E-01  0.1167E+01
      0.289  0.2293E-01  0.1169E+01
      0.382  0.3141E-01  0.1172E+01
      0.476  0.4161E-01  0.1175E+01
      0.569  0.3938E-01  0.1179E+01
      0.662  0.3878E-01  0.1183E+01
      0.756  0.4251E-01  0.1187E+01
      0.849  0.3455E-01  0.1190E+01
      0.943  0.3194E-01  0.1193E+01
      1.036  0.2994E-01  0.1196E+01
      1.129  0.2346E-01  0.1198E+01
      1.223  0.2697E-01  0.1200E+01
      1.316  0.2098E-01  0.1202E+01
      1.410  0.1891E-01  0.1204E+01
      1.503  0.2149E-01  0.1206E+01
      1.596  0.2870E-01  0.1209E+01
      1.690  0.3865E-01  0.1213E+01
      1.783  0.3838E-01  0.1216E+01
      1.877  0.2745E-01  0.1219E+01
      1.970  0.2589E-01  0.1221E+01
      2.063  0.3460E-01  0.1224E+01
      2.157  0.3929E-01  0.1228E+01
      2.250  0.3353E-01  0.1231E+01
      2.344  0.3092E-01  0.1234E+01
      2.437  0.3171E-01  0.1237E+01
      2.530  0.3267E-01  0.1240E+01
      2.624  0.2947E-01  0.1243E+01
      2.717  0.2560E-01  0.1245E+01
      2.811  0.2352E-01  0.1247E+01
      2.904  0.2370E-01  0.1250E+01
      2.997  0.2691E-01  0.1252E+01
      3.091  0.2575E-01  0.1254E+01
      3.184  0.2353E-01  0.1257E+01
      3.278  0.2972E-01  0.1259E+01
      3.371  0.3703E-01  0.1263E+01
      3.464  0.3443E-01  0.1266E+01
      3.558  0.3542E-01  0.1269E+01
      3.651  0.3518E-01  0.1273E+01
      3.745  0.3604E-01  0.1276E+01
      3.838  0.3675E-01  0.1280E+01
      3.931  0.3471E-01  0.1283E+01
      4.025  0.3700E-01  0.1286E+01
      4.118  0.3932E-01  0.1290E+01
      4.211  0.4147E-01  0.1294E+01
      4.305  0.3975E-01  0.1297E+01
      4.398  0.4427E-01  0.1302E+01
      4.492  0.4459E-01  0.1306E+01
      4.585  0.4795E-01  0.1310E+01
      4.678  0.5112E-01  0.1315E+01
      4.772  0.5720E-01  0.1320E+01
      4.865  0.5932E-01  0.1326E+01
      4.959  0.5533E-01  0.1331E+01
      5.052  0.5793E-01  0.1336E+01
      5.145  0.5116E-01  0.1341E+01
      5.239  0.2465E-01  0.1344E+01
      5.332  0.4442E-02  0.1344E+01
      5.426  0.2252E-03  0.1344E+01
      5.519  0.2729E-05  0.1344E+01
      5.612  0.7135E-08  0.1344E+01
      5.706  0.3741E-11  0.1344E+01
      5.799  0.3748E-15  0.1344E+01
      5.893  0.0000E+00  0.1344E+01
      5.986  0.0000E+00  0.1344E+01
      6.079  0.0000E+00  0.1344E+01
      6.173  0.0000E+00  0.1344E+01
      6.266  0.0000E+00  0.1344E+01
      6.360  0.0000E+00  0.1344E+01
      6.453  0.0000E+00  0.1344E+01
