<?xml version="1.0" encoding="ISO-8859-1"?>
<modeling>
 <generator>
  <i name="program" type="string">vasp </i>
  <i name="version" type="string">5.4.1  </i>
  <i name="subversion" type="string">24Jun15 (build Mar 14 2019 10:18:33) complex                          parallel </i>
  <i name="platform" type="string">INTEL-19.0.2+OPENMPI-3.1.3 </i>
  <i name="date" type="string">2023 01 24 </i>
  <i name="time" type="string">11:01:52 </i>
 </generator>
 <incar>
  <i type="int" name="ISTART">     0</i>
  <i type="string" name="PREC">normal</i>
  <i type="string" name="ALGO"> Fast</i>
  <i type="int" name="NELM">   500</i>
  <i type="int" name="IBRION">     2</i>
  <i type="int" name="NFREE">     2</i>
  <i name="EDIFF">      0.00000100</i>
  <i name="EDIFFG">     -0.02000000</i>
  <i type="int" name="NSW">   500</i>
  <i type="int" name="ISIF">     0</i>
  <i type="int" name="ISYM">     2</i>
  <i name="ENCUT">    400.00000000</i>
  <i name="POTIM">      0.35000000</i>
  <i type="string" name="LREAL"> Auto</i>
  <i type="logical" name="LPLANE"> T  </i>
  <i type="int" name="ISMEAR">     0</i>
  <i name="SIGMA">      0.10000000</i>
  <i type="int" name="NWRITE">     1</i>
  <i type="logical" name="LWAVE"> F  </i>
  <i type="logical" name="LCHARG"> F  </i>
  <i type="logical" name="LVTOT"> F  </i>
  <i type="logical" name="LORBIT"> F  </i>
  <i type="logical" name="LAECHG"> F  </i>
  <v type="int" name="KPOINT_BSE">    -1     0     0     0</v>
  <i type="int" name="NELM">   500</i>
  <i type="string" name="GGA"> PE          ! optPBE-vdW XC-functional</i>
  <i type="int" name="VOSKOWN">     1</i>
  <i type="logical" name="LDIPOL"> T  </i>
  <i type="logical" name="LMONO"> F  </i>
  <i type="int" name="IDIPOL">     3</i>
  <v name="DIPOL">      0.00000000      0.00000000      0.50000000</v>
 </incar>
 <kpoints>
  <generation param="Monkhorst-Pack">
   <v type="int" name="divisions">       2        2        1 </v>
   <v name="usershift">      0.00000000       0.00000000       0.00000000 </v>
   <v name="genvec1">      0.50000000       0.00000000       0.00000000 </v>
   <v name="genvec2">      0.00000000       0.50000000       0.00000000 </v>
   <v name="genvec3">      0.00000000       0.00000000       1.00000000 </v>
   <v name="shift">      0.50000000       0.50000000       0.00000000 </v>
  </generation>
  <varray name="kpointlist" >
   <v>       0.25000000       0.25000000       0.00000000 </v>
   <v>       0.00000000       0.25000000       0.00000000 </v>
   <v>      -0.25000000       0.00000000       0.00000000 </v>
   <v>      -0.25000000       0.25000000       0.00000000 </v>
   <v>       0.50000000      -0.25000000       0.00000000 </v>
   <v>      -0.25000000       0.50000000       0.00000000 </v>
  </varray>
  <varray name="weights" >
   <v>       0.16666667 </v>
   <v>       0.16666667 </v>
   <v>       0.16666667 </v>
   <v>       0.16666667 </v>
   <v>       0.16666667 </v>
   <v>       0.16666667 </v>
  </varray>
 </kpoints>
 <parameters>
  <separator name="general" >
   <i type="string" name="SYSTEM">unknown system</i>
   <i type="logical" name="LCOMPAT"> F  </i>
  </separator>
  <separator name="electronic" >
   <i type="string" name="PREC">normal</i>
   <i name="ENMAX">    400.00000000</i>
   <i name="ENAUG">    605.39200000</i>
   <i name="EDIFF">      0.00000100</i>
   <i type="int" name="IALGO">    68</i>
   <i type="int" name="IWAVPR">    11</i>
   <i type="int" name="NBANDS">   336</i>
   <i name="NELECT">    552.00000000</i>
   <i type="int" name="TURBO">     0</i>
   <i type="int" name="IRESTART">     0</i>
   <i type="int" name="NREBOOT">     0</i>
   <i type="int" name="NMIN">     0</i>
   <i name="EREF">      0.00000000</i>
   <separator name="electronic smearing" >
    <i type="int" name="ISMEAR">     0</i>
    <i name="SIGMA">      0.10000000</i>
    <i name="KSPACING">      0.50000000</i>
    <i type="logical" name="KGAMMA"> T  </i>
   </separator>
   <separator name="electronic projectors" >
    <i type="logical" name="LREAL"> T  </i>
    <v name="ROPT">     -0.00050000     -0.00050000     -0.00050000</v>
    <i type="int" name="LMAXPAW">  -100</i>
    <i type="int" name="LMAXMIX">     2</i>
    <i type="logical" name="NLSPLINE"> F  </i>
   </separator>
   <separator name="electronic startup" >
    <i type="int" name="ISTART">     0</i>
    <i type="int" name="ICHARG">     2</i>
    <i type="int" name="INIWAV">     1</i>
   </separator>
   <separator name="electronic spin" >
    <i type="int" name="ISPIN">     1</i>
    <i type="logical" name="LNONCOLLINEAR"> F  </i>
    <v name="MAGMOM">      1.00000000      1.00000000      1.00000000      1.00000000      1.00000000      1.00000000      1.00000000      1.00000000      1.00000000      1.00000000      1.00000000      1.00000000      1.00000000      1.00000000      1.00000000      1.00000000      1.00000000      1.00000000      1.00000000      1.00000000
      1.00000000      1.00000000      1.00000000      1.00000000      1.00000000      1.00000000      1.00000000      1.00000000      1.00000000      1.00000000      1.00000000      1.00000000      1.00000000      1.00000000      1.00000000      1.00000000      1.00000000      1.00000000      1.00000000      1.00000000
      1.00000000      1.00000000      1.00000000      1.00000000      1.00000000      1.00000000      1.00000000      1.00000000      1.00000000      1.00000000      1.00000000      1.00000000      1.00000000      1.00000000      1.00000000      1.00000000</v>
    <i name="NUPDOWN">     -1.00000000</i>
    <i type="logical" name="LSORBIT"> F  </i>
    <v name="SAXIS">      0.00000000      0.00000000      1.00000000</v>
    <i type="logical" name="LSPIRAL"> F  </i>
    <v name="QSPIRAL">      0.00000000      0.00000000      0.00000000</v>
    <i type="logical" name="LZEROZ"> F  </i>
   </separator>
   <separator name="electronic exchange-correlation" >
    <i type="logical" name="LASPH"> F  </i>
    <i type="logical" name="LMETAGGA"> F  </i>
   </separator>
   <separator name="electronic convergence" >
    <i type="int" name="NELM">   500</i>
    <i type="int" name="NELMDL">    -5</i>
    <i type="int" name="NELMIN">     2</i>
    <i name="ENINI">    400.00000000</i>
    <separator name="electronic convergence detail" >
     <i type="logical" name="LDIAG"> T  </i>
     <i type="logical" name="LSUBROT"> F  </i>
     <i name="WEIMIN">      0.00100000</i>
     <i name="EBREAK">      0.00000000</i>
     <i name="DEPER">      0.30000000</i>
     <i type="int" name="NRMM">     4</i>
     <i name="TIME">      0.40000000</i>
    </separator>
   </separator>
   <separator name="electronic mixer" >
    <i name="AMIX">      0.40000000</i>
    <i name="BMIX">      1.00000000</i>
    <i name="AMIN">      0.10000000</i>
    <i name="AMIX_MAG">      1.60000000</i>
    <i name="BMIX_MAG">      1.00000000</i>
    <separator name="electronic mixer details" >
     <i type="int" name="IMIX">     4</i>
     <i type="logical" name="MIXFIRST"> F  </i>
     <i type="int" name="MAXMIX">   -45</i>
     <i name="WC">    100.00000000</i>
     <i type="int" name="INIMIX">     1</i>
     <i type="int" name="MIXPRE">     1</i>
     <i type="int" name="MREMOVE">     5</i>
    </separator>
   </separator>
   <separator name="electronic dipolcorrection" >
    <i type="logical" name="LDIPOL"> T  </i>
    <i type="logical" name="LMONO"> F  </i>
    <i type="int" name="IDIPOL">     3</i>
    <i name="EPSILON">      1.00000000</i>
    <v name="DIPOL">      0.00000000      0.00000000      0.50000000</v>
    <i name="EFIELD">      0.00000000</i>
   </separator>
  </separator>
  <separator name="grids" >
   <i type="int" name="NGX">    54</i>
   <i type="int" name="NGY">    54</i>
   <i type="int" name="NGZ">   128</i>
   <i type="int" name="NGXF">   108</i>
   <i type="int" name="NGYF">   108</i>
   <i type="int" name="NGZF">   256</i>
   <i type="logical" name="ADDGRID"> F  </i>
  </separator>
  <separator name="ionic" >
   <i type="int" name="NSW">   500</i>
   <i type="int" name="IBRION">     2</i>
   <i type="int" name="ISIF">     0</i>
   <i name="PSTRESS">      0.00000000</i>
   <i name="EDIFFG">     -0.02000000</i>
   <i type="int" name="NFREE">     2</i>
   <i name="POTIM">      0.35000000</i>
   <i name="SMASS">     -3.00000000</i>
   <i name="SCALEE">      1.00000000</i>
  </separator>
  <separator name="ionic md" >
   <i name="TEBEG">      0.00010000</i>
   <i name="TEEND">      0.00010000</i>
   <i type="int" name="NBLOCK">     1</i>
   <i type="int" name="KBLOCK">   500</i>
   <i type="int" name="NPACO">   256</i>
   <i name="APACO">     16.00000000</i>
  </separator>
  <separator name="symmetry" >
   <i type="int" name="ISYM">     2</i>
   <i name="SYMPREC">      0.00001000</i>
  </separator>
  <separator name="dos" >
   <i type="logical" name="LORBIT"> F  </i>
   <v name="RWIGS">     -1.00000000     -1.00000000     -1.00000000</v>
   <i type="int" name="NEDOS">   301</i>
   <i name="EMIN">     10.00000000</i>
   <i name="EMAX">    -10.00000000</i>
   <i name="EFERMI">      0.00000000</i>
  </separator>
  <separator name="writing" >
   <i type="int" name="NWRITE">     1</i>
   <i type="logical" name="LWAVE"> F  </i>
   <i type="logical" name="LCHARG"> F  </i>
   <i type="logical" name="LPARD"> F  </i>
   <i type="logical" name="LVTOT"> F  </i>
   <i type="logical" name="LVHAR"> F  </i>
   <i type="logical" name="LELF"> F  </i>
   <i type="logical" name="LOPTICS"> F  </i>
   <v name="STM">      0.00000000      0.00000000      0.00000000      0.00000000      0.00000000      0.00000000      0.00000000</v>
  </separator>
  <separator name="performance" >
   <i type="int" name="NPAR">     6</i>
   <i type="int" name="NSIM">     4</i>
   <i type="int" name="NBLK">    -1</i>
   <i type="logical" name="LPLANE"> T  </i>
   <i type="logical" name="LSCALAPACK"> T  </i>
   <i type="logical" name="LSCAAWARE"> F  </i>
   <i type="logical" name="LSCALU"> F  </i>
   <i type="logical" name="LASYNC"> F  </i>
   <i type="logical" name="LORBITALREAL"> F  </i>
  </separator>
  <separator name="miscellaneous" >
   <i type="int" name="IDIOT">     3</i>
   <i type="logical" name="LMUSIC"> F  </i>
   <v name="POMASS">    196.96600000     16.00000000    106.42000000</v>
   <v name="DARWINR">      0.00000000      0.00000000      0.00000000</v>
   <v name="DARWINV">      1.00000000      1.00000000      1.00000000</v>
   <i type="logical" name="LCORR"> T  </i>
  </separator>
  <i type="logical" name="GGA_COMPAT"> T  </i>
  <i type="logical" name="LBERRY"> F  </i>
  <i type="int" name="ICORELEVEL">     0</i>
  <i type="logical" name="LDAU"> F  </i>
  <i type="int" name="I_CONSTRAINED_M">     0</i>
  <separator name="electronic exchange-correlation" >
   <i type="string" name="GGA">PE</i>
   <i type="int" name="VOSKOWN">     1</i>
   <i type="logical" name="LHFCALC"> F  </i>
   <i type="string" name="PRECFOCK"></i>
   <i type="logical" name="LSYMGRAD"> F  </i>
   <i type="logical" name="LHFONE"> F  </i>
   <i type="logical" name="LRHFCALC"> F  </i>
   <i type="logical" name="LTHOMAS"> F  </i>
   <i type="logical" name="LMODELHF"> F  </i>
   <i name="ENCUT4O">     -1.00000000</i>
   <i type="int" name="EXXOEP">     0</i>
   <i type="int" name="FOURORBIT">     0</i>
   <i name="AEXX">      0.00000000</i>
   <i name="HFALPHA">      0.00000000</i>
   <i name="MCALPHA">      0.00000000</i>
   <i name="ALDAX">      1.00000000</i>
   <i name="AGGAX">      1.00000000</i>
   <i name="ALDAC">      1.00000000</i>
   <i name="AGGAC">      1.00000000</i>
   <i type="int" name="NKREDX">     1</i>
   <i type="int" name="NKREDY">     1</i>
   <i type="int" name="NKREDZ">     1</i>
   <i type="logical" name="SHIFTRED"> F  </i>
   <i type="logical" name="ODDONLY"> F  </i>
   <i type="logical" name="EVENONLY"> F  </i>
   <i type="int" name="LMAXFOCK">     0</i>
   <i type="int" name="NMAXFOCKAE">     0</i>
   <i type="logical" name="LFOCKAEDFT"> F  </i>
   <i name="HFSCREEN">      0.00000000</i>
   <i name="HFSCREENC">      0.00000000</i>
   <i type="int" name="NBANDSGWLOW">     0</i>
  </separator>
  <separator name="vdW DFT" >
   <i type="logical" name="LUSE_VDW"> F  </i>
   <i name="Zab_VDW">     -0.84910000</i>
   <i name="PARAM1">      0.12340000</i>
   <i name="PARAM2">      1.00000000</i>
   <i name="PARAM3">      0.00000000</i>
  </separator>
  <separator name="model GW" >
   <i type="int" name="MODEL_GW">     0</i>
   <i name="MODEL_EPS0">     29.42037089</i>
   <i name="MODEL_ALPHA">      1.00000000</i>
  </separator>
  <separator name="linear response parameters" >
   <i type="logical" name="LEPSILON"> F  </i>
   <i type="logical" name="LRPA"> F  </i>
   <i type="logical" name="LNABLA"> F  </i>
   <i type="logical" name="LVEL"> F  </i>
   <i type="int" name="KINTER">     0</i>
   <i name="CSHIFT">      0.10000000</i>
   <i name="OMEGAMAX">     -1.00000000</i>
   <i name="DEG_THRESHOLD">      0.00200000</i>
  </separator>
  <separator name="orbital magnetization" >
   <i type="logical" name="NUCIND"> F  </i>
   <v name="MAGPOS">      0.00000000      0.00000000      0.00000000</v>
   <i type="logical" name="LNICSALL"> T  </i>
   <i type="logical" name="ORBITALMAG"> F  </i>
   <i type="logical" name="LMAGBLOCH"> F  </i>
   <i type="logical" name="LCHIMAG"> F  </i>
   <i type="logical" name="LGAUGE"> T  </i>
   <i type="int" name="MAGATOM">     0</i>
   <v name="MAGDIPOL">      0.00000000      0.00000000      0.00000000</v>
   <v name="AVECCONST">      0.00000000      0.00000000      0.00000000</v>
  </separator>
  <separator name="response functions" >
   <i type="logical" name="LADDER"> F  </i>
   <i type="logical" name="LFXC"> F  </i>
   <i type="logical" name="LHARTREE"> T  </i>
   <i type="int" name="IBSE">     0</i>
   <v type="int" name="KPOINT">    -1     0     0     0</v>
   <i type="logical" name="LTCTE"> F  </i>
   <i type="logical" name="LTETE"> F  </i>
   <i type="logical" name="LTRIPLET"> F  </i>
   <i type="logical" name="LFXCEPS"> F  </i>
   <i type="logical" name="LFXHEG"> F  </i>
   <i type="int" name="NATURALO">     0</i>
   <i type="logical" name="L2ORDER"> F  </i>
   <i type="logical" name="LUSEW"> F  </i>
   <i name="ENCUTGW">     -2.00000000</i>
   <i name="ENCUTGWSOFT">     -2.00000000</i>
   <i name="ENCUTLF">     -1.00000000</i>
   <i type="int" name="LMAXMP2">    -1</i>
   <i name="SCISSOR">      0.00000000</i>
   <i type="int" name="NOMEGA">     0</i>
   <i type="int" name="NOMEGAR">     0</i>
   <i type="int" name="NBANDSGW">    -1</i>
   <i type="int" name="NBANDSO">    -1</i>
   <i type="int" name="NBANDSV">    -1</i>
   <i type="int" name="NELM">   500</i>
   <i type="int" name="NELMHF">     1</i>
   <i type="int" name="DIM">     3</i>
   <i type="int" name="ANTIRES">     0</i>
   <i name="OMEGAMAX">    -30.00000000</i>
   <i name="OMEGAMIN">    -30.00000000</i>
   <i name="OMEGATL">   -200.00000000</i>
   <i type="int" name="OMEGAGRID">     0</i>
   <i name="CSHIFT">     -0.10000000</i>
   <i type="logical" name="SELFENERGY"> F  </i>
   <i type="logical" name="LSPECTRAL"> F  </i>
   <i type="logical" name="LSPECTRALGW"> F  </i>
   <i type="logical" name="LSINGLES"> F  </i>
   <i type="logical" name="LFERMIGW"> F  </i>
   <i type="logical" name="ODDONLYGW"> F  </i>
   <i type="logical" name="EVENONLYGW"> F  </i>
   <i type="int" name="NKREDLFX">     1</i>
   <i type="int" name="NKREDLFY">     1</i>
   <i type="int" name="NKREDLFZ">     1</i>
   <i type="int" name="MAXMEM">  1800</i>
   <i type="int" name="TELESCOPE">     0</i>
   <i type="int" name="TAUPAR">     1</i>
   <i type="int" name="OMEGAPAR">    -1</i>
   <i name="LAMBDA">      1.00000000</i>
  </separator>
  <separator name="External order field" >
   <i name="OFIELD_KAPPA">      0.00000000</i>
   <v name="OFIELD_K">      0.00000000      0.00000000      0.00000000</v>
   <i name="OFIELD_Q6_NEAR">      0.00000000</i>
   <i name="OFIELD_Q6_FAR">      0.00000000</i>
   <i name="OFIELD_A">      0.00000000</i>
  </separator>
 </parameters>
 <atominfo>
  <atoms>      56 </atoms>
  <types>       3 </types>
  <array name="atoms" >
   <dimension dim="1">ion</dimension>
   <field type="string">element</field>
   <field type="int">atomtype</field>
   <set>
    <rc><c>Au</c><c>   1</c></rc>
    <rc><c>Au</c><c>   1</c></rc>
    <rc><c>Au</c><c>   1</c></rc>
    <rc><c>Au</c><c>   1</c></rc>
    <rc><c>Au</c><c>   1</c></rc>
    <rc><c>Au</c><c>   1</c></rc>
    <rc><c>Au</c><c>   1</c></rc>
    <rc><c>Au</c><c>   1</c></rc>
    <rc><c>Au</c><c>   1</c></rc>
    <rc><c>Au</c><c>   1</c></rc>
    <rc><c>Au</c><c>   1</c></rc>
    <rc><c>Au</c><c>   1</c></rc>
    <rc><c>Au</c><c>   1</c></rc>
    <rc><c>Au</c><c>   1</c></rc>
    <rc><c>Au</c><c>   1</c></rc>
    <rc><c>Au</c><c>   1</c></rc>
    <rc><c>Au</c><c>   1</c></rc>
    <rc><c>Au</c><c>   1</c></rc>
    <rc><c>Au</c><c>   1</c></rc>
    <rc><c>Au</c><c>   1</c></rc>
    <rc><c>Au</c><c>   1</c></rc>
    <rc><c>Au</c><c>   1</c></rc>
    <rc><c>Au</c><c>   1</c></rc>
    <rc><c>Au</c><c>   1</c></rc>
    <rc><c>O </c><c>   2</c></rc>
    <rc><c>O </c><c>   2</c></rc>
    <rc><c>O </c><c>   2</c></rc>
    <rc><c>O </c><c>   2</c></rc>
    <rc><c>O </c><c>   2</c></rc>
    <rc><c>O </c><c>   2</c></rc>
    <rc><c>O </c><c>   2</c></rc>
    <rc><c>O </c><c>   2</c></rc>
    <rc><c>Pd</c><c>   3</c></rc>
    <rc><c>Pd</c><c>   3</c></rc>
    <rc><c>Pd</c><c>   3</c></rc>
    <rc><c>Pd</c><c>   3</c></rc>
    <rc><c>Pd</c><c>   3</c></rc>
    <rc><c>Pd</c><c>   3</c></rc>
    <rc><c>Pd</c><c>   3</c></rc>
    <rc><c>Pd</c><c>   3</c></rc>
    <rc><c>Pd</c><c>   3</c></rc>
    <rc><c>Pd</c><c>   3</c></rc>
    <rc><c>Pd</c><c>   3</c></rc>
    <rc><c>Pd</c><c>   3</c></rc>
    <rc><c>Pd</c><c>   3</c></rc>
    <rc><c>Pd</c><c>   3</c></rc>
    <rc><c>Pd</c><c>   3</c></rc>
    <rc><c>Pd</c><c>   3</c></rc>
    <rc><c>Pd</c><c>   3</c></rc>
    <rc><c>Pd</c><c>   3</c></rc>
    <rc><c>Pd</c><c>   3</c></rc>
    <rc><c>Pd</c><c>   3</c></rc>
    <rc><c>Pd</c><c>   3</c></rc>
    <rc><c>Pd</c><c>   3</c></rc>
    <rc><c>Pd</c><c>   3</c></rc>
    <rc><c>Pd</c><c>   3</c></rc>
   </set>
  </array>
  <array name="atomtypes" >
   <dimension dim="1">type</dimension>
   <field type="int">atomspertype</field>
   <field type="string">element</field>
   <field>mass</field>
   <field>valence</field>
   <field type="string">pseudopotential</field>
   <set>
    <rc><c>  24</c><c>Au</c><c>    196.96600000</c><c>     11.00000000</c><c>  PAW_PBE Au 04Oct2007                  </c></rc>
    <rc><c>   8</c><c>O </c><c>     16.00000000</c><c>      6.00000000</c><c>  PAW_PBE O 08Apr2002                   </c></rc>
    <rc><c>  24</c><c>Pd</c><c>    106.42000000</c><c>     10.00000000</c><c>  PAW_PBE Pd 04Jan2005                  </c></rc>
   </set>
  </array>
 </atominfo>
 <structure name="initialpos" >
  <crystal>
   <varray name="basis" >
    <v>      11.00258152       0.00000000       0.00000000 </v>
    <v>       5.50129076       9.52851510       0.00000000 </v>
    <v>       0.00000000       0.00000000      26.19178509 </v>
   </varray>
   <i name="volume">   2745.90128299 </i>
   <varray name="rec_basis" >
    <v>       0.09088776      -0.05247407       0.00000000 </v>
    <v>       0.00000000       0.10494815       0.00000000 </v>
    <v>       0.00000000       0.00000000       0.03817991 </v>
   </varray>
  </crystal>
  <varray name="positions" >
   <v>       0.08333333       0.08333333       0.38179910 </v>
   <v>       0.24165309       0.49364797       0.56900545 </v>
   <v>       0.42271775       0.91624530       0.47409883 </v>
   <v>       0.67257946       0.91787563       0.47075766 </v>
   <v>       0.00825774       0.00210181       0.56281206 </v>
   <v>       0.08333333       0.33333333       0.38179910 </v>
   <v>       0.67908056       0.66504169       0.48505429 </v>
   <v>       0.67362747       0.41756969       0.48284952 </v>
   <v>       0.08333333       0.58333333       0.38179910 </v>
   <v>       0.83333333       0.33333333       0.38179910 </v>
   <v>       0.93306225       0.52999994       0.56240945 </v>
   <v>       0.92137316       0.91764468       0.47315063 </v>
   <v>       0.83333333       0.08333333       0.38179910 </v>
   <v>       0.50778204       0.47976086       0.57668904 </v>
   <v>       0.42360624       0.66590419       0.47927563 </v>
   <v>       0.33333333       0.08333333       0.38179910 </v>
   <v>       0.58333333       0.58333333       0.38179910 </v>
   <v>       0.58333333       0.33333333       0.38179910 </v>
   <v>       0.53728933       0.95928833       0.56633470 </v>
   <v>       0.41720008       0.17141199       0.47654011 </v>
   <v>       0.74370321       0.76427059       0.63785208 </v>
   <v>       0.33333333       0.83333333       0.38179910 </v>
   <v>       0.33333333       0.58333333       0.38179910 </v>
   <v>       0.16898385       0.66581372       0.47751573 </v>
   <v>       0.11853738       0.29592477       0.62542031 </v>
   <v>       0.36439077       0.32190942       0.62371313 </v>
   <v>       0.05760408       0.59210467       0.61261967 </v>
   <v>       0.34197924       0.99256125       0.63179963 </v>
   <v>       0.83758406       0.87538945       0.62334250 </v>
   <v>       0.39292361       0.68151135       0.61936847 </v>
   <v>       0.64042263       0.66357195       0.65149937 </v>
   <v>       0.87700542       0.27110304       0.62293762 </v>
   <v>       0.58333333       0.83333333       0.38179910 </v>
   <v>       0.41771616       0.41800073       0.47875657 </v>
   <v>       0.50365437       0.23976458       0.56704519 </v>
   <v>       0.16759052       0.41693348       0.47482239 </v>
   <v>       0.16830697       0.17132589       0.47920743 </v>
   <v>       0.25191700       0.75378092       0.56597308 </v>
   <v>       0.17190898       0.91850148       0.47394714 </v>
   <v>       0.99228043       0.76273072       0.57201852 </v>
   <v>       0.26951048       0.98648479       0.56384276 </v>
   <v>       0.08333333       0.83333333       0.38179910 </v>
   <v>       0.52742982       0.71833514       0.58015219 </v>
   <v>       0.66912421       0.17201234       0.47916049 </v>
   <v>       0.75010560       0.00936799       0.56319627 </v>
   <v>       0.92105968       0.66639915       0.47192043 </v>
   <v>       0.76196360       0.24769018       0.56966069 </v>
   <v>       0.03081590       0.24113465       0.57124359 </v>
   <v>       0.83333333       0.58333333       0.38179910 </v>
   <v>       0.92088980       0.41633672       0.47272526 </v>
   <v>       0.75325700       0.47104483       0.62643511 </v>
   <v>       0.83333333       0.83333333       0.38179910 </v>
   <v>       0.92334775       0.16951875       0.47718826 </v>
   <v>       0.31735102       0.17441800       0.62497779 </v>
   <v>       0.58333333       0.08333333       0.38179910 </v>
   <v>       0.33333333       0.33333333       0.38179910 </v>
  </varray>
  <varray name="selective"  type="logical" >
   <v type="logical" >  F  F  F </v>
   <v type="logical" >  T  T  T </v>
   <v type="logical" >  T  T  T </v>
   <v type="logical" >  T  T  T </v>
   <v type="logical" >  T  T  T </v>
   <v type="logical" >  F  F  F </v>
   <v type="logical" >  T  T  T </v>
   <v type="logical" >  T  T  T </v>
   <v type="logical" >  F  F  F </v>
   <v type="logical" >  F  F  F </v>
   <v type="logical" >  T  T  T </v>
   <v type="logical" >  T  T  T </v>
   <v type="logical" >  F  F  F </v>
   <v type="logical" >  T  T  T </v>
   <v type="logical" >  T  T  T </v>
   <v type="logical" >  F  F  F </v>
   <v type="logical" >  F  F  F </v>
   <v type="logical" >  F  F  F </v>
   <v type="logical" >  T  T  T </v>
   <v type="logical" >  T  T  T </v>
   <v type="logical" >  T  T  T </v>
   <v type="logical" >  F  F  F </v>
   <v type="logical" >  F  F  F </v>
   <v type="logical" >  T  T  T </v>
   <v type="logical" >  T  T  T </v>
   <v type="logical" >  T  T  T </v>
   <v type="logical" >  T  T  T </v>
   <v type="logical" >  T  T  T </v>
   <v type="logical" >  T  T  T </v>
   <v type="logical" >  T  T  T </v>
   <v type="logical" >  T  T  T </v>
   <v type="logical" >  T  T  T </v>
   <v type="logical" >  F  F  F </v>
   <v type="logical" >  T  T  T </v>
   <v type="logical" >  T  T  T </v>
   <v type="logical" >  T  T  T </v>
   <v type="logical" >  T  T  T </v>
   <v type="logical" >  T  T  T </v>
   <v type="logical" >  T  T  T </v>
   <v type="logical" >  T  T  T </v>
   <v type="logical" >  T  T  T </v>
   <v type="logical" >  F  F  F </v>
   <v type="logical" >  T  T  T </v>
   <v type="logical" >  T  T  T </v>
   <v type="logical" >  T  T  T </v>
   <v type="logical" >  T  T  T </v>
   <v type="logical" >  T  T  T </v>
   <v type="logical" >  T  T  T </v>
   <v type="logical" >  F  F  F </v>
   <v type="logical" >  T  T  T </v>
   <v type="logical" >  T  T  T </v>
   <v type="logical" >  F  F  F </v>
   <v type="logical" >  T  T  T </v>
   <v type="logical" >  T  T  T </v>
   <v type="logical" >  F  F  F </v>
   <v type="logical" >  F  F  F </v>
  </varray>
  <nose>
   <v>      -3.00000000       0.00000000       0.00010000       0.00010000 </v>
  </nose>
 </structure>
 <calculation>
  <scstep>
   <time name="dav">    8.12    8.14</time>
   <time name="total">    8.19    8.27</time>
   <dipole>
    <v name="dipole">      0.00000000       0.00000000       0.00005653 </v>
    <i name="Tr[quadrupol]"> -11049.14629071 </i>
    <i name="Echarged">      0.00000000 </i>
    <i name="Edipol_quadrupol">      0.00000000 </i>
    <i name="Eion">      0.00000000 </i>
   </dipole>
   <energy>
    <i name="alphaZ">    862.57693699 </i>
    <i name="ewald"> 230456.26457416 </i>
    <i name="hartreedc">-276089.76938470 </i>
    <i name="XCdc">   -118.24078623 </i>
    <i name="pawpsdc">  43112.45544455 </i>
    <i name="pawaedc"> -41079.41300390 </i>
    <i name="eentropy">     -0.14284811 </i>
    <i name="bandstr">   1342.87373921 </i>
    <i name="atom">  45117.89144060 </i>
    <i name="e_fr_energy">   3604.49611256 </i>
    <i name="e_wo_entrp">   3604.63896068 </i>
    <i name="e_0_energy">   3604.56753662 </i>
   </energy>
  </scstep>
  <scstep>
   <time name="dav">    9.69    9.72</time>
   <time name="total">    9.70    9.73</time>
   <dipole>
    <v name="dipole">      0.00000000       0.00000000       0.00005653 </v>
    <i name="Tr[quadrupol]"> -11049.14629071 </i>
    <i name="Echarged">      0.00000000 </i>
    <i name="Edipol_quadrupol">      0.00000000 </i>
    <i name="Eion">      0.00000000 </i>
   </dipole>
   <energy>
    <i name="e_fr_energy">     48.84054080 </i>
    <i name="e_wo_entrp">     49.00450943 </i>
    <i name="e_0_energy">     48.92252512 </i>
   </energy>
  </scstep>
  <scstep>
   <time name="dav">    9.54    9.57</time>
   <time name="total">    9.55    9.58</time>
   <dipole>
    <v name="dipole">      0.00000000       0.00000000       0.00005653 </v>
    <i name="Tr[quadrupol]"> -11049.14629071 </i>
    <i name="Echarged">      0.00000000 </i>
    <i name="Edipol_quadrupol">      0.00000000 </i>
    <i name="Eion">      0.00000000 </i>
   </dipole>
   <energy>
    <i name="e_fr_energy">   -254.02019581 </i>
    <i name="e_wo_entrp">   -253.78776483 </i>
    <i name="e_0_energy">   -253.90398032 </i>
   </energy>
  </scstep>
  <scstep>
   <time name="dav">    9.37    9.47</time>
   <time name="total">    9.37    9.48</time>
   <dipole>
    <v name="dipole">      0.00000000       0.00000000       0.00005653 </v>
    <i name="Tr[quadrupol]"> -11049.14629071 </i>
    <i name="Echarged">      0.00000000 </i>
    <i name="Edipol_quadrupol">      0.00000000 </i>
    <i name="Eion">      0.00000000 </i>
   </dipole>
   <energy>
    <i name="e_fr_energy">   -264.50020239 </i>
    <i name="e_wo_entrp">   -264.24714767 </i>
    <i name="e_0_energy">   -264.37367503 </i>
   </energy>
  </scstep>
  <scstep>
   <time name="dav">    9.67    9.69</time>
   <time name="total">    9.94    9.97</time>
   <dipole>
    <v name="dipole">      0.00000000       0.00000000       0.00005653 </v>
    <i name="Tr[quadrupol]"> -11049.14629071 </i>
    <i name="Echarged">      0.00000000 </i>
    <i name="Edipol_quadrupol">      0.00000000 </i>
    <i name="Eion">      0.00000000 </i>
   </dipole>
   <energy>
    <i name="e_fr_energy">   -264.80279438 </i>
    <i name="e_wo_entrp">   -264.54981890 </i>
    <i name="e_0_energy">   -264.67630664 </i>
   </energy>
  </scstep>
  <scstep>
   <time name="diag">    1.48    1.49</time>
   <time name="diis">    3.98    3.99</time>
   <time name="orth">    0.36    0.36</time>
   <time name="total">    6.16    6.18</time>
   <dipole>
    <v name="dipole">      0.00000000       0.00000000       2.11492815 </v>
    <i name="Tr[quadrupol]"> -11047.58676464 </i>
    <i name="Echarged">      0.00000000 </i>
    <i name="Edipol_quadrupol">      0.00000000 </i>
    <i name="Eion">      0.00000000 </i>
   </dipole>
   <energy>
    <i name="e_fr_energy">   -267.70596893 </i>
    <i name="e_wo_entrp">   -267.58217753 </i>
    <i name="e_0_energy">   -267.64407323 </i>
   </energy>
  </scstep>
  <scstep>
   <time name="diag">    1.46    1.47</time>
   <time name="diis">    3.99    4.00</time>
   <time name="orth">    0.36    0.36</time>
   <time name="total">    6.14    6.17</time>
   <dipole>
    <v name="dipole">      0.00000000       0.00000000      -2.81858851 </v>
    <i name="Tr[quadrupol]"> -11049.58184390 </i>
    <i name="Echarged">      0.00000000 </i>
    <i name="Edipol_quadrupol">      0.00000000 </i>
    <i name="Eion">      0.00000000 </i>
   </dipole>
   <energy>
    <i name="e_fr_energy">   -331.97568591 </i>
    <i name="e_wo_entrp">   -331.75670897 </i>
    <i name="e_0_energy">   -331.86619744 </i>
   </energy>
  </scstep>
  <scstep>
   <time name="diag">    1.46    1.47</time>
   <time name="diis">    4.07    4.08</time>
   <time name="orth">    0.36    0.36</time>
   <time name="total">    6.22    6.24</time>
   <dipole>
    <v name="dipole">      0.00000000       0.00000000      -1.04265646 </v>
    <i name="Tr[quadrupol]"> -11051.75180562 </i>
    <i name="Echarged">      0.00000000 </i>
    <i name="Edipol_quadrupol">      0.00000000 </i>
    <i name="Eion">      0.00000000 </i>
   </dipole>
   <energy>
    <i name="e_fr_energy">   -261.51275659 </i>
    <i name="e_wo_entrp">   -261.22868585 </i>
    <i name="e_0_energy">   -261.37072122 </i>
   </energy>
  </scstep>
  <scstep>
   <time name="diag">    1.45    1.46</time>
   <time name="diis">    4.01    4.02</time>
   <time name="orth">    0.36    0.36</time>
   <time name="total">    6.16    6.17</time>
   <dipole>
    <v name="dipole">      0.00000000       0.00000000      -0.57666692 </v>
    <i name="Tr[quadrupol]"> -11046.55619966 </i>
    <i name="Echarged">      0.00000000 </i>
    <i name="Edipol_quadrupol">      0.00000000 </i>
    <i name="Eion">      0.00000000 </i>
   </dipole>
   <energy>
    <i name="e_fr_energy">   -261.96215863 </i>
    <i name="e_wo_entrp">   -261.71206784 </i>
    <i name="e_0_energy">   -261.83711323 </i>
   </energy>
  </scstep>
  <scstep>
   <time name="diag">    1.46    1.47</time>
   <time name="diis">    3.87    3.97</time>
   <time name="orth">    0.36    0.36</time>
   <time name="total">    6.03    6.13</time>
   <dipole>
    <v name="dipole">      0.00000000       0.00000000       0.63668966 </v>
    <i name="Tr[quadrupol]"> -11046.56023927 </i>
    <i name="Echarged">      0.00000000 </i>
    <i name="Edipol_quadrupol">      0.00000000 </i>
    <i name="Eion">      0.00000000 </i>
   </dipole>
   <energy>
    <i name="e_fr_energy">   -268.11163525 </i>
    <i name="e_wo_entrp">   -267.92397109 </i>
    <i name="e_0_energy">   -268.01780317 </i>
   </energy>
  </scstep>
  <scstep>
   <time name="diag">    1.47    1.47</time>
   <time name="diis">    3.96    3.97</time>
   <time name="orth">    0.35    0.35</time>
   <time name="total">    6.11    6.14</time>
   <dipole>
    <v name="dipole">      0.00000000       0.00000000       0.77660501 </v>
    <i name="Tr[quadrupol]"> -11047.34845832 </i>
    <i name="Echarged">      0.00000000 </i>
    <i name="Edipol_quadrupol">      0.00000000 </i>
    <i name="Eion">      0.00000000 </i>
   </dipole>
   <energy>
    <i name="e_fr_energy">   -253.17178031 </i>
    <i name="e_wo_entrp">   -253.00627805 </i>
    <i name="e_0_energy">   -253.08902918 </i>
   </energy>
  </scstep>
  <scstep>
   <time name="diag">    1.45    1.46</time>
   <time name="diis">    4.02    4.03</time>
   <time name="orth">    0.35    0.35</time>
   <time name="total">    6.16    6.18</time>
   <dipole>
    <v name="dipole">      0.00000000       0.00000000       0.51883072 </v>
    <i name="Tr[quadrupol]"> -11048.28871221 </i>
    <i name="Echarged">      0.00000000 </i>
    <i name="Edipol_quadrupol">      0.00000000 </i>
    <i name="Eion">      0.00000000 </i>
   </dipole>
   <energy>
    <i name="e_fr_energy">   -241.74192931 </i>
    <i name="e_wo_entrp">   -241.59514555 </i>
    <i name="e_0_energy">   -241.66853743 </i>
   </energy>
  </scstep>
  <scstep>
   <time name="diag">    1.44    1.45</time>
   <time name="diis">    4.02    4.03</time>
   <time name="orth">    0.35    0.35</time>
   <time name="total">    6.15    6.17</time>
   <dipole>
    <v name="dipole">      0.00000000       0.00000000       0.39227033 </v>
    <i name="Tr[quadrupol]"> -11049.99402702 </i>
    <i name="Echarged">      0.00000000 </i>
    <i name="Edipol_quadrupol">      0.00000000 </i>
    <i name="Eion">      0.00000000 </i>
   </dipole>
   <energy>
    <i name="e_fr_energy">   -235.10295263 </i>
    <i name="e_wo_entrp">   -234.95755065 </i>
    <i name="e_0_energy">   -235.03025164 </i>
   </energy>
  </scstep>
  <scstep>
   <time name="diag">    1.45    1.46</time>
   <time name="diis">    4.01    4.02</time>
   <time name="orth">    0.35    0.35</time>
   <time name="total">    6.14    6.16</time>
   <dipole>
    <v name="dipole">      0.00000000       0.00000000       0.38992930 </v>
    <i name="Tr[quadrupol]"> -11049.98274549 </i>
    <i name="Echarged">      0.00000000 </i>
    <i name="Edipol_quadrupol">      0.00000000 </i>
    <i name="Eion">      0.00000000 </i>
   </dipole>
   <energy>
    <i name="e_fr_energy">   -234.22477175 </i>
    <i name="e_wo_entrp">   -234.09396343 </i>
    <i name="e_0_energy">   -234.15936759 </i>
   </energy>
  </scstep>
  <scstep>
   <time name="diag">    1.46    1.46</time>
   <time name="diis">    3.98    3.99</time>
   <time name="orth">    0.36    0.36</time>
   <time name="total">    6.13    6.15</time>
   <dipole>
    <v name="dipole">      0.00000000       0.00000000       0.43196698 </v>
    <i name="Tr[quadrupol]"> -11050.09975987 </i>
    <i name="Echarged">      0.00000000 </i>
    <i name="Edipol_quadrupol">      0.00000000 </i>
    <i name="Eion">      0.00000000 </i>
   </dipole>
   <energy>
    <i name="e_fr_energy">   -234.01082468 </i>
    <i name="e_wo_entrp">   -233.87931313 </i>
    <i name="e_0_energy">   -233.94506890 </i>
   </energy>
  </scstep>
  <scstep>
   <time name="diag">    1.46    1.46</time>
   <time name="diis">    4.02    4.03</time>
   <time name="orth">    0.35    0.35</time>
   <time name="total">    6.16    6.17</time>
   <dipole>
    <v name="dipole">      0.00000000       0.00000000       0.46392600 </v>
    <i name="Tr[quadrupol]"> -11050.20104780 </i>
    <i name="Echarged">      0.00000000 </i>
    <i name="Edipol_quadrupol">      0.00000000 </i>
    <i name="Eion">      0.00000000 </i>
   </dipole>
   <energy>
    <i name="e_fr_energy">   -234.03535107 </i>
    <i name="e_wo_entrp">   -233.91689657 </i>
    <i name="e_0_energy">   -233.97612382 </i>
   </energy>
  </scstep>
  <scstep>
   <time name="diag">    1.44    1.52</time>
   <time name="diis">    4.02    4.03</time>
   <time name="orth">    0.35    0.35</time>
   <time name="total">    6.14    6.24</time>
   <dipole>
    <v name="dipole">      0.00000000       0.00000000       0.53172819 </v>
    <i name="Tr[quadrupol]"> -11050.56008928 </i>
    <i name="Echarged">      0.00000000 </i>
    <i name="Edipol_quadrupol">      0.00000000 </i>
    <i name="Eion">      0.00000000 </i>
   </dipole>
   <energy>
    <i name="e_fr_energy">   -233.86092184 </i>
    <i name="e_wo_entrp">   -233.73015483 </i>
    <i name="e_0_energy">   -233.79553834 </i>
   </energy>
  </scstep>
  <scstep>
   <time name="diag">    1.46    1.46</time>
   <time name="diis">    4.02    4.03</time>
   <time name="orth">    0.35    0.35</time>
   <time name="total">    6.16    6.18</time>
   <dipole>
    <v name="dipole">      0.00000000       0.00000000       0.46007704 </v>
    <i name="Tr[quadrupol]"> -11050.90217323 </i>
    <i name="Echarged">      0.00000000 </i>
    <i name="Edipol_quadrupol">      0.00000000 </i>
    <i name="Eion">      0.00000000 </i>
   </dipole>
   <energy>
    <i name="e_fr_energy">   -233.59489112 </i>
    <i name="e_wo_entrp">   -233.44628263 </i>
    <i name="e_0_energy">   -233.52058688 </i>
   </energy>
  </scstep>
  <scstep>
   <time name="diag">    1.46    1.46</time>
   <time name="diis">    3.99    4.00</time>
   <time name="orth">    0.35    0.35</time>
   <time name="total">    6.13    6.15</time>
   <dipole>
    <v name="dipole">      0.00000000       0.00000000       0.40056604 </v>
    <i name="Tr[quadrupol]"> -11051.00686912 </i>
    <i name="Echarged">      0.00000000 </i>
    <i name="Edipol_quadrupol">      0.00000000 </i>
    <i name="Eion">      0.00000000 </i>
   </dipole>
   <energy>
    <i name="e_fr_energy">   -233.54541354 </i>
    <i name="e_wo_entrp">   -233.38001528 </i>
    <i name="e_0_energy">   -233.46271441 </i>
   </energy>
  </scstep>
  <scstep>
   <time name="diag">    1.46    1.46</time>
   <time name="diis">    4.02    4.03</time>
   <time name="orth">    0.35    0.35</time>
   <time name="total">    6.16    6.17</time>
   <dipole>
    <v name="dipole">      0.00000000       0.00000000       0.40551228 </v>
    <i name="Tr[quadrupol]"> -11051.01814394 </i>
    <i name="Echarged">      0.00000000 </i>
    <i name="Edipol_quadrupol">      0.00000000 </i>
    <i name="Eion">      0.00000000 </i>
   </dipole>
   <energy>
    <i name="e_fr_energy">   -233.52502128 </i>
    <i name="e_wo_entrp">   -233.35974776 </i>
    <i name="e_0_energy">   -233.44238452 </i>
   </energy>
  </scstep>
  <scstep>
   <time name="diag">    1.45    1.45</time>
   <time name="diis">    3.96    4.00</time>
   <time name="orth">    0.35    0.35</time>
   <time name="total">    6.09    6.14</time>
   <dipole>
    <v name="dipole">      0.00000000       0.00000000       0.41079867 </v>
    <i name="Tr[quadrupol]"> -11051.07906639 </i>
    <i name="Echarged">      0.00000000 </i>
    <i name="Edipol_quadrupol">      0.00000000 </i>
    <i name="Eion">      0.00000000 </i>
   </dipole>
   <energy>
    <i name="e_fr_energy">   -233.51969033 </i>
    <i name="e_wo_entrp">   -233.35730969 </i>
    <i name="e_0_energy">   -233.43850001 </i>
   </energy>
  </scstep>
  <scstep>
   <time name="diag">    1.46    1.46</time>
   <time name="diis">    3.99    4.00</time>
   <time name="orth">    0.35    0.35</time>
   <time name="total">    6.12    6.14</time>
   <dipole>
    <v name="dipole">      0.00000000       0.00000000       0.40990388 </v>
    <i name="Tr[quadrupol]"> -11051.21525743 </i>
    <i name="Echarged">      0.00000000 </i>
    <i name="Edipol_quadrupol">      0.00000000 </i>
    <i name="Eion">      0.00000000 </i>
   </dipole>
   <energy>
    <i name="e_fr_energy">   -233.51751121 </i>
    <i name="e_wo_entrp">   -233.35024447 </i>
    <i name="e_0_energy">   -233.43387784 </i>
   </energy>
  </scstep>
  <scstep>
   <time name="diag">    1.45    1.45</time>
   <time name="diis">    3.91    4.02</time>
   <time name="orth">    0.35    0.35</time>
   <time name="total">    6.05    6.16</time>
   <dipole>
    <v name="dipole">      0.00000000       0.00000000       0.40866483 </v>
    <i name="Tr[quadrupol]"> -11051.28986144 </i>
    <i name="Echarged">      0.00000000 </i>
    <i name="Edipol_quadrupol">      0.00000000 </i>
    <i name="Eion">      0.00000000 </i>
   </dipole>
   <energy>
    <i name="e_fr_energy">   -233.51543558 </i>
    <i name="e_wo_entrp">   -233.34887259 </i>
    <i name="e_0_energy">   -233.43215409 </i>
   </energy>
  </scstep>
  <scstep>
   <time name="diag">    1.46    1.46</time>
   <time name="diis">    4.03    4.04</time>
   <time name="orth">    0.35    0.35</time>
   <time name="total">    6.16    6.18</time>
   <dipole>
    <v name="dipole">      0.00000000       0.00000000       0.41451046 </v>
    <i name="Tr[quadrupol]"> -11051.33915367 </i>
    <i name="Echarged">      0.00000000 </i>
    <i name="Edipol_quadrupol">      0.00000000 </i>
    <i name="Eion">      0.00000000 </i>
   </dipole>
   <energy>
    <i name="e_fr_energy">   -233.51467562 </i>
    <i name="e_wo_entrp">   -233.35220832 </i>
    <i name="e_0_energy">   -233.43344197 </i>
   </energy>
  </scstep>
  <scstep>
   <time name="diag">    1.45    1.46</time>
   <time name="diis">    4.01    4.02</time>
   <time name="orth">    0.35    0.35</time>
   <time name="total">    6.14    6.16</time>
   <dipole>
    <v name="dipole">      0.00000000       0.00000000       0.41543988 </v>
    <i name="Tr[quadrupol]"> -11051.41100983 </i>
    <i name="Echarged">      0.00000000 </i>
    <i name="Edipol_quadrupol">      0.00000000 </i>
    <i name="Eion">      0.00000000 </i>
   </dipole>
   <energy>
    <i name="e_fr_energy">   -233.51478155 </i>
    <i name="e_wo_entrp">   -233.35109162 </i>
    <i name="e_0_energy">   -233.43293659 </i>
   </energy>
  </scstep>
  <scstep>
   <time name="diag">    1.45    1.46</time>
   <time name="diis">    4.02    4.03</time>
   <time name="orth">    0.35    0.35</time>
   <time name="total">    6.15    6.17</time>
   <dipole>
    <v name="dipole">      0.00000000       0.00000000       0.41643044 </v>
    <i name="Tr[quadrupol]"> -11051.48324839 </i>
    <i name="Echarged">      0.00000000 </i>
    <i name="Edipol_quadrupol">      0.00000000 </i>
    <i name="Eion">      0.00000000 </i>
   </dipole>
   <energy>
    <i name="e_fr_energy">   -233.51488978 </i>
    <i name="e_wo_entrp">   -233.35095320 </i>
    <i name="e_0_energy">   -233.43292149 </i>
   </energy>
  </scstep>
  <scstep>
   <time name="diag">    1.45    1.46</time>
   <time name="diis">    3.96    3.98</time>
   <time name="orth">    0.35    0.35</time>
   <time name="total">    6.10    6.12</time>
   <dipole>
    <v name="dipole">      0.00000000       0.00000000       0.41663538 </v>
    <i name="Tr[quadrupol]"> -11051.53370417 </i>
    <i name="Echarged">      0.00000000 </i>
    <i name="Edipol_quadrupol">      0.00000000 </i>
    <i name="Eion">      0.00000000 </i>
   </dipole>
   <energy>
    <i name="e_fr_energy">   -233.51506626 </i>
    <i name="e_wo_entrp">   -233.35110652 </i>
    <i name="e_0_energy">   -233.43308639 </i>
   </energy>
  </scstep>
  <scstep>
   <time name="diag">    1.46    1.46</time>
   <time name="diis">    4.03    4.04</time>
   <time name="orth">    0.35    0.35</time>
   <time name="total">    6.16    6.18</time>
   <dipole>
    <v name="dipole">      0.00000000       0.00000000       0.41734726 </v>
    <i name="Tr[quadrupol]"> -11051.57820663 </i>
    <i name="Echarged">      0.00000000 </i>
    <i name="Edipol_quadrupol">      0.00000000 </i>
    <i name="Eion">      0.00000000 </i>
   </dipole>
   <energy>
    <i name="e_fr_energy">   -233.51526685 </i>
    <i name="e_wo_entrp">   -233.35140556 </i>
    <i name="e_0_energy">   -233.43333621 </i>
   </energy>
  </scstep>
  <scstep>
   <time name="diag">    1.45    1.46</time>
   <time name="diis">    4.00    4.01</time>
   <time name="orth">    0.35    0.35</time>
   <time name="total">    6.14    6.16</time>
   <dipole>
    <v name="dipole">      0.00000000       0.00000000       0.41849547 </v>
    <i name="Tr[quadrupol]"> -11051.62373388 </i>
    <i name="Echarged">      0.00000000 </i>
    <i name="Edipol_quadrupol">      0.00000000 </i>
    <i name="Eion">      0.00000000 </i>
   </dipole>
   <energy>
    <i name="e_fr_energy">   -233.51550601 </i>
    <i name="e_wo_entrp">   -233.35165568 </i>
    <i name="e_0_energy">   -233.43358085 </i>
   </energy>
  </scstep>
  <scstep>
   <time name="diag">    1.44    1.53</time>
   <time name="diis">    4.06    4.07</time>
   <time name="orth">    0.34    0.34</time>
   <time name="total">    6.18    6.28</time>
   <dipole>
    <v name="dipole">      0.00000000       0.00000000       0.41976746 </v>
    <i name="Tr[quadrupol]"> -11051.68061791 </i>
    <i name="Echarged">      0.00000000 </i>
    <i name="Edipol_quadrupol">      0.00000000 </i>
    <i name="Eion">      0.00000000 </i>
   </dipole>
   <energy>
    <i name="e_fr_energy">   -233.51582738 </i>
    <i name="e_wo_entrp">   -233.35178006 </i>
    <i name="e_0_energy">   -233.43380372 </i>
   </energy>
  </scstep>
  <scstep>
   <time name="diag">    1.45    1.46</time>
   <time name="diis">    3.93    3.97</time>
   <time name="orth">    0.34    0.34</time>
   <time name="total">    6.06    6.11</time>
   <dipole>
    <v name="dipole">      0.00000000       0.00000000       0.42185221 </v>
    <i name="Tr[quadrupol]"> -11051.74684287 </i>
    <i name="Echarged">      0.00000000 </i>
    <i name="Edipol_quadrupol">      0.00000000 </i>
    <i name="Eion">      0.00000000 </i>
   </dipole>
   <energy>
    <i name="e_fr_energy">   -233.51620659 </i>
    <i name="e_wo_entrp">   -233.35245777 </i>
    <i name="e_0_energy">   -233.43433218 </i>
   </energy>
  </scstep>
  <scstep>
   <time name="diag">    1.46    1.46</time>
   <time name="diis">    3.31    3.32</time>
   <time name="orth">    0.34    0.34</time>
   <time name="total">    5.44    5.46</time>
   <dipole>
    <v name="dipole">      0.00000000       0.00000000       0.42235421 </v>
    <i name="Tr[quadrupol]"> -11051.76692260 </i>
    <i name="Echarged">      0.00000000 </i>
    <i name="Edipol_quadrupol">      0.00000000 </i>
    <i name="Eion">      0.00000000 </i>
   </dipole>
   <energy>
    <i name="e_fr_energy">   -233.51632646 </i>
    <i name="e_wo_entrp">   -233.35261164 </i>
    <i name="e_0_energy">   -233.43446905 </i>
   </energy>
  </scstep>
  <scstep>
   <time name="diag">    1.45    1.46</time>
   <time name="diis">    2.85    2.85</time>
   <time name="orth">    0.34    0.34</time>
   <time name="total">    4.98    4.99</time>
   <dipole>
    <v name="dipole">      0.00000000       0.00000000       0.42301847 </v>
    <i name="Tr[quadrupol]"> -11051.79111455 </i>
    <i name="Echarged">      0.00000000 </i>
    <i name="Edipol_quadrupol">      0.00000000 </i>
    <i name="Eion">      0.00000000 </i>
   </dipole>
   <energy>
    <i name="e_fr_energy">   -233.51646783 </i>
    <i name="e_wo_entrp">   -233.35276686 </i>
    <i name="e_0_energy">   -233.43461735 </i>
   </energy>
  </scstep>
  <scstep>
   <time name="diag">    1.45    1.46</time>
   <time name="diis">    2.93    2.94</time>
   <time name="orth">    0.34    0.34</time>
   <time name="total">    5.06    5.08</time>
   <dipole>
    <v name="dipole">      0.00000000       0.00000000       0.42376876 </v>
    <i name="Tr[quadrupol]"> -11051.81843209 </i>
    <i name="Echarged">      0.00000000 </i>
    <i name="Edipol_quadrupol">      0.00000000 </i>
    <i name="Eion">      0.00000000 </i>
   </dipole>
   <energy>
    <i name="e_fr_energy">   -233.51660663 </i>
    <i name="e_wo_entrp">   -233.35282078 </i>
    <i name="e_0_energy">   -233.43471370 </i>
   </energy>
  </scstep>
  <scstep>
   <time name="diag">    1.45    1.45</time>
   <time name="diis">    3.21    3.22</time>
   <time name="orth">    0.34    0.34</time>
   <time name="total">    5.35    5.37</time>
   <dipole>
    <v name="dipole">      0.00000000       0.00000000       0.42521227 </v>
    <i name="Tr[quadrupol]"> -11051.86006234 </i>
    <i name="Echarged">      0.00000000 </i>
    <i name="Edipol_quadrupol">      0.00000000 </i>
    <i name="Eion">      0.00000000 </i>
   </dipole>
   <energy>
    <i name="e_fr_energy">   -233.51678179 </i>
    <i name="e_wo_entrp">   -233.35301871 </i>
    <i name="e_0_energy">   -233.43490025 </i>
   </energy>
  </scstep>
  <scstep>
   <time name="diag">    1.46    1.46</time>
   <time name="diis">    2.68    2.69</time>
   <time name="orth">    0.34    0.34</time>
   <time name="total">    4.82    4.84</time>
   <dipole>
    <v name="dipole">      0.00000000       0.00000000       0.42586313 </v>
    <i name="Tr[quadrupol]"> -11051.87748234 </i>
    <i name="Echarged">      0.00000000 </i>
    <i name="Edipol_quadrupol">      0.00000000 </i>
    <i name="Eion">      0.00000000 </i>
   </dipole>
   <energy>
    <i name="e_fr_energy">   -233.51684177 </i>
    <i name="e_wo_entrp">   -233.35305265 </i>
    <i name="e_0_energy">   -233.43494721 </i>
   </energy>
  </scstep>
  <scstep>
   <time name="diag">    1.45    1.45</time>
   <time name="diis">    2.61    2.70</time>
   <time name="orth">    0.34    0.34</time>
   <time name="total">    4.74    4.84</time>
   <dipole>
    <v name="dipole">      0.00000000       0.00000000       0.42686184 </v>
    <i name="Tr[quadrupol]"> -11051.89867796 </i>
    <i name="Echarged">      0.00000000 </i>
    <i name="Edipol_quadrupol">      0.00000000 </i>
    <i name="Eion">      0.00000000 </i>
   </dipole>
   <energy>
    <i name="e_fr_energy">   -233.51690174 </i>
    <i name="e_wo_entrp">   -233.35312248 </i>
    <i name="e_0_energy">   -233.43501211 </i>
   </energy>
  </scstep>
  <scstep>
   <time name="diag">    1.45    1.46</time>
   <time name="diis">    2.61    2.62</time>
   <time name="orth">    0.34    0.34</time>
   <time name="total">    4.74    4.76</time>
   <dipole>
    <v name="dipole">      0.00000000       0.00000000       0.42793826 </v>
    <i name="Tr[quadrupol]"> -11051.91959428 </i>
    <i name="Echarged">      0.00000000 </i>
    <i name="Edipol_quadrupol">      0.00000000 </i>
    <i name="Eion">      0.00000000 </i>
   </dipole>
   <energy>
    <i name="e_fr_energy">   -233.51694200 </i>
    <i name="e_wo_entrp">   -233.35314724 </i>
    <i name="e_0_energy">   -233.43504462 </i>
   </energy>
  </scstep>
  <scstep>
   <time name="diag">    1.46    1.47</time>
   <time name="diis">    2.47    2.47</time>
   <time name="orth">    0.34    0.34</time>
   <time name="total">    4.61    4.63</time>
   <dipole>
    <v name="dipole">      0.00000000       0.00000000       0.42863368 </v>
    <i name="Tr[quadrupol]"> -11051.93188512 </i>
    <i name="Echarged">      0.00000000 </i>
    <i name="Edipol_quadrupol">      0.00000000 </i>
    <i name="Eion">      0.00000000 </i>
   </dipole>
   <energy>
    <i name="e_fr_energy">   -233.51695505 </i>
    <i name="e_wo_entrp">   -233.35315940 </i>
    <i name="e_0_energy">   -233.43505723 </i>
   </energy>
  </scstep>
  <scstep>
   <time name="diag">    1.45    1.46</time>
   <time name="diis">    2.03    2.04</time>
   <time name="orth">    0.34    0.34</time>
   <time name="total">    4.16    4.17</time>
   <dipole>
    <v name="dipole">      0.00000000       0.00000000       0.42888343 </v>
    <i name="Tr[quadrupol]"> -11051.93548734 </i>
    <i name="Echarged">      0.00000000 </i>
    <i name="Edipol_quadrupol">      0.00000000 </i>
    <i name="Eion">      0.00000000 </i>
   </dipole>
   <energy>
    <i name="e_fr_energy">   -233.51695807 </i>
    <i name="e_wo_entrp">   -233.35315773 </i>
    <i name="e_0_energy">   -233.43505790 </i>
   </energy>
  </scstep>
  <scstep>
   <time name="diag">    1.46    1.46</time>
   <time name="diis">    1.95    1.96</time>
   <time name="orth">    0.34    0.34</time>
   <time name="total">    4.09    4.10</time>
   <dipole>
    <v name="dipole">      0.00000000       0.00000000       0.42922371 </v>
    <i name="Tr[quadrupol]"> -11051.93894925 </i>
    <i name="Echarged">      0.00000000 </i>
    <i name="Edipol_quadrupol">      0.00000000 </i>
    <i name="Eion">      0.00000000 </i>
   </dipole>
   <energy>
    <i name="e_fr_energy">   -233.51696229 </i>
    <i name="e_wo_entrp">   -233.35316324 </i>
    <i name="e_0_energy">   -233.43506276 </i>
   </energy>
  </scstep>
  <scstep>
   <time name="diag">    1.45    1.46</time>
   <time name="diis">    2.33    2.33</time>
   <time name="orth">    0.34    0.34</time>
   <time name="total">    4.45    4.47</time>
   <dipole>
    <v name="dipole">      0.00000000       0.00000000       0.42981580 </v>
    <i name="Tr[quadrupol]"> -11051.94454662 </i>
    <i name="Echarged">      0.00000000 </i>
    <i name="Edipol_quadrupol">      0.00000000 </i>
    <i name="Eion">      0.00000000 </i>
   </dipole>
   <energy>
    <i name="e_fr_energy">   -233.51696865 </i>
    <i name="e_wo_entrp">   -233.35316198 </i>
    <i name="e_0_energy">   -233.43506531 </i>
   </energy>
  </scstep>
  <scstep>
   <time name="diag">    1.45    1.45</time>
   <time name="diis">    1.77    1.78</time>
   <time name="orth">    0.35    0.35</time>
   <time name="total">    3.90    3.92</time>
   <dipole>
    <v name="dipole">      0.00000000       0.00000000       0.43018624 </v>
    <i name="Tr[quadrupol]"> -11051.94781034 </i>
    <i name="Echarged">      0.00000000 </i>
    <i name="Edipol_quadrupol">      0.00000000 </i>
    <i name="Eion">      0.00000000 </i>
   </dipole>
   <energy>
    <i name="e_fr_energy">   -233.51697142 </i>
    <i name="e_wo_entrp">   -233.35316712 </i>
    <i name="e_0_energy">   -233.43506927 </i>
   </energy>
  </scstep>
  <scstep>
   <time name="diag">    1.46    1.46</time>
   <time name="diis">    1.82    1.82</time>
   <time name="orth">    0.34    0.35</time>
   <time name="total">    3.95    3.96</time>
   <dipole>
    <v name="dipole">      0.00000000       0.00000000       0.43041215 </v>
    <i name="Tr[quadrupol]"> -11051.94976216 </i>
    <i name="Echarged">      0.00000000 </i>
    <i name="Edipol_quadrupol">      0.00000000 </i>
    <i name="Eion">      0.00000000 </i>
   </dipole>
   <energy>
    <i name="e_fr_energy">   -233.51697278 </i>
    <i name="e_wo_entrp">   -233.35316791 </i>
    <i name="e_0_energy">   -233.43507035 </i>
   </energy>
  </scstep>
  <scstep>
   <time name="diag">    1.45    1.45</time>
   <time name="diis">    1.93    1.93</time>
   <time name="orth">    0.34    0.34</time>
   <time name="total">    4.06    4.07</time>
   <dipole>
    <v name="dipole">      0.00000000       0.00000000       0.43074681 </v>
    <i name="Tr[quadrupol]"> -11051.95276904 </i>
    <i name="Echarged">      0.00000000 </i>
    <i name="Edipol_quadrupol">      0.00000000 </i>
    <i name="Eion">      0.00000000 </i>
   </dipole>
   <energy>
    <i name="e_fr_energy">   -233.51697413 </i>
    <i name="e_wo_entrp">   -233.35316323 </i>
    <i name="e_0_energy">   -233.43506868 </i>
   </energy>
  </scstep>
  <scstep>
   <time name="diag">    1.46    1.47</time>
   <time name="diis">    1.64    1.66</time>
   <time name="orth">    0.34    0.37</time>
   <time name="total">    3.49    3.56</time>
   <dipole>
    <v name="dipole">      0.00000000       0.00000000       0.43090208 </v>
    <i name="Tr[quadrupol]"> -11051.95414960 </i>
    <i name="Echarged">      0.00000000 </i>
    <i name="Edipol_quadrupol">      0.00000000 </i>
    <i name="Eion">      0.00000000 </i>
   </dipole>
   <energy>
    <i name="alphaZ">    866.04323355 </i>
    <i name="ewald"> 230456.26457416 </i>
    <i name="hartreedc">-275764.32714515 </i>
    <i name="XCdc">   -129.90068439 </i>
    <i name="pawpsdc">  51838.43154182 </i>
    <i name="pawaedc"> -49927.70499190 </i>
    <i name="eentropy">     -0.16381047 </i>
    <i name="bandstr">  -2690.05113271 </i>
    <i name="atom">  45117.89144060 </i>
    <i name="e_fr_energy">   -233.51697448 </i>
    <i name="e_wo_entrp">   -233.35316401 </i>
    <i name="e_0_energy">   -233.43506924 </i>
   </energy>
  </scstep>
  <structure>
   <crystal>
    <varray name="basis" >
     <v>      11.00258152       0.00000000       0.00000000 </v>
     <v>       5.50129076       9.52851510       0.00000000 </v>
     <v>       0.00000000       0.00000000      26.19178509 </v>
    </varray>
    <i name="volume">   2745.90128299 </i>
    <varray name="rec_basis" >
     <v>       0.09088776      -0.05247407       0.00000000 </v>
     <v>       0.00000000       0.10494815       0.00000000 </v>
     <v>       0.00000000       0.00000000       0.03817991 </v>
    </varray>
   </crystal>
   <varray name="positions" >
    <v>       0.08333333       0.08333333       0.38179910 </v>
    <v>       0.24165309       0.49364797       0.56900545 </v>
    <v>       0.42271775       0.91624530       0.47409883 </v>
    <v>       0.67257946       0.91787563       0.47075766 </v>
    <v>       0.00825774       0.00210181       0.56281206 </v>
    <v>       0.08333333       0.33333333       0.38179910 </v>
    <v>       0.67908056       0.66504169       0.48505429 </v>
    <v>       0.67362747       0.41756969       0.48284952 </v>
    <v>       0.08333333       0.58333333       0.38179910 </v>
    <v>       0.83333333       0.33333333       0.38179910 </v>
    <v>       0.93306225       0.52999994       0.56240945 </v>
    <v>       0.92137316       0.91764468       0.47315063 </v>
    <v>       0.83333333       0.08333333       0.38179910 </v>
    <v>       0.50778204       0.47976086       0.57668904 </v>
    <v>       0.42360624       0.66590419       0.47927563 </v>
    <v>       0.33333333       0.08333333       0.38179910 </v>
    <v>       0.58333333       0.58333333       0.38179910 </v>
    <v>       0.58333333       0.33333333       0.38179910 </v>
    <v>       0.53728933       0.95928833       0.56633470 </v>
    <v>       0.41720008       0.17141199       0.47654011 </v>
    <v>       0.74370321       0.76427059       0.63785208 </v>
    <v>       0.33333333       0.83333333       0.38179910 </v>
    <v>       0.33333333       0.58333333       0.38179910 </v>
    <v>       0.16898385       0.66581372       0.47751573 </v>
    <v>       0.11853738       0.29592477       0.62542031 </v>
    <v>       0.36439077       0.32190942       0.62371313 </v>
    <v>       0.05760408       0.59210467       0.61261967 </v>
    <v>       0.34197924       0.99256125       0.63179963 </v>
    <v>       0.83758406       0.87538945       0.62334250 </v>
    <v>       0.39292361       0.68151135       0.61936847 </v>
    <v>       0.64042263       0.66357195       0.65149937 </v>
    <v>       0.87700542       0.27110304       0.62293762 </v>
    <v>       0.58333333       0.83333333       0.38179910 </v>
    <v>       0.41771616       0.41800073       0.47875657 </v>
    <v>       0.50365437       0.23976458       0.56704519 </v>
    <v>       0.16759052       0.41693348       0.47482239 </v>
    <v>       0.16830697       0.17132589       0.47920743 </v>
    <v>       0.25191700       0.75378092       0.56597308 </v>
    <v>       0.17190898       0.91850148       0.47394714 </v>
    <v>       0.99228043       0.76273072       0.57201852 </v>
    <v>       0.26951048       0.98648479       0.56384276 </v>
    <v>       0.08333333       0.83333333       0.38179910 </v>
    <v>       0.52742982       0.71833514       0.58015219 </v>
    <v>       0.66912421       0.17201234       0.47916049 </v>
    <v>       0.75010560       0.00936799       0.56319627 </v>
    <v>       0.92105968       0.66639915       0.47192043 </v>
    <v>       0.76196360       0.24769018       0.56966069 </v>
    <v>       0.03081590       0.24113465       0.57124359 </v>
    <v>       0.83333333       0.58333333       0.38179910 </v>
    <v>       0.92088980       0.41633672       0.47272526 </v>
    <v>       0.75325700       0.47104483       0.62643511 </v>
    <v>       0.83333333       0.83333333       0.38179910 </v>
    <v>       0.92334775       0.16951875       0.47718826 </v>
    <v>       0.31735102       0.17441800       0.62497779 </v>
    <v>       0.58333333       0.08333333       0.38179910 </v>
    <v>       0.33333333       0.33333333       0.38179910 </v>
   </varray>
  </structure>
  <varray name="forces" >
   <v>      -0.06322751      -0.13514316      -0.02225472 </v>
   <v>       0.05464541      -0.01746939       0.16867903 </v>
   <v>      -0.04407966      -0.04393591       0.07047251 </v>
   <v>       0.05267003      -0.03534612       0.08127080 </v>
   <v>       0.03493785      -0.10665495       0.06794693 </v>
   <v>       0.19045532       0.09318366      -0.03151078 </v>
   <v>      -0.02057024       0.07510451       0.15024704 </v>
   <v>      -0.03845062      -0.06465811       0.03042747 </v>
   <v>       0.01173982       0.13131227      -0.23982278 </v>
   <v>       0.01191735       0.19096663      -0.06645437 </v>
   <v>      -0.15718931       0.10692286      -0.03956193 </v>
   <v>      -0.02873650       0.01559311       0.02615605 </v>
   <v>      -0.27838339      -0.12230774      -0.10672549 </v>
   <v>       0.04043738      -0.02765604       0.08398473 </v>
   <v>       0.06836664       0.04008076       0.13332450 </v>
   <v>       0.30277766       0.10542879      -0.18192231 </v>
   <v>       0.43082676       0.19302572      -0.05780188 </v>
   <v>      -0.37583259      -0.26123660       0.07811838 </v>
   <v>       0.19050389       0.16415696      -0.07444739 </v>
   <v>       0.01626994       0.05480910      -0.02430682 </v>
   <v>      -0.23828827       0.27200332      -0.44155957 </v>
   <v>      -0.02694954      -0.08859736      -0.37699778 </v>
   <v>      -0.20458857      -0.07002537      -0.07626008 </v>
   <v>      -0.09282656       0.07679279       0.16751331 </v>
   <v>      -0.01095649      -0.03164761      -0.19258540 </v>
   <v>      -0.04334718       0.03077785      -0.21529179 </v>
   <v>      -0.00977928      -0.27664648      -0.14248486 </v>
   <v>      -0.21120742       0.14249073      -0.01595360 </v>
   <v>       0.11484027      -0.01084429      -0.02250152 </v>
   <v>      -0.18893175      -0.13835396       0.00365392 </v>
   <v>       0.08347537      -0.03069656      -0.40437737 </v>
   <v>      -0.16717159       0.20492935      -0.23076023 </v>
   <v>       0.23641907      -0.16285480       0.14216378 </v>
   <v>       0.02930182      -0.05473153      -0.02765295 </v>
   <v>       0.09994350      -0.08642933      -0.03005348 </v>
   <v>      -0.00605280       0.03370207       0.02459453 </v>
   <v>       0.04213756      -0.10519758       0.03397389 </v>
   <v>      -0.00430690      -0.05772961      -0.06538518 </v>
   <v>      -0.02066638      -0.03307152       0.12416517 </v>
   <v>       0.05968496      -0.08366114      -0.05542424 </v>
   <v>      -0.13967443      -0.15112212       0.00403493 </v>
   <v>      -0.00344544      -0.09724411       0.15847346 </v>
   <v>       0.12089296       0.10694128       0.24154715 </v>
   <v>      -0.04031442      -0.00254672       0.02269423 </v>
   <v>       0.11726081      -0.12891698       0.22163643 </v>
   <v>       0.03788985       0.05519410       0.01737371 </v>
   <v>      -0.07242820      -0.22106677      -0.12011320 </v>
   <v>      -0.05682759       0.20178603       0.06833455 </v>
   <v>      -0.11779227       0.24549536       0.36366802 </v>
   <v>      -0.04728803      -0.02195045       0.13804536 </v>
   <v>       0.28150783       0.07468648       0.19366900 </v>
   <v>      -0.10816702      -0.02904093      -0.07593065 </v>
   <v>      -0.00247376       0.11026887      -0.09563909 </v>
   <v>       0.00925082      -0.09040886       0.12723417 </v>
   <v>       0.06515718       0.11939062       0.10266429 </v>
   <v>       0.11664363      -0.05785114       0.38771207 </v>
  </varray>
  <energy>
   <i name="e_fr_energy">   -233.51697448 </i>
   <i name="e_wo_entrp">   -233.43506924 </i>
   <i name="e_0_energy">     -0.16381047 </i>
  </energy>
  <time name="totalsc">  276.97  279.55</time>
 </calculation>
 <calculation>
  <scstep>
   <time name="dav">    8.46    8.48</time>
   <time name="total">    8.78    8.82</time>
   <dipole>
    <v name="dipole">      0.00000000       0.00000000       0.43096122 </v>
    <i name="Tr[quadrupol]"> -11049.12213212 </i>
    <i name="Echarged">      0.00000000 </i>
    <i name="Edipol_quadrupol">      0.00000000 </i>
    <i name="Eion">      0.00000000 </i>
   </dipole>
   <energy>
    <i name="alphaZ">    866.03861573 </i>
    <i name="ewald"> 230518.47579387 </i>
    <i name="hartreedc">-275825.36635139 </i>
    <i name="XCdc">   -129.83302452 </i>
    <i name="pawpsdc">  51838.42993133 </i>
    <i name="pawaedc"> -49927.70335984 </i>
    <i name="eentropy">     -0.16293777 </i>
    <i name="bandstr">  -2691.32013061 </i>
    <i name="atom">  45117.89144060 </i>
    <i name="e_fr_energy">   -233.55002260 </i>
    <i name="e_wo_entrp">   -233.38708483 </i>
    <i name="e_0_energy">   -233.46855371 </i>
   </energy>
  </scstep>
  <scstep>
   <time name="diag">    1.47    1.47</time>
   <time name="diis">    3.94    3.95</time>
   <time name="orth">    0.34    0.34</time>
   <time name="total">    6.07    6.09</time>
   <dipole>
    <v name="dipole">      0.00000000       0.00000000       0.41793983 </v>
    <i name="Tr[quadrupol]"> -11049.14024424 </i>
    <i name="Echarged">      0.00000000 </i>
    <i name="Edipol_quadrupol">      0.00000000 </i>
    <i name="Eion">      0.00000000 </i>
   </dipole>
   <energy>
    <i name="e_fr_energy">   -233.57627694 </i>
    <i name="e_wo_entrp">   -233.41253805 </i>
    <i name="e_0_energy">   -233.49440750 </i>
   </energy>
  </scstep>
  <scstep>
   <time name="diag">    1.46    1.46</time>
   <time name="diis">    4.03    4.04</time>
   <time name="orth">    0.34    0.34</time>
   <time name="total">    6.16    6.18</time>
   <dipole>
    <v name="dipole">      0.00000000       0.00000000       0.43281563 </v>
    <i name="Tr[quadrupol]"> -11049.16187504 </i>
    <i name="Echarged">      0.00000000 </i>
    <i name="Edipol_quadrupol">      0.00000000 </i>
    <i name="Eion">      0.00000000 </i>
   </dipole>
   <energy>
    <i name="e_fr_energy">   -233.57557670 </i>
    <i name="e_wo_entrp">   -233.41469082 </i>
    <i name="e_0_energy">   -233.49513376 </i>
   </energy>
  </scstep>
  <scstep>
   <time name="diag">    1.45    1.45</time>
   <time name="diis">    4.00    4.01</time>
   <time name="orth">    0.34    0.34</time>
   <time name="total">    6.12    6.13</time>
   <dipole>
    <v name="dipole">      0.00000000       0.00000000       0.40698585 </v>
    <i name="Tr[quadrupol]"> -11049.15705590 </i>
    <i name="Echarged">      0.00000000 </i>
    <i name="Edipol_quadrupol">      0.00000000 </i>
    <i name="Eion">      0.00000000 </i>
   </dipole>
   <energy>
    <i name="e_fr_energy">   -233.57574087 </i>
    <i name="e_wo_entrp">   -233.40748093 </i>
    <i name="e_0_energy">   -233.49161090 </i>
   </energy>
  </scstep>
  <scstep>
   <time name="diag">    1.45    1.46</time>
   <time name="diis">    3.98    3.99</time>
   <time name="orth">    0.34    0.34</time>
   <time name="total">    6.11    6.13</time>
   <dipole>
    <v name="dipole">      0.00000000       0.00000000       0.42880271 </v>
    <i name="Tr[quadrupol]"> -11049.16192606 </i>
    <i name="Echarged">      0.00000000 </i>
    <i name="Edipol_quadrupol">      0.00000000 </i>
    <i name="Eion">      0.00000000 </i>
   </dipole>
   <energy>
    <i name="e_fr_energy">   -233.57325080 </i>
    <i name="e_wo_entrp">   -233.41414113 </i>
    <i name="e_0_energy">   -233.49369596 </i>
   </energy>
  </scstep>
  <scstep>
   <time name="diag">    1.45    1.45</time>
   <time name="diis">    3.91    4.00</time>
   <time name="orth">    0.34    0.34</time>
   <time name="total">    6.02    6.13</time>
   <dipole>
    <v name="dipole">      0.00000000       0.00000000       0.41125747 </v>
    <i name="Tr[quadrupol]"> -11049.17575419 </i>
    <i name="Echarged">      0.00000000 </i>
    <i name="Edipol_quadrupol">      0.00000000 </i>
    <i name="Eion">      0.00000000 </i>
   </dipole>
   <energy>
    <i name="e_fr_energy">   -233.57301030 </i>
    <i name="e_wo_entrp">   -233.40594702 </i>
    <i name="e_0_energy">   -233.48947866 </i>
   </energy>
  </scstep>
  <scstep>
   <time name="diag">    1.46    1.47</time>
   <time name="diis">    4.00    4.01</time>
   <time name="orth">    0.34    0.35</time>
   <time name="total">    6.13    6.16</time>
   <dipole>
    <v name="dipole">      0.00000000       0.00000000       0.42067788 </v>
    <i name="Tr[quadrupol]"> -11049.18297353 </i>
    <i name="Echarged">      0.00000000 </i>
    <i name="Edipol_quadrupol">      0.00000000 </i>
    <i name="Eion">      0.00000000 </i>
   </dipole>
   <energy>
    <i name="e_fr_energy">   -233.57194568 </i>
    <i name="e_wo_entrp">   -233.40977350 </i>
    <i name="e_0_energy">   -233.49085959 </i>
   </energy>
  </scstep>
  <scstep>
   <time name="diag">    1.43    1.45</time>
   <time name="diis">    4.02    4.03</time>
   <time name="orth">    0.34    0.34</time>
   <time name="total">    6.11    6.15</time>
   <dipole>
    <v name="dipole">      0.00000000       0.00000000       0.41960220 </v>
    <i name="Tr[quadrupol]"> -11049.18424804 </i>
    <i name="Echarged">      0.00000000 </i>
    <i name="Edipol_quadrupol">      0.00000000 </i>
    <i name="Eion">      0.00000000 </i>
   </dipole>
   <energy>
    <i name="e_fr_energy">   -233.57171967 </i>
    <i name="e_wo_entrp">   -233.40879644 </i>
    <i name="e_0_energy">   -233.49025805 </i>
   </energy>
  </scstep>
  <scstep>
   <time name="diag">    1.45    1.46</time>
   <time name="diis">    4.02    4.03</time>
   <time name="orth">    0.34    0.34</time>
   <time name="total">    6.15    6.16</time>
   <dipole>
    <v name="dipole">      0.00000000       0.00000000       0.42047469 </v>
    <i name="Tr[quadrupol]"> -11049.18504963 </i>
    <i name="Echarged">      0.00000000 </i>
    <i name="Edipol_quadrupol">      0.00000000 </i>
    <i name="Eion">      0.00000000 </i>
   </dipole>
   <energy>
    <i name="e_fr_energy">   -233.57167542 </i>
    <i name="e_wo_entrp">   -233.40888763 </i>
    <i name="e_0_energy">   -233.49028153 </i>
   </energy>
  </scstep>
  <scstep>
   <time name="diag">    1.45    1.45</time>
   <time name="diis">    4.03    4.04</time>
   <time name="orth">    0.34    0.34</time>
   <time name="total">    6.14    6.16</time>
   <dipole>
    <v name="dipole">      0.00000000       0.00000000       0.41987965 </v>
    <i name="Tr[quadrupol]"> -11049.18624240 </i>
    <i name="Echarged">      0.00000000 </i>
    <i name="Edipol_quadrupol">      0.00000000 </i>
    <i name="Eion">      0.00000000 </i>
   </dipole>
   <energy>
    <i name="e_fr_energy">   -233.57165851 </i>
    <i name="e_wo_entrp">   -233.40876775 </i>
    <i name="e_0_energy">   -233.49021313 </i>
   </energy>
  </scstep>
  <scstep>
   <time name="diag">    1.46    1.46</time>
   <time name="diis">    3.97    3.98</time>
   <time name="orth">    0.35    0.35</time>
   <time name="total">    6.09    6.11</time>
   <dipole>
    <v name="dipole">      0.00000000       0.00000000       0.41992513 </v>
    <i name="Tr[quadrupol]"> -11049.18795447 </i>
    <i name="Echarged">      0.00000000 </i>
    <i name="Edipol_quadrupol">      0.00000000 </i>
    <i name="Eion">      0.00000000 </i>
   </dipole>
   <energy>
    <i name="e_fr_energy">   -233.57165891 </i>
    <i name="e_wo_entrp">   -233.40869198 </i>
    <i name="e_0_energy">   -233.49017544 </i>
   </energy>
  </scstep>
  <scstep>
   <time name="diag">    1.44    1.44</time>
   <time name="diis">    3.76    3.77</time>
   <time name="orth">    0.34    0.34</time>
   <time name="total">    5.60    5.62</time>
   <dipole>
    <v name="dipole">      0.00000000       0.00000000       0.41954037 </v>
    <i name="Tr[quadrupol]"> -11049.18855983 </i>
    <i name="Echarged">      0.00000000 </i>
    <i name="Edipol_quadrupol">      0.00000000 </i>
    <i name="Eion">      0.00000000 </i>
   </dipole>
   <energy>
    <i name="alphaZ">    865.94702399 </i>
    <i name="ewald"> 230518.47579387 </i>
    <i name="hartreedc">-275828.24757917 </i>
    <i name="XCdc">   -129.79188460 </i>
    <i name="pawpsdc">  51857.65535264 </i>
    <i name="pawaedc"> -49947.08365325 </i>
    <i name="eentropy">     -0.16304426 </i>
    <i name="bandstr">  -2688.25510822 </i>
    <i name="atom">  45117.89144060 </i>
    <i name="e_fr_energy">   -233.57165840 </i>
    <i name="e_wo_entrp">   -233.40861414 </i>
    <i name="e_0_energy">   -233.49013627 </i>
   </energy>
  </scstep>
  <structure>
   <crystal>
    <varray name="basis" >
     <v>      11.00258152       0.00000000       0.00000000 </v>
     <v>       5.50129076       9.52851510       0.00000000 </v>
     <v>       0.00000000       0.00000000      26.19178509 </v>
    </varray>
    <i name="volume">   2745.90128299 </i>
    <varray name="rec_basis" >
     <v>       0.09088776      -0.05247407       0.00000000 </v>
     <v>       0.00000000       0.10494815       0.00000000 </v>
     <v>       0.00000000       0.00000000       0.03817991 </v>
    </varray>
   </crystal>
   <varray name="positions" >
    <v>       0.08333333       0.08333333       0.38179910 </v>
    <v>       0.24185177       0.49358606       0.56922294 </v>
    <v>       0.42266031       0.91608958       0.47418969 </v>
    <v>       0.67280376       0.91775036       0.47086245 </v>
    <v>       0.00855397       0.00172382       0.56289967 </v>
    <v>       0.08333333       0.33333333       0.38179910 </v>
    <v>       0.67888433       0.66530786       0.48524801 </v>
    <v>       0.67362403       0.41734053       0.48288876 </v>
    <v>       0.08333333       0.58333333       0.38179910 </v>
    <v>       0.83333333       0.33333333       0.38179910 </v>
    <v>       0.93239033       0.53037888       0.56235844 </v>
    <v>       0.92125733       0.91769994       0.47318435 </v>
    <v>       0.83333333       0.08333333       0.38179910 </v>
    <v>       0.50795516       0.47966284       0.57679733 </v>
    <v>       0.42374506       0.66604624       0.47944753 </v>
    <v>       0.33333333       0.08333333       0.38179910 </v>
    <v>       0.58333333       0.58333333       0.38179910 </v>
    <v>       0.58333333       0.33333333       0.38179910 </v>
    <v>       0.53758315       0.95987012       0.56623871 </v>
    <v>       0.41715289       0.17160624       0.47650877 </v>
    <v>       0.74248984       0.76523459       0.63728277 </v>
    <v>       0.33333333       0.83333333       0.38179910 </v>
    <v>       0.33333333       0.58333333       0.38179910 </v>
    <v>       0.16856286       0.66608588       0.47773171 </v>
    <v>       0.11855983       0.29581261       0.62517200 </v>
    <v>       0.36420319       0.32201850       0.62343555 </v>
    <v>       0.05806430       0.59112421       0.61243596 </v>
    <v>       0.34107849       0.99306625       0.63177906 </v>
    <v>       0.83795575       0.87535102       0.62331348 </v>
    <v>       0.39258889       0.68102101       0.61937318 </v>
    <v>       0.64073323       0.66346316       0.65097800 </v>
    <v>       0.87612919       0.27182932       0.62264010 </v>
    <v>       0.58333333       0.83333333       0.38179910 </v>
    <v>       0.41790308       0.41780675       0.47872091 </v>
    <v>       0.50411428       0.23945827       0.56700644 </v>
    <v>       0.16751222       0.41705293       0.47485410 </v>
    <v>       0.16862272       0.17095306       0.47925123 </v>
    <v>       0.25200608       0.75357632       0.56588877 </v>
    <v>       0.17190416       0.91838427       0.47410723 </v>
    <v>       0.99261188       0.76243421       0.57194706 </v>
    <v>       0.26934958       0.98594920       0.56384796 </v>
    <v>       0.08333333       0.83333333       0.38179910 </v>
    <v>       0.52761136       0.71871415       0.58046362 </v>
    <v>       0.66900499       0.17200331       0.47918975 </v>
    <v>       0.75069395       0.00891110       0.56348203 </v>
    <v>       0.92107817       0.66659476       0.47194283 </v>
    <v>       0.76213304       0.24690670       0.56950583 </v>
    <v>       0.03028391       0.24184979       0.57133169 </v>
    <v>       0.83333333       0.58333333       0.38179910 </v>
    <v>       0.92078356       0.41625893       0.47290325 </v>
    <v>       0.75398868       0.47130953       0.62668481 </v>
    <v>       0.83333333       0.83333333       0.38179910 </v>
    <v>       0.92314476       0.16990955       0.47706495 </v>
    <v>       0.31753962       0.17409758       0.62514183 </v>
    <v>       0.58333333       0.08333333       0.38179910 </v>
    <v>       0.33333333       0.33333333       0.38179910 </v>
   </varray>
  </structure>
  <varray name="forces" >
   <v>      -0.06183314      -0.14135734      -0.01723291 </v>
   <v>       0.07424308      -0.04004384       0.12057426 </v>
   <v>      -0.01453105      -0.01963827       0.05799601 </v>
   <v>       0.02993564      -0.01669756       0.05335289 </v>
   <v>       0.03346398      -0.06375267       0.04741654 </v>
   <v>       0.18532937       0.09735040      -0.01708433 </v>
   <v>      -0.00562263       0.03775720       0.14261560 </v>
   <v>      -0.03606005      -0.02412158       0.02798801 </v>
   <v>       0.01558865       0.13253399      -0.23318266 </v>
   <v>       0.01491900       0.19798941      -0.06625017 </v>
   <v>      -0.14665479       0.12187773      -0.03220343 </v>
   <v>      -0.00958678       0.04289221       0.02238290 </v>
   <v>      -0.27935441      -0.12397272      -0.10529154 </v>
   <v>       0.07150399      -0.03457931       0.08153712 </v>
   <v>       0.04260826       0.00588380       0.11349730 </v>
   <v>       0.30470427       0.10222871      -0.17656920 </v>
   <v>       0.42861374       0.19424582      -0.05036633 </v>
   <v>      -0.37518569      -0.26134247       0.07594235 </v>
   <v>       0.10906721       0.16778330      -0.08812520 </v>
   <v>       0.00524858       0.02593043      -0.02586046 </v>
   <v>      -0.08148257       0.27970789      -0.40083139 </v>
   <v>      -0.03042029      -0.08844373      -0.36907915 </v>
   <v>      -0.20754040      -0.06387773      -0.06110256 </v>
   <v>      -0.05099560       0.03279446       0.14164566 </v>
   <v>       0.03235193      -0.01347426      -0.12561814 </v>
   <v>      -0.04112103       0.01174781      -0.17127462 </v>
   <v>      -0.04685248      -0.21185211      -0.12741715 </v>
   <v>      -0.23479225       0.07292743       0.02177421 </v>
   <v>       0.07130895      -0.05326131       0.01874447 </v>
   <v>      -0.14422031      -0.12989207       0.00845071 </v>
   <v>       0.00618516       0.06716599      -0.30087031 </v>
   <v>      -0.12936663       0.13248412      -0.16909181 </v>
   <v>       0.23714368      -0.16027861       0.15439201 </v>
   <v>       0.01869443      -0.00709078      -0.01662270 </v>
   <v>       0.10193712      -0.07236857      -0.03797717 </v>
   <v>      -0.00738493       0.02649319       0.02272359 </v>
   <v>       0.03086366      -0.07060046       0.03221953 </v>
   <v>      -0.00323585      -0.07089991      -0.05398741 </v>
   <v>      -0.02675306      -0.01811002       0.09160229 </v>
   <v>       0.05196111      -0.12188795      -0.02042247 </v>
   <v>      -0.09886396      -0.10642630       0.01648966 </v>
   <v>      -0.00228171      -0.09787323       0.16554529 </v>
   <v>       0.04038465       0.10644208       0.18790193 </v>
   <v>      -0.02893816      -0.03195462       0.02555382 </v>
   <v>       0.10777673      -0.07569865       0.15611276 </v>
   <v>       0.01132101       0.03096181       0.00655013 </v>
   <v>      -0.07550410      -0.18137514      -0.14066136 </v>
   <v>      -0.07956170       0.11329255      -0.02639474 </v>
   <v>      -0.11618469       0.24170385       0.37489339 </v>
   <v>      -0.03289567      -0.00685896       0.10428387 </v>
[...]
       <r>   -19.2311    10.5199    13.2806 </r>
       <r>   -19.1377     6.7099    13.9072 </r>
       <r>   -19.0443     0.9830    13.9991 </r>
       <r>   -18.9509     0.7602    14.0701 </r>
       <r>   -18.8575     5.9277    14.6237 </r>
       <r>   -18.7641    10.3846    15.5936 </r>
       <r>   -18.6707     4.0147    15.9685 </r>
       <r>   -18.5773     0.3315    15.9995 </r>
       <r>   -18.4839     0.0055    16.0000 </r>
       <r>   -18.3905     0.0000    16.0000 </r>
       <r>   -18.2971     0.0000    16.0000 </r>
       <r>   -18.2037     0.0000    16.0000 </r>
       <r>   -18.1103     0.0000    16.0000 </r>
       <r>   -18.0169     0.0000    16.0000 </r>
       <r>   -17.9235     0.0000    16.0000 </r>
       <r>   -17.8301     0.0000    16.0000 </r>
       <r>   -17.7367     0.0000    16.0000 </r>
       <r>   -17.6433     0.0000    16.0000 </r>
       <r>   -17.5500     0.0000    16.0000 </r>
       <r>   -17.4566     0.0000    16.0000 </r>
       <r>   -17.3632     0.0000    16.0000 </r>
       <r>   -17.2698     0.0000    16.0000 </r>
       <r>   -17.1764     0.0000    16.0000 </r>
       <r>   -17.0830     0.0000    16.0000 </r>
       <r>   -16.9896     0.0000    16.0000 </r>
       <r>   -16.8962     0.0000    16.0000 </r>
       <r>   -16.8028     0.0000    16.0000 </r>
       <r>   -16.7094     0.0000    16.0000 </r>
       <r>   -16.6160     0.0000    16.0000 </r>
       <r>   -16.5226     0.0000    16.0000 </r>
       <r>   -16.4292     0.0000    16.0000 </r>
       <r>   -16.3358     0.0000    16.0000 </r>
       <r>   -16.2424     0.0000    16.0000 </r>
       <r>   -16.1490     0.0000    16.0000 </r>
       <r>   -16.0556     0.0000    16.0000 </r>
       <r>   -15.9622     0.0000    16.0000 </r>
       <r>   -15.8688     0.0000    16.0000 </r>
       <r>   -15.7754     0.0000    16.0000 </r>
       <r>   -15.6820     0.0000    16.0000 </r>
       <r>   -15.5886     0.0000    16.0000 </r>
       <r>   -15.4952     0.0000    16.0000 </r>
       <r>   -15.4018     0.0000    16.0000 </r>
       <r>   -15.3084     0.0000    16.0000 </r>
       <r>   -15.2150     0.0000    16.0000 </r>
       <r>   -15.1216     0.0000    16.0000 </r>
       <r>   -15.0282     0.0000    16.0000 </r>
       <r>   -14.9348     0.0000    16.0000 </r>
       <r>   -14.8414     0.0000    16.0000 </r>
       <r>   -14.7480     0.0000    16.0000 </r>
       <r>   -14.6547     0.0000    16.0000 </r>
       <r>   -14.5613     0.0000    16.0000 </r>
       <r>   -14.4679     0.0000    16.0000 </r>
       <r>   -14.3745     0.0000    16.0000 </r>
       <r>   -14.2811     0.0000    16.0000 </r>
       <r>   -14.1877     0.0000    16.0000 </r>
       <r>   -14.0943     0.0000    16.0000 </r>
       <r>   -14.0009     0.0000    16.0000 </r>
       <r>   -13.9075     0.0000    16.0000 </r>
       <r>   -13.8141     0.0000    16.0000 </r>
       <r>   -13.7207     0.0000    16.0000 </r>
       <r>   -13.6273     0.0000    16.0000 </r>
       <r>   -13.5339     0.0000    16.0000 </r>
       <r>   -13.4405     0.0000    16.0000 </r>
       <r>   -13.3471     0.0000    16.0000 </r>
       <r>   -13.2537     0.0000    16.0000 </r>
       <r>   -13.1603     0.0000    16.0000 </r>
       <r>   -13.0669     0.0000    16.0000 </r>
       <r>   -12.9735     0.0000    16.0000 </r>
       <r>   -12.8801     0.0000    16.0000 </r>
       <r>   -12.7867     0.0000    16.0000 </r>
       <r>   -12.6933     0.0000    16.0000 </r>
       <r>   -12.5999     0.0000    16.0000 </r>
       <r>   -12.5065     0.0000    16.0000 </r>
       <r>   -12.4131     0.0000    16.0000 </r>
       <r>   -12.3197     0.0000    16.0000 </r>
       <r>   -12.2263     0.0000    16.0000 </r>
       <r>   -12.1329     0.0000    16.0000 </r>
       <r>   -12.0395     0.0000    16.0000 </r>
       <r>   -11.9461     0.0000    16.0000 </r>
       <r>   -11.8527     0.0000    16.0000 </r>
       <r>   -11.7594     0.0000    16.0000 </r>
       <r>   -11.6660     0.0000    16.0000 </r>
       <r>   -11.5726     0.0000    16.0000 </r>
       <r>   -11.4792     0.0000    16.0000 </r>
       <r>   -11.3858     0.0000    16.0000 </r>
       <r>   -11.2924     0.0000    16.0000 </r>
       <r>   -11.1990     0.0000    16.0000 </r>
       <r>   -11.1056     0.0000    16.0000 </r>
       <r>   -11.0122     0.0000    16.0000 </r>
       <r>   -10.9188     0.0000    16.0000 </r>
       <r>   -10.8254     0.0000    16.0000 </r>
       <r>   -10.7320     0.0000    16.0000 </r>
       <r>   -10.6386     0.0000    16.0000 </r>
       <r>   -10.5452     0.0000    16.0000 </r>
       <r>   -10.4518     0.0000    16.0000 </r>
       <r>   -10.3584     0.0000    16.0000 </r>
       <r>   -10.2650     0.0000    16.0000 </r>
       <r>   -10.1716     0.0000    16.0000 </r>
       <r>   -10.0782     0.0000    16.0000 </r>
       <r>    -9.9848     0.0000    16.0000 </r>
       <r>    -9.8914     0.0000    16.0000 </r>
       <r>    -9.7980     0.0000    16.0000 </r>
       <r>    -9.7046     0.0000    16.0000 </r>
       <r>    -9.6112     0.0000    16.0000 </r>
       <r>    -9.5178     0.0000    16.0000 </r>
       <r>    -9.4244     0.0000    16.0000 </r>
       <r>    -9.3310     0.0000    16.0000 </r>
       <r>    -9.2376     0.0001    16.0000 </r>
       <r>    -9.1442     0.0131    16.0012 </r>
       <r>    -9.0508     0.4555    16.0438 </r>
       <r>    -8.9575     3.2776    16.3499 </r>
       <r>    -8.8641     5.4518    16.8591 </r>
       <r>    -8.7707     4.6910    17.2972 </r>
       <r>    -8.6773     5.3236    17.7944 </r>
       <r>    -8.5839     2.1122    17.9917 </r>
       <r>    -8.4905     1.9536    18.1741 </r>
       <r>    -8.3971     9.2033    19.0337 </r>
       <r>    -8.3037    13.9432    20.3359 </r>
       <r>    -8.2103    12.7378    21.5256 </r>
       <r>    -8.1169    18.3498    23.2394 </r>
       <r>    -8.0235    16.0529    24.7387 </r>
       <r>    -7.9301     9.6603    25.6409 </r>
       <r>    -7.8367    11.7684    26.7401 </r>
       <r>    -7.7433    14.8727    28.1291 </r>
       <r>    -7.6499    15.6183    29.5878 </r>
       <r>    -7.5565    18.1617    31.2841 </r>
       <r>    -7.4631    20.2542    33.1758 </r>
       <r>    -7.3697    25.1307    35.5229 </r>
       <r>    -7.2763    33.2960    38.6326 </r>
       <r>    -7.1829    46.0820    42.9365 </r>
       <r>    -7.0895    60.6690    48.6028 </r>
       <r>    -6.9961    68.5364    55.0039 </r>
       <r>    -6.9027    65.1540    61.0890 </r>
       <r>    -6.8093    59.3880    66.6357 </r>
       <r>    -6.7159    56.5983    71.9218 </r>
       <r>    -6.6225    54.8065    77.0405 </r>
       <r>    -6.5291    60.5252    82.6934 </r>
       <r>    -6.4357    67.6986    89.0162 </r>
       <r>    -6.3423    75.0387    96.0246 </r>
       <r>    -6.2489    79.3210   103.4329 </r>
       <r>    -6.1555    83.8236   111.2618 </r>
       <r>    -6.0622    87.0965   119.3963 </r>
       <r>    -5.9688    83.0571   127.1536 </r>
       <r>    -5.8754    81.8137   134.7947 </r>
       <r>    -5.7820    82.0091   142.4541 </r>
       <r>    -5.6886    78.3141   149.7684 </r>
       <r>    -5.5952    79.1481   157.1605 </r>
       <r>    -5.5018    84.9809   165.0975 </r>
       <r>    -5.4084    90.1681   173.5189 </r>
       <r>    -5.3150    91.6234   182.0762 </r>
       <r>    -5.2216    90.8652   190.5627 </r>
       <r>    -5.1282    90.7654   199.0399 </r>
       <r>    -5.0348    88.3492   207.2914 </r>
       <r>    -4.9414    90.3469   215.7295 </r>
       <r>    -4.8480    90.4527   224.1775 </r>
       <r>    -4.7546    92.2090   232.7895 </r>
       <r>    -4.6612    94.4855   241.6142 </r>
       <r>    -4.5678    95.9221   250.5730 </r>
       <r>    -4.4744    95.6622   259.5075 </r>
       <r>    -4.3810    94.8890   268.3699 </r>
       <r>    -4.2876    95.2063   277.2618 </r>
       <r>    -4.1942    95.3213   286.1645 </r>
       <r>    -4.1008    95.5006   295.0839 </r>
       <r>    -4.0074    96.8394   304.1284 </r>
       <r>    -3.9140    98.5845   313.3359 </r>
       <r>    -3.8206    95.8917   322.2919 </r>
       <r>    -3.7272    97.1573   331.3660 </r>
       <r>    -3.6338   101.2200   340.8197 </r>
       <r>    -3.5404   102.0180   350.3478 </r>
       <r>    -3.4470    99.6685   359.6565 </r>
       <r>    -3.3536    95.6168   368.5868 </r>
       <r>    -3.2603    92.6869   377.2435 </r>
       <r>    -3.1669    93.9832   386.0212 </r>
       <r>    -3.0735    91.0049   394.5207 </r>
       <r>    -2.9801    88.8418   402.8183 </r>
       <r>    -2.8867    88.7480   411.1070 </r>
       <r>    -2.7933    93.4700   419.8368 </r>
       <r>    -2.6999    98.9276   429.0763 </r>
       <r>    -2.6065    94.4160   437.8945 </r>
       <r>    -2.5131    91.7504   446.4637 </r>
       <r>    -2.4197    91.5905   455.0179 </r>
       <r>    -2.3263    90.1052   463.4335 </r>
       <r>    -2.2329    94.3254   472.2432 </r>
       <r>    -2.1395    95.0547   481.1210 </r>
       <r>    -2.0461    95.5157   490.0418 </r>
       <r>    -1.9527    98.9539   499.2838 </r>
       <r>    -1.8593    95.9448   508.2447 </r>
       <r>    -1.7659    90.4174   516.6894 </r>
       <r>    -1.6725    83.9482   524.5299 </r>
       <r>    -1.5791    77.9832   531.8133 </r>
       <r>    -1.4857    72.3095   538.5667 </r>
       <r>    -1.3923    64.4382   544.5850 </r>
       <r>    -1.2989    49.9221   549.2476 </r>
       <r>    -1.2055    33.8516   552.4092 </r>
       <r>    -1.1121    27.3671   554.9652 </r>
       <r>    -1.0187    25.2335   557.3220 </r>
       <r>    -0.9253    24.6300   559.6223 </r>
       <r>    -0.8319    26.1180   562.0617 </r>
       <r>    -0.7385    27.8479   564.6626 </r>
       <r>    -0.6451    30.7893   567.5382 </r>
       <r>    -0.5517    31.4481   570.4753 </r>
       <r>    -0.4583    26.7464   572.9734 </r>
       <r>    -0.3650    23.8653   575.2023 </r>
       <r>    -0.2716    22.4992   577.3036 </r>
       <r>    -0.1782    16.7896   578.8717 </r>
       <r>    -0.0848    12.9621   580.0824 </r>
       <r>     0.0086    12.6181   581.2608 </r>
       <r>     0.1020    11.7029   582.3539 </r>
       <r>     0.1954     9.7699   583.2663 </r>
       <r>     0.2888    11.4673   584.3373 </r>
       <r>     0.3822    15.7032   585.8040 </r>
       <r>     0.4756    20.8060   587.7472 </r>
       <r>     0.5690    19.6915   589.5863 </r>
       <r>     0.6624    19.3891   591.3972 </r>
       <r>     0.7558    21.2553   593.3824 </r>
       <r>     0.8492    17.2744   594.9957 </r>
       <r>     0.9426    15.9701   596.4873 </r>
       <r>     1.0360    14.9685   597.8853 </r>
       <r>     1.1294    11.7315   598.9810 </r>
       <r>     1.2228    13.4838   600.2403 </r>
       <r>     1.3162    10.4924   601.2203 </r>
       <r>     1.4096     9.4572   602.1036 </r>
       <r>     1.5030    10.7465   603.1072 </r>
       <r>     1.5964    14.3475   604.4473 </r>
       <r>     1.6898    19.3236   606.2520 </r>
       <r>     1.7832    19.1877   608.0441 </r>
       <r>     1.8766    13.7241   609.3259 </r>
       <r>     1.9700    12.9467   610.5350 </r>
       <r>     2.0634    17.3003   612.1508 </r>
       <r>     2.1568    19.6461   613.9857 </r>
       <r>     2.2502    16.7644   615.5515 </r>
       <r>     2.3436    15.4584   616.9952 </r>
       <r>     2.4369    15.8564   618.4762 </r>
       <r>     2.5303    16.3361   620.0019 </r>
       <r>     2.6237    14.7351   621.3781 </r>
       <r>     2.7171    12.8012   622.5737 </r>
       <r>     2.8105    11.7576   623.6718 </r>
       <r>     2.9039    11.8508   624.7787 </r>
       <r>     2.9973    13.4551   626.0353 </r>
       <r>     3.0907    12.8741   627.2377 </r>
       <r>     3.1841    11.7653   628.3366 </r>
       <r>     3.2775    14.8580   629.7243 </r>
       <r>     3.3709    18.5134   631.4533 </r>
       <r>     3.4643    17.2132   633.0610 </r>
       <r>     3.5577    17.7124   634.7153 </r>
       <r>     3.6511    17.5899   636.3581 </r>
       <r>     3.7445    18.0206   638.0412 </r>
       <r>     3.8379    18.3728   639.7572 </r>
       <r>     3.9313    17.3575   641.3783 </r>
       <r>     4.0247    18.4996   643.1061 </r>
       <r>     4.1181    19.6605   644.9423 </r>
       <r>     4.2115    20.7326   646.8787 </r>
       <r>     4.3049    19.8760   648.7350 </r>
       <r>     4.3983    22.1371   650.8026 </r>
       <r>     4.4917    22.2932   652.8847 </r>
       <r>     4.5851    23.9742   655.1238 </r>
       <r>     4.6785    25.5607   657.5111 </r>
       <r>     4.7719    28.6011   660.1823 </r>
       <r>     4.8653    29.6608   662.9525 </r>
       <r>     4.9587    27.6633   665.5362 </r>
       <r>     5.0521    28.9662   668.2415 </r>
       <r>     5.1455    25.5800   670.6306 </r>
       <r>     5.2389    12.3268   671.7819 </r>
       <r>     5.3322     2.2212   671.9894 </r>
       <r>     5.4256     0.1126   671.9999 </r>
       <r>     5.5190     0.0014   672.0000 </r>
       <r>     5.6124     0.0000   672.0000 </r>
       <r>     5.7058     0.0000   672.0000 </r>
       <r>     5.7992     0.0000   672.0000 </r>
       <r>     5.8926     0.0000   672.0000 </r>
       <r>     5.9860     0.0000   672.0000 </r>
       <r>     6.0794     0.0000   672.0000 </r>
       <r>     6.1728     0.0000   672.0000 </r>
       <r>     6.2662     0.0000   672.0000 </r>
       <r>     6.3596     0.0000   672.0000 </r>
       <r>     6.4530     0.0000   672.0000 </r>
      </set>
     </set>
    </array>
   </total>
  </dos>
 </calculation>
 <structure name="finalpos" >
  <crystal>
   <varray name="basis" >
    <v>      11.00258152       0.00000000       0.00000000 </v>
    <v>       5.50129076       9.52851510       0.00000000 </v>
    <v>       0.00000000       0.00000000      26.19178509 </v>
   </varray>
   <i name="volume">   2745.90128299 </i>
   <varray name="rec_basis" >
    <v>       0.09088776      -0.05247407       0.00000000 </v>
    <v>       0.00000000       0.10494815       0.00000000 </v>
    <v>       0.00000000       0.00000000       0.03817991 </v>
   </varray>
  </crystal>
  <varray name="positions" >
   <v>       0.08333333       0.08333333       0.38179910 </v>
   <v>       0.24404111       0.48011975       0.57176711 </v>
   <v>       0.42049866       0.91505986       0.47477597 </v>
   <v>       0.67216075       0.91634003       0.47189713 </v>
   <v>       0.00534002      -0.00144814       0.56367844 </v>
   <v>       0.08333333       0.33333333       0.38179910 </v>
   <v>       0.67651728       0.66445158       0.48130909 </v>
   <v>       0.67195743       0.41701462       0.48253598 </v>
   <v>       0.08333333       0.58333333       0.38179910 </v>
   <v>       0.83333333       0.33333333       0.38179910 </v>
   <v>       0.88009635       0.56192122       0.56062099 </v>
   <v>       0.92104704       0.91620863       0.47287192 </v>
   <v>       0.83333333       0.08333333       0.38179910 </v>
   <v>       0.51281233       0.49683432       0.58121016 </v>
   <v>       0.42324421       0.66484237       0.48193934 </v>
   <v>       0.33333333       0.08333333       0.38179910 </v>
   <v>       0.58333333       0.58333333       0.38179910 </v>
   <v>       0.58333333       0.33333333       0.38179910 </v>
   <v>       0.52426821       0.96799198       0.56607276 </v>
   <v>       0.41702984       0.17070351       0.47626153 </v>
   <v>       0.73354671       0.77555777       0.63758245 </v>
   <v>       0.33333333       0.83333333       0.38179910 </v>
   <v>       0.33333333       0.58333333       0.38179910 </v>
   <v>       0.16902275       0.66393533       0.48129309 </v>
   <v>       0.11332839       0.29915248       0.61465399 </v>
   <v>       0.36604881       0.30019991       0.62069316 </v>
   <v>       0.04578430       0.57541906       0.60470210 </v>
   <v>       0.26403283       0.00613988       0.63655820 </v>
   <v>       0.84454182       0.86866927       0.62241691 </v>
   <v>       0.37852601       0.69473799       0.62775727 </v>
   <v>       0.63484885       0.67241507       0.65789072 </v>
   <v>       0.86037105       0.28639393       0.61836659 </v>
   <v>       0.58333333       0.83333333       0.38179910 </v>
   <v>       0.41865297       0.41779433       0.48007722 </v>
   <v>       0.50866508       0.23994992       0.56625938 </v>
   <v>       0.16910750       0.41634696       0.47387062 </v>
   <v>       0.16746277       0.17035261       0.47742489 </v>
   <v>       0.25805468       0.75012336       0.56751240 </v>
   <v>       0.17118926       0.91530306       0.47374621 </v>
   <v>       0.00085605       0.75317801       0.57130809 </v>
   <v>       0.25267471      -0.00394571       0.56084486 </v>
   <v>       0.08333333       0.83333333       0.38179910 </v>
   <v>       0.44823122       0.83145258       0.64154209 </v>
   <v>       0.66858800       0.16945656       0.47854554 </v>
   <v>       0.75227356       0.00228362       0.56385555 </v>
   <v>       0.92179770       0.66579658       0.47129424 </v>
   <v>       0.75485523       0.24636455       0.56653296 </v>
   <v>       0.00760665       0.25828369       0.56487569 </v>
   <v>       0.83333333       0.58333333       0.38179910 </v>
   <v>       0.92154518       0.41536023       0.47243523 </v>
   <v>       0.74309322       0.48312566       0.63025328 </v>
   <v>       0.83333333       0.83333333       0.38179910 </v>
   <v>       0.92116984       0.16856577       0.47584908 </v>
   <v>       0.30857290       0.15921753       0.62646014 </v>
   <v>       0.58333333       0.08333333       0.38179910 </v>
   <v>       0.33333333       0.33333333       0.38179910 </v>
  </varray>
  <varray name="selective"  type="logical" >
   <v type="logical" >  F  F  F </v>
   <v type="logical" >  T  T  T </v>
   <v type="logical" >  T  T  T </v>
   <v type="logical" >  T  T  T </v>
   <v type="logical" >  T  T  T </v>
   <v type="logical" >  F  F  F </v>
   <v type="logical" >  T  T  T </v>
   <v type="logical" >  T  T  T </v>
   <v type="logical" >  F  F  F </v>
   <v type="logical" >  F  F  F </v>
   <v type="logical" >  T  T  T </v>
   <v type="logical" >  T  T  T </v>
   <v type="logical" >  F  F  F </v>
   <v type="logical" >  T  T  T </v>
   <v type="logical" >  T  T  T </v>
   <v type="logical" >  F  F  F </v>
   <v type="logical" >  F  F  F </v>
   <v type="logical" >  F  F  F </v>
   <v type="logical" >  T  T  T </v>
   <v type="logical" >  T  T  T </v>
   <v type="logical" >  T  T  T </v>
   <v type="logical" >  F  F  F </v>
   <v type="logical" >  F  F  F </v>
   <v type="logical" >  T  T  T </v>
   <v type="logical" >  T  T  T </v>
   <v type="logical" >  T  T  T </v>
   <v type="logical" >  T  T  T </v>
   <v type="logical" >  T  T  T </v>
   <v type="logical" >  T  T  T </v>
   <v type="logical" >  T  T  T </v>
   <v type="logical" >  T  T  T </v>
   <v type="logical" >  T  T  T </v>
   <v type="logical" >  F  F  F </v>
   <v type="logical" >  T  T  T </v>
   <v type="logical" >  T  T  T </v>
   <v type="logical" >  T  T  T </v>
   <v type="logical" >  T  T  T </v>
   <v type="logical" >  T  T  T </v>
   <v type="logical" >  T  T  T </v>
   <v type="logical" >  T  T  T </v>
   <v type="logical" >  T  T  T </v>
   <v type="logical" >  F  F  F </v>
   <v type="logical" >  T  T  T </v>
   <v type="logical" >  T  T  T </v>
   <v type="logical" >  T  T  T </v>
   <v type="logical" >  T  T  T </v>
   <v type="logical" >  T  T  T </v>
   <v type="logical" >  T  T  T </v>
   <v type="logical" >  F  F  F </v>
   <v type="logical" >  T  T  T </v>
   <v type="logical" >  T  T  T </v>
   <v type="logical" >  F  F  F </v>
   <v type="logical" >  T  T  T </v>
   <v type="logical" >  T  T  T </v>
   <v type="logical" >  F  F  F </v>
   <v type="logical" >  F  F  F </v>
  </varray>
  <nose>
   <v>      -3.00000000       0.00000000       0.00010000       0.00010000 </v>
  </nose>
 </structure>
</modeling>
