unknown system                          
           1
    11.002582    0.000000    0.000000
     5.501291    9.528515    0.000000
     0.000000    0.000000   26.191785
   Au   O    Pd
  24   8  24
Direct configuration=     1
   0.08333333  0.08333333  0.38179910
   0.24165309  0.49364797  0.56900545
   0.42271775  0.91624530  0.47409883
   0.67257946  0.91787563  0.47075766
   0.00825774  0.00210181  0.56281206
   0.08333333  0.33333333  0.38179910
   0.67908056  0.66504169  0.48505429
   0.67362747  0.41756969  0.48284952
   0.08333333  0.58333333  0.38179910
   0.83333333  0.33333333  0.38179910
   0.93306225  0.52999994  0.56240945
   0.92137316  0.91764468  0.47315063
   0.83333333  0.08333333  0.38179910
   0.50778204  0.47976086  0.57668904
   0.42360624  0.66590419  0.47927563
   0.33333333  0.08333333  0.38179910
   0.58333333  0.58333333  0.38179910
   0.58333333  0.33333333  0.38179910
   0.53728933  0.95928833  0.56633470
   0.41720008  0.17141199  0.47654011
   0.74370321  0.76427059  0.63785208
   0.33333333  0.83333333  0.38179910
   0.33333333  0.58333333  0.38179910
   0.16898385  0.66581372  0.47751573
   0.11853738  0.29592477  0.62542031
   0.36439077  0.32190942  0.62371313
   0.05760408  0.59210467  0.61261967
   0.34197924  0.99256125  0.63179963
   0.83758406  0.87538945  0.62334250
   0.39292361  0.68151135  0.61936847
   0.64042263  0.66357195  0.65149937
   0.87700542  0.27110304  0.62293762
   0.58333333  0.83333333  0.38179910
   0.41771616  0.41800073  0.47875657
   0.50365437  0.23976458  0.56704519
   0.16759052  0.41693348  0.47482239
   0.16830697  0.17132589  0.47920743
   0.25191700  0.75378092  0.56597308
   0.17190898  0.91850148  0.47394714
   0.99228043  0.76273072  0.57201852
   0.26951048  0.98648479  0.56384276
   0.08333333  0.83333333  0.38179910
   0.52742982  0.71833514  0.58015219
   0.66912421  0.17201234  0.47916049
   0.75010560  0.00936799  0.56319627
   0.92105968  0.66639915  0.47192043
   0.76196360  0.24769018  0.56966069
   0.03081590  0.24113465  0.57124359
   0.83333333  0.58333333  0.38179910
   0.92088980  0.41633672  0.47272526
   0.75325700  0.47104483  0.62643511
   0.83333333  0.83333333  0.38179910
   0.92334775  0.16951875  0.47718826
   0.31735102  0.17441800  0.62497779
   0.58333333  0.08333333  0.38179910
   0.33333333  0.33333333  0.38179910
Direct configuration=     2
   0.08333333  0.08333333  0.38179910
   0.24185177  0.49358606  0.56922294
   0.42266031  0.91608958  0.47418969
   0.67280376  0.91775036  0.47086245
   0.00855397  0.00172382  0.56289967
   0.08333333  0.33333333  0.38179910
   0.67888433  0.66530786  0.48524801
   0.67362403  0.41734053  0.48288876
   0.08333333  0.58333333  0.38179910
   0.83333333  0.33333333  0.38179910
   0.93239033  0.53037888  0.56235844
   0.92125733  0.91769994  0.47318435
   0.83333333  0.08333333  0.38179910
   0.50795516  0.47966284  0.57679733
   0.42374506  0.66604624  0.47944753
   0.33333333  0.08333333  0.38179910
   0.58333333  0.58333333  0.38179910
   0.58333333  0.33333333  0.38179910
   0.53758315  0.95987012  0.56623871
   0.41715289  0.17160624  0.47650877
   0.74248984  0.76523459  0.63728277
   0.33333333  0.83333333  0.38179910
   0.33333333  0.58333333  0.38179910
   0.16856286  0.66608588  0.47773171
   0.11855983  0.29581261  0.62517200
   0.36420319  0.32201850  0.62343555
   0.05806430  0.59112421  0.61243596
   0.34107849  0.99306625  0.63177906
   0.83795575  0.87535102  0.62331348
   0.39258889  0.68102101  0.61937318
   0.64073323  0.66346316  0.65097800
   0.87612919  0.27182932  0.62264010
   0.58333333  0.83333333  0.38179910
   0.41790308  0.41780675  0.47872091
   0.50411428  0.23945827  0.56700644
   0.16751222  0.41705293  0.47485410
   0.16862272  0.17095306  0.47925123
   0.25200608  0.75357632  0.56588877
   0.17190416  0.91838427  0.47410723
   0.99261188  0.76243421  0.57194706
   0.26934958  0.98594920  0.56384796
   0.08333333  0.83333333  0.38179910
   0.52761136  0.71871415  0.58046362
   0.66900499  0.17200331  0.47918975
   0.75069395  0.00891110  0.56348203
   0.92107817  0.66659476  0.47194283
   0.76213304  0.24690670  0.56950583
   0.03028391  0.24184979  0.57133169
   0.83333333  0.58333333  0.38179910
   0.92078356  0.41625893  0.47290325
   0.75398868  0.47130953  0.62668481
   0.83333333  0.83333333  0.38179910
   0.92314476  0.16990955  0.47706495
   0.31753962  0.17409758  0.62514183
   0.58333333  0.08333333  0.38179910
   0.33333333  0.33333333  0.38179910
Direct configuration=     3
   0.08333333  0.08333333  0.38179910
   0.24244780  0.49340032  0.56987538
   0.42248801  0.91562245  0.47446227
   0.67347664  0.91737455  0.47117680
   0.00944266  0.00058984  0.56316249
   0.08333333  0.33333333  0.38179910
   0.67829566  0.66610639  0.48582917
   0.67361371  0.41665307  0.48300645
   0.08333333  0.58333333  0.38179910
   0.83333333  0.33333333  0.38179910
   0.93037454  0.53151571  0.56220541
   0.92090984  0.91786573  0.47328552
   0.83333333  0.08333333  0.38179910
   0.50847453  0.47936880  0.57712218
   0.42416149  0.66647239  0.47996322
   0.33333333  0.08333333  0.38179910
   0.58333333  0.58333333  0.38179910
   0.58333333  0.33333333  0.38179910
   0.53846459  0.96161548  0.56595075
   0.41701133  0.17218899  0.47641476
   0.73884972  0.76812660  0.63557482
   0.33333333  0.83333333  0.38179910
   0.33333333  0.58333333  0.38179910
   0.16729989  0.66690236  0.47837965
   0.11862719  0.29547613  0.62442708
   0.36364043  0.32234574  0.62260280
   0.05944494  0.58818284  0.61188483
   0.33837624  0.99458125  0.63171735
   0.83907083  0.87523572  0.62322645
   0.39158475  0.67955000  0.61938731
   0.64166504  0.66313678  0.64941387
   0.87350047  0.27400818  0.62174752
   0.58333333  0.83333333  0.38179910
   0.41846385  0.41722483  0.47861395
   0.50549400  0.23853933  0.56689020
   0.16727732  0.41741126  0.47494923
   0.16956996  0.16983458  0.47938264
   0.25227332  0.75296252  0.56563586
   0.17188968  0.91803264  0.47458750
   0.99360620  0.76154471  0.57173268
   0.26886687  0.98434243  0.56386357
   0.08333333  0.83333333  0.38179910
   0.52815601  0.71985118  0.58139792
   0.66864732  0.17197624  0.47927753
   0.75245900  0.00754042  0.56433932
   0.92113364  0.66718160  0.47201003
   0.76264136  0.24455626  0.56904123
   0.02868793  0.24399523  0.57159601
   0.83333333  0.58333333  0.38179910
   0.92046483  0.41602554  0.47343721
   0.75618370  0.47210361  0.62743392
   0.83333333  0.83333333  0.38179910
   0.92253578  0.17108196  0.47669501
   0.31810542  0.17313633  0.62563397
   0.58333333  0.08333333  0.38179910
   0.33333333  0.33333333  0.38179910
Direct configuration=     4
   0.08333333  0.08333333  0.38179910
   0.24323983  0.49298157  0.57000963
   0.42256360  0.91570094  0.47455687
   0.67348718  0.91741376  0.47122877
   0.00964671  0.00049502  0.56323444
   0.08333333  0.33333333  0.38179910
   0.67836508  0.66608268  0.48613219
   0.67336411  0.41676681  0.48306138
   0.08333333  0.58333333  0.38179910
   0.83333333  0.33333333  0.38179910
   0.92922391  0.53238143  0.56214712
   0.92071174  0.91835023  0.47332607
   0.83333333  0.08333333  0.38179910
   0.50919272  0.47906190  0.57729819
   0.42431998  0.66624409  0.48016789
   0.33333333  0.08333333  0.38179910
   0.58333333  0.58333333  0.38179910
   0.58333333  0.33333333  0.38179910
   0.53797752  0.96277440  0.56570224
   0.41700099  0.17212850  0.47635154
   0.73860804  0.76982398  0.63482063
   0.33333333  0.83333333  0.38179910
   0.33333333  0.58333333  0.38179910
   0.16732979  0.66676921  0.47860806
   0.11910945  0.29551157  0.62433674
   0.36350527  0.32221890  0.62233295
   0.05936902  0.58732954  0.61164372
   0.33698090  0.99449005  0.63186954
   0.83952715  0.87453956  0.62340058
   0.39143808  0.67879065  0.61943174
   0.64074483  0.66426920  0.64908177
   0.87291635  0.27427732  0.62153674
   0.58333333  0.83333333  0.38179910
   0.41835413  0.41753093  0.47859326
   0.50620451  0.23822462  0.56678529
   0.16717780  0.41752126  0.47499672
   0.16974269  0.16963055  0.47945189
   0.25254734  0.75242418  0.56555455
   0.17174695  0.91800461  0.47470652
   0.99434847  0.76048239  0.57176815
   0.26872587  0.98401479  0.56392097
   0.08333333  0.83333333  0.38179910
   0.52747537  0.72061580  0.58163286
   0.66876368  0.17156713  0.47933506
   0.75302492  0.00754167  0.56448959
   0.92100236  0.66719691  0.47200385
   0.76265703  0.24372890  0.56866959
   0.02795800  0.24416954  0.57126390
   0.83333333  0.58333333  0.38179910
   0.92036717  0.41606178  0.47358684
   0.75745217  0.47165246  0.62757955
   0.83333333  0.83333333  0.38179910
   0.92260560  0.17098445  0.47659125
   0.31812863  0.17353234  0.62565612
   0.58333333  0.08333333  0.38179910
   0.33333333  0.33333333  0.38179910
Direct configuration=     5
   0.08333333  0.08333333  0.38179910
   0.24411866  0.49251692  0.57015858
   0.42264748  0.91578803  0.47466183
   0.67349887  0.91745726  0.47128642
   0.00987311  0.00038981  0.56331427
   0.08333333  0.33333333  0.38179910
   0.67844211  0.66605636  0.48646842
   0.67308715  0.41689301  0.48312233
   0.08333333  0.58333333  0.38179910
   0.83333333  0.33333333  0.38179910
   0.92794717  0.53334203  0.56208244
   0.92049193  0.91888782  0.47337105
   0.83333333  0.08333333  0.38179910
   0.50998963  0.47872136  0.57749350
   0.42449584  0.66599077  0.48039498
   0.33333333  0.08333333  0.38179910
   0.58333333  0.58333333  0.38179910
   0.58333333  0.33333333  0.38179910
   0.53743708  0.96406033  0.56542649
   0.41698952  0.17206138  0.47628140
   0.73833987  0.77170738  0.63398379
   0.33333333  0.83333333  0.38179910
   0.33333333  0.58333333  0.38179910
   0.16736297  0.66662148  0.47886150
   0.11964456  0.29555090  0.62423649
   0.36335530  0.32207816  0.62203352
   0.05928478  0.58638273  0.61137619
   0.33543265  0.99438886  0.63203841
   0.84003349  0.87376712  0.62359379
   0.39127534  0.67794808  0.61948103
   0.63972376  0.66552571  0.64871327
   0.87226821  0.27457596  0.62130287
   0.58333333  0.83333333  0.38179910
   0.41823239  0.41787057  0.47857029
   0.50699289  0.23787542  0.56666889
   0.16706737  0.41764331  0.47504941
   0.16993435  0.16940416  0.47952872
   0.25285138  0.75182683  0.56546433
   0.17158857  0.91797350  0.47483858
   0.99517210  0.75930366  0.57180750
   0.26856941  0.98365124  0.56398466
   0.08333333  0.83333333  0.38179910
   0.52672014  0.72146422  0.58189354
   0.66889279  0.17111318  0.47939889
   0.75365285  0.00754306  0.56465632
   0.92085669  0.66721390  0.47199698
   0.76267442  0.24281086  0.56825723
   0.02714808  0.24436296  0.57089539
   0.83333333  0.58333333  0.38179910
   0.92025880  0.41610200  0.47375286
   0.75885966  0.47115187  0.62774113
   0.83333333  0.83333333  0.38179910
   0.92268308  0.17087626  0.47647610
   0.31815437  0.17397175  0.62568069
   0.58333333  0.08333333  0.38179910
   0.33333333  0.33333333  0.38179910
Direct configuration=     6
   0.08333333  0.08333333  0.38179910
   0.24493940  0.49206611  0.57018994
   0.42274005  0.91582453  0.47471306
   0.67348386  0.91746558  0.47126071
   0.01007718  0.00023402  0.56338518
   0.08333333  0.33333333  0.38179910
   0.67858707  0.66591815  0.48679846
   0.67286428  0.41706489  0.48314804
   0.08333333  0.58333333  0.38179910
   0.83333333  0.33333333  0.38179910
   0.92662453  0.53430432  0.56204918
   0.92044654  0.91923588  0.47340296
   0.83333333  0.08333333  0.38179910
   0.51107658  0.47827595  0.57770628
   0.42459915  0.66576595  0.48055131
   0.33333333  0.08333333  0.38179910
   0.58333333  0.58333333  0.38179910
   0.58333333  0.33333333  0.38179910
   0.53635893  0.96545537  0.56512979
   0.41695389  0.17201532  0.47620432
   0.73763767  0.77227500  0.63349418
   0.33333333  0.83333333  0.38179910
   0.33333333  0.58333333  0.38179910
   0.16747849  0.66639122  0.47900455
   0.11976223  0.29567012  0.62407774
   0.36359699  0.32193067  0.62184788
   0.05908741  0.58546603  0.61119616
   0.33382524  0.99485686  0.63223946
   0.84109588  0.87348933  0.62372310
   0.39135012  0.67715140  0.61955620
   0.63936378  0.66696699  0.64837864
   0.87234040  0.27398760  0.62110477
   0.58333333  0.83333333  0.38179910
   0.41806443  0.41820146  0.47856068
   0.50754726  0.23778381  0.56655405
   0.16700469  0.41765878  0.47509065
   0.16993776  0.16940507  0.47959160
   0.25309467  0.75126290  0.56542739
   0.17153290  0.91792068  0.47488466
   0.99587131  0.75843848  0.57182714
   0.26848575  0.98364572  0.56409126
   0.08333333  0.83333333  0.38179910
   0.52552884  0.72236991  0.58205613
   0.66903386  0.17075181  0.47941085
   0.75431596  0.00736336  0.56474074
   0.92072408  0.66720054  0.47194774
   0.76268127  0.24241336  0.56790058
   0.02666919  0.24436544  0.57053159
   0.83333333  0.58333333  0.38179910
   0.92021537  0.41611519  0.47380279
   0.75913281  0.47177809  0.62788119
   0.83333333  0.83333333  0.38179910
   0.92287502  0.17060022  0.47638739
   0.31820446  0.17331177  0.62563966
   0.58333333  0.08333333  0.38179910
   0.33333333  0.33333333  0.38179910
Direct configuration=     7
   0.08333333  0.08333333  0.38179910
   0.24641638  0.49125485  0.57024638
   0.42290665  0.91589022  0.47480523
   0.67345684  0.91748054  0.47121445
   0.01044441 -0.00004635  0.56351279
   0.08333333  0.33333333  0.38179910
   0.67884793  0.66566943  0.48739238
   0.67246322  0.41737421  0.48319431
   0.08333333  0.58333333  0.38179910
   0.83333333  0.33333333  0.38179910
   0.92424434  0.53603604  0.56198933
   0.92036487  0.91986225  0.47346038
   0.83333333  0.08333333  0.38179910
   0.51303261  0.47747440  0.57808920
   0.42478506  0.66536137  0.48083265
   0.33333333  0.08333333  0.38179910
   0.58333333  0.58333333  0.38179910
   0.58333333  0.33333333  0.38179910
   0.53441873  0.96796583  0.56459584
   0.41688976  0.17193243  0.47606562
   0.73637402  0.77329647  0.63261310
   0.33333333  0.83333333  0.38179910
   0.33333333  0.58333333  0.38179910
   0.16768636  0.66597687  0.47926197
   0.11997399  0.29588465  0.62379206
   0.36403194  0.32166525  0.62151381
   0.05873223  0.58381635  0.61087219
   0.33093260  0.99569905  0.63260126
   0.84300772  0.87298942  0.62395581
   0.39148468  0.67571772  0.61969147
   0.63871598  0.66956066  0.64777645
   0.87247030  0.27292881  0.62074827
   0.58333333  0.83333333  0.38179910
   0.41776216  0.41879691  0.47854338
   0.50854488  0.23761894  0.56634739
   0.16689190  0.41768660  0.47516485
   0.16994389  0.16940672  0.47970476
   0.25353249  0.75024807  0.56536091
   0.17143271  0.91782563  0.47496758
   0.99712958  0.75688153  0.57186249
   0.26833520  0.98363579  0.56428310
   0.08333333  0.83333333  0.38179910
   0.52338500  0.72399977  0.58234874
   0.66928773  0.17010148  0.47943238
   0.75550928  0.00703998  0.56489267
   0.92048544  0.66717650  0.47185913
   0.76269359  0.24169802  0.56725875
   0.02580739  0.24436991  0.56987691
   0.83333333  0.58333333  0.38179910
   0.92013721  0.41613894  0.47389264
   0.75962436  0.47290502  0.62813323
   0.83333333  0.83333333  0.38179910
   0.92322043  0.17010347  0.47622774
   0.31829458  0.17212409  0.62556581
   0.58333333  0.08333333  0.38179910
   0.33333333  0.33333333  0.38179910
Direct configuration=     8
   0.08333333  0.08333333  0.38179910
   0.24670424  0.49097105  0.57021674
   0.42287080  0.91561821  0.47474966
   0.67362346  0.91725192  0.47108882
   0.01080782 -0.00055183  0.56359192
   0.08333333  0.33333333  0.38179910
   0.67890014  0.66558535  0.48775849
   0.67255210  0.41729515  0.48312855
   0.08333333  0.58333333  0.38179910
   0.83333333  0.33333333  0.38179910
   0.92283737  0.53689497  0.56198924
   0.92067697  0.91951870  0.47346592
   0.83333333  0.08333333  0.38179910
   0.51449316  0.47694775  0.57838611
   0.42477205  0.66552310  0.48087316
   0.33333333  0.08333333  0.38179910
   0.58333333  0.58333333  0.38179910
   0.58333333  0.33333333  0.38179910
   0.53322500  0.96932077  0.56429910
   0.41677773  0.17216702  0.47597009
   0.73651376  0.77397816  0.63238106
   0.33333333  0.83333333  0.38179910
   0.33333333  0.58333333  0.38179910
   0.16753805  0.66591371  0.47922210
   0.11952087  0.29583382  0.62333972
   0.36480784  0.32064167  0.62145016
   0.05880647  0.58265186  0.61072653
   0.32920647  0.99630179  0.63297213
   0.84403362  0.87276644  0.62392858
   0.39171113  0.67497526  0.61982700
   0.63865092  0.67013966  0.64762781
   0.87238260  0.27303894  0.62053493
   0.58333333  0.83333333  0.38179910
   0.41780212  0.41868756  0.47853733
   0.50873306  0.23786724  0.56626436
   0.16689585  0.41755604  0.47517799
   0.16980636  0.16958774  0.47972660
   0.25361688  0.74989583  0.56541572
   0.17173212  0.91760246  0.47492318
   0.99752073  0.75668384  0.57187492
   0.26817592  0.98391966  0.56433160
   0.08333333  0.83333333  0.38179910
   0.52166421  0.72516289  0.58231386
   0.66924239  0.17017652  0.47932275
   0.75607383  0.00618483  0.56499069
   0.92050482  0.66724683  0.47175643
   0.76303037  0.24194853  0.56707306
   0.02573616  0.24460245  0.56976944
   0.83333333  0.58333333  0.38179910
   0.92018535  0.41598590  0.47377831
   0.75928552  0.47338991  0.62815993
   0.83333333  0.83333333  0.38179910
   0.92339316  0.16995350  0.47614056
   0.31797418  0.17172202  0.62549283
   0.58333333  0.08333333  0.38179910
   0.33333333  0.33333333  0.38179910
Direct configuration=     9
   0.08333333  0.08333333  0.38179910
   0.24744209  0.49024359  0.57014078
   0.42277893  0.91492096  0.47460721
   0.67405055  0.91666589  0.47076680
   0.01173936 -0.00184752  0.56379474
   0.08333333  0.33333333  0.38179910
   0.67903398  0.66536984  0.48869693
   0.67277992  0.41709249  0.48296000
   0.08333333  0.58333333  0.38179910
   0.83333333  0.33333333  0.38179910
   0.91923091  0.53909664  0.56198902
   0.92147695  0.91863809  0.47348011
   0.83333333  0.08333333  0.38179910
   0.51823693  0.47559779  0.57914718
   0.42473869  0.66593765  0.48097702
   0.33333333  0.08333333  0.38179910
   0.58333333  0.58333333  0.38179910
   0.58333333  0.33333333  0.38179910
   0.53016514  0.97279385  0.56353845
   0.41649056  0.17276834  0.47572521
   0.73687197  0.77572553  0.63178630
   0.33333333  0.83333333  0.38179910
   0.33333333  0.58333333  0.38179910
   0.16715788  0.66575182  0.47911992
   0.11835940  0.29570350  0.62218026
   0.36679668  0.31801797  0.62128703
   0.05899675  0.57966696  0.61035318
   0.32478192  0.99784679  0.63392277
   0.84666328  0.87219488  0.62385878
   0.39229159  0.67307215  0.62017441
   0.63848417  0.67162380  0.64724682
   0.87215781  0.27332123  0.61998807
   0.58333333  0.83333333  0.38179910
   0.41790457  0.41840726  0.47852183
   0.50921540  0.23850367  0.56605154
   0.16690598  0.41722136  0.47521168
   0.16945385  0.17005172  0.47978257
   0.25383321  0.74899295  0.56555621
   0.17249960  0.91703043  0.47480936
   0.99852335  0.75617710  0.57190676
   0.26776764  0.98464729  0.56445592
   0.08333333  0.83333333  0.38179910
   0.51725335  0.72814428  0.58222443
   0.66912615  0.17036887  0.47904173
   0.75752091  0.00399283  0.56524193
   0.92055449  0.66742710  0.47149318
   0.76389361  0.24259065  0.56659707
   0.02555356  0.24519852  0.56949397
   0.83333333  0.58333333  0.38179910
   0.92030873  0.41559360  0.47348523
   0.75841698  0.47463281  0.62822838
   0.83333333  0.83333333  0.38179910
   0.92383592  0.16956907  0.47591709
   0.31715291  0.17069139  0.62530574
   0.58333333  0.08333333  0.38179910
   0.33333333  0.33333333  0.38179910
Direct configuration=    10
   0.08333333  0.08333333  0.38179910
   0.24766022  0.49002854  0.57011832
   0.42275176  0.91471484  0.47456510
   0.67417681  0.91649265  0.47067160
   0.01201474 -0.00223055  0.56385470
   0.08333333  0.33333333  0.38179910
   0.67907354  0.66530613  0.48897436
   0.67284727  0.41703258  0.48291017
   0.08333333  0.58333333  0.38179910
   0.83333333  0.33333333  0.38179910
   0.91816477  0.53974749  0.56198896
   0.92171344  0.91837776  0.47348430
   0.83333333  0.08333333  0.38179910
   0.51934367  0.47519872  0.57937216
   0.42472883  0.66606020  0.48100772
   0.33333333  0.08333333  0.38179910
   0.58333333  0.58333333  0.38179910
   0.58333333  0.33333333  0.38179910
   0.52926059  0.97382056  0.56331359
   0.41640567  0.17294610  0.47565281
   0.73697786  0.77624209  0.63161047
   0.33333333  0.83333333  0.38179910
   0.33333333  0.58333333  0.38179910
   0.16704550  0.66570396  0.47908971
   0.11801605  0.29566498  0.62183750
   0.36738462  0.31724235  0.62123880
   0.05905301  0.57878457  0.61024281
   0.32347394  0.99830352  0.63420380
   0.84744066  0.87202591  0.62383814
   0.39246318  0.67250955  0.62027711
   0.63843487  0.67206254  0.64713419
   0.87209135  0.27340468  0.61982641
   0.58333333  0.83333333  0.38179910
   0.41793485  0.41832440  0.47851724
   0.50935799  0.23869182  0.56598863
   0.16690898  0.41712243  0.47522164
   0.16934964  0.17018889  0.47979912
   0.25389716  0.74872604  0.56559774
   0.17272648  0.91686132  0.47477572
   0.99881974  0.75602729  0.57191618
   0.26764694  0.98486239  0.56449267
   0.08333333  0.83333333  0.38179910
   0.51594941  0.72902565  0.58219800
   0.66909179  0.17042573  0.47895866
   0.75794870  0.00334483  0.56531620
   0.92056918  0.66748039  0.47141536
   0.76414880  0.24278048  0.56645636
   0.02549958  0.24537473  0.56941254
   0.83333333  0.58333333  0.38179910
   0.92034521  0.41547763  0.47339860
   0.75816022  0.47500024  0.62824862
   0.83333333  0.83333333  0.38179910
   0.92396680  0.16945543  0.47585103
   0.31691013  0.17038671  0.62525043
   0.58333333  0.08333333  0.38179910
   0.33333333  0.33333333  0.38179910
Direct configuration=    11
   0.08333333  0.08333333  0.38179910
   0.24788063  0.48960386  0.57009966
   0.42273086  0.91457117  0.47443943
   0.67424081  0.91630901  0.47054848
   0.01227818 -0.00254644  0.56388366
   0.08333333  0.33333333  0.38179910
   0.67919849  0.66521792  0.48943639
   0.67291479  0.41698768  0.48273993
   0.08333333  0.58333333  0.38179910
   0.83333333  0.33333333  0.38179910
   0.91649073  0.54074985  0.56193169
   0.92195105  0.91805955  0.47348368
   0.83333333  0.08333333  0.38179910
   0.52073127  0.47491492  0.57978002
   0.42472921  0.66597487  0.48100006
   0.33333333  0.08333333  0.38179910
   0.58333333  0.58333333  0.38179910
   0.58333333  0.33333333  0.38179910
   0.52833771  0.97497129  0.56301040
   0.41639031  0.17300222  0.47552699
   0.73701220  0.77667451  0.63150289
   0.33333333  0.83333333  0.38179910
   0.33333333  0.58333333  0.38179910
   0.16711403  0.66554137  0.47898462
   0.11783748  0.29579583  0.62142068
   0.36798486  0.31583091  0.62123831
   0.05919106  0.57781916  0.60995031
   0.32125614  0.99865502  0.63461939
   0.84854348  0.87178792  0.62393049
   0.39254679  0.67177208  0.62040153
   0.63844315  0.67283497  0.64690640
   0.87170361  0.27447597  0.61980155
   0.58333333  0.83333333  0.38179910
   0.41803509  0.41830807  0.47852501
   0.50998635  0.23872439  0.56583391
   0.16687132  0.41710476  0.47521745
   0.16933076  0.17022789  0.47978793
   0.25407725  0.74826899  0.56572129
   0.17298002  0.91665493  0.47473238
   0.99967954  0.75508849  0.57197126
   0.26737845  0.98526991  0.56461512
   0.08333333  0.83333333  0.38179910
   0.51435095  0.73043884  0.58225494
   0.66923056  0.17034535  0.47885464
   0.75777038  0.00332853  0.56519593
   0.92063273  0.66733395  0.47131940
   0.76486530  0.24230655  0.56616497
   0.02517808  0.24552475  0.56911690
   0.83333333  0.58333333  0.38179910
   0.92037826  0.41545894  0.47323264
   0.75772684  0.47516330  0.62814709
   0.83333333  0.83333333  0.38179910
   0.92415327  0.16915147  0.47579194
   0.31639414  0.17060298  0.62524059
   0.58333333  0.08333333  0.38179910
   0.33333333  0.33333333  0.38179910
Direct configuration=    12
   0.08333333  0.08333333  0.38179910
   0.24839742  0.48860817  0.57005592
   0.42268184  0.91423434  0.47414477
   0.67439087  0.91587846  0.47025982
   0.01289583 -0.00328709  0.56395156
   0.08333333  0.33333333  0.38179910
   0.67949144  0.66501109  0.49051966
   0.67307310  0.41688242  0.48234078
   0.08333333  0.58333333  0.38179910
   0.83333333  0.33333333  0.38179910
   0.91256583  0.54309995  0.56179741
   0.92250815  0.91731348  0.47348223
   0.83333333  0.08333333  0.38179910
   0.52398460  0.47424954  0.58073628
   0.42473011  0.66577483  0.48098208
   0.33333333  0.08333333  0.38179910
   0.58333333  0.58333333  0.38179910
   0.58333333  0.33333333  0.38179910
   0.52617395  0.97766924  0.56229956
   0.41635432  0.17313379  0.47523198
   0.73709273  0.77768834  0.63125066
   0.33333333  0.83333333  0.38179910
   0.33333333  0.58333333  0.38179910
   0.16727472  0.66516014  0.47873822
   0.11741881  0.29610261  0.62044340
   0.36939218  0.31252169  0.62123715
   0.05951473  0.57555569  0.60926452
   0.31605636  0.99947913  0.63559375
   0.85112911  0.87122992  0.62414700
   0.39274282  0.67004303  0.62069326
   0.63846257  0.67464598  0.64637234
   0.87079451  0.27698767  0.61974327
   0.58333333  0.83333333  0.38179910
   0.41827009  0.41826978  0.47854321
   0.51145958  0.23880077  0.56547117
   0.16678303  0.41706335  0.47520763
   0.16928651  0.17031933  0.47976169
   0.25449947  0.74719741  0.56601094
   0.17357445  0.91617102  0.47463076
   0.00169539  0.75288740  0.57210039
   0.26674896  0.98622537  0.56490220
   0.08333333  0.83333333  0.38179910
   0.51060323  0.73375218  0.58238843
   0.66955592  0.17015689  0.47861076
   0.75735229  0.00329030  0.56491396
   0.92078173  0.66699059  0.47109440
   0.76654517  0.24119538  0.56548180
   0.02442429  0.24587650  0.56842374
   0.83333333  0.58333333  0.38179910
   0.92045575  0.41541514  0.47284356
   0.75671077  0.47554559  0.62790904
   0.83333333  0.83333333  0.38179910
   0.92459047  0.16843882  0.47565339
   0.31518437  0.17111003  0.62521752
   0.58333333  0.08333333  0.38179910
   0.33333333  0.33333333  0.38179910
Direct configuration=    13
   0.08333333  0.08333333  0.38179910
   0.24926843  0.48732367  0.57002934
   0.42273674  0.91426442  0.47397682
   0.67433047  0.91570599  0.47017154
   0.01308603 -0.00367374  0.56390504
   0.08333333  0.33333333  0.38179910
   0.67957034  0.66497444  0.49125229
   0.67303893  0.41691324  0.48201552
   0.08333333  0.58333333  0.38179910
   0.83333333  0.33333333  0.38179910
   0.91004524  0.54456446  0.56163496
   0.92256831  0.91709591  0.47350734
   0.83333333  0.08333333  0.38179910
   0.52549121  0.47402536  0.58133524
   0.42483637  0.66522190  0.48094374
   0.33333333  0.08333333  0.38179910
   0.58333333  0.58333333  0.38179910
   0.58333333  0.33333333  0.38179910
   0.52549931  0.97855088  0.56201210
   0.41651370  0.17294918  0.47503547
   0.73756993  0.77852890  0.63115752
   0.33333333  0.83333333  0.38179910
   0.33333333  0.58333333  0.38179910
   0.16781123  0.66482331  0.47856441
   0.11726005  0.29698020  0.61994615
   0.37008649  0.31125803  0.62113052
   0.05974847  0.57442604  0.60883477
   0.31247080  0.00091589  0.63594796
   0.85185081  0.87105576  0.62417942
   0.39277290  0.66912195  0.62085244
   0.63818186  0.67529822  0.64595388
   0.87030113  0.27830631  0.61975880
   0.58333333  0.83333333  0.38179910
   0.41846663  0.41839546  0.47860080
   0.51235431  0.23892854  0.56529457
   0.16679400  0.41716754  0.47517310
   0.16952821  0.17002760  0.47968463
   0.25468333  0.74662275  0.56611878
   0.17364213  0.91596975  0.47465448
   0.00274872  0.75167256  0.57215576
   0.26623250  0.98687658  0.56518802
   0.08333333  0.83333333  0.38179910
   0.50923364  0.73570466  0.58276033
   0.67004999  0.16973112  0.47846070
   0.75721443  0.00333805  0.56470567
   0.92091510  0.66650934  0.47101551
   0.76773424  0.23986670  0.56513170
   0.02343420  0.24616116  0.56781207
   0.83333333  0.58333333  0.38179910
   0.92048321  0.41553069  0.47261608
   0.75531210  0.47722842  0.62770274
   0.83333333  0.83333333  0.38179910
   0.92493214  0.16784602  0.47556740
   0.31463702  0.16956027  0.62548026
   0.58333333  0.08333333  0.38179910
   0.33333333  0.33333333  0.38179910
Direct configuration=    14
   0.08333333  0.08333333  0.38179910
   0.24980238  0.48653624  0.57001305
   0.42277040  0.91428286  0.47387386
   0.67429344  0.91560026  0.47011743
   0.01320262 -0.00391077  0.56387652
   0.08333333  0.33333333  0.38179910
   0.67961870  0.66495198  0.49170140
   0.67301798  0.41693214  0.48181612
   0.08333333  0.58333333  0.38179910
   0.83333333  0.33333333  0.38179910
   0.90850007  0.54546223  0.56153538
   0.92260519  0.91696254  0.47352274
   0.83333333  0.08333333  0.38179910
   0.52641479  0.47388793  0.58170242
   0.42490151  0.66488295  0.48092023
   0.33333333  0.08333333  0.38179910
   0.58333333  0.58333333  0.38179910
   0.58333333  0.33333333  0.38179910
   0.52508574  0.97909135  0.56183589
   0.41661141  0.17283602  0.47491501
   0.73786246  0.77904418  0.63110043
   0.33333333  0.83333333  0.38179910
   0.33333333  0.58333333  0.38179910
   0.16814012  0.66461682  0.47845787
   0.11716273  0.29751818  0.61964133
   0.37051212  0.31048339  0.62106515
   0.05989176  0.57373354  0.60857133
   0.31027279  0.00179664  0.63616510
   0.85229323  0.87094899  0.62419929
   0.39279134  0.66855731  0.62095002
   0.63800978  0.67569804  0.64569735
   0.86999867  0.27911467  0.61976832
   0.58333333  0.83333333  0.38179910
   0.41858712  0.41847250  0.47863610
   0.51290280  0.23900686  0.56518630
   0.16680073  0.41723141  0.47515193
   0.16967638  0.16984876  0.47963739
   0.25479604  0.74627046  0.56618488
   0.17368361  0.91584636  0.47466902
   0.00339443  0.75092784  0.57218969
   0.26591590  0.98727578  0.56536324
   0.08333333  0.83333333  0.38179910
   0.50839406  0.73690156  0.58298831
   0.67035287  0.16947011  0.47836872
   0.75712992  0.00336732  0.56457798