<?xml version="1.0" encoding="ISO-8859-1"?>
<modeling>
 <generator>
  <i name="program" type="string">vasp </i>
  <i name="version" type="string">5.4.1  </i>
  <i name="subversion" type="string">24Jun15 (build Mar 14 2019 10:18:33) complex                          parallel </i>
  <i name="platform" type="string">INTEL-19.0.2+OPENMPI-3.1.3 </i>
  <i name="date" type="string">2023 01 22 </i>
  <i name="time" type="string">03:16:43 </i>
 </generator>
 <incar>
  <i type="int" name="ISTART">     0</i>
  <i type="string" name="PREC">normal</i>
  <i type="string" name="ALGO"> Fast</i>
  <i type="int" name="NELM">   500</i>
  <i type="int" name="IBRION">     2</i>
  <i type="int" name="NFREE">     2</i>
  <i name="EDIFF">      0.00000100</i>
  <i name="EDIFFG">     -0.02000000</i>
  <i type="int" name="NSW">   500</i>
  <i type="int" name="ISIF">     0</i>
  <i type="int" name="ISYM">     2</i>
  <i name="ENCUT">    400.00000000</i>
  <i name="POTIM">      0.35000000</i>
  <i type="string" name="LREAL"> Auto</i>
  <i type="logical" name="LPLANE"> T  </i>
  <i type="int" name="ISMEAR">     0</i>
  <i name="SIGMA">      0.10000000</i>
  <i type="int" name="NWRITE">     1</i>
  <i type="logical" name="LWAVE"> F  </i>
  <i type="logical" name="LCHARG"> F  </i>
  <i type="logical" name="LVTOT"> F  </i>
  <i type="logical" name="LORBIT"> F  </i>
  <i type="logical" name="LAECHG"> F  </i>
  <v type="int" name="KPOINT_BSE">    -1     0     0     0</v>
  <i type="int" name="NELM">   500</i>
  <i type="string" name="GGA"> PE          ! optPBE-vdW XC-functional</i>
  <i type="int" name="VOSKOWN">     1</i>
  <i type="logical" name="LDIPOL"> T  </i>
  <i type="logical" name="LMONO"> F  </i>
  <i type="int" name="IDIPOL">     3</i>
  <v name="DIPOL">      0.00000000      0.00000000      0.50000000</v>
 </incar>
 <kpoints>
  <generation param="Monkhorst-Pack">
   <v type="int" name="divisions">       2        2        1 </v>
   <v name="usershift">      0.00000000       0.00000000       0.00000000 </v>
   <v name="genvec1">      0.50000000       0.00000000       0.00000000 </v>
   <v name="genvec2">      0.00000000       0.50000000       0.00000000 </v>
   <v name="genvec3">      0.00000000       0.00000000       1.00000000 </v>
   <v name="shift">      0.50000000       0.50000000       0.00000000 </v>
  </generation>
  <varray name="kpointlist" >
   <v>       0.25000000       0.25000000       0.00000000 </v>
   <v>       0.00000000       0.25000000       0.00000000 </v>
   <v>      -0.25000000       0.00000000       0.00000000 </v>
   <v>      -0.25000000       0.25000000       0.00000000 </v>
   <v>       0.50000000      -0.25000000       0.00000000 </v>
   <v>      -0.25000000       0.50000000       0.00000000 </v>
  </varray>
  <varray name="weights" >
   <v>       0.16666667 </v>
   <v>       0.16666667 </v>
   <v>       0.16666667 </v>
   <v>       0.16666667 </v>
   <v>       0.16666667 </v>
   <v>       0.16666667 </v>
  </varray>
 </kpoints>
 <parameters>
  <separator name="general" >
   <i type="string" name="SYSTEM">unknown system</i>
   <i type="logical" name="LCOMPAT"> F  </i>
  </separator>
  <separator name="electronic" >
   <i type="string" name="PREC">normal</i>
   <i name="ENMAX">    400.00000000</i>
   <i name="ENAUG">    605.39200000</i>
   <i name="EDIFF">      0.00000100</i>
   <i type="int" name="IALGO">    68</i>
   <i type="int" name="IWAVPR">    11</i>
   <i type="int" name="NBANDS">   336</i>
   <i name="NELECT">    552.00000000</i>
   <i type="int" name="TURBO">     0</i>
   <i type="int" name="IRESTART">     0</i>
   <i type="int" name="NREBOOT">     0</i>
   <i type="int" name="NMIN">     0</i>
   <i name="EREF">      0.00000000</i>
   <separator name="electronic smearing" >
    <i type="int" name="ISMEAR">     0</i>
    <i name="SIGMA">      0.10000000</i>
    <i name="KSPACING">      0.50000000</i>
    <i type="logical" name="KGAMMA"> T  </i>
   </separator>
   <separator name="electronic projectors" >
    <i type="logical" name="LREAL"> T  </i>
    <v name="ROPT">     -0.00050000     -0.00050000     -0.00050000</v>
    <i type="int" name="LMAXPAW">  -100</i>
    <i type="int" name="LMAXMIX">     2</i>
    <i type="logical" name="NLSPLINE"> F  </i>
   </separator>
   <separator name="electronic startup" >
    <i type="int" name="ISTART">     0</i>
    <i type="int" name="ICHARG">     2</i>
    <i type="int" name="INIWAV">     1</i>
   </separator>
   <separator name="electronic spin" >
    <i type="int" name="ISPIN">     1</i>
    <i type="logical" name="LNONCOLLINEAR"> F  </i>
    <v name="MAGMOM">      1.00000000      1.00000000      1.00000000      1.00000000      1.00000000      1.00000000      1.00000000      1.00000000      1.00000000      1.00000000      1.00000000      1.00000000      1.00000000      1.00000000      1.00000000      1.00000000      1.00000000      1.00000000      1.00000000      1.00000000
      1.00000000      1.00000000      1.00000000      1.00000000      1.00000000      1.00000000      1.00000000      1.00000000      1.00000000      1.00000000      1.00000000      1.00000000      1.00000000      1.00000000      1.00000000      1.00000000      1.00000000      1.00000000      1.00000000      1.00000000
      1.00000000      1.00000000      1.00000000      1.00000000      1.00000000      1.00000000      1.00000000      1.00000000      1.00000000      1.00000000      1.00000000      1.00000000      1.00000000      1.00000000      1.00000000      1.00000000</v>
    <i name="NUPDOWN">     -1.00000000</i>
    <i type="logical" name="LSORBIT"> F  </i>
    <v name="SAXIS">      0.00000000      0.00000000      1.00000000</v>
    <i type="logical" name="LSPIRAL"> F  </i>
    <v name="QSPIRAL">      0.00000000      0.00000000      0.00000000</v>
    <i type="logical" name="LZEROZ"> F  </i>
   </separator>
   <separator name="electronic exchange-correlation" >
    <i type="logical" name="LASPH"> F  </i>
    <i type="logical" name="LMETAGGA"> F  </i>
   </separator>
   <separator name="electronic convergence" >
    <i type="int" name="NELM">   500</i>
    <i type="int" name="NELMDL">    -5</i>
    <i type="int" name="NELMIN">     2</i>
    <i name="ENINI">    400.00000000</i>
    <separator name="electronic convergence detail" >
     <i type="logical" name="LDIAG"> T  </i>
     <i type="logical" name="LSUBROT"> F  </i>
     <i name="WEIMIN">      0.00100000</i>
     <i name="EBREAK">      0.00000000</i>
     <i name="DEPER">      0.30000000</i>
     <i type="int" name="NRMM">     4</i>
     <i name="TIME">      0.40000000</i>
    </separator>
   </separator>
   <separator name="electronic mixer" >
    <i name="AMIX">      0.40000000</i>
    <i name="BMIX">      1.00000000</i>
    <i name="AMIN">      0.10000000</i>
    <i name="AMIX_MAG">      1.60000000</i>
    <i name="BMIX_MAG">      1.00000000</i>
    <separator name="electronic mixer details" >
     <i type="int" name="IMIX">     4</i>
     <i type="logical" name="MIXFIRST"> F  </i>
     <i type="int" name="MAXMIX">   -45</i>
     <i name="WC">    100.00000000</i>
     <i type="int" name="INIMIX">     1</i>
     <i type="int" name="MIXPRE">     1</i>
     <i type="int" name="MREMOVE">     5</i>
    </separator>
   </separator>
   <separator name="electronic dipolcorrection" >
    <i type="logical" name="LDIPOL"> T  </i>
    <i type="logical" name="LMONO"> F  </i>
    <i type="int" name="IDIPOL">     3</i>
    <i name="EPSILON">      1.00000000</i>
    <v name="DIPOL">      0.00000000      0.00000000      0.50000000</v>
    <i name="EFIELD">      0.00000000</i>
   </separator>
  </separator>
  <separator name="grids" >
   <i type="int" name="NGX">    54</i>
   <i type="int" name="NGY">    54</i>
   <i type="int" name="NGZ">   128</i>
   <i type="int" name="NGXF">   108</i>
   <i type="int" name="NGYF">   108</i>
   <i type="int" name="NGZF">   256</i>
   <i type="logical" name="ADDGRID"> F  </i>
  </separator>
  <separator name="ionic" >
   <i type="int" name="NSW">   500</i>
   <i type="int" name="IBRION">     2</i>
   <i type="int" name="ISIF">     0</i>
   <i name="PSTRESS">      0.00000000</i>
   <i name="EDIFFG">     -0.02000000</i>
   <i type="int" name="NFREE">     2</i>
   <i name="POTIM">      0.35000000</i>
   <i name="SMASS">     -3.00000000</i>
   <i name="SCALEE">      1.00000000</i>
  </separator>
  <separator name="ionic md" >
   <i name="TEBEG">      0.00010000</i>
   <i name="TEEND">      0.00010000</i>
   <i type="int" name="NBLOCK">     1</i>
   <i type="int" name="KBLOCK">   500</i>
   <i type="int" name="NPACO">   256</i>
   <i name="APACO">     16.00000000</i>
  </separator>
  <separator name="symmetry" >
   <i type="int" name="ISYM">     2</i>
   <i name="SYMPREC">      0.00001000</i>
  </separator>
  <separator name="dos" >
   <i type="logical" name="LORBIT"> F  </i>
   <v name="RWIGS">     -1.00000000     -1.00000000     -1.00000000</v>
   <i type="int" name="NEDOS">   301</i>
   <i name="EMIN">     10.00000000</i>
   <i name="EMAX">    -10.00000000</i>
   <i name="EFERMI">      0.00000000</i>
  </separator>
  <separator name="writing" >
   <i type="int" name="NWRITE">     1</i>
   <i type="logical" name="LWAVE"> F  </i>
   <i type="logical" name="LCHARG"> F  </i>
   <i type="logical" name="LPARD"> F  </i>
   <i type="logical" name="LVTOT"> F  </i>
   <i type="logical" name="LVHAR"> F  </i>
   <i type="logical" name="LELF"> F  </i>
   <i type="logical" name="LOPTICS"> F  </i>
   <v name="STM">      0.00000000      0.00000000      0.00000000      0.00000000      0.00000000      0.00000000      0.00000000</v>
  </separator>
  <separator name="performance" >
   <i type="int" name="NPAR">     6</i>
   <i type="int" name="NSIM">     4</i>
   <i type="int" name="NBLK">    -1</i>
   <i type="logical" name="LPLANE"> T  </i>
   <i type="logical" name="LSCALAPACK"> T  </i>
   <i type="logical" name="LSCAAWARE"> F  </i>
   <i type="logical" name="LSCALU"> F  </i>
   <i type="logical" name="LASYNC"> F  </i>
   <i type="logical" name="LORBITALREAL"> F  </i>
  </separator>
  <separator name="miscellaneous" >
   <i type="int" name="IDIOT">     3</i>
   <i type="logical" name="LMUSIC"> F  </i>
   <v name="POMASS">    196.96600000     16.00000000    106.42000000</v>
   <v name="DARWINR">      0.00000000      0.00000000      0.00000000</v>
   <v name="DARWINV">      1.00000000      1.00000000      1.00000000</v>
   <i type="logical" name="LCORR"> T  </i>
  </separator>
  <i type="logical" name="GGA_COMPAT"> T  </i>
  <i type="logical" name="LBERRY"> F  </i>
  <i type="int" name="ICORELEVEL">     0</i>
  <i type="logical" name="LDAU"> F  </i>
  <i type="int" name="I_CONSTRAINED_M">     0</i>
  <separator name="electronic exchange-correlation" >
   <i type="string" name="GGA">PE</i>
   <i type="int" name="VOSKOWN">     1</i>
   <i type="logical" name="LHFCALC"> F  </i>
   <i type="string" name="PRECFOCK"></i>
   <i type="logical" name="LSYMGRAD"> F  </i>
   <i type="logical" name="LHFONE"> F  </i>
   <i type="logical" name="LRHFCALC"> F  </i>
   <i type="logical" name="LTHOMAS"> F  </i>
   <i type="logical" name="LMODELHF"> F  </i>
   <i name="ENCUT4O">     -1.00000000</i>
   <i type="int" name="EXXOEP">     0</i>
   <i type="int" name="FOURORBIT">     0</i>
   <i name="AEXX">      0.00000000</i>
   <i name="HFALPHA">      0.00000000</i>
   <i name="MCALPHA">      0.00000000</i>
   <i name="ALDAX">      1.00000000</i>
   <i name="AGGAX">      1.00000000</i>
   <i name="ALDAC">      1.00000000</i>
   <i name="AGGAC">      1.00000000</i>
   <i type="int" name="NKREDX">     1</i>
   <i type="int" name="NKREDY">     1</i>
   <i type="int" name="NKREDZ">     1</i>
   <i type="logical" name="SHIFTRED"> F  </i>
   <i type="logical" name="ODDONLY"> F  </i>
   <i type="logical" name="EVENONLY"> F  </i>
   <i type="int" name="LMAXFOCK">     0</i>
   <i type="int" name="NMAXFOCKAE">     0</i>
   <i type="logical" name="LFOCKAEDFT"> F  </i>
   <i name="HFSCREEN">      0.00000000</i>
   <i name="HFSCREENC">      0.00000000</i>
   <i type="int" name="NBANDSGWLOW">     0</i>
  </separator>
  <separator name="vdW DFT" >
   <i type="logical" name="LUSE_VDW"> F  </i>
   <i name="Zab_VDW">     -0.84910000</i>
   <i name="PARAM1">      0.12340000</i>
   <i name="PARAM2">      1.00000000</i>
   <i name="PARAM3">      0.00000000</i>
  </separator>
  <separator name="model GW" >
   <i type="int" name="MODEL_GW">     0</i>
   <i name="MODEL_EPS0">     29.42037089</i>
   <i name="MODEL_ALPHA">      1.00000000</i>
  </separator>
  <separator name="linear response parameters" >
   <i type="logical" name="LEPSILON"> F  </i>
   <i type="logical" name="LRPA"> F  </i>
   <i type="logical" name="LNABLA"> F  </i>
   <i type="logical" name="LVEL"> F  </i>
   <i type="int" name="KINTER">     0</i>
   <i name="CSHIFT">      0.10000000</i>
   <i name="OMEGAMAX">     -1.00000000</i>
   <i name="DEG_THRESHOLD">      0.00200000</i>
  </separator>
  <separator name="orbital magnetization" >
   <i type="logical" name="NUCIND"> F  </i>
   <v name="MAGPOS">      0.00000000      0.00000000      0.00000000</v>
   <i type="logical" name="LNICSALL"> T  </i>
   <i type="logical" name="ORBITALMAG"> F  </i>
   <i type="logical" name="LMAGBLOCH"> F  </i>
   <i type="logical" name="LCHIMAG"> F  </i>
   <i type="logical" name="LGAUGE"> T  </i>
   <i type="int" name="MAGATOM">     0</i>
   <v name="MAGDIPOL">      0.00000000      0.00000000      0.00000000</v>
   <v name="AVECCONST">      0.00000000      0.00000000      0.00000000</v>
  </separator>
  <separator name="response functions" >
   <i type="logical" name="LADDER"> F  </i>
   <i type="logical" name="LFXC"> F  </i>
   <i type="logical" name="LHARTREE"> T  </i>
   <i type="int" name="IBSE">     0</i>
   <v type="int" name="KPOINT">    -1     0     0     0</v>
   <i type="logical" name="LTCTE"> F  </i>
   <i type="logical" name="LTETE"> F  </i>
   <i type="logical" name="LTRIPLET"> F  </i>
   <i type="logical" name="LFXCEPS"> F  </i>
   <i type="logical" name="LFXHEG"> F  </i>
   <i type="int" name="NATURALO">     0</i>
   <i type="logical" name="L2ORDER"> F  </i>
   <i type="logical" name="LUSEW"> F  </i>
   <i name="ENCUTGW">     -2.00000000</i>
   <i name="ENCUTGWSOFT">     -2.00000000</i>
   <i name="ENCUTLF">     -1.00000000</i>
   <i type="int" name="LMAXMP2">    -1</i>
   <i name="SCISSOR">      0.00000000</i>
   <i type="int" name="NOMEGA">     0</i>
   <i type="int" name="NOMEGAR">     0</i>
   <i type="int" name="NBANDSGW">    -1</i>
   <i type="int" name="NBANDSO">    -1</i>
   <i type="int" name="NBANDSV">    -1</i>
   <i type="int" name="NELM">   500</i>
   <i type="int" name="NELMHF">     1</i>
   <i type="int" name="DIM">     3</i>
   <i type="int" name="ANTIRES">     0</i>
   <i name="OMEGAMAX">    -30.00000000</i>
   <i name="OMEGAMIN">    -30.00000000</i>
   <i name="OMEGATL">   -200.00000000</i>
   <i type="int" name="OMEGAGRID">     0</i>
   <i name="CSHIFT">     -0.10000000</i>
   <i type="logical" name="SELFENERGY"> F  </i>
   <i type="logical" name="LSPECTRAL"> F  </i>
   <i type="logical" name="LSPECTRALGW"> F  </i>
   <i type="logical" name="LSINGLES"> F  </i>
   <i type="logical" name="LFERMIGW"> F  </i>
   <i type="logical" name="ODDONLYGW"> F  </i>
   <i type="logical" name="EVENONLYGW"> F  </i>
   <i type="int" name="NKREDLFX">     1</i>
   <i type="int" name="NKREDLFY">     1</i>
   <i type="int" name="NKREDLFZ">     1</i>
   <i type="int" name="MAXMEM">  1800</i>
   <i type="int" name="TELESCOPE">     0</i>
   <i type="int" name="TAUPAR">     1</i>
   <i type="int" name="OMEGAPAR">    -1</i>
   <i name="LAMBDA">      1.00000000</i>
  </separator>
  <separator name="External order field" >
   <i name="OFIELD_KAPPA">      0.00000000</i>
   <v name="OFIELD_K">      0.00000000      0.00000000      0.00000000</v>
   <i name="OFIELD_Q6_NEAR">      0.00000000</i>
   <i name="OFIELD_Q6_FAR">      0.00000000</i>
   <i name="OFIELD_A">      0.00000000</i>
  </separator>
 </parameters>
 <atominfo>
  <atoms>      56 </atoms>
  <types>       3 </types>
  <array name="atoms" >
   <dimension dim="1">ion</dimension>
   <field type="string">element</field>
   <field type="int">atomtype</field>
   <set>
    <rc><c>Au</c><c>   1</c></rc>
    <rc><c>Au</c><c>   1</c></rc>
    <rc><c>Au</c><c>   1</c></rc>
    <rc><c>Au</c><c>   1</c></rc>
    <rc><c>Au</c><c>   1</c></rc>
    <rc><c>Au</c><c>   1</c></rc>
    <rc><c>Au</c><c>   1</c></rc>
    <rc><c>Au</c><c>   1</c></rc>
    <rc><c>Au</c><c>   1</c></rc>
    <rc><c>Au</c><c>   1</c></rc>
    <rc><c>Au</c><c>   1</c></rc>
    <rc><c>Au</c><c>   1</c></rc>
    <rc><c>Au</c><c>   1</c></rc>
    <rc><c>Au</c><c>   1</c></rc>
    <rc><c>Au</c><c>   1</c></rc>
    <rc><c>Au</c><c>   1</c></rc>
    <rc><c>Au</c><c>   1</c></rc>
    <rc><c>Au</c><c>   1</c></rc>
    <rc><c>Au</c><c>   1</c></rc>
    <rc><c>Au</c><c>   1</c></rc>
    <rc><c>Au</c><c>   1</c></rc>
    <rc><c>Au</c><c>   1</c></rc>
    <rc><c>Au</c><c>   1</c></rc>
    <rc><c>Au</c><c>   1</c></rc>
    <rc><c>O </c><c>   2</c></rc>
    <rc><c>O </c><c>   2</c></rc>
    <rc><c>O </c><c>   2</c></rc>
    <rc><c>O </c><c>   2</c></rc>
    <rc><c>O </c><c>   2</c></rc>
    <rc><c>O </c><c>   2</c></rc>
    <rc><c>O </c><c>   2</c></rc>
    <rc><c>O </c><c>   2</c></rc>
    <rc><c>Pd</c><c>   3</c></rc>
    <rc><c>Pd</c><c>   3</c></rc>
    <rc><c>Pd</c><c>   3</c></rc>
    <rc><c>Pd</c><c>   3</c></rc>
    <rc><c>Pd</c><c>   3</c></rc>
    <rc><c>Pd</c><c>   3</c></rc>
    <rc><c>Pd</c><c>   3</c></rc>
    <rc><c>Pd</c><c>   3</c></rc>
    <rc><c>Pd</c><c>   3</c></rc>
    <rc><c>Pd</c><c>   3</c></rc>
    <rc><c>Pd</c><c>   3</c></rc>
    <rc><c>Pd</c><c>   3</c></rc>
    <rc><c>Pd</c><c>   3</c></rc>
    <rc><c>Pd</c><c>   3</c></rc>
    <rc><c>Pd</c><c>   3</c></rc>
    <rc><c>Pd</c><c>   3</c></rc>
    <rc><c>Pd</c><c>   3</c></rc>
    <rc><c>Pd</c><c>   3</c></rc>
    <rc><c>Pd</c><c>   3</c></rc>
    <rc><c>Pd</c><c>   3</c></rc>
    <rc><c>Pd</c><c>   3</c></rc>
    <rc><c>Pd</c><c>   3</c></rc>
    <rc><c>Pd</c><c>   3</c></rc>
    <rc><c>Pd</c><c>   3</c></rc>
   </set>
  </array>
  <array name="atomtypes" >
   <dimension dim="1">type</dimension>
   <field type="int">atomspertype</field>
   <field type="string">element</field>
   <field>mass</field>
   <field>valence</field>
   <field type="string">pseudopotential</field>
   <set>
    <rc><c>  24</c><c>Au</c><c>    196.96600000</c><c>     11.00000000</c><c>  PAW_PBE Au 04Oct2007                  </c></rc>
    <rc><c>   8</c><c>O </c><c>     16.00000000</c><c>      6.00000000</c><c>  PAW_PBE O 08Apr2002                   </c></rc>
    <rc><c>  24</c><c>Pd</c><c>    106.42000000</c><c>     10.00000000</c><c>  PAW_PBE Pd 04Jan2005                  </c></rc>
   </set>
  </array>
 </atominfo>
 <structure name="initialpos" >
  <crystal>
   <varray name="basis" >
    <v>      11.00258152       0.00000000       0.00000000 </v>
    <v>       5.50129076       9.52851510       0.00000000 </v>
    <v>       0.00000000       0.00000000      26.19178509 </v>
   </varray>
   <i name="volume">   2745.90128299 </i>
   <varray name="rec_basis" >
    <v>       0.09088776      -0.05247407       0.00000000 </v>
    <v>       0.00000000       0.10494815       0.00000000 </v>
    <v>       0.00000000       0.00000000       0.03817991 </v>
   </varray>
  </crystal>
  <varray name="positions" >
   <v>       0.08333333       0.08333333       0.38179910 </v>
   <v>       0.16666667       0.66666667       0.46754708 </v>
   <v>       0.66666667       0.91666667       0.46754708 </v>
   <v>       0.66666667       0.41666667       0.46754708 </v>
   <v>       0.66666667       0.16666667       0.46754708 </v>
   <v>       0.83333333       0.08333333       0.38179910 </v>
   <v>       0.58333333       0.83333333       0.38179910 </v>
   <v>       0.00000000       0.25000000       0.55329505 </v>
   <v>       0.66666667       0.66666667       0.46754708 </v>
   <v>       0.50000000       0.50000000       0.55329505 </v>
   <v>       0.91666667       0.66666667       0.46754708 </v>
   <v>       0.08333333       0.83333333       0.38179910 </v>
   <v>       0.00000000       0.50000000       0.55329505 </v>
   <v>       0.41666667       0.66666667       0.46754708 </v>
   <v>       0.41666667       0.41666667       0.46754708 </v>
   <v>       0.33333333       0.08333333       0.38179910 </v>
   <v>       0.16666667       0.16666667       0.46754708 </v>
   <v>       0.25000000       0.00000000       0.55329505 </v>
   <v>       0.50000000       0.00000000       0.55329505 </v>
   <v>       0.33333333       0.33333333       0.38179910 </v>
   <v>       0.16666667       0.41666667       0.46754708 </v>
   <v>       0.58333333       0.08333333       0.38179910 </v>
   <v>       0.25000000       0.75000000       0.55329505 </v>
   <v>       0.25000000       0.50000000       0.55329505 </v>
   <v>       0.83333333       0.58333333       0.61820090 </v>
   <v>       0.08333333       0.33333333       0.61820090 </v>
   <v>       0.08333333       0.08333333       0.61820090 </v>
   <v>       0.33333333       0.33333333       0.61820090 </v>
   <v>       0.83333333       0.33333333       0.61820090 </v>
   <v>       0.33333333       0.58333333       0.61820090 </v>
   <v>       0.58333333       0.83333333       0.61820090 </v>
   <v>       0.58333333       0.08333333       0.61820090 </v>
   <v>       0.33333333       0.83333333       0.38179910 </v>
   <v>       0.16666667       0.91666667       0.46754708 </v>
   <v>       0.75000000       0.75000000       0.55329505 </v>
   <v>       0.25000000       0.25000000       0.55329505 </v>
   <v>       0.41666667       0.16666667       0.46754708 </v>
   <v>       0.83333333       0.83333333       0.38179910 </v>
   <v>       0.58333333       0.33333333       0.38179910 </v>
   <v>       0.00000000       0.75000000       0.55329505 </v>
   <v>       0.50000000       0.25000000       0.55329505 </v>
   <v>       0.75000000       0.50000000       0.55329505 </v>
   <v>       0.58333333       0.58333333       0.38179910 </v>
   <v>       0.75000000       0.25000000       0.55329505 </v>
   <v>       0.08333333       0.58333333       0.38179910 </v>
   <v>       0.91666667       0.41666667       0.46754708 </v>
   <v>       0.41666667       0.91666667       0.46754708 </v>
   <v>       0.50000000       0.75000000       0.55329505 </v>
   <v>       0.08333333       0.33333333       0.38179910 </v>
   <v>       0.00000000       0.00000000       0.55329505 </v>
   <v>       0.75000000       0.00000000       0.55329505 </v>
   <v>       0.83333333       0.58333333       0.38179910 </v>
   <v>       0.83333333       0.33333333       0.38179910 </v>
   <v>       0.91666667       0.16666667       0.46754708 </v>
   <v>       0.33333333       0.58333333       0.38179910 </v>
   <v>       0.91666667       0.91666667       0.46754708 </v>
  </varray>
  <varray name="selective"  type="logical" >
   <v type="logical" >  F  F  F </v>
   <v type="logical" >  T  T  T </v>
   <v type="logical" >  T  T  T </v>
   <v type="logical" >  T  T  T </v>
   <v type="logical" >  T  T  T </v>
   <v type="logical" >  F  F  F </v>
   <v type="logical" >  F  F  F </v>
   <v type="logical" >  T  T  T </v>
   <v type="logical" >  T  T  T </v>
   <v type="logical" >  T  T  T </v>
   <v type="logical" >  T  T  T </v>
   <v type="logical" >  F  F  F </v>
   <v type="logical" >  T  T  T </v>
   <v type="logical" >  T  T  T </v>
   <v type="logical" >  T  T  T </v>
   <v type="logical" >  F  F  F </v>
   <v type="logical" >  T  T  T </v>
   <v type="logical" >  T  T  T </v>
   <v type="logical" >  T  T  T </v>
   <v type="logical" >  F  F  F </v>
   <v type="logical" >  T  T  T </v>
   <v type="logical" >  F  F  F </v>
   <v type="logical" >  T  T  T </v>
   <v type="logical" >  T  T  T </v>
   <v type="logical" >  T  T  T </v>
   <v type="logical" >  T  T  T </v>
   <v type="logical" >  T  T  T </v>
   <v type="logical" >  T  T  T </v>
   <v type="logical" >  T  T  T </v>
   <v type="logical" >  T  T  T </v>
   <v type="logical" >  T  T  T </v>
   <v type="logical" >  T  T  T </v>
   <v type="logical" >  F  F  F </v>
   <v type="logical" >  T  T  T </v>
   <v type="logical" >  T  T  T </v>
   <v type="logical" >  T  T  T </v>
   <v type="logical" >  T  T  T </v>
   <v type="logical" >  F  F  F </v>
   <v type="logical" >  F  F  F </v>
   <v type="logical" >  T  T  T </v>
   <v type="logical" >  T  T  T </v>
   <v type="logical" >  T  T  T </v>
   <v type="logical" >  F  F  F </v>
   <v type="logical" >  T  T  T </v>
   <v type="logical" >  F  F  F </v>
   <v type="logical" >  T  T  T </v>
   <v type="logical" >  T  T  T </v>
   <v type="logical" >  T  T  T </v>
   <v type="logical" >  F  F  F </v>
   <v type="logical" >  T  T  T </v>
   <v type="logical" >  T  T  T </v>
   <v type="logical" >  F  F  F </v>
   <v type="logical" >  F  F  F </v>
   <v type="logical" >  T  T  T </v>
   <v type="logical" >  F  F  F </v>
   <v type="logical" >  T  T  T </v>
  </varray>
  <nose>
   <v>      -3.00000000       0.00000000       0.00010000       0.00010000 </v>
  </nose>
 </structure>
 <calculation>
  <scstep>
   <time name="dav">   10.55   10.58</time>
   <time name="total">   10.62   10.65</time>
   <dipole>
    <v name="dipole">      0.00000000       0.00000000       0.00012446 </v>
    <i name="Tr[quadrupol]"> -11284.37512281 </i>
    <i name="Echarged">      0.00000000 </i>
    <i name="Edipol_quadrupol">      0.00000000 </i>
    <i name="Eion">      0.00000000 </i>
   </dipole>
   <energy>
    <i name="alphaZ">    862.57877614 </i>
    <i name="ewald"> 255871.25705852 </i>
    <i name="hartreedc">-301447.99399236 </i>
    <i name="XCdc">   -109.61490032 </i>
    <i name="pawpsdc">  43112.45544455 </i>
    <i name="pawaedc"> -41079.41300390 </i>
    <i name="eentropy">     -0.12598788 </i>
    <i name="bandstr">   1331.89048455 </i>
    <i name="atom">  45117.89144060 </i>
    <i name="e_fr_energy">   3658.92531990 </i>
    <i name="e_wo_entrp">   3659.05130778 </i>
    <i name="e_0_energy">   3658.98831384 </i>
   </energy>
  </scstep>
  <scstep>
   <time name="dav">   12.65   12.69</time>
   <time name="total">   12.65   12.70</time>
   <dipole>
    <v name="dipole">      0.00000000       0.00000000       0.00012446 </v>
    <i name="Tr[quadrupol]"> -11284.37512281 </i>
    <i name="Echarged">      0.00000000 </i>
    <i name="Edipol_quadrupol">      0.00000000 </i>
    <i name="Eion">      0.00000000 </i>
   </dipole>
   <energy>
    <i name="e_fr_energy">     55.71460439 </i>
    <i name="e_wo_entrp">     55.88987484 </i>
    <i name="e_0_energy">     55.80223962 </i>
   </energy>
  </scstep>
  <scstep>
   <time name="dav">   12.07   12.11</time>
   <time name="total">   12.08   12.12</time>
   <dipole>
    <v name="dipole">      0.00000000       0.00000000       0.00012446 </v>
    <i name="Tr[quadrupol]"> -11284.37512281 </i>
    <i name="Echarged">      0.00000000 </i>
    <i name="Edipol_quadrupol">      0.00000000 </i>
    <i name="Eion">      0.00000000 </i>
   </dipole>
   <energy>
    <i name="e_fr_energy">   -250.16848215 </i>
    <i name="e_wo_entrp">   -249.71355074 </i>
    <i name="e_0_energy">   -249.94101644 </i>
   </energy>
  </scstep>
  <scstep>
   <time name="dav">   11.69   11.79</time>
   <time name="total">   11.69   11.81</time>
   <dipole>
    <v name="dipole">      0.00000000       0.00000000       0.00012446 </v>
    <i name="Tr[quadrupol]"> -11284.37512281 </i>
    <i name="Echarged">      0.00000000 </i>
    <i name="Edipol_quadrupol">      0.00000000 </i>
    <i name="Eion">      0.00000000 </i>
   </dipole>
   <energy>
    <i name="e_fr_energy">   -261.35729814 </i>
    <i name="e_wo_entrp">   -260.88844081 </i>
    <i name="e_0_energy">   -261.12286948 </i>
   </energy>
  </scstep>
  <scstep>
   <time name="dav">   12.51   12.55</time>
   <time name="total">   12.78   12.82</time>
   <dipole>
    <v name="dipole">      0.00000000       0.00000000       0.00012446 </v>
    <i name="Tr[quadrupol]"> -11284.37512281 </i>
    <i name="Echarged">      0.00000000 </i>
    <i name="Edipol_quadrupol">      0.00000000 </i>
    <i name="Eion">      0.00000000 </i>
   </dipole>
   <energy>
    <i name="e_fr_energy">   -261.71086596 </i>
    <i name="e_wo_entrp">   -261.24029284 </i>
    <i name="e_0_energy">   -261.47557940 </i>
   </energy>
  </scstep>
  <scstep>
   <time name="diag">    1.86    1.87</time>
   <time name="diis">    5.55    5.57</time>
   <time name="orth">    0.49    0.49</time>
   <time name="total">    8.23    8.29</time>
   <dipole>
    <v name="dipole">      0.00000000       0.00000000       4.09773187 </v>
    <i name="Tr[quadrupol]"> -11277.37079426 </i>
    <i name="Echarged">      0.00000000 </i>
    <i name="Edipol_quadrupol">      0.00000000 </i>
    <i name="Eion">      0.00000000 </i>
   </dipole>
   <energy>
    <i name="e_fr_energy">   -377.71757907 </i>
    <i name="e_wo_entrp">   -377.60181777 </i>
    <i name="e_0_energy">   -377.65969842 </i>
   </energy>
  </scstep>
  <scstep>
   <time name="diag">    1.87    1.88</time>
   <time name="diis">    5.56    5.58</time>
   <time name="orth">    0.50    0.50</time>
   <time name="total">    8.27    8.37</time>
   <dipole>
    <v name="dipole">      0.00000000       0.00000000      -0.91399325 </v>
    <i name="Tr[quadrupol]"> -11278.68395570 </i>
    <i name="Echarged">      0.00000000 </i>
    <i name="Edipol_quadrupol">      0.00000000 </i>
    <i name="Eion">      0.00000000 </i>
   </dipole>
   <energy>
    <i name="e_fr_energy">   -261.28365574 </i>
    <i name="e_wo_entrp">   -261.05520317 </i>
    <i name="e_0_energy">   -261.16942945 </i>
   </energy>
  </scstep>
  <scstep>
   <time name="diag">    1.84    1.88</time>
   <time name="diis">    5.49    5.56</time>
   <time name="orth">    0.49    0.50</time>
   <time name="total">    8.16    8.29</time>
   <dipole>
    <v name="dipole">      0.00000000       0.00000000       1.47815082 </v>
    <i name="Tr[quadrupol]"> -11282.78903783 </i>
    <i name="Echarged">      0.00000000 </i>
    <i name="Edipol_quadrupol">      0.00000000 </i>
    <i name="Eion">      0.00000000 </i>
   </dipole>
   <energy>
    <i name="e_fr_energy">   -240.31911754 </i>
    <i name="e_wo_entrp">   -240.04899517 </i>
    <i name="e_0_energy">   -240.18405635 </i>
   </energy>
  </scstep>
  <scstep>
   <time name="diag">    1.83    1.84</time>
   <time name="diis">    5.56    5.57</time>
   <time name="orth">    0.49    0.49</time>
   <time name="total">    8.22    8.29</time>
   <dipole>
    <v name="dipole">      0.00000000       0.00000000       1.17853707 </v>
    <i name="Tr[quadrupol]"> -11276.89862353 </i>
    <i name="Echarged">      0.00000000 </i>
    <i name="Edipol_quadrupol">      0.00000000 </i>
    <i name="Eion">      0.00000000 </i>
   </dipole>
   <energy>
    <i name="e_fr_energy">   -270.67658237 </i>
    <i name="e_wo_entrp">   -270.54283593 </i>
    <i name="e_0_energy">   -270.60970915 </i>
   </energy>
  </scstep>
  <scstep>
   <time name="diag">    1.86    1.86</time>
   <time name="diis">    5.60    5.61</time>
   <time name="orth">    0.49    0.49</time>
   <time name="total">    8.27    8.29</time>
   <dipole>
    <v name="dipole">      0.00000000       0.00000000       1.67471474 </v>
    <i name="Tr[quadrupol]"> -11280.02729018 </i>
    <i name="Echarged">      0.00000000 </i>
    <i name="Edipol_quadrupol">      0.00000000 </i>
    <i name="Eion">      0.00000000 </i>
   </dipole>
   <energy>
    <i name="e_fr_energy">   -248.10941631 </i>
    <i name="e_wo_entrp">   -247.95861987 </i>
    <i name="e_0_energy">   -248.03401809 </i>
   </energy>
  </scstep>
  <scstep>
   <time name="diag">    1.87    1.88</time>
   <time name="diis">    5.51    5.53</time>
   <time name="orth">    0.49    0.49</time>
   <time name="total">    8.20    8.24</time>
   <dipole>
    <v name="dipole">      0.00000000       0.00000000       1.61821402 </v>
    <i name="Tr[quadrupol]"> -11280.82589309 </i>
    <i name="Echarged">      0.00000000 </i>
    <i name="Edipol_quadrupol">      0.00000000 </i>
    <i name="Eion">      0.00000000 </i>
   </dipole>
   <energy>
    <i name="e_fr_energy">   -235.01763194 </i>
    <i name="e_wo_entrp">   -234.87989862 </i>
    <i name="e_0_energy">   -234.94876528 </i>
   </energy>
  </scstep>
  <scstep>
   <time name="diag">    1.86    1.87</time>
   <time name="diis">    5.57    5.58</time>
   <time name="orth">    0.49    0.49</time>
   <time name="total">    8.24    8.27</time>
   <dipole>
    <v name="dipole">      0.00000000       0.00000000       1.26915205 </v>
    <i name="Tr[quadrupol]"> -11281.00200150 </i>
    <i name="Echarged">      0.00000000 </i>
    <i name="Edipol_quadrupol">      0.00000000 </i>
    <i name="Eion">      0.00000000 </i>
   </dipole>
   <energy>
    <i name="e_fr_energy">   -223.32420337 </i>
    <i name="e_wo_entrp">   -223.06638602 </i>
    <i name="e_0_energy">   -223.19529469 </i>
   </energy>
  </scstep>
  <scstep>
   <time name="diag">    1.78    1.86</time>
   <time name="diis">    5.56    5.57</time>
   <time name="orth">    0.49    0.49</time>
   <time name="total">    8.15    8.25</time>
   <dipole>
    <v name="dipole">      0.00000000       0.00000000       1.24296990 </v>
    <i name="Tr[quadrupol]"> -11281.02736931 </i>
    <i name="Echarged">      0.00000000 </i>
    <i name="Edipol_quadrupol">      0.00000000 </i>
    <i name="Eion">      0.00000000 </i>
   </dipole>
   <energy>
    <i name="e_fr_energy">   -221.01778949 </i>
    <i name="e_wo_entrp">   -220.76482809 </i>
    <i name="e_0_energy">   -220.89130879 </i>
   </energy>
  </scstep>
  <scstep>
   <time name="diag">    1.86    1.86</time>
   <time name="diis">    5.55    5.57</time>
   <time name="orth">    0.49    0.50</time>
   <time name="total">    8.23    8.25</time>
   <dipole>
    <v name="dipole">      0.00000000       0.00000000       1.25744409 </v>
    <i name="Tr[quadrupol]"> -11281.07833004 </i>
    <i name="Echarged">      0.00000000 </i>
    <i name="Edipol_quadrupol">      0.00000000 </i>
    <i name="Eion">      0.00000000 </i>
   </dipole>
   <energy>
    <i name="e_fr_energy">   -220.41896336 </i>
    <i name="e_wo_entrp">   -220.15486943 </i>
    <i name="e_0_energy">   -220.28691639 </i>
   </energy>
  </scstep>
  <scstep>
   <time name="diag">    1.86    1.88</time>
   <time name="diis">    5.50    5.52</time>
   <time name="orth">    0.50    0.50</time>
   <time name="total">    8.18    8.22</time>
   <dipole>
    <v name="dipole">      0.00000000       0.00000000       1.26036237 </v>
    <i name="Tr[quadrupol]"> -11281.07766353 </i>
    <i name="Echarged">      0.00000000 </i>
    <i name="Edipol_quadrupol">      0.00000000 </i>
    <i name="Eion">      0.00000000 </i>
   </dipole>
   <energy>
    <i name="e_fr_energy">   -219.97948545 </i>
    <i name="e_wo_entrp">   -219.69848372 </i>
    <i name="e_0_energy">   -219.83898459 </i>
   </energy>
  </scstep>
  <scstep>
   <time name="diag">    1.86    1.87</time>
   <time name="diis">    5.46    5.48</time>
   <time name="orth">    0.50    0.50</time>
   <time name="total">    8.15    8.30</time>
   <dipole>
    <v name="dipole">      0.00000000       0.00000000       1.25060879 </v>
    <i name="Tr[quadrupol]"> -11280.97353702 </i>
    <i name="Echarged">      0.00000000 </i>
    <i name="Edipol_quadrupol">      0.00000000 </i>
    <i name="Eion">      0.00000000 </i>
   </dipole>
   <energy>
    <i name="e_fr_energy">   -220.04331014 </i>
    <i name="e_wo_entrp">   -219.76296674 </i>
    <i name="e_0_energy">   -219.90313844 </i>
   </energy>
  </scstep>
  <scstep>
   <time name="diag">    1.83    1.83</time>
   <time name="diis">    5.50    5.53</time>
   <time name="orth">    0.48    0.52</time>
   <time name="total">    8.13    8.21</time>
   <dipole>
    <v name="dipole">      0.00000000       0.00000000       1.24785206 </v>
    <i name="Tr[quadrupol]"> -11280.93987544 </i>
    <i name="Echarged">      0.00000000 </i>
    <i name="Edipol_quadrupol">      0.00000000 </i>
    <i name="Eion">      0.00000000 </i>
   </dipole>
   <energy>
    <i name="e_fr_energy">   -219.96051861 </i>
    <i name="e_wo_entrp">   -219.68341208 </i>
    <i name="e_0_energy">   -219.82196534 </i>
   </energy>
  </scstep>
  <scstep>
   <time name="diag">    1.85    1.86</time>
   <time name="diis">    5.56    5.58</time>
   <time name="orth">    0.49    0.49</time>
   <time name="total">    8.22    8.26</time>
   <dipole>
    <v name="dipole">      0.00000000       0.00000000       1.26733146 </v>
    <i name="Tr[quadrupol]"> -11281.09824290 </i>
    <i name="Echarged">      0.00000000 </i>
    <i name="Edipol_quadrupol">      0.00000000 </i>
    <i name="Eion">      0.00000000 </i>
   </dipole>
   <energy>
    <i name="e_fr_energy">   -219.99129028 </i>
    <i name="e_wo_entrp">   -219.70063390 </i>
    <i name="e_0_energy">   -219.84596209 </i>
   </energy>
  </scstep>
  <scstep>
   <time name="diag">    1.86    1.87</time>
   <time name="diis">    5.50    5.52</time>
   <time name="orth">    0.49    0.49</time>
   <time name="total">    8.18    8.20</time>
   <dipole>
    <v name="dipole">      0.00000000       0.00000000       1.28793880 </v>
    <i name="Tr[quadrupol]"> -11281.30789985 </i>
    <i name="Echarged">      0.00000000 </i>
    <i name="Edipol_quadrupol">      0.00000000 </i>
    <i name="Eion">      0.00000000 </i>
   </dipole>
   <energy>
    <i name="e_fr_energy">   -219.88779635 </i>
    <i name="e_wo_entrp">   -219.58624337 </i>
    <i name="e_0_energy">   -219.73701986 </i>
   </energy>
  </scstep>
  <scstep>
   <time name="diag">    1.85    1.86</time>
   <time name="diis">    5.58    5.60</time>
   <time name="orth">    0.48    0.49</time>
   <time name="total">    8.25    8.29</time>
   <dipole>
    <v name="dipole">      0.00000000       0.00000000       1.29671213 </v>
    <i name="Tr[quadrupol]"> -11281.50158211 </i>
    <i name="Echarged">      0.00000000 </i>
    <i name="Edipol_quadrupol">      0.00000000 </i>
    <i name="Eion">      0.00000000 </i>
   </dipole>
   <energy>
    <i name="e_fr_energy">   -219.80332617 </i>
    <i name="e_wo_entrp">   -219.46041493 </i>
    <i name="e_0_energy">   -219.63187055 </i>
   </energy>
  </scstep>
  <scstep>
   <time name="diag">    1.81    1.82</time>
   <time name="diis">    5.45    5.48</time>
   <time name="orth">    0.48    0.49</time>
   <time name="total">    8.08    8.12</time>
   <dipole>
    <v name="dipole">      0.00000000       0.00000000       1.28479916 </v>
    <i name="Tr[quadrupol]"> -11281.52882495 </i>
    <i name="Echarged">      0.00000000 </i>
    <i name="Edipol_quadrupol">      0.00000000 </i>
    <i name="Eion">      0.00000000 </i>
   </dipole>
   <energy>
    <i name="e_fr_energy">   -219.74161208 </i>
    <i name="e_wo_entrp">   -219.40389122 </i>
    <i name="e_0_energy">   -219.57275165 </i>
   </energy>
  </scstep>
  <scstep>
   <time name="diag">    1.85    1.86</time>
   <time name="diis">    5.45    5.58</time>
   <time name="orth">    0.48    0.49</time>
   <time name="total">    8.11    8.25</time>
   <dipole>
    <v name="dipole">      0.00000000       0.00000000       1.28601174 </v>
    <i name="Tr[quadrupol]"> -11281.55790819 </i>
    <i name="Echarged">      0.00000000 </i>
    <i name="Edipol_quadrupol">      0.00000000 </i>
    <i name="Eion">      0.00000000 </i>
   </dipole>
   <energy>
    <i name="e_fr_energy">   -219.72550063 </i>
    <i name="e_wo_entrp">   -219.38948364 </i>
    <i name="e_0_energy">   -219.55749213 </i>
   </energy>
  </scstep>
  <scstep>
   <time name="diag">    1.86    1.87</time>
   <time name="diis">    5.63    5.65</time>
   <time name="orth">    0.48    0.48</time>
   <time name="total">    8.29    8.34</time>
   <dipole>
    <v name="dipole">      0.00000000       0.00000000       1.28890323 </v>
    <i name="Tr[quadrupol]"> -11281.58706529 </i>
    <i name="Echarged">      0.00000000 </i>
    <i name="Edipol_quadrupol">      0.00000000 </i>
    <i name="Eion">      0.00000000 </i>
   </dipole>
   <energy>
    <i name="e_fr_energy">   -219.71882624 </i>
    <i name="e_wo_entrp">   -219.38961584 </i>
    <i name="e_0_energy">   -219.55422104 </i>
   </energy>
  </scstep>
  <scstep>
   <time name="diag">    1.85    1.86</time>
   <time name="diis">    5.53    5.55</time>
   <time name="orth">    0.49    0.49</time>
   <time name="total">    8.19    8.22</time>
   <dipole>
    <v name="dipole">      0.00000000       0.00000000       1.29526984 </v>
    <i name="Tr[quadrupol]"> -11281.66691352 </i>
    <i name="Echarged">      0.00000000 </i>
    <i name="Edipol_quadrupol">      0.00000000 </i>
    <i name="Eion">      0.00000000 </i>
   </dipole>
   <energy>
    <i name="e_fr_energy">   -219.71360142 </i>
    <i name="e_wo_entrp">   -219.38698633 </i>
    <i name="e_0_energy">   -219.55029387 </i>
   </energy>
  </scstep>
  <scstep>
   <time name="diag">    1.81    1.82</time>
   <time name="diis">    5.57    5.59</time>
   <time name="orth">    0.49    0.49</time>
   <time name="total">    8.19    8.22</time>
   <dipole>
    <v name="dipole">      0.00000000       0.00000000       1.30113587 </v>
    <i name="Tr[quadrupol]"> -11281.74763725 </i>
    <i name="Echarged">      0.00000000 </i>
    <i name="Edipol_quadrupol">      0.00000000 </i>
    <i name="Eion">      0.00000000 </i>
   </dipole>
   <energy>
    <i name="e_fr_energy">   -219.70902075 </i>
    <i name="e_wo_entrp">   -219.38157577 </i>
    <i name="e_0_energy">   -219.54529826 </i>
   </energy>
  </scstep>
  <scstep>
   <time name="diag">    1.85    1.86</time>
   <time name="diis">    5.59    5.61</time>
   <time name="orth">    0.49    0.49</time>
   <time name="total">    8.25    8.29</time>
   <dipole>
    <v name="dipole">      0.00000000       0.00000000       1.30293160 </v>
    <i name="Tr[quadrupol]"> -11281.79363420 </i>
    <i name="Echarged">      0.00000000 </i>
    <i name="Edipol_quadrupol">      0.00000000 </i>
    <i name="Eion">      0.00000000 </i>
   </dipole>
   <energy>
    <i name="e_fr_energy">   -219.70756210 </i>
    <i name="e_wo_entrp">   -219.37925814 </i>
    <i name="e_0_energy">   -219.54341012 </i>
   </energy>
  </scstep>
  <scstep>
   <time name="diag">    1.86    1.86</time>
   <time name="diis">    5.50    5.62</time>
   <time name="orth">    0.49    0.49</time>
   <time name="total">    8.17    8.30</time>
   <dipole>
    <v name="dipole">      0.00000000       0.00000000       1.30664969 </v>
    <i name="Tr[quadrupol]"> -11281.87319690 </i>
    <i name="Echarged">      0.00000000 </i>
    <i name="Edipol_quadrupol">      0.00000000 </i>
    <i name="Eion">      0.00000000 </i>
   </dipole>
   <energy>
    <i name="e_fr_energy">   -219.70792691 </i>
    <i name="e_wo_entrp">   -219.37814675 </i>
    <i name="e_0_energy">   -219.54303683 </i>
   </energy>
  </scstep>
  <scstep>
   <time name="diag">    1.86    1.86</time>
   <time name="diis">    5.59    5.61</time>
   <time name="orth">    0.49    0.49</time>
   <time name="total">    8.26    8.28</time>
   <dipole>
    <v name="dipole">      0.00000000       0.00000000       1.31096696 </v>
    <i name="Tr[quadrupol]"> -11281.91698980 </i>
    <i name="Echarged">      0.00000000 </i>
    <i name="Edipol_quadrupol">      0.00000000 </i>
    <i name="Eion">      0.00000000 </i>
   </dipole>
   <energy>
    <i name="e_fr_energy">   -219.70814243 </i>
    <i name="e_wo_entrp">   -219.37992242 </i>
    <i name="e_0_energy">   -219.54403242 </i>
   </energy>
  </scstep>
  <scstep>
   <time name="diag">    1.81    1.81</time>
   <time name="diis">    5.51    5.54</time>
   <time name="orth">    0.49    0.49</time>
   <time name="total">    8.14    8.18</time>
   <dipole>
    <v name="dipole">      0.00000000       0.00000000       1.31571971 </v>
    <i name="Tr[quadrupol]"> -11281.95007879 </i>
    <i name="Echarged">      0.00000000 </i>
    <i name="Edipol_quadrupol">      0.00000000 </i>
    <i name="Eion">      0.00000000 </i>
   </dipole>
   <energy>
    <i name="e_fr_energy">   -219.70842496 </i>
    <i name="e_wo_entrp">   -219.38079028 </i>
    <i name="e_0_energy">   -219.54460762 </i>
   </energy>
  </scstep>
  <scstep>
   <time name="diag">    1.84    1.85</time>
   <time name="diis">    5.59    5.61</time>
   <time name="orth">    0.49    0.49</time>
   <time name="total">    8.24    8.28</time>
   <dipole>
    <v name="dipole">      0.00000000       0.00000000       1.32216165 </v>
    <i name="Tr[quadrupol]"> -11281.99988333 </i>
    <i name="Echarged">      0.00000000 </i>
    <i name="Edipol_quadrupol">      0.00000000 </i>
    <i name="Eion">      0.00000000 </i>
   </dipole>
   <energy>
    <i name="e_fr_energy">   -219.70885542 </i>
    <i name="e_wo_entrp">   -219.38125969 </i>
    <i name="e_0_energy">   -219.54505755 </i>
   </energy>
  </scstep>
  <scstep>
   <time name="diag">    1.87    1.87</time>
   <time name="diis">    5.60    5.61</time>
   <time name="orth">    0.49    0.49</time>
   <time name="total">    8.27    8.30</time>
   <dipole>
    <v name="dipole">      0.00000000       0.00000000       1.32936465 </v>
    <i name="Tr[quadrupol]"> -11282.06029386 </i>
    <i name="Echarged">      0.00000000 </i>
    <i name="Edipol_quadrupol">      0.00000000 </i>
    <i name="Eion">      0.00000000 </i>
   </dipole>
   <energy>
    <i name="e_fr_energy">   -219.70929231 </i>
    <i name="e_wo_entrp">   -219.38113654 </i>
    <i name="e_0_energy">   -219.54521442 </i>
   </energy>
  </scstep>
  <scstep>
   <time name="diag">    1.86    1.86</time>
   <time name="diis">    5.48    5.59</time>
   <time name="orth">    0.49    0.49</time>
   <time name="total">    8.15    8.27</time>
   <dipole>
    <v name="dipole">      0.00000000       0.00000000       1.33482244 </v>
    <i name="Tr[quadrupol]"> -11282.10259197 </i>
    <i name="Echarged">      0.00000000 </i>
    <i name="Edipol_quadrupol">      0.00000000 </i>
    <i name="Eion">      0.00000000 </i>
   </dipole>
   <energy>
    <i name="e_fr_energy">   -219.70962851 </i>
    <i name="e_wo_entrp">   -219.38127264 </i>
    <i name="e_0_energy">   -219.54545058 </i>
   </energy>
  </scstep>
  <scstep>
   <time name="diag">    1.81    1.81</time>
   <time name="diis">    5.41    5.43</time>
   <time name="orth">    0.48    0.48</time>
   <time name="total">    8.03    8.07</time>
   <dipole>
    <v name="dipole">      0.00000000       0.00000000       1.33960700 </v>
    <i name="Tr[quadrupol]"> -11282.13816572 </i>
    <i name="Echarged">      0.00000000 </i>
    <i name="Edipol_quadrupol">      0.00000000 </i>
    <i name="Eion">      0.00000000 </i>
   </dipole>
   <energy>
    <i name="e_fr_energy">   -219.70990386 </i>
    <i name="e_wo_entrp">   -219.38173358 </i>
    <i name="e_0_energy">   -219.54581872 </i>
   </energy>
  </scstep>
  <scstep>
   <time name="diag">    1.85    1.85</time>
   <time name="diis">    5.30    5.32</time>
   <time name="orth">    0.46    0.46</time>
   <time name="total">    7.93    7.96</time>
   <dipole>
    <v name="dipole">      0.00000000       0.00000000       1.34652841 </v>
    <i name="Tr[quadrupol]"> -11282.18235739 </i>
    <i name="Echarged">      0.00000000 </i>
    <i name="Edipol_quadrupol">      0.00000000 </i>
    <i name="Eion">      0.00000000 </i>
   </dipole>
   <energy>
    <i name="e_fr_energy">   -219.71025447 </i>
    <i name="e_wo_entrp">   -219.38224471 </i>
    <i name="e_0_energy">   -219.54624959 </i>
   </energy>
  </scstep>
  <scstep>
   <time name="diag">    1.86    1.86</time>
   <time name="diis">    5.42    5.43</time>
   <time name="orth">    0.46    0.46</time>
   <time name="total">    8.06    8.09</time>
   <dipole>
    <v name="dipole">      0.00000000       0.00000000       1.35600811 </v>
    <i name="Tr[quadrupol]"> -11282.24251135 </i>
    <i name="Echarged">      0.00000000 </i>
    <i name="Edipol_quadrupol">      0.00000000 </i>
    <i name="Eion">      0.00000000 </i>
   </dipole>
   <energy>
    <i name="e_fr_energy">   -219.71068173 </i>
    <i name="e_wo_entrp">   -219.38276222 </i>
    <i name="e_0_energy">   -219.54672197 </i>
   </energy>
  </scstep>
  <scstep>
   <time name="diag">    1.84    1.84</time>
   <time name="diis">    4.99    5.01</time>
   <time name="orth">    0.46    0.46</time>
   <time name="total">    7.61    7.63</time>
   <dipole>
    <v name="dipole">      0.00000000       0.00000000       1.36120160 </v>
    <i name="Tr[quadrupol]"> -11282.27461325 </i>
    <i name="Echarged">      0.00000000 </i>
    <i name="Edipol_quadrupol">      0.00000000 </i>
    <i name="Eion">      0.00000000 </i>
   </dipole>
   <energy>
    <i name="e_fr_energy">   -219.71084313 </i>
    <i name="e_wo_entrp">   -219.38277825 </i>
    <i name="e_0_energy">   -219.54681069 </i>
   </energy>
  </scstep>
  <scstep>
   <time name="diag">    1.80    1.82</time>
   <time name="diis">    4.35    4.47</time>
   <time name="orth">    0.46    0.46</time>
   <time name="total">    6.94    7.08</time>
   <dipole>
    <v name="dipole">      0.00000000       0.00000000       1.36524690 </v>
    <i name="Tr[quadrupol]"> -11282.29714980 </i>
    <i name="Echarged">      0.00000000 </i>
    <i name="Edipol_quadrupol">      0.00000000 </i>
    <i name="Eion">      0.00000000 </i>
   </dipole>
   <energy>
    <i name="e_fr_energy">   -219.71093261 </i>
    <i name="e_wo_entrp">   -219.38267825 </i>
    <i name="e_0_energy">   -219.54680543 </i>
   </energy>
  </scstep>
  <scstep>
   <time name="diag">    1.84    1.84</time>
   <time name="diis">    4.02    4.07</time>
   <time name="orth">    0.46    0.46</time>
   <time name="total">    6.64    6.71</time>
   <dipole>
    <v name="dipole">      0.00000000       0.00000000       1.36897612 </v>
    <i name="Tr[quadrupol]"> -11282.31542494 </i>
    <i name="Echarged">      0.00000000 </i>
    <i name="Edipol_quadrupol">      0.00000000 </i>
    <i name="Eion">      0.00000000 </i>
   </dipole>
   <energy>
    <i name="e_fr_energy">   -219.71099503 </i>
    <i name="e_wo_entrp">   -219.38276386 </i>
    <i name="e_0_energy">   -219.54687944 </i>
   </energy>
  </scstep>
  <scstep>
   <time name="diag">    1.85    1.86</time>
   <time name="diis">    3.53    3.53</time>
   <time name="orth">    0.46    0.46</time>
   <time name="total">    6.16    6.18</time>
   <dipole>
    <v name="dipole">      0.00000000       0.00000000       1.37180248 </v>
    <i name="Tr[quadrupol]"> -11282.32683574 </i>
    <i name="Echarged">      0.00000000 </i>
    <i name="Edipol_quadrupol">      0.00000000 </i>
    <i name="Eion">      0.00000000 </i>
   </dipole>
   <energy>
    <i name="e_fr_energy">   -219.71103863 </i>
    <i name="e_wo_entrp">   -219.38279252 </i>
    <i name="e_0_energy">   -219.54691557 </i>
   </energy>
  </scstep>
  <scstep>
   <time name="diag">    1.84    1.84</time>
   <time name="diis">    3.32    3.33</time>
   <time name="orth">    0.46    0.46</time>
   <time name="total">    5.94    5.97</time>
   <dipole>
    <v name="dipole">      0.00000000       0.00000000       1.37428980 </v>
    <i name="Tr[quadrupol]"> -11282.33581730 </i>
    <i name="Echarged">      0.00000000 </i>
    <i name="Edipol_quadrupol">      0.00000000 </i>
    <i name="Eion">      0.00000000 </i>
   </dipole>
   <energy>
    <i name="e_fr_energy">   -219.71107647 </i>
    <i name="e_wo_entrp">   -219.38283623 </i>
    <i name="e_0_energy">   -219.54695635 </i>
   </energy>
  </scstep>
  <scstep>
   <time name="diag">    1.80    1.81</time>
   <time name="diis">    3.31    3.32</time>
   <time name="orth">    0.46    0.47</time>
   <time name="total">    5.91    5.94</time>
   <dipole>
    <v name="dipole">      0.00000000       0.00000000       1.37632113 </v>
    <i name="Tr[quadrupol]"> -11282.34197310 </i>
    <i name="Echarged">      0.00000000 </i>
    <i name="Edipol_quadrupol">      0.00000000 </i>
    <i name="Eion">      0.00000000 </i>
   </dipole>
   <energy>
    <i name="e_fr_energy">   -219.71110875 </i>
    <i name="e_wo_entrp">   -219.38285358 </i>
    <i name="e_0_energy">   -219.54698116 </i>
   </energy>
  </scstep>
  <scstep>
   <time name="diag">    1.84    1.84</time>
   <time name="diis">    3.36    3.37</time>
   <time name="orth">    0.46    0.46</time>
   <time name="total">    5.98    6.00</time>
   <dipole>
    <v name="dipole">      0.00000000       0.00000000       1.37958286 </v>
    <i name="Tr[quadrupol]"> -11282.35082813 </i>
    <i name="Echarged">      0.00000000 </i>
    <i name="Edipol_quadrupol">      0.00000000 </i>
    <i name="Eion">      0.00000000 </i>
   </dipole>
   <energy>
    <i name="e_fr_energy">   -219.71115455 </i>
    <i name="e_wo_entrp">   -219.38289779 </i>
    <i name="e_0_energy">   -219.54702617 </i>
   </energy>
  </scstep>
  <scstep>
   <time name="diag">    1.85    1.86</time>
   <time name="diis">    3.30    3.31</time>
   <time name="orth">    0.46    0.47</time>
   <time name="total">    5.94    6.00</time>
   <dipole>
    <v name="dipole">      0.00000000       0.00000000       1.38138662 </v>
    <i name="Tr[quadrupol]"> -11282.35545950 </i>
    <i name="Echarged">      0.00000000 </i>
    <i name="Edipol_quadrupol">      0.00000000 </i>
    <i name="Eion">      0.00000000 </i>
   </dipole>
   <energy>
    <i name="e_fr_energy">   -219.71117416 </i>
    <i name="e_wo_entrp">   -219.38291872 </i>
    <i name="e_0_energy">   -219.54704644 </i>
   </energy>
  </scstep>
  <scstep>
   <time name="diag">    1.81    1.85</time>
   <time name="diis">    3.26    3.27</time>
   <time name="orth">    0.46    0.46</time>
   <time name="total">    5.86    5.92</time>
   <dipole>
    <v name="dipole">      0.00000000       0.00000000       1.38293061 </v>
    <i name="Tr[quadrupol]"> -11282.35897663 </i>
    <i name="Echarged">      0.00000000 </i>
    <i name="Edipol_quadrupol">      0.00000000 </i>
    <i name="Eion">      0.00000000 </i>
   </dipole>
   <energy>
    <i name="e_fr_energy">   -219.71118759 </i>
    <i name="e_wo_entrp">   -219.38291334 </i>
    <i name="e_0_energy">   -219.54705047 </i>
   </energy>
  </scstep>
  <scstep>
   <time name="diag">    1.81    1.81</time>
   <time name="diis">    2.87    2.88</time>
   <time name="orth">    0.46    0.46</time>
   <time name="total">    5.48    5.50</time>
   <dipole>
    <v name="dipole">      0.00000000       0.00000000       1.38387763 </v>
    <i name="Tr[quadrupol]"> -11282.36106449 </i>
    <i name="Echarged">      0.00000000 </i>
    <i name="Edipol_quadrupol">      0.00000000 </i>
    <i name="Eion">      0.00000000 </i>
   </dipole>
   <energy>
    <i name="e_fr_energy">   -219.71119388 </i>
    <i name="e_wo_entrp">   -219.38290016 </i>
    <i name="e_0_energy">   -219.54704702 </i>
   </energy>
  </scstep>
  <scstep>
   <time name="diag">    1.84    1.84</time>
   <time name="diis">    2.94    2.94</time>
   <time name="orth">    0.46    0.46</time>
   <time name="total">    5.57    5.59</time>
   <dipole>
    <v name="dipole">      0.00000000       0.00000000       1.38451341 </v>
    <i name="Tr[quadrupol]"> -11282.36225114 </i>
    <i name="Echarged">      0.00000000 </i>
    <i name="Edipol_quadrupol">      0.00000000 </i>
    <i name="Eion">      0.00000000 </i>
   </dipole>
   <energy>
    <i name="e_fr_energy">   -219.71119729 </i>
    <i name="e_wo_entrp">   -219.38289724 </i>
    <i name="e_0_energy">   -219.54704727 </i>
   </energy>
  </scstep>
  <scstep>
   <time name="diag">    1.86    1.87</time>
   <time name="diis">    2.47    2.48</time>
   <time name="orth">    0.46    0.46</time>
   <time name="total">    5.12    5.15</time>
   <dipole>
    <v name="dipole">      0.00000000       0.00000000       1.38471469 </v>
    <i name="Tr[quadrupol]"> -11282.36244682 </i>
    <i name="Echarged">      0.00000000 </i>
    <i name="Edipol_quadrupol">      0.00000000 </i>
    <i name="Eion">      0.00000000 </i>
   </dipole>
   <energy>
    <i name="e_fr_energy">   -219.71119882 </i>
    <i name="e_wo_entrp">   -219.38290546 </i>
    <i name="e_0_energy">   -219.54705214 </i>
   </energy>
  </scstep>
  <scstep>
   <time name="diag">    1.84    1.85</time>
   <time name="diis">    2.38    2.39</time>
   <time name="orth">    0.46    0.46</time>
   <time name="total">    4.75    4.77</time>
   <dipole>
    <v name="dipole">      0.00000000       0.00000000       1.38478621 </v>
    <i name="Tr[quadrupol]"> -11282.36245246 </i>
    <i name="Echarged">      0.00000000 </i>
    <i name="Edipol_quadrupol">      0.00000000 </i>
    <i name="Eion">      0.00000000 </i>
   </dipole>
   <energy>
    <i name="alphaZ">    888.04665367 </i>
    <i name="ewald"> 255871.25705852 </i>
    <i name="hartreedc">-300869.76207691 </i>
    <i name="XCdc">   -123.80716165 </i>
    <i name="pawpsdc">  52947.88844256 </i>
    <i name="pawaedc"> -51045.63510677 </i>
    <i name="eentropy">     -0.32829297 </i>
    <i name="bandstr">  -3005.26215668 </i>
    <i name="atom">  45117.89144060 </i>
    <i name="e_fr_energy">   -219.71119963 </i>
    <i name="e_wo_entrp">   -219.38290665 </i>
    <i name="e_0_energy">   -219.54705314 </i>
   </energy>
  </scstep>
  <structure>
   <crystal>
    <varray name="basis" >
     <v>      11.00258152       0.00000000       0.00000000 </v>
     <v>       5.50129076       9.52851510       0.00000000 </v>
     <v>       0.00000000       0.00000000      26.19178509 </v>
    </varray>
    <i name="volume">   2745.90128299 </i>
    <varray name="rec_basis" >
     <v>       0.09088776      -0.05247407       0.00000000 </v>
     <v>       0.00000000       0.10494815       0.00000000 </v>
     <v>       0.00000000       0.00000000       0.03817991 </v>
    </varray>
   </crystal>
   <varray name="positions" >
    <v>       0.08333333       0.08333333       0.38179910 </v>
    <v>       0.16666667       0.66666667       0.46754708 </v>
    <v>       0.66666667       0.91666667       0.46754708 </v>
    <v>       0.66666667       0.41666667       0.46754708 </v>
    <v>       0.66666667       0.16666667       0.46754708 </v>
    <v>       0.83333333       0.08333333       0.38179910 </v>
    <v>       0.58333333       0.83333333       0.38179910 </v>
    <v>       0.00000000       0.25000000       0.55329505 </v>
    <v>       0.66666667       0.66666667       0.46754708 </v>
    <v>       0.50000000       0.50000000       0.55329505 </v>
    <v>       0.91666667       0.66666667       0.46754708 </v>
    <v>       0.08333333       0.83333333       0.38179910 </v>
    <v>       0.00000000       0.50000000       0.55329505 </v>
    <v>       0.41666667       0.66666667       0.46754708 </v>
    <v>       0.41666667       0.41666667       0.46754708 </v>
    <v>       0.33333333       0.08333333       0.38179910 </v>
    <v>       0.16666667       0.16666667       0.46754708 </v>
    <v>       0.25000000       0.00000000       0.55329505 </v>
    <v>       0.50000000       0.00000000       0.55329505 </v>
    <v>       0.33333333       0.33333333       0.38179910 </v>
    <v>       0.16666667       0.41666667       0.46754708 </v>
    <v>       0.58333333       0.08333333       0.38179910 </v>
    <v>       0.25000000       0.75000000       0.55329505 </v>
    <v>       0.25000000       0.50000000       0.55329505 </v>
    <v>       0.83333333       0.58333333       0.61820090 </v>
    <v>       0.08333333       0.33333333       0.61820090 </v>
    <v>       0.08333333       0.08333333       0.61820090 </v>
    <v>       0.33333333       0.33333333       0.61820090 </v>
    <v>       0.83333333       0.33333333       0.61820090 </v>
    <v>       0.33333333       0.58333333       0.61820090 </v>
    <v>       0.58333333       0.83333333       0.61820090 </v>
    <v>       0.58333333       0.08333333       0.61820090 </v>
    <v>       0.33333333       0.83333333       0.38179910 </v>
    <v>       0.16666667       0.91666667       0.46754708 </v>
    <v>       0.75000000       0.75000000       0.55329505 </v>
    <v>       0.25000000       0.25000000       0.55329505 </v>
    <v>       0.41666667       0.16666667       0.46754708 </v>
    <v>       0.83333333       0.83333333       0.38179910 </v>
    <v>       0.58333333       0.33333333       0.38179910 </v>
    <v>       0.00000000       0.75000000       0.55329505 </v>
    <v>       0.50000000       0.25000000       0.55329505 </v>
    <v>       0.75000000       0.50000000       0.55329505 </v>
    <v>       0.58333333       0.58333333       0.38179910 </v>
    <v>       0.75000000       0.25000000       0.55329505 </v>
    <v>       0.08333333       0.58333333       0.38179910 </v>
    <v>       0.91666667       0.41666667       0.46754708 </v>
    <v>       0.41666667       0.91666667       0.46754708 </v>
    <v>       0.50000000       0.75000000       0.55329505 </v>
    <v>       0.08333333       0.33333333       0.38179910 </v>
    <v>       0.00000000       0.00000000       0.55329505 </v>
    <v>       0.75000000       0.00000000       0.55329505 </v>
    <v>       0.83333333       0.58333333       0.38179910 </v>
    <v>       0.83333333       0.33333333       0.38179910 </v>
    <v>       0.91666667       0.16666667       0.46754708 </v>
    <v>       0.33333333       0.58333333       0.38179910 </v>
    <v>       0.91666667       0.91666667       0.46754708 </v>
   </varray>
  </structure>
  <varray name="forces" >
   <v>      -0.02213494       0.10122989      -1.25797178 </v>
   <v>      -0.20028927       0.38733303      -0.18583143 </v>
   <v>       0.20478512      -0.07997426       0.30220105 </v>
   <v>       0.56897163      -0.19356150      -0.02889051 </v>
   <v>       0.21333345       0.03329087       0.76414260 </v>
   <v>       0.04791583       0.17220926      -1.30721733 </v>
   <v>      -0.17766250      -0.35567207      -1.53799758 </v>
   <v>      -0.42992446      -0.12305987       2.12634095 </v>
   <v>      -0.05027090      -0.27327788       0.12415415 </v>
   <v>       0.58446028      -0.23401173       2.29754455 </v>
   <v>      -0.06528411       0.08708585       0.01294271 </v>
   <v>      -0.04230563      -0.28705485      -1.30869920 </v>
   <v>      -0.01084935       0.47757645       2.48460178 </v>
   <v>       0.28056602       0.62521717      -0.46687496 </v>
   <v>       0.04548782      -0.43611206      -0.27788007 </v>
   <v>      -0.14530489      -0.08924843      -1.35104709 </v>
   <v>      -0.05749132       0.12998180       0.17295554 </v>
   <v>       0.02035375      -0.29857419       1.80990350 </v>
   <v>      -0.21019886       0.12160084       2.16832953 </v>
   <v>      -0.04201752       0.26365262      -1.55320914 </v>
   <v>      -0.33826277      -0.16219831      -0.05703258 </v>
   <v>       0.12190215       0.07648287      -1.59041549 </v>
   <v>      -0.13626450       0.51833261       2.07106763 </v>
   <v>      -0.42737821       0.06912144       2.57981786 </v>
   <v>      -0.16955918       0.40201287      -2.61210166 </v>
   <v>       0.71244038      -0.01620391      -1.99162118 </v>
   <v>      -0.37662949      -0.89621695      -2.31724513 </v>
   <v>      -0.17947640      -0.53556226      -2.63315463 </v>
   <v>      -1.04062514       0.16023874      -2.76218279 </v>
   <v>       0.23524426       0.34961552      -1.97136370 </v>
   <v>      -0.10919926      -0.52387463      -2.78896281 </v>
   <v>       0.73349523       0.12499121      -2.80442503 </v>
   <v>       0.02705300      -0.14650111      -0.63604909 </v>
   <v>      -0.09830421      -0.04505481       0.11633819 </v>
   <v>      -0.15493000      -0.03145867       2.95163948 </v>
   <v>       0.20354271       0.12305025       2.83646993 </v>
   <v>      -0.17061581      -0.10052560       0.61903962 </v>
   <v>       0.08807703      -0.24367216      -0.83161880 </v>
   <v>       0.21272296       0.25539632      -0.97235041 </v>
   <v>      -0.09024955       0.55975743       0.74095524 </v>
   <v>      -0.01105313      -0.43772537       2.88896592 </v>
   <v>       0.01012710      -0.08376460       2.96500723 </v>
   <v>      -0.07438784      -0.14783084      -0.89124372 </v>
   <v>       0.35874351      -0.09142431       1.84791773 </v>
   <v>      -0.17208499       0.02480080      -0.94007152 </v>
   <v>      -0.24871344      -0.16407506      -0.36223686 </v>
   <v>      -0.26037201       0.02899862       0.43727670 </v>
   <v>       0.52057732       0.18007588       1.74495373 </v>
   <v>      -0.23048748       0.33799982      -0.73612102 </v>
   <v>      -0.10478835       0.13237478       1.46918805 </v>
   <v>       0.10194347       0.07244953       1.71729077 </v>
   <v>       0.07547360      -0.27063695      -0.78841131 </v>
   <v>       0.03040339       0.23430918      -0.59428355 </v>
   <v>       0.09011104      -0.01666333       0.21823984 </v>
   <v>       0.16056351       0.01766971      -0.92833113 </v>
   <v>       0.19882094       0.21708034       1.01755719 </v>
  </varray>
  <energy>
   <i name="e_fr_energy">   -219.71119963 </i>
   <i name="e_wo_entrp">   -219.54705314 </i>
   <i name="e_0_energy">     -0.32829297 </i>
  </energy>
  <time name="totalsc">  386.60  389.21</time>
 </calculation>
 <calculation>
  <scstep>
   <time name="dav">   10.84   10.95</time>
   <time name="total">   11.17   11.28</time>
   <dipole>
    <v name="dipole">      0.00000000       0.00000000       1.38483034 </v>
    <i name="Tr[quadrupol]"> -11252.76660276 </i>
    <i name="Echarged">      0.00000000 </i>
    <i name="Edipol_quadrupol">      0.00000000 </i>
    <i name="Eion">      0.00000000 </i>
   </dipole>
   <energy>
    <i name="alphaZ">    887.22254545 </i>
    <i name="ewald"> 254894.24033539 </i>
    <i name="hartreedc">-299884.48607082 </i>
    <i name="XCdc">   -123.67704845 </i>
    <i name="pawpsdc">  52947.88544944 </i>
    <i name="pawaedc"> -51045.63212624 </i>
    <i name="eentropy">     -0.25294607 </i>
    <i name="bandstr">  -3015.18501063 </i>
    <i name="atom">  45117.89144060 </i>
    <i name="e_fr_energy">   -221.99343133 </i>
    <i name="e_wo_entrp">   -221.74048526 </i>
    <i name="e_0_energy">   -221.86695829 </i>
   </energy>
  </scstep>
  <scstep>
   <time name="diag">    1.79    1.80</time>
   <time name="diis">    5.50    5.53</time>
   <time name="orth">    0.45    0.46</time>
   <time name="total">    8.07    8.11</time>
   <dipole>
    <v name="dipole">      0.00000000       0.00000000       0.88577208 </v>
    <i name="Tr[quadrupol]"> -11252.29923626 </i>
    <i name="Echarged">      0.00000000 </i>
    <i name="Edipol_quadrupol">      0.00000000 </i>
    <i name="Eion">      0.00000000 </i>
   </dipole>
   <energy>
    <i name="e_fr_energy">   -228.83920471 </i>
    <i name="e_wo_entrp">   -228.48221636 </i>
    <i name="e_0_energy">   -228.66071053 </i>
   </energy>
  </scstep>
  <scstep>
   <time name="diag">    1.87    1.87</time>
   <time name="diis">    5.56    5.57</time>
   <time name="orth">    0.46    0.46</time>
   <time name="total">    8.21    8.24</time>
   <dipole>
    <v name="dipole">      0.00000000       0.00000000       1.36117528 </v>
    <i name="Tr[quadrupol]"> -11252.70810393 </i>
    <i name="Echarged">      0.00000000 </i>
    <i name="Edipol_quadrupol">      0.00000000 </i>
    <i name="Eion">      0.00000000 </i>
   </dipole>
   <energy>
    <i name="e_fr_energy">   -224.48499752 </i>
    <i name="e_wo_entrp">   -224.23201085 </i>
    <i name="e_0_energy">   -224.35850419 </i>
   </energy>
  </scstep>
  <scstep>
   <time name="diag">    1.85    1.86</time>
   <time name="diis">    5.72    5.74</time>
   <time name="orth">    0.46    0.46</time>
   <time name="total">    8.35    8.38</time>
   <dipole>
    <v name="dipole">      0.00000000       0.00000000       1.07013358 </v>
    <i name="Tr[quadrupol]"> -11252.83422211 </i>
    <i name="Echarged">      0.00000000 </i>
    <i name="Edipol_quadrupol">      0.00000000 </i>
    <i name="Eion">      0.00000000 </i>
   </dipole>
   <energy>
    <i name="e_fr_energy">   -225.18150547 </i>
    <i name="e_wo_entrp">   -224.87061757 </i>
    <i name="e_0_energy">   -225.02606152 </i>
   </energy>
  </scstep>
  <scstep>
   <time name="diag">    1.85    1.85</time>
   <time name="diis">    5.57    5.58</time>
   <time name="orth">    0.46    0.46</time>
   <time name="total">    8.19    8.21</time>
   <dipole>
    <v name="dipole">      0.00000000       0.00000000       1.06788785 </v>
    <i name="Tr[quadrupol]"> -11253.20099324 </i>
    <i name="Echarged">      0.00000000 </i>
    <i name="Edipol_quadrupol">      0.00000000 </i>
    <i name="Eion">      0.00000000 </i>
   </dipole>
   <energy>
    <i name="e_fr_energy">   -224.70790171 </i>
    <i name="e_wo_entrp">   -224.36096005 </i>
    <i name="e_0_energy">   -224.53443088 </i>
   </energy>
  </scstep>
  <scstep>
   <time name="diag">    1.79    1.80</time>
   <time name="diis">    5.43    5.56</time>
   <time name="orth">    0.46    0.46</time>
   <time name="total">    8.00    8.13</time>
   <dipole>
    <v name="dipole">      0.00000000       0.00000000       1.07149602 </v>
    <i name="Tr[quadrupol]"> -11253.15659678 </i>
    <i name="Echarged">      0.00000000 </i>
    <i name="Edipol_quadrupol">      0.00000000 </i>
    <i name="Eion">      0.00000000 </i>
   </dipole>
   <energy>
    <i name="e_fr_energy">   -224.44469920 </i>
    <i name="e_wo_entrp">   -224.11306555 </i>
    <i name="e_0_energy">   -224.27888238 </i>
   </energy>
  </scstep>
  <scstep>
   <time name="diag">    1.87    1.88</time>
   <time name="diis">    5.47    5.49</time>
   <time name="orth">    0.46    0.46</time>
   <time name="total">    8.12    8.15</time>
   <dipole>
    <v name="dipole">      0.00000000       0.00000000       1.10851659 </v>
    <i name="Tr[quadrupol]"> -11253.24517755 </i>
    <i name="Echarged">      0.00000000 </i>
    <i name="Edipol_quadrupol">      0.00000000 </i>
    <i name="Eion">      0.00000000 </i>
   </dipole>
   <energy>
    <i name="e_fr_energy">   -224.16533031 </i>
    <i name="e_wo_entrp">   -223.84965820 </i>
    <i name="e_0_energy">   -224.00749426 </i>
   </energy>
  </scstep>
  <scstep>
   <time name="diag">    1.84    1.85</time>
   <time name="diis">    5.56    5.57</time>
   <time name="orth">    0.46    0.46</time>
   <time name="total">    8.18    8.21</time>
   <dipole>
    <v name="dipole">      0.00000000       0.00000000       1.16513489 </v>
    <i name="Tr[quadrupol]"> -11253.48889984 </i>
    <i name="Echarged">      0.00000000 </i>
    <i name="Edipol_quadrupol">      0.00000000 </i>
    <i name="Eion">      0.00000000 </i>
   </dipole>
   <energy>
    <i name="e_fr_energy">   -223.97912633 </i>
    <i name="e_wo_entrp">   -223.68390399 </i>
    <i name="e_0_energy">   -223.83151516 </i>
   </energy>
  </scstep>
  <scstep>
   <time name="diag">    1.85    1.85</time>
   <time name="diis">    5.56    5.57</time>
   <time name="orth">    0.46    0.46</time>
   <time name="total">    8.17    8.21</time>
   <dipole>
    <v name="dipole">      0.00000000       0.00000000       1.17160284 </v>
    <i name="Tr[quadrupol]"> -11253.50426079 </i>
    <i name="Echarged">      0.00000000 </i>
    <i name="Edipol_quadrupol">      0.00000000 </i>
    <i name="Eion">      0.00000000 </i>
   </dipole>
   <energy>
    <i name="e_fr_energy">   -223.92900448 </i>
    <i name="e_wo_entrp">   -223.63087423 </i>
    <i name="e_0_energy">   -223.77993935 </i>
   </energy>
  </scstep>
  <scstep>
   <time name="diag">    1.79    1.79</time>
   <time name="diis">    5.64    5.65</time>
   <time name="orth">    0.46    0.46</time>
   <time name="total">    8.21    8.23</time>
   <dipole>
    <v name="dipole">      0.00000000       0.00000000       1.16743302 </v>
    <i name="Tr[quadrupol]"> -11253.50922824 </i>
    <i name="Echarged">      0.00000000 </i>
    <i name="Edipol_quadrupol">      0.00000000 </i>
    <i name="Eion">      0.00000000 </i>
   </dipole>
   <energy>
    <i name="e_fr_energy">   -223.91938377 </i>
    <i name="e_wo_entrp">   -223.62725633 </i>
    <i name="e_0_energy">   -223.77332005 </i>
   </energy>
  </scstep>
  <scstep>
   <time name="diag">    1.87    1.88</time>
   <time name="diis">    5.47    5.59</time>
   <time name="orth">    0.46    0.46</time>
   <time name="total">    8.13    8.26</time>
   <dipole>
    <v name="dipole">      0.00000000       0.00000000       1.17297719 </v>
    <i name="Tr[quadrupol]"> -11253.56318456 </i>
    <i name="Echarged">      0.00000000 </i>
    <i name="Edipol_quadrupol">      0.00000000 </i>
    <i name="Eion">      0.00000000 </i>
   </dipole>
   <energy>
    <i name="e_fr_energy">   -223.91021883 </i>
    <i name="e_wo_entrp">   -223.61829580 </i>
    <i name="e_0_energy">   -223.76425731 </i>
   </energy>
  </scstep>
  <scstep>
   <time name="diag">    1.84    1.85</time>
   <time name="diis">    5.59    5.62</time>
   <time name="orth">    0.46    0.46</time>
   <time name="total">    8.21    8.25</time>
   <dipole>
    <v name="dipole">      0.00000000       0.00000000       1.16837909 </v>
    <i name="Tr[quadrupol]"> -11253.58685245 </i>
    <i name="Echarged">      0.00000000 </i>
    <i name="Edipol_quadrupol">      0.00000000 </i>
    <i name="Eion">      0.00000000 </i>
   </dipole>
   <energy>
    <i name="e_fr_energy">   -223.90932839 </i>
    <i name="e_wo_entrp">   -223.61503033 </i>
    <i name="e_0_energy">   -223.76217936 </i>
   </energy>
  </scstep>
  <scstep>
   <time name="diag">    1.84    1.85</time>
   <time name="diis">    5.56    5.59</time>
   <time name="orth">    0.46    0.46</time>
   <time name="total">    8.19    8.22</time>
   <dipole>
    <v name="dipole">      0.00000000       0.00000000       1.16957300 </v>
    <i name="Tr[quadrupol]"> -11253.58355193 </i>
    <i name="Echarged">      0.00000000 </i>
    <i name="Edipol_quadrupol">      0.00000000 </i>
    <i name="Eion">      0.00000000 </i>
   </dipole>
   <energy>
    <i name="e_fr_energy">   -223.90821698 </i>
    <i name="e_wo_entrp">   -223.61394433 </i>
    <i name="e_0_energy">   -223.76108065 </i>
   </energy>
  </scstep>
  <scstep>
   <time name="diag">    1.80    1.80</time>
   <time name="diis">    5.55    5.57</time>
   <time name="orth">    0.47    0.47</time>
   <time name="total">    8.13    8.17</time>
   <dipole>
    <v name="dipole">      0.00000000       0.00000000       1.16995191 </v>
    <i name="Tr[quadrupol]"> -11253.60507313 </i>
    <i name="Echarged">      0.00000000 </i>
    <i name="Edipol_quadrupol">      0.00000000 </i>
    <i name="Eion">      0.00000000 </i>
   </dipole>
   <energy>
    <i name="e_fr_energy">   -223.90731275 </i>
    <i name="e_wo_entrp">   -223.61320507 </i>
    <i name="e_0_energy">   -223.76025891 </i>
   </energy>
  </scstep>
  <scstep>
   <time name="diag">    1.87    1.88</time>
   <time name="diis">    5.53    5.55</time>
   <time name="orth">    0.46    0.47</time>
   <time name="total">    8.19    8.22</time>
   <dipole>
    <v name="dipole">      0.00000000       0.00000000       1.16930614 </v>
    <i name="Tr[quadrupol]"> -11253.61448557 </i>
    <i name="Echarged">      0.00000000 </i>
    <i name="Edipol_quadrupol">      0.00000000 </i>
    <i name="Eion">      0.00000000 </i>
   </dipole>
   <energy>
    <i name="e_fr_energy">   -223.90723190 </i>
    <i name="e_wo_entrp">   -223.61314518 </i>
    <i name="e_0_energy">   -223.76018854 </i>
   </energy>
  </scstep>
  <scstep>
   <time name="diag">    1.85    1.86</time>
   <time name="diis">    5.46    5.56</time>
   <time name="orth">    0.46    0.46</time>
   <time name="total">    8.09    8.20</time>
   <dipole>
    <v name="dipole">      0.00000000       0.00000000       1.16856051 </v>
    <i name="Tr[quadrupol]"> -11253.61867109 </i>
    <i name="Echarged">      0.00000000 </i>
    <i name="Edipol_quadrupol">      0.00000000 </i>
    <i name="Eion">      0.00000000 </i>
   </dipole>
   <energy>
    <i name="e_fr_energy">   -223.90711114 </i>
    <i name="e_wo_entrp">   -223.61290366 </i>
    <i name="e_0_energy">   -223.76000740 </i>
   </energy>
  </scstep>
  <scstep>
   <time name="diag">    1.85    1.85</time>
   <time name="diis">    5.59    5.62</time>
   <time name="orth">    0.46    0.46</time>
   <time name="total">    8.23    8.26</time>
   <dipole>
    <v name="dipole">      0.00000000       0.00000000       1.16872388 </v>
    <i name="Tr[quadrupol]"> -11253.63382747 </i>
    <i name="Echarged">      0.00000000 </i>
    <i name="Edipol_quadrupol">      0.00000000 </i>
    <i name="Eion">      0.00000000 </i>
   </dipole>
   <energy>
    <i name="e_fr_energy">   -223.90713638 </i>
    <i name="e_wo_entrp">   -223.61351393 </i>
    <i name="e_0_energy">   -223.76032516 </i>
   </energy>
  </scstep>
  <scstep>
   <time name="diag">    1.79    1.80</time>
   <time name="diis">    5.61    5.62</time>
   <time name="orth">    0.46    0.46</time>
   <time name="total">    8.19    8.21</time>
   <dipole>
    <v name="dipole">      0.00000000       0.00000000       1.16802073 </v>
    <i name="Tr[quadrupol]"> -11253.64289683 </i>
    <i name="Echarged">      0.00000000 </i>
    <i name="Edipol_quadrupol">      0.00000000 </i>
    <i name="Eion">      0.00000000 </i>
   </dipole>
   <energy>
    <i name="e_fr_energy">   -223.90717801 </i>
    <i name="e_wo_entrp">   -223.61388655 </i>
    <i name="e_0_energy">   -223.76053228 </i>
   </energy>
  </scstep>
  <scstep>
   <time name="diag">    1.87    1.87</time>
   <time name="diis">    5.76    5.77</time>
   <time name="orth">    0.46    0.46</time>
   <time name="total">    8.41    8.43</time>
   <dipole>
    <v name="dipole">      0.00000000       0.00000000       1.16704772 </v>
    <i name="Tr[quadrupol]"> -11253.65353178 </i>
    <i name="Echarged">      0.00000000 </i>
    <i name="Edipol_quadrupol">      0.00000000 </i>
    <i name="Eion">      0.00000000 </i>
   </dipole>
   <energy>
    <i name="e_fr_energy">   -223.90725826 </i>
    <i name="e_wo_entrp">   -223.61412034 </i>
    <i name="e_0_energy">   -223.76068930 </i>
   </energy>
  </scstep>
  <scstep>
   <time name="diag">    1.85    1.85</time>
   <time name="diis">    5.52    5.53</time>
   <time name="orth">    0.46    0.47</time>
   <time name="total">    8.14    8.18</time>
   <dipole>
    <v name="dipole">      0.00000000       0.00000000       1.16672327 </v>
    <i name="Tr[quadrupol]"> -11253.66416904 </i>
    <i name="Echarged">      0.00000000 </i>
    <i name="Edipol_quadrupol">      0.00000000 </i>
    <i name="Eion">      0.00000000 </i>
   </dipole>
   <energy>
    <i name="e_fr_energy">   -223.90732242 </i>
    <i name="e_wo_entrp">   -223.61431522 </i>
    <i name="e_0_energy">   -223.76081882 </i>
   </energy>
  </scstep>
  <scstep>
   <time name="diag">    1.84    1.85</time>
   <time name="diis">    4.37    4.49</time>
   <time name="orth">    0.46    0.46</time>
   <time name="total">    7.00    7.12</time>
   <dipole>
    <v name="dipole">      0.00000000       0.00000000       1.16632381 </v>
    <i name="Tr[quadrupol]"> -11253.67057856 </i>
    <i name="Echarged">      0.00000000 </i>
    <i name="Edipol_quadrupol">      0.00000000 </i>
    <i name="Eion">      0.00000000 </i>
   </dipole>
   <energy>
    <i name="e_fr_energy">   -223.90738641 </i>
    <i name="e_wo_entrp">   -223.61448186 </i>
    <i name="e_0_energy">   -223.76093414 </i>
   </energy>
  </scstep>
  <scstep>
   <time name="diag">    1.79    1.80</time>
   <time name="diis">    3.77    3.79</time>
   <time name="orth">    0.47    0.47</time>
   <time name="total">    6.35    6.39</time>
   <dipole>
    <v name="dipole">      0.00000000       0.00000000       1.16573012 </v>
    <i name="Tr[quadrupol]"> -11253.67888886 </i>
    <i name="Echarged">      0.00000000 </i>
    <i name="Edipol_quadrupol">      0.00000000 </i>
    <i name="Eion">      0.00000000 </i>
   </dipole>
[...]
       <r>   -19.2859    10.5256    13.6926 </r>
       <r>   -19.1924     7.7277    14.4150 </r>
       <r>   -19.0989    10.6994    15.4151 </r>
       <r>   -19.0054     5.5973    15.9383 </r>
       <r>   -18.9120     0.6445    15.9986 </r>
       <r>   -18.8185     0.0151    16.0000 </r>
       <r>   -18.7250     0.0001    16.0000 </r>
       <r>   -18.6315     0.0000    16.0000 </r>
       <r>   -18.5381     0.0000    16.0000 </r>
       <r>   -18.4446     0.0000    16.0000 </r>
       <r>   -18.3511     0.0000    16.0000 </r>
       <r>   -18.2576     0.0000    16.0000 </r>
       <r>   -18.1641     0.0000    16.0000 </r>
       <r>   -18.0707     0.0000    16.0000 </r>
       <r>   -17.9772     0.0000    16.0000 </r>
       <r>   -17.8837     0.0000    16.0000 </r>
       <r>   -17.7902     0.0000    16.0000 </r>
       <r>   -17.6968     0.0000    16.0000 </r>
       <r>   -17.6033     0.0000    16.0000 </r>
       <r>   -17.5098     0.0000    16.0000 </r>
       <r>   -17.4163     0.0000    16.0000 </r>
       <r>   -17.3229     0.0000    16.0000 </r>
       <r>   -17.2294     0.0000    16.0000 </r>
       <r>   -17.1359     0.0000    16.0000 </r>
       <r>   -17.0424     0.0000    16.0000 </r>
       <r>   -16.9489     0.0000    16.0000 </r>
       <r>   -16.8555     0.0000    16.0000 </r>
       <r>   -16.7620     0.0000    16.0000 </r>
       <r>   -16.6685     0.0000    16.0000 </r>
       <r>   -16.5750     0.0000    16.0000 </r>
       <r>   -16.4816     0.0000    16.0000 </r>
       <r>   -16.3881     0.0000    16.0000 </r>
       <r>   -16.2946     0.0000    16.0000 </r>
       <r>   -16.2011     0.0000    16.0000 </r>
       <r>   -16.1076     0.0000    16.0000 </r>
       <r>   -16.0142     0.0000    16.0000 </r>
       <r>   -15.9207     0.0000    16.0000 </r>
       <r>   -15.8272     0.0000    16.0000 </r>
       <r>   -15.7337     0.0000    16.0000 </r>
       <r>   -15.6403     0.0000    16.0000 </r>
       <r>   -15.5468     0.0000    16.0000 </r>
       <r>   -15.4533     0.0000    16.0000 </r>
       <r>   -15.3598     0.0000    16.0000 </r>
       <r>   -15.2664     0.0000    16.0000 </r>
       <r>   -15.1729     0.0000    16.0000 </r>
       <r>   -15.0794     0.0000    16.0000 </r>
       <r>   -14.9859     0.0000    16.0000 </r>
       <r>   -14.8924     0.0000    16.0000 </r>
       <r>   -14.7990     0.0000    16.0000 </r>
       <r>   -14.7055     0.0000    16.0000 </r>
       <r>   -14.6120     0.0000    16.0000 </r>
       <r>   -14.5185     0.0000    16.0000 </r>
       <r>   -14.4251     0.0000    16.0000 </r>
       <r>   -14.3316     0.0000    16.0000 </r>
       <r>   -14.2381     0.0000    16.0000 </r>
       <r>   -14.1446     0.0000    16.0000 </r>
       <r>   -14.0511     0.0000    16.0000 </r>
       <r>   -13.9577     0.0000    16.0000 </r>
       <r>   -13.8642     0.0000    16.0000 </r>
       <r>   -13.7707     0.0000    16.0000 </r>
       <r>   -13.6772     0.0000    16.0000 </r>
       <r>   -13.5838     0.0000    16.0000 </r>
       <r>   -13.4903     0.0000    16.0000 </r>
       <r>   -13.3968     0.0000    16.0000 </r>
       <r>   -13.3033     0.0000    16.0000 </r>
       <r>   -13.2099     0.0000    16.0000 </r>
       <r>   -13.1164     0.0000    16.0000 </r>
       <r>   -13.0229     0.0000    16.0000 </r>
       <r>   -12.9294     0.0000    16.0000 </r>
       <r>   -12.8359     0.0000    16.0000 </r>
       <r>   -12.7425     0.0000    16.0000 </r>
       <r>   -12.6490     0.0000    16.0000 </r>
       <r>   -12.5555     0.0000    16.0000 </r>
       <r>   -12.4620     0.0000    16.0000 </r>
       <r>   -12.3686     0.0000    16.0000 </r>
       <r>   -12.2751     0.0000    16.0000 </r>
       <r>   -12.1816     0.0000    16.0000 </r>
       <r>   -12.0881     0.0000    16.0000 </r>
       <r>   -11.9946     0.0000    16.0000 </r>
       <r>   -11.9012     0.0000    16.0000 </r>
       <r>   -11.8077     0.0000    16.0000 </r>
       <r>   -11.7142     0.0000    16.0000 </r>
       <r>   -11.6207     0.0000    16.0000 </r>
       <r>   -11.5273     0.0000    16.0000 </r>
       <r>   -11.4338     0.0000    16.0000 </r>
       <r>   -11.3403     0.0000    16.0000 </r>
       <r>   -11.2468     0.0000    16.0000 </r>
       <r>   -11.1534     0.0000    16.0000 </r>
       <r>   -11.0599     0.0000    16.0000 </r>
       <r>   -10.9664     0.0000    16.0000 </r>
       <r>   -10.8729     0.0000    16.0000 </r>
       <r>   -10.7794     0.0000    16.0000 </r>
       <r>   -10.6860     0.0000    16.0000 </r>
       <r>   -10.5925     0.0000    16.0000 </r>
       <r>   -10.4990     0.0000    16.0000 </r>
       <r>   -10.4055     0.0000    16.0000 </r>
       <r>   -10.3121     0.0000    16.0000 </r>
       <r>   -10.2186     0.0000    16.0000 </r>
       <r>   -10.1251     0.0000    16.0000 </r>
       <r>   -10.0316     0.0000    16.0000 </r>
       <r>    -9.9381     0.0000    16.0000 </r>
       <r>    -9.8447     0.0000    16.0000 </r>
       <r>    -9.7512     0.0000    16.0000 </r>
       <r>    -9.6577     0.0000    16.0000 </r>
       <r>    -9.5642     0.0029    16.0003 </r>
       <r>    -9.4708     0.1726    16.0164 </r>
       <r>    -9.3773     2.0468    16.2077 </r>
       <r>    -9.2838     5.2934    16.7026 </r>
       <r>    -9.1903     4.3932    17.1132 </r>
       <r>    -9.0969     5.1790    17.5973 </r>
       <r>    -9.0034     3.6566    17.9391 </r>
       <r>    -8.9099     0.7810    18.0121 </r>
       <r>    -8.8164     1.3100    18.1346 </r>
       <r>    -8.7229     3.9093    18.5000 </r>
       <r>    -8.6295     7.8189    19.2309 </r>
       <r>    -8.5360    10.7988    20.2404 </r>
       <r>    -8.4425     8.3750    21.0232 </r>
       <r>    -8.3490     9.6718    21.9273 </r>
       <r>    -8.2556    15.2939    23.3570 </r>
       <r>    -8.1621    16.5865    24.9074 </r>
       <r>    -8.0686    23.2740    27.0830 </r>
       <r>    -7.9751    24.3653    29.3606 </r>
       <r>    -7.8816    24.9073    31.6889 </r>
       <r>    -7.7882    30.8914    34.5765 </r>
       <r>    -7.6947    35.7324    37.9167 </r>
       <r>    -7.6012    39.5227    41.6112 </r>
       <r>    -7.5077    45.2488    45.8409 </r>
       <r>    -7.4143    49.1748    50.4376 </r>
       <r>    -7.3208    51.9333    55.2922 </r>
       <r>    -7.2273    56.9709    60.6177 </r>
       <r>    -7.1338    65.9631    66.7837 </r>
       <r>    -7.0404    70.4235    73.3667 </r>
       <r>    -6.9469    70.6621    79.9720 </r>
       <r>    -6.8534    76.7711    87.1484 </r>
       <r>    -6.7599    84.8464    95.0796 </r>
       <r>    -6.6664    85.5968   103.0810 </r>
       <r>    -6.5730    82.8834   110.8287 </r>
       <r>    -6.4795    81.9564   118.4897 </r>
       <r>    -6.3860    83.4458   126.2900 </r>
       <r>    -6.2925    84.3310   134.1730 </r>
       <r>    -6.1991    79.8055   141.6330 </r>
       <r>    -6.1056    75.0384   148.6474 </r>
       <r>    -6.0121    72.3150   155.4072 </r>
       <r>    -5.9186    71.4570   162.0868 </r>
       <r>    -5.8251    73.2866   168.9375 </r>
       <r>    -5.7317    77.5531   176.1869 </r>
       <r>    -5.6382    82.5402   183.9026 </r>
       <r>    -5.5447    80.8185   191.4572 </r>
       <r>    -5.4512    81.9826   199.1208 </r>
       <r>    -5.3578    88.2478   207.3699 </r>
       <r>    -5.2643    89.3322   215.7205 </r>
       <r>    -5.1708    83.4752   223.5235 </r>
       <r>    -5.0773    83.1221   231.2935 </r>
       <r>    -4.9839    86.0135   239.3338 </r>
       <r>    -4.8904    86.8626   247.4535 </r>
       <r>    -4.7969    89.3562   255.8063 </r>
       <r>    -4.7034    88.9700   264.1229 </r>
       <r>    -4.6099    89.1261   272.4542 </r>
       <r>    -4.5165    95.6889   281.3989 </r>
       <r>    -4.4230    95.4462   290.3210 </r>
       <r>    -4.3295    93.8493   299.0938 </r>
       <r>    -4.2360    92.4209   307.7330 </r>
       <r>    -4.1426    87.0771   315.8727 </r>
       <r>    -4.0491    89.4023   324.2298 </r>
       <r>    -3.9556    93.7457   332.9929 </r>
       <r>    -3.8621    93.3718   341.7211 </r>
       <r>    -3.7686    93.9026   350.4988 </r>
       <r>    -3.6752    95.5637   359.4319 </r>
       <r>    -3.5817    94.2463   368.2418 </r>
       <r>    -3.4882    89.3552   376.5944 </r>
       <r>    -3.3947    88.9172   384.9062 </r>
       <r>    -3.3013    90.5927   393.3745 </r>
       <r>    -3.2078    91.5751   401.9347 </r>
       <r>    -3.1143    94.0234   410.7238 </r>
       <r>    -3.0208    94.5258   419.5598 </r>
       <r>    -2.9274    91.0569   428.0715 </r>
       <r>    -2.8339    90.0912   436.4930 </r>
       <r>    -2.7404    87.9442   444.7138 </r>
       <r>    -2.6469    89.2638   453.0579 </r>
       <r>    -2.5534    92.4573   461.7006 </r>
       <r>    -2.4600    91.7366   470.2759 </r>
       <r>    -2.3665    92.3662   478.9100 </r>
       <r>    -2.2730    95.2767   487.8162 </r>
       <r>    -2.1795    96.5294   496.8395 </r>
       <r>    -2.0861    96.3149   505.8428 </r>
       <r>    -1.9926    91.3077   514.3780 </r>
       <r>    -1.8991    87.8897   522.5937 </r>
       <r>    -1.8056    85.6536   530.6003 </r>
       <r>    -1.7121    76.3165   537.7342 </r>
       <r>    -1.6187    64.7418   543.7861 </r>
       <r>    -1.5252    53.1464   548.7540 </r>
       <r>    -1.4317    41.4567   552.6293 </r>
       <r>    -1.3382    30.9534   555.5227 </r>
       <r>    -1.2448    28.2357   558.1621 </r>
       <r>    -1.1513    30.1710   560.9824 </r>
       <r>    -1.0578    28.5696   563.6530 </r>
       <r>    -0.9643    22.2198   565.7301 </r>
       <r>    -0.8709    24.9172   568.0593 </r>
       <r>    -0.7774    30.3915   570.9002 </r>
       <r>    -0.6839    31.6606   573.8597 </r>
       <r>    -0.5904    30.5476   576.7152 </r>
       <r>    -0.4969    25.8465   579.1313 </r>
       <r>    -0.4035    18.1319   580.8262 </r>
       <r>    -0.3100    14.7618   582.2061 </r>
       <r>    -0.2165    14.6301   583.5737 </r>
       <r>    -0.1230     9.8725   584.4965 </r>
       <r>    -0.0296     4.7782   584.9432 </r>
       <r>     0.0639     6.2912   585.5313 </r>
       <r>     0.1574    12.7534   586.7234 </r>
       <r>     0.2509    16.5396   588.2695 </r>
       <r>     0.3444    20.4535   590.1815 </r>
       <r>     0.4378    21.9163   592.2301 </r>
       <r>     0.5313    19.9899   594.0987 </r>
       <r>     0.6248    17.9924   595.7806 </r>
       <r>     0.7183    15.1685   597.1985 </r>
       <r>     0.8117    12.1204   598.3315 </r>
       <r>     0.9052    10.9801   599.3579 </r>
       <r>     0.9987     8.0469   600.1101 </r>
       <r>     1.0922    10.2006   601.0636 </r>
       <r>     1.1856    14.6169   602.4300 </r>
       <r>     1.2791    13.1144   603.6559 </r>
       <r>     1.3726    12.6175   604.8353 </r>
       <r>     1.4661    12.9586   606.0467 </r>
       <r>     1.5596    14.7369   607.4242 </r>
       <r>     1.6530    18.1330   609.1193 </r>
       <r>     1.7465    21.2102   611.1019 </r>
       <r>     1.8400    20.5263   613.0207 </r>
       <r>     1.9335    16.6830   614.5802 </r>
       <r>     2.0269    13.5562   615.8474 </r>
       <r>     2.1204    14.2448   617.1789 </r>
       <r>     2.2139    15.9847   618.6731 </r>
       <r>     2.3074    13.4228   619.9279 </r>
       <r>     2.4009    11.3910   620.9927 </r>
       <r>     2.4943    10.9892   622.0199 </r>
       <r>     2.5878    10.9422   623.0427 </r>
       <r>     2.6813     9.8062   623.9594 </r>
       <r>     2.7748    10.9192   624.9801 </r>
       <r>     2.8682    13.1356   626.2080 </r>
       <r>     2.9617    13.6101   627.4802 </r>
       <r>     3.0552    12.9519   628.6909 </r>
       <r>     3.1487    12.9723   629.9035 </r>
       <r>     3.2421    17.3519   631.5256 </r>
       <r>     3.3356    19.9711   633.3924 </r>
       <r>     3.4291    18.4411   635.1162 </r>
       <r>     3.5226    17.3891   636.7417 </r>
       <r>     3.6161    16.9807   638.3290 </r>
       <r>     3.7095    15.9796   639.8227 </r>
       <r>     3.8030    14.4360   641.1722 </r>
       <r>     3.8965    16.9366   642.7554 </r>
       <r>     3.9900    19.7726   644.6037 </r>
       <r>     4.0834    20.6953   646.5382 </r>
       <r>     4.1769    20.0922   648.4164 </r>
       <r>     4.2704    15.2912   649.8457 </r>
       <r>     4.3639    14.8749   651.2362 </r>
       <r>     4.4574    22.4282   653.3327 </r>
       <r>     4.5508    24.3617   655.6100 </r>
       <r>     4.6443    25.9293   658.0338 </r>
       <r>     4.7378    24.4464   660.3190 </r>
       <r>     4.8313    25.3753   662.6910 </r>
       <r>     4.9247    27.0157   665.2163 </r>
       <r>     5.0182    27.1302   667.7524 </r>
       <r>     5.1117    27.2268   670.2975 </r>
       <r>     5.2052    15.1675   671.7153 </r>
       <r>     5.2986     2.8947   671.9859 </r>
       <r>     5.3921     0.1491   671.9998 </r>
       <r>     5.4856     0.0018   672.0000 </r>
       <r>     5.5791     0.0000   672.0000 </r>
       <r>     5.6726     0.0000   672.0000 </r>
       <r>     5.7660     0.0000   672.0000 </r>
       <r>     5.8595     0.0000   672.0000 </r>
       <r>     5.9530     0.0000   672.0000 </r>
       <r>     6.0465     0.0000   672.0000 </r>
       <r>     6.1399     0.0000   672.0000 </r>
       <r>     6.2334     0.0000   672.0000 </r>
       <r>     6.3269     0.0000   672.0000 </r>
       <r>     6.4204     0.0000   672.0000 </r>
      </set>
     </set>
    </array>
   </total>
  </dos>
 </calculation>
 <structure name="finalpos" >
  <crystal>
   <varray name="basis" >
    <v>      11.00258152       0.00000000       0.00000000 </v>
    <v>       5.50129076       9.52851510       0.00000000 </v>
    <v>       0.00000000       0.00000000      26.19178509 </v>
   </varray>
   <i name="volume">   2745.90128299 </i>
   <varray name="rec_basis" >
    <v>       0.09088776      -0.05247407       0.00000000 </v>
    <v>       0.00000000       0.10494815       0.00000000 </v>
    <v>       0.00000000       0.00000000       0.03817991 </v>
   </varray>
  </crystal>
  <varray name="positions" >
   <v>       0.08333333       0.08333333       0.38179910 </v>
   <v>       0.16527010       0.66750266       0.47531136 </v>
   <v>       0.66868455       0.91483283       0.47792064 </v>
   <v>       0.67298297       0.41443754       0.47434652 </v>
   <v>       0.66829185       0.16552238       0.47717155 </v>
   <v>       0.83333333       0.08333333       0.38179910 </v>
   <v>       0.58333333       0.83333333       0.38179910 </v>
   <v>       0.00519967       0.25567149       0.56411467 </v>
   <v>       0.66925524       0.66590596       0.47612433 </v>
   <v>       0.50981368       0.49084613       0.56339769 </v>
   <v>       0.91692845       0.66527639       0.47459779 </v>
   <v>       0.08333333       0.83333333       0.38179910 </v>
   <v>      -0.00386487       0.52913897       0.61789600 </v>
   <v>       0.41595163       0.66904068       0.47207691 </v>
   <v>       0.41572469       0.41487429       0.47497790 </v>
   <v>       0.33333333       0.08333333       0.38179910 </v>
   <v>       0.16790562       0.16871176       0.47533229 </v>
   <v>       0.25258447      -0.00301109       0.56580507 </v>
   <v>       0.49436603       0.00552453       0.56640641 </v>
   <v>       0.33333333       0.33333333       0.38179910 </v>
   <v>       0.16495230       0.41736051       0.47852890 </v>
   <v>       0.58333333       0.08333333       0.38179910 </v>
   <v>       0.24517564       0.74796136       0.56891884 </v>
   <v>       0.22157979       0.53688431       0.61627981 </v>
   <v>       0.78889023       0.58439679       0.63184775 </v>
   <v>       0.09717311       0.31017166       0.62549097 </v>
   <v>       0.10205560       0.00943078       0.61785800 </v>
   <v>       0.35153572       0.31787414       0.62307000 </v>
   <v>       0.82225433       0.33436850       0.61048273 </v>
   <v>       0.37797688       0.59066178       0.62555276 </v>
   <v>       0.54791213       0.84381327       0.62015209 </v>
   <v>       0.68027959       0.14910613       0.61715372 </v>
   <v>       0.33333333       0.83333333       0.38179910 </v>
   <v>       0.16617067       0.91630937       0.47303905 </v>
   <v>       0.75015114       0.76750860       0.60605548 </v>
   <v>       0.24705076       0.26652489       0.57374783 </v>
   <v>       0.41603576       0.16809698       0.48062045 </v>
   <v>       0.83333333       0.83333333       0.38179910 </v>
   <v>       0.58333333       0.33333333       0.38179910 </v>
   <v>      -0.00557418       0.73932675       0.56529385 </v>
   <v>       0.50650785       0.24327603       0.57267053 </v>
   <v>       0.74543178       0.51116316       0.56897529 </v>
   <v>       0.58333333       0.58333333       0.38179910 </v>
   <v>       0.75629657       0.23532105       0.56715448 </v>
   <v>       0.08333333       0.58333333       0.38179910 </v>
   <v>       0.91761320       0.41748428       0.47108281 </v>
   <v>       0.41545083       0.91810818       0.47396611 </v>
   <v>       0.49939533       0.74828027       0.56435490 </v>
   <v>       0.08333333       0.33333333       0.38179910 </v>
   <v>       0.00096155      -0.01494631       0.56211008 </v>
   <v>       0.76146361      -0.01546677       0.56941232 </v>
   <v>       0.83333333       0.58333333       0.38179910 </v>
   <v>       0.83333333       0.33333333       0.38179910 </v>
   <v>       0.92059504       0.16650673       0.47644894 </v>
   <v>       0.33333333       0.58333333       0.38179910 </v>
   <v>       0.91597247       0.91697551       0.47621764 </v>
  </varray>
  <varray name="selective"  type="logical" >
   <v type="logical" >  F  F  F </v>
   <v type="logical" >  T  T  T </v>
   <v type="logical" >  T  T  T </v>
   <v type="logical" >  T  T  T </v>
   <v type="logical" >  T  T  T </v>
   <v type="logical" >  F  F  F </v>
   <v type="logical" >  F  F  F </v>
   <v type="logical" >  T  T  T </v>
   <v type="logical" >  T  T  T </v>
   <v type="logical" >  T  T  T </v>
   <v type="logical" >  T  T  T </v>
   <v type="logical" >  F  F  F </v>
   <v type="logical" >  T  T  T </v>
   <v type="logical" >  T  T  T </v>
   <v type="logical" >  T  T  T </v>
   <v type="logical" >  F  F  F </v>
   <v type="logical" >  T  T  T </v>
   <v type="logical" >  T  T  T </v>
   <v type="logical" >  T  T  T </v>
   <v type="logical" >  F  F  F </v>
   <v type="logical" >  T  T  T </v>
   <v type="logical" >  F  F  F </v>
   <v type="logical" >  T  T  T </v>
   <v type="logical" >  T  T  T </v>
   <v type="logical" >  T  T  T </v>
   <v type="logical" >  T  T  T </v>
   <v type="logical" >  T  T  T </v>
   <v type="logical" >  T  T  T </v>
   <v type="logical" >  T  T  T </v>
   <v type="logical" >  T  T  T </v>
   <v type="logical" >  T  T  T </v>
   <v type="logical" >  T  T  T </v>
   <v type="logical" >  F  F  F </v>
   <v type="logical" >  T  T  T </v>
   <v type="logical" >  T  T  T </v>
   <v type="logical" >  T  T  T </v>
   <v type="logical" >  T  T  T </v>
   <v type="logical" >  F  F  F </v>
   <v type="logical" >  F  F  F </v>
   <v type="logical" >  T  T  T </v>
   <v type="logical" >  T  T  T </v>
   <v type="logical" >  T  T  T </v>
   <v type="logical" >  F  F  F </v>
   <v type="logical" >  T  T  T </v>
   <v type="logical" >  F  F  F </v>
   <v type="logical" >  T  T  T </v>
   <v type="logical" >  T  T  T </v>
   <v type="logical" >  T  T  T </v>
   <v type="logical" >  F  F  F </v>
   <v type="logical" >  T  T  T </v>
   <v type="logical" >  T  T  T </v>
   <v type="logical" >  F  F  F </v>
   <v type="logical" >  F  F  F </v>
   <v type="logical" >  T  T  T </v>
   <v type="logical" >  F  F  F </v>
   <v type="logical" >  T  T  T </v>
  </varray>
  <nose>
   <v>      -3.00000000       0.00000000       0.00010000       0.00010000 </v>
  </nose>
 </structure>
</modeling>
