unknown system                          
           1
    11.002582    0.000000    0.000000
     5.501291    9.528515    0.000000
     0.000000    0.000000   26.191785
   Au   O    Pd
  24   8  24
Direct configuration=     1
   0.08333333  0.08333333  0.38179910
   0.16666667  0.66666667  0.46754708
   0.66666667  0.91666667  0.46754708
   0.66666667  0.41666667  0.46754708
   0.66666667  0.16666667  0.46754708
   0.83333333  0.08333333  0.38179910
   0.58333333  0.83333333  0.38179910
   0.00000000  0.25000000  0.55329505
   0.66666667  0.66666667  0.46754708
   0.50000000  0.50000000  0.55329505
   0.91666667  0.66666667  0.46754708
   0.08333333  0.83333333  0.38179910
   0.00000000  0.50000000  0.55329505
   0.41666667  0.66666667  0.46754708
   0.41666667  0.41666667  0.46754708
   0.33333333  0.08333333  0.38179910
   0.16666667  0.16666667  0.46754708
   0.25000000  0.00000000  0.55329505
   0.50000000  0.00000000  0.55329505
   0.33333333  0.33333333  0.38179910
   0.16666667  0.41666667  0.46754708
   0.58333333  0.08333333  0.38179910
   0.25000000  0.75000000  0.55329505
   0.25000000  0.50000000  0.55329505
   0.83333333  0.58333333  0.61820090
   0.08333333  0.33333333  0.61820090
   0.08333333  0.08333333  0.61820090
   0.33333333  0.33333333  0.61820090
   0.83333333  0.33333333  0.61820090
   0.33333333  0.58333333  0.61820090
   0.58333333  0.83333333  0.61820090
   0.58333333  0.08333333  0.61820090
   0.33333333  0.83333333  0.38179910
   0.16666667  0.91666667  0.46754708
   0.75000000  0.75000000  0.55329505
   0.25000000  0.25000000  0.55329505
   0.41666667  0.16666667  0.46754708
   0.83333333  0.83333333  0.38179910
   0.58333333  0.33333333  0.38179910
   0.00000000  0.75000000  0.55329505
   0.50000000  0.25000000  0.55329505
   0.75000000  0.50000000  0.55329505
   0.58333333  0.58333333  0.38179910
   0.75000000  0.25000000  0.55329505
   0.08333333  0.58333333  0.38179910
   0.91666667  0.41666667  0.46754708
   0.41666667  0.91666667  0.46754708
   0.50000000  0.75000000  0.55329505
   0.08333333  0.33333333  0.38179910
   0.00000000  0.00000000  0.55329505
   0.75000000  0.00000000  0.55329505
   0.83333333  0.58333333  0.38179910
   0.83333333  0.33333333  0.38179910
   0.91666667  0.16666667  0.46754708
   0.33333333  0.58333333  0.38179910
   0.91666667  0.91666667  0.46754708
Direct configuration=     2
   0.08333333  0.08333333  0.38179910
   0.16536556  0.66803941  0.46730748
   0.66743692  0.91638323  0.46793671
   0.66875599  0.41598067  0.46750983
   0.66726245  0.16678465  0.46853231
   0.83333333  0.08333333  0.38179910
   0.58333333  0.83333333  0.38179910
  -0.00110149  0.24956387  0.55603661
   0.66699663  0.66569815  0.46770715
   0.50220854  0.49917064  0.55625735
   0.91631197  0.66697531  0.46756376
   0.08333333  0.83333333  0.38179910
  -0.00087959  0.50169257  0.55649852
   0.41641989  0.66888249  0.46694512
   0.41757909  0.41512105  0.46718880
   0.33333333  0.08333333  0.38179910
   0.16625988  0.16712733  0.46777007
   0.25059156 -0.00105817  0.55562862
   0.49913936  0.00043096  0.55609074
   0.33333333  0.33333333  0.38179910
   0.16591587  0.41609182  0.46747354
   0.58333333  0.08333333  0.38179910
   0.24866326  0.75183701  0.55596534
   0.24856578  0.50024497  0.55662129
   0.83210053  0.58475810  0.61483304
   0.08554872  0.33327591  0.61563304
   0.08376549  0.08015707  0.61521321
   0.33373151  0.33143526  0.61480589
   0.82985543  0.33390123  0.61463953
   0.33343583  0.58457240  0.61565916
   0.58392650  0.83147668  0.61460501
   0.58536314  0.08377631  0.61458507
   0.33333333  0.83333333  0.38179910
   0.16644478  0.91650699  0.46769707
   0.74958022  0.74988851  0.55710069
   0.25040668  0.25043610  0.55695220
   0.41632114  0.16631040  0.46834522
   0.83333333  0.83333333  0.38179910
   0.58333333  0.33333333  0.38179910
  -0.00126891  0.75198383  0.55425039
   0.50074174  0.24844866  0.55701988
   0.75017952  0.49970313  0.55711793
   0.58333333  0.58333333  0.38179910
   0.75126309  0.24967598  0.55567763
   0.08333333  0.58333333  0.38179910
   0.91619405  0.41608517  0.46708003
   0.41581613  0.91676944  0.46811087
   0.50127869  0.75063820  0.55554487
   0.08333333  0.33333333  0.38179910
  -0.00055620  0.00046915  0.55518932
   0.75018451  0.00025677  0.55550921
   0.83333333  0.58333333  0.38179910
   0.83333333  0.33333333  0.38179910
   0.91697277  0.16660761  0.46782846
   0.33333333  0.58333333  0.38179910
   0.91689223  0.91743602  0.46885904
Direct configuration=     3
   0.08333333  0.08333333  0.38179910
   0.16315937  0.67036705  0.46690121
   0.66874299  0.91590263  0.46859739
   0.67229869  0.41481748  0.46744667
   0.66827267  0.16698471  0.47020288
   0.83333333  0.08333333  0.38179910
   0.58333333  0.83333333  0.38179910
  -0.00296918  0.24882435  0.56068524
   0.66755613  0.66405591  0.46797858
   0.50595339  0.49776437  0.56128026
   0.91571055  0.66749864  0.46759206
   0.08333333  0.83333333  0.38179910
  -0.00237102  0.50456252  0.56193039
   0.41600144  0.67263968  0.46592443
   0.41912621  0.41250027  0.46658129
   0.33333333  0.08333333  0.38179910
   0.16557012  0.16790845  0.46814819
   0.25159461 -0.00285243  0.55958544
   0.49768005  0.00116171  0.56083117
   0.33333333  0.33333333  0.38179910
   0.16464281  0.41511711  0.46734886
   0.58333333  0.08333333  0.38179910
   0.24639666  0.75495189  0.56049313
   0.24613388  0.50066035  0.56226131
   0.83001016  0.58717396  0.60912243
   0.08930516  0.33317853  0.61127894
   0.08449827  0.07477133  0.61014722
   0.33440667  0.32821684  0.60904926
   0.82395823  0.33486417  0.60860082
   0.33360962  0.58667338  0.61134934
   0.58493228  0.82832850  0.60850775
   0.58880490  0.08452744  0.60845401
   0.33333333  0.83333333  0.38179910
   0.16606856  0.91623624  0.46795141
   0.74886845  0.74969946  0.56355359
   0.25109624  0.25117556  0.56315332
   0.41573525  0.16570630  0.46969857
   0.83333333  0.83333333  0.38179910
   0.58333333  0.33333333  0.38179910
  -0.00342051  0.75534764  0.55587027
   0.50199945  0.24581819  0.56333577
   0.75048391  0.49919976  0.56360005
   0.58333333  0.58333333  0.38179910
   0.75340480  0.24912658  0.55971756
   0.08333333  0.58333333  0.38179910
   0.91539266  0.41509918  0.46628811
   0.41437394  0.91694370  0.46906685
   0.50344686  0.75172035  0.55935971
   0.08333333  0.33333333  0.38179910
  -0.00149929  0.00126464  0.55840127
   0.75049736  0.00069215  0.55926357
   0.83333333  0.58333333  0.38179910
   0.83333333  0.33333333  0.38179910
   0.91749180  0.16650747  0.46830558
   0.33333333  0.58333333  0.38179910
   0.91727469  0.91874054  0.47108364
Direct configuration=     4
   0.08333333  0.08333333  0.38179910
   0.16354123  0.66996417  0.46697153
   0.66851693  0.91598582  0.46848303
   0.67168550  0.41501881  0.46745760
   0.66809782  0.16695008  0.46991373
   0.83333333  0.08333333  0.38179910
   0.58333333  0.83333333  0.38179910
  -0.00264591  0.24895235  0.55988062
   0.66745929  0.66434016  0.46793160
   0.50530521  0.49800778  0.56041086
   0.91581465  0.66740806  0.46758716
   0.08333333  0.83333333  0.38179910
  -0.00211288  0.50406577  0.56099021
   0.41607387  0.67198936  0.46610110
   0.41885843  0.41295389  0.46668644
   0.33333333  0.08333333  0.38179910
   0.16568951  0.16777325  0.46808274
   0.25142100 -0.00254187  0.55890057
   0.49793264  0.00103523  0.56001067
   0.33333333  0.33333333  0.38179910
   0.16486316  0.41528582  0.46737044
   0.58333333  0.08333333  0.38179910
   0.24678898  0.75441275  0.55970943
   0.24655481  0.50058845  0.56128510
   0.83037197  0.58675581  0.61011086
   0.08865497  0.33319538  0.61203257
   0.08437143  0.07570353  0.61102407
   0.33428981  0.32877391  0.61004566
   0.82497895  0.33469750  0.60964604
   0.33357954  0.58630973  0.61209531
   0.58475820  0.82887341  0.60956310
   0.58820918  0.08439743  0.60951521
   0.33333333  0.83333333  0.38179910
   0.16613368  0.91628310  0.46790739
   0.74899165  0.74973218  0.56243669
   0.25097689  0.25104757  0.56207999
   0.41583666  0.16581086  0.46946433
   0.83333333  0.83333333  0.38179910
   0.58333333  0.33333333  0.38179910
  -0.00304809  0.75476541  0.55558989
   0.50178176  0.24627349  0.56224258
   0.75043122  0.49928688  0.56247809
   0.58333333  0.58333333  0.38179910
   0.75303410  0.24922167  0.55901831
   0.08333333  0.58333333  0.38179910
   0.91553137  0.41526984  0.46642518
   0.41462356  0.91691354  0.46890138
   0.50307158  0.75153305  0.55869941
   0.08333333  0.33333333  0.38179910
  -0.00133606  0.00112695  0.55784533
   0.75044321  0.00061679  0.55861374
   0.83333333  0.58333333  0.38179910
   0.83333333  0.33333333  0.38179910
   0.91740197  0.16652481  0.46822300
   0.33333333  0.58333333  0.38179910
   0.91720849  0.91851475  0.47069859
Direct configuration=     5
   0.08333333  0.08333333  0.38179910
   0.16492297  0.66861428  0.46852209
   0.66832689  0.91587436  0.47021903
   0.67091457  0.41536515  0.46903142
   0.66843405  0.16697468  0.47178654
   0.83333333  0.08333333  0.38179910
   0.58333333  0.83333333  0.38179910
   0.00044191  0.24834893  0.55886566
   0.66827160  0.66420363  0.46953134
   0.50945126  0.49614423  0.56155610
   0.91531190  0.66686842  0.46897772
   0.08333333  0.83333333  0.38179910
   0.00151343  0.50756515  0.56149069
   0.41594709  0.67086646  0.46760184
   0.41876132  0.41408655  0.46857997
   0.33333333  0.08333333  0.38179910
   0.16535816  0.16755723  0.46996627
   0.25551946 -0.00410395  0.55978388
   0.49162486  0.00356945  0.55998712
   0.33333333  0.33333333  0.38179910
   0.16415742  0.41607848  0.46933156
   0.58333333  0.08333333  0.38179910
   0.24525795  0.75747534  0.56066938
   0.23993557  0.50691093  0.56155189
   0.82745017  0.58931331  0.60911894
   0.09250709  0.33188376  0.61112955
   0.08492925  0.06889541  0.61031196
   0.33719528  0.32469459  0.60902799
   0.81781459  0.33569542  0.60854783
   0.33446517  0.58786718  0.61175947
   0.58524336  0.82568597  0.60841910
   0.59359775  0.08400745  0.60841227
   0.33333333  0.83333333  0.38179910
   0.16583844  0.91688134  0.46922851
   0.75166713  0.75176269  0.56435202
   0.25036420  0.24748124  0.56402672
   0.41627671  0.16503803  0.47135933
   0.83333333  0.83333333  0.38179910
   0.58333333  0.33333333  0.38179910
  -0.00396479  0.75593445  0.55644294
   0.50454351  0.24854279  0.56404799
   0.74527328  0.50129598  0.56463214
   0.58333333  0.58333333  0.38179910
   0.75111809  0.24783036  0.56006085
   0.08333333  0.58333333  0.38179910
   0.91590841  0.41529274  0.46758215
   0.41421384  0.91799129  0.47041188
   0.50109856  0.74946753  0.55955325
   0.08333333  0.33333333  0.38179910
  -0.00340203  0.00047490  0.55904079
   0.75364501 -0.00053827  0.55970461
   0.83333333  0.58333333  0.38179910
   0.83333333  0.33333333  0.38179910
   0.91823145  0.16594910  0.46930508
   0.33333333  0.58333333  0.38179910
   0.91653141  0.92011279  0.47227241
Direct configuration=     6
   0.08333333  0.08333333  0.38179910
   0.16582393  0.66773409  0.46953313
   0.66820297  0.91580168  0.47135099
   0.67041189  0.41559098  0.47005763
   0.66865329  0.16699072  0.47300771
   0.83333333  0.08333333  0.38179910
   0.58333333  0.83333333  0.38179910
   0.00245532  0.24795548  0.55820386
   0.66880127  0.66411461  0.47057445
   0.51215470  0.49492910  0.56230285
   0.91498408  0.66651655  0.46988444
   0.08333333  0.83333333  0.38179910
   0.00387797  0.50984693  0.56181704
   0.41586442  0.67013428  0.46858039
   0.41869800  0.41482509  0.46981464
   0.33333333  0.08333333  0.38179910
   0.16514210  0.16741637  0.47119442
   0.25819188 -0.00512251  0.56035984
   0.48751186  0.00522190  0.55997177
   0.33333333  0.33333333  0.38179910
   0.16369724  0.41659534  0.47061031
   0.58333333  0.08333333  0.38179910
   0.24425964  0.75947231  0.56129532
   0.23561949  0.51103351  0.56172586
   0.82554500  0.59098093  0.60847215
   0.09501888  0.33102851  0.61054073
   0.08529297  0.06445617  0.60984763
   0.33908980  0.32203467  0.60836442
   0.81314305  0.33634611  0.60783174
   0.33504264  0.58888272  0.61154048
   0.58555971  0.82360760  0.60767315
   0.59711138  0.08375316  0.60769310
   0.33333333  0.83333333  0.38179910
   0.16564593  0.91727142  0.47008994
   0.75341169  0.75308668  0.56560091
   0.24996469  0.24515581  0.56529608
   0.41656365  0.16453410  0.47259497
   0.83333333  0.83333333  0.38179910
   0.58333333  0.33333333  0.38179910
  -0.00456252  0.75669672  0.55699916
   0.50634431  0.25002249  0.56522522
   0.74191004  0.50260601  0.56603670
   0.58333333  0.58333333  0.38179910
   0.74986875  0.24692315  0.56074063
   0.08333333  0.58333333  0.38179910
   0.91615425  0.41530768  0.46833655
   0.41394668  0.91869404  0.47139680
   0.49981206  0.74812071  0.56010999
   0.08333333  0.33333333  0.38179910
  -0.00474915  0.00004974  0.55982028
   0.75573274 -0.00129142  0.56041592
   0.83333333  0.58333333  0.38179910
   0.83333333  0.33333333  0.38179910
   0.91877232  0.16557372  0.47001065
   0.33333333  0.58333333  0.38179910
   0.91608992  0.92115480  0.47329863
Direct configuration=     7
   0.08333333  0.08333333  0.38179910
   0.16581849  0.66798999  0.47035251
   0.66807827  0.91598222  0.47279272
   0.67030051  0.41565040  0.47106891
   0.66812714  0.16713678  0.47398546
   0.83333333  0.08333333  0.38179910
   0.58333333  0.83333333  0.38179910
   0.00074429  0.24944944  0.55708862
   0.66845643  0.66456096  0.47198021
   0.50991875  0.49462620  0.56331806
   0.91477611  0.66726454  0.47065063
   0.08333333  0.83333333  0.38179910
   0.00169957  0.51186624  0.56245289
   0.41588634  0.66960638  0.46977684
   0.41847366  0.41491809  0.47151945
   0.33333333  0.08333333  0.38179910
   0.16616343  0.16704168  0.47180478
   0.25738523 -0.00634446  0.56153340
   0.48868091  0.00619016  0.56014998
   0.33333333  0.33333333  0.38179910
   0.16465389  0.41586494  0.47182187
   0.58333333  0.08333333  0.38179910
   0.24311347  0.76180376  0.56176914
   0.23713936  0.51294396  0.56237362
   0.82643758  0.58877885  0.60962158
   0.09272694  0.33261882  0.61201258
   0.08601425  0.05879148  0.61038834
   0.34049472  0.32156708  0.60891269
   0.81064229  0.33502954  0.60916755
   0.33670487  0.58920533  0.61179653
   0.58396895  0.82293640  0.60817138
   0.60141115  0.08110293  0.60864585
   0.33333333  0.83333333  0.38179910
   0.16541793  0.91741279  0.47119586
   0.75362340  0.75907764  0.56538600
   0.25475999  0.24052221  0.56487881
   0.41637193  0.16577312  0.47390720
   0.83333333  0.83333333  0.38179910
   0.58333333  0.33333333  0.38179910
  -0.00551082  0.75935337  0.55803644
   0.50778610  0.25398349  0.56518926
   0.73941507  0.50642761  0.56650889
   0.58333333  0.58333333  0.38179910
   0.74960222  0.24385548  0.56062339
   0.08333333  0.58333333  0.38179910
   0.91587589  0.41582165  0.46949982
   0.41440565  0.91796977  0.47184259
   0.49909787  0.74487173  0.56042300
   0.08333333  0.33333333  0.38179910
  -0.00649617 -0.00001955  0.56053530
   0.75861573 -0.00387648  0.56057248
   0.83333333  0.58333333  0.38179910
   0.83333333  0.33333333  0.38179910
   0.91878973  0.16551427  0.47086149
   0.33333333  0.58333333  0.38179910
   0.91601957  0.92115285  0.47394120
Direct configuration=     8
   0.08333333  0.08333333  0.38179910
   0.16581808  0.66800939  0.47041466
   0.66806881  0.91599591  0.47290206
   0.67029207  0.41565491  0.47114560
   0.66808723  0.16714786  0.47405961
   0.83333333  0.08333333  0.38179910
   0.58333333  0.83333333  0.38179910
   0.00061452  0.24956274  0.55700404
   0.66843028  0.66459481  0.47208683
   0.50974917  0.49460323  0.56339505
   0.91476034  0.66732127  0.47070874
   0.08333333  0.83333333  0.38179910
   0.00153436  0.51201938  0.56250111
   0.41588800  0.66956634  0.46986758
   0.41845665  0.41492515  0.47164874
   0.33333333  0.08333333  0.38179910
   0.16624088  0.16701326  0.47185107
   0.25732405 -0.00643713  0.56162241
   0.48876957  0.00626360  0.56016349
   0.33333333  0.33333333  0.38179910
   0.16472644  0.41580955  0.47191375
   0.58333333  0.08333333  0.38179910
   0.24302654  0.76198058  0.56180508
   0.23725463  0.51308885  0.56242275
   0.82650527  0.58861185  0.60970876
   0.09255312  0.33273943  0.61212420
   0.08606895  0.05836187  0.61042935
   0.34060127  0.32153162  0.60895427
   0.81045263  0.33492969  0.60926886
   0.33683094  0.58922980  0.61181595
   0.58384831  0.82288550  0.60820917
   0.60173725  0.08090194  0.60871811
   0.33333333  0.83333333  0.38179910
   0.16540064  0.91742351  0.47127973
   0.75363946  0.75953199  0.56536970
   0.25512367  0.24017080  0.56484717
   0.41635739  0.16586709  0.47400672
   0.83333333  0.83333333  0.38179910
   0.58333333  0.33333333  0.38179910
  -0.00558274  0.75955485  0.55811511
   0.50789544  0.25428389  0.56518653
   0.73922585  0.50671745  0.56654471
   0.58333333  0.58333333  0.38179910
   0.74958200  0.24362282  0.56061450
   0.08333333  0.58333333  0.38179910
   0.91585478  0.41586063  0.46958804
   0.41444046  0.91791484  0.47187640
   0.49904371  0.74462532  0.56044674
   0.08333333  0.33333333  0.38179910
  -0.00662867 -0.00002481  0.56058953
   0.75883437 -0.00407253  0.56058436
   0.83333333  0.58333333  0.38179910
   0.83333333  0.33333333  0.38179910
   0.91879105  0.16550976  0.47092601
   0.33333333  0.58333333  0.38179910
   0.91601423  0.92115270  0.47398993
Direct configuration=     9
   0.08333333  0.08333333  0.38179910
   0.16506758  0.66877338  0.47060521
   0.66767930  0.91647765  0.47339706
   0.67041326  0.41571609  0.47166810
   0.66755789  0.16699663  0.47408645
   0.83333333  0.08333333  0.38179910
   0.58333333  0.83333333  0.38179910
  -0.00200575  0.25154418  0.55720708
   0.66805225  0.66501399  0.47286990
   0.50893780  0.49450328  0.56416594
   0.91514327  0.66795411  0.47092108
   0.08333333  0.83333333  0.38179910
   0.00120703  0.51124826  0.56357030
   0.41589202  0.66934303  0.47035018
   0.41821448  0.41482981  0.47249667
   0.33333333  0.08333333  0.38179910
   0.16765726  0.16634247  0.47169788
   0.25626239 -0.00610745  0.56278020
   0.49271507  0.00434768  0.56101284
   0.33333333  0.33333333  0.38179910
   0.16534729  0.41545083  0.47264730
   0.58333333  0.08333333  0.38179910
   0.24193204  0.76277148  0.56222688
   0.23827989  0.51220073  0.56324681
   0.82633355  0.58952619  0.61036807
   0.09211338  0.33306671  0.61209422
   0.08652405  0.05472832  0.61139143
   0.34143078  0.32137179  0.60918569
   0.80891871  0.33427851  0.60989231
   0.33778034  0.59005621  0.61286438
   0.58254660  0.82276647  0.60826091
   0.60413225  0.08009697  0.60929979
   0.33333333  0.83333333  0.38179910
   0.16515343  0.91756799  0.47186307
   0.75254156  0.76070363  0.56642701
   0.25395408  0.24228987  0.56572461
   0.41633799  0.16704439  0.47452246
   0.83333333  0.83333333  0.38179910
   0.58333333  0.33333333  0.38179910
  -0.00471268  0.76015976  0.55923354
   0.50856383  0.25438687  0.56583507
   0.73926123  0.50629131  0.56722256
   0.58333333  0.58333333  0.38179910
   0.75092278  0.24332988  0.56099883
   0.08333333  0.58333333  0.38179910
   0.91540831  0.41680049  0.47014381
   0.41493407  0.91706167  0.47200235
   0.49948590  0.74383117  0.56110566
   0.08333333  0.33333333  0.38179910
  -0.00775419  0.00073382  0.56112003
   0.75915778 -0.00490539  0.56088346
   0.83333333  0.58333333  0.38179910
   0.83333333  0.33333333  0.38179910
   0.91845930  0.16561921  0.47119038
   0.33333333  0.58333333  0.38179910
   0.91623708  0.92063442  0.47387369
Direct configuration=    10
   0.08333333  0.08333333  0.38179910
   0.16447092  0.66938077  0.47075671
   0.66736962  0.91686064  0.47379059
   0.67050962  0.41576473  0.47208351
   0.66713705  0.16687641  0.47410779
   0.83333333  0.08333333  0.38179910
   0.58333333  0.83333333  0.38179910
  -0.00408894  0.25311948  0.55736851
   0.66775171  0.66534725  0.47349246
   0.50829274  0.49442382  0.56477882
   0.91544772  0.66845724  0.47108990
   0.08333333  0.83333333  0.38179910
   0.00094679  0.51063519  0.56442034
   0.41589522  0.66916549  0.47073386
   0.41802195  0.41475402  0.47317079
   0.33333333  0.08333333  0.38179910
   0.16878332  0.16580918  0.47157608
   0.25541834 -0.00584533  0.56370068
   0.49585186  0.00282447  0.56168809
   0.33333333  0.33333333  0.38179910
   0.16584088  0.41516564  0.47323049
   0.58333333  0.08333333  0.38179910
   0.24106188  0.76340027  0.56256222
   0.23909501  0.51149465  0.56390196
   0.82619703  0.59025313  0.61089224
   0.09176377  0.33332691  0.61207038
   0.08688587  0.05183954  0.61215631
   0.34209026  0.32124473  0.60936968
   0.80769920  0.33376080  0.61038797
   0.33853514  0.59071323  0.61369791
   0.58151170  0.82267184  0.60830205
   0.60603634  0.07945700  0.60976225
   0.33333333  0.83333333  0.38179910
   0.16495689  0.91768285  0.47232684
   0.75166869  0.76163511  0.56726759
   0.25302422  0.24397460  0.56642221
   0.41632256  0.16798038  0.47493249
   0.83333333  0.83333333  0.38179910
   0.58333333  0.33333333  0.38179910
  -0.00402096  0.76064067  0.56012272
   0.50909522  0.25446875  0.56635068
   0.73928937  0.50595251  0.56776147
   0.58333333  0.58333333  0.38179910
   0.75198873  0.24309697  0.56130438
   0.08333333  0.58333333  0.38179910
   0.91505336  0.41754770  0.47058566
   0.41532650  0.91638337  0.47210249
   0.49983745  0.74319980  0.56162952
   0.08333333  0.33333333  0.38179910
  -0.00864901  0.00133695  0.56154179
   0.75941490 -0.00556755  0.56112126
   0.83333333  0.58333333  0.38179910
   0.83333333  0.33333333  0.38179910
   0.91819555  0.16570622  0.47140056
   0.33333333  0.58333333  0.38179910
   0.91641426  0.92022237  0.47378127
Direct configuration=    11
   0.08333333  0.08333333  0.38179910
   0.16410941  0.66968283  0.47092178
   0.66708074  0.91704805  0.47388766
   0.67041913  0.41583262  0.47242371
   0.66708866  0.16679396  0.47406279
   0.83333333  0.08333333  0.38179910
   0.58333333  0.83333333  0.38179910
  -0.00487827  0.25363185  0.55762624
   0.66780738  0.66563467  0.47405480
   0.50847858  0.49450644  0.56547014
   0.91571329  0.66875403  0.47141292
   0.08333333  0.83333333  0.38179910
   0.00080563  0.51146587  0.56521162
   0.41575202  0.66893535  0.47099085
   0.41780406  0.41506128  0.47365184
   0.33333333  0.08333333  0.38179910
   0.16945392  0.16539800  0.47164929
   0.25566689 -0.00447401  0.56463380
   0.49555336  0.00343984  0.56216746
   0.33333333  0.33333333  0.38179910
   0.16572047  0.41540764  0.47377484
   0.58333333  0.08333333  0.38179910
   0.24071767  0.76302068  0.56303999
   0.23902894  0.51148703  0.56470028
   0.82552660  0.59157938  0.61158624
   0.09108966  0.33315704  0.61239311
   0.08715596  0.04900932  0.61333896
   0.34296201  0.32130207  0.61005585
   0.80661724  0.33381717  0.61132889
   0.33882537  0.59192819  0.61485917
   0.58030058  0.82244177  0.60902510
   0.60780734  0.07950368  0.61055943
   0.33333333  0.83333333  0.38179910
   0.16483209  0.91795678  0.47273659
   0.75259300  0.76023158  0.56832223
   0.25290084  0.24402525  0.56688108
   0.41650009  0.16819857  0.47546732
   0.83333333  0.83333333  0.38179910
   0.58333333  0.33333333  0.38179910
  -0.00320347  0.75995572  0.56108550
   0.51027974  0.25290840  0.56703223
   0.73936775  0.50508422  0.56854915
   0.58333333  0.58333333  0.38179910
   0.75210131  0.24307154  0.56144730
   0.08333333  0.58333333  0.38179910
   0.91494205  0.41838369  0.47080118
   0.41560149  0.91609808  0.47243953
   0.49934599  0.74304825  0.56209244
   0.08333333  0.33333333  0.38179910
  -0.00950497  0.00223134  0.56194733
   0.75997283 -0.00575426  0.56125753
   0.83333333  0.58333333  0.38179910
   0.83333333  0.33333333  0.38179910
   0.91808649  0.16581493  0.47149702
   0.33333333  0.58333333  0.38179910
   0.91640832  0.91992973  0.47371119
Direct configuration=    12
   0.08333333  0.08333333  0.38179910
   0.16333107  0.67033319  0.47127719
   0.66645879  0.91745154  0.47409665
   0.67022429  0.41597879  0.47315618
   0.66698446  0.16661645  0.47396590
   0.83333333  0.08333333  0.38179910
   0.58333333  0.83333333  0.38179910
  -0.00657774  0.25473502  0.55818114
   0.66792723  0.66625349  0.47526553
   0.50887872  0.49468431  0.56695856
   0.91628508  0.66939303  0.47210841
   0.08333333  0.83333333  0.38179910
   0.00050172  0.51325435  0.56691528
   0.41544372  0.66843984  0.47154415
   0.41733494  0.41572283  0.47468757
   0.33333333  0.08333333  0.38179910
   0.17089773  0.16451272  0.47180690
   0.25620201 -0.00152148  0.56664284
   0.49491068  0.00476476  0.56319958
   0.33333333  0.33333333  0.38179910
   0.16546121  0.41592868  0.47494684
   0.58333333  0.08333333  0.38179910
   0.23997658  0.76220340  0.56406865
   0.23888668  0.51147061  0.56641912
   0.82408315  0.59443487  0.61308044
   0.08963828  0.33279131  0.61308797
   0.08773746  0.04291574  0.61588526
   0.34483893  0.32142552  0.61153321
   0.80428773  0.33393854  0.61335472
   0.33945025  0.59454405  0.61735942
   0.57769299  0.82194644  0.61058184
   0.61162037  0.07960420  0.61227580
   0.33333333  0.83333333  0.38179910
   0.16456340  0.91854655  0.47361882
   0.75458305  0.75720973  0.57059290
   0.25263519  0.24413430  0.56786907
   0.41688232  0.16866835  0.47661882
   0.83333333  0.83333333  0.38179910
   0.58333333  0.33333333  0.38179910
  -0.00144337  0.75848101  0.56315842
   0.51283006  0.24954890  0.56849965
   0.73953650  0.50321476  0.57024505
   0.58333333  0.58333333  0.38179910
   0.75234370  0.24301679  0.56175501
   0.08333333  0.58333333  0.38179910
   0.91470240  0.42018361  0.47126519
   0.41619356  0.91548384  0.47316521
   0.49828786  0.74272197  0.56308914
   0.08333333  0.33333333  0.38179910
  -0.01134788  0.00415701  0.56282047
   0.76117408 -0.00615627  0.56155094
   0.83333333  0.58333333  0.38179910
   0.83333333  0.33333333  0.38179910
   0.91785167  0.16604901  0.47170471
   0.33333333  0.58333333  0.38179910
   0.91639553  0.91929965  0.47356029
Direct configuration=    13
   0.08333333  0.08333333  0.38179910
   0.16376907  0.67005039  0.47162077
   0.66642994  0.91709542  0.47419105
   0.67000366  0.41634062  0.47332012
   0.66736676  0.16690994  0.47401345
   0.83333333  0.08333333  0.38179910
   0.58333333  0.83333333  0.38179910
  -0.00490584  0.25338339  0.55851131
   0.66831620  0.66624859  0.47575719
   0.50839630  0.49437890  0.56799260
   0.91592462  0.66953514  0.47267676
   0.08333333  0.83333333  0.38179910
   0.00072467  0.51421782  0.56793345
   0.41514614  0.66856371  0.47165003
   0.41720719  0.41618854  0.47505177
   0.33333333  0.08333333  0.38179910
   0.17014135  0.16498012  0.47233079
   0.25537015 -0.00058716  0.56791987
   0.49356705  0.00509651  0.56380184
   0.33333333  0.33333333  0.38179910
   0.16480411  0.41651523  0.47538333
   0.58333333  0.08333333  0.38179910
   0.24046760  0.76257836  0.56471187
   0.23979841  0.51179946  0.56777391
   0.82406908  0.59267260  0.61472569
   0.08894692  0.33181962  0.61371427
   0.08848699  0.03949755  0.61696740
   0.34537958  0.32119739  0.61248308
   0.80307659  0.33376249  0.61456611
   0.33936059  0.59601607  0.61847562
   0.57675891  0.82205299  0.61169713
   0.61425271  0.07927432  0.61345353
   0.33333333  0.83333333  0.38179910
   0.16474335  0.91877560  0.47416519
   0.75317563  0.75903782  0.57130545
   0.25318671  0.24418338  0.56853254
   0.41693701  0.16822358  0.47717858
   0.83333333  0.83333333  0.38179910
   0.58333333  0.33333333  0.38179910
  -0.00179916  0.75843816  0.56388556
   0.51372110  0.24817266  0.56933498
   0.74012129  0.50308862  0.57161310
   0.58333333  0.58333333  0.38179910
   0.75130469  0.24435575  0.56210661
   0.08333333  0.58333333  0.38179910
   0.91509690  0.42035245  0.47118906
   0.41611334  0.91574894  0.47378019
   0.49683015  0.74364038  0.56351178
   0.08333333  0.33333333  0.38179910
  -0.00984135  0.00424171  0.56348812
   0.76112496 -0.00672320  0.56157430
   0.83333333  0.58333333  0.38179910
   0.83333333  0.33333333  0.38179910
   0.91827085  0.16634049  0.47173690
   0.33333333  0.58333333  0.38179910
   0.91627437  0.91936062  0.47393961
Direct configuration=    14
   0.08333333  0.08333333  0.38179910
   0.16439490  0.66964632  0.47211168
   0.66638872  0.91658659  0.47432594
   0.66968842  0.41685761  0.47355435
   0.66791298  0.16732928  0.47408140
   0.83333333  0.08333333  0.38179910
   0.58333333  0.83333333  0.38179910
  -0.00251703  0.25145217  0.55898307
   0.66887195  0.66624159  0.47645969
   0.50770701  0.49394252  0.56947004
   0.91540961  0.66973820  0.47348884
   0.08333333  0.83333333  0.38179910
   0.00104324  0.51559444  0.56938821
   0.41472096  0.66874070  0.47180131
   0.41702465  0.41685397  0.47557213
   0.33333333  0.08333333  0.38179910
   0.16906064  0.16564795  0.47307932
   0.25418158  0.00074781  0.56974450
   0.49164728  0.00557051  0.56466235
   0.33333333  0.33333333  0.38179910
   0.16386525  0.41735331  0.47600698
   0.58333333  0.08333333  0.38179910
   0.24116916  0.76311409  0.56563092
   0.24110110  0.51226931  0.56970965
   0.82404897  0.59015466  0.61707642
   0.08795911  0.33043127  0.61460913
   0.08955792  0.03461363  0.61851358
   0.34615207  0.32087143  0.61384026
   0.80134611  0.33351095  0.61629695
   0.33923248  0.59811929  0.62007045
   0.57542430  0.82220524  0.61329067
   0.61801382  0.07880299  0.61513629
   0.33333333  0.83333333  0.38179910
   0.16500046  0.91910286  0.47494584
   0.75116468  0.76164981  0.57232356
   0.25397473  0.24425351  0.56948053
   0.41701517  0.16758810  0.47797836
   0.83333333  0.83333333  0.38179910
   0.58333333  0.33333333  0.38179910
  -0.00230753  0.75837693  0.56492451
   0.51499422  0.24620629  0.57052852
   0.74095684  0.50290838  0.57356777
   0.58333333  0.58333333  0.38179910
   0.74982015  0.24626886  0.56260897
   0.08333333  0.58333333  0.38179910