       N       E                     dE             d eps       ncg     rms          rms(c)
DAV:   1     0.360741546380E+04    0.36074E+04   -0.20959E+05  4056   0.112E+03
DAV:   2     0.529480437307E+02   -0.35545E+04   -0.32937E+04  4812   0.270E+02
DAV:   3    -0.254056059044E+03   -0.30700E+03   -0.28589E+03  4632   0.757E+01
DAV:   4    -0.264934001524E+03   -0.10878E+02   -0.10668E+02  4560   0.149E+01
DAV:   5    -0.265232594081E+03   -0.29859E+00   -0.29789E+00  4548   0.245E+00    0.645E+01
RMM:   6    -0.256337004228E+03    0.88956E+01   -0.18817E+02  4036   0.203E+01    0.649E+01
RMM:   7    -0.277818343078E+03   -0.21481E+02   -0.69006E+01  4038   0.119E+01    0.537E+01
RMM:   8    -0.296442291201E+03   -0.18624E+02   -0.83902E+01  4032   0.117E+01    0.799E+01
RMM:   9    -0.268466311373E+03    0.27976E+02   -0.33329E+01  4032   0.858E+00    0.623E+01
RMM:  10    -0.261586358884E+03    0.68800E+01   -0.37035E+01  4032   0.931E+00    0.491E+01
RMM:  11    -0.257103126575E+03    0.44832E+01   -0.42426E+01  4032   0.943E+00    0.504E+01
RMM:  12    -0.242599352966E+03    0.14504E+02   -0.23563E+01  4034   0.738E+00    0.218E+01
RMM:  13    -0.237377893666E+03    0.52215E+01   -0.60508E+00  4034   0.377E+00    0.189E+01
RMM:  14    -0.234735059426E+03    0.26428E+01   -0.31005E+00  4035   0.267E+00    0.145E+01
RMM:  15    -0.232994551603E+03    0.17405E+01   -0.63387E-01  4035   0.116E+00    0.952E+00
RMM:  16    -0.232786250013E+03    0.20830E+00   -0.30571E-01  4035   0.795E-01    0.867E+00
RMM:  17    -0.232549319129E+03    0.23693E+00   -0.36414E-01  4032   0.905E-01    0.624E+00
RMM:  18    -0.232355041956E+03    0.19428E+00   -0.30896E-01  4037   0.806E-01    0.442E+00
RMM:  19    -0.232227208280E+03    0.12783E+00   -0.18636E-01  4035   0.624E-01    0.298E+00
RMM:  20    -0.232257896013E+03   -0.30688E-01   -0.80118E-02  4036   0.424E-01    0.330E+00
RMM:  21    -0.232222877288E+03    0.35019E-01   -0.26285E-02  4037   0.255E-01    0.233E+00
RMM:  22    -0.232182932221E+03    0.39945E-01   -0.27270E-02  4032   0.229E-01    0.146E+00
RMM:  23    -0.232170229696E+03    0.12703E-01   -0.10885E-02  4033   0.148E-01    0.980E-01
RMM:  24    -0.232167409244E+03    0.28205E-02   -0.65311E-03  4036   0.115E-01    0.758E-01
RMM:  25    -0.232164982300E+03    0.24269E-02   -0.36609E-03  4035   0.889E-02    0.523E-01
RMM:  26    -0.232163353166E+03    0.16291E-02   -0.25067E-03  4037   0.682E-02    0.305E-01
RMM:  27    -0.232163353762E+03   -0.59610E-06   -0.10511E-03  4036   0.469E-02    0.211E-01
RMM:  28    -0.232163325039E+03    0.28723E-04   -0.39907E-04  4036   0.294E-02    0.148E-01
RMM:  29    -0.232163543348E+03   -0.21831E-03   -0.19536E-04  4036   0.207E-02    0.103E-01
RMM:  30    -0.232163813556E+03   -0.27021E-03   -0.14712E-04  4033   0.165E-02    0.605E-02
RMM:  31    -0.232163958301E+03   -0.14474E-03   -0.38011E-05  4020   0.862E-03    0.398E-02
RMM:  32    -0.232164090172E+03   -0.13187E-03   -0.17985E-05  4002   0.572E-03    0.369E-02
RMM:  33    -0.232164365977E+03   -0.27581E-03   -0.20649E-05  4002   0.580E-03    0.382E-02
RMM:  34    -0.232164570005E+03   -0.20403E-03   -0.12454E-05  3713   0.445E-03    0.225E-02
RMM:  35    -0.232164761982E+03   -0.19198E-03   -0.90185E-06  3310   0.383E-03    0.186E-02
RMM:  36    -0.232164891681E+03   -0.12970E-03   -0.58130E-06  3026   0.296E-03    0.132E-02
RMM:  37    -0.232165042213E+03   -0.15053E-03   -0.66355E-06  3128   0.314E-03    0.131E-02
RMM:  38    -0.232165197557E+03   -0.15534E-03   -0.10137E-05  3224   0.352E-03    0.856E-03
RMM:  39    -0.232165254067E+03   -0.56510E-04   -0.37925E-06  2847   0.219E-03    0.739E-03
RMM:  40    -0.232165288117E+03   -0.34050E-04   -0.16894E-06  2513   0.152E-03    0.505E-03
RMM:  41    -0.232165308785E+03   -0.20668E-04   -0.57019E-07  2347   0.973E-04    0.415E-03
RMM:  42    -0.232165328349E+03   -0.19564E-04   -0.40016E-07  2295   0.836E-04    0.373E-03
RMM:  43    -0.232165343547E+03   -0.15199E-04   -0.23005E-07  2109   0.679E-04    0.305E-03
RMM:  44    -0.232165351418E+03   -0.78701E-05   -0.11653E-07  1550   0.516E-04    0.224E-03
RMM:  45    -0.232165359688E+03   -0.82700E-05   -0.13848E-07  2007   0.579E-04    0.151E-03
RMM:  46    -0.232165366070E+03   -0.63821E-05   -0.11932E-07  1560   0.501E-04    0.140E-03
RMM:  47    -0.232165369337E+03   -0.32670E-05   -0.90499E-08  1555   0.449E-04    0.105E-03
RMM:  48    -0.232165371267E+03   -0.19304E-05   -0.83175E-08  1335   0.399E-04    0.319E-04
RMM:  49    -0.232165371483E+03   -0.21563E-06   -0.85029E-09   618   0.279E-04
   1 F= -.23216537E+03 E0= -.23205529E+03  d E =-.232165E+03
       N       E                     dE             d eps       ncg     rms          rms(c)
DAV:   1    -0.232165494668E+03   -0.12340E-03   -0.49328E-02  4188   0.363E-01    0.427E-02
RMM:   2    -0.232165596754E+03   -0.10209E-03   -0.97810E-04  4038   0.549E-02    0.457E-02
RMM:   3    -0.232165614556E+03   -0.17802E-04   -0.63560E-05  4038   0.125E-02    0.620E-02
RMM:   4    -0.232165605022E+03    0.95337E-05   -0.28598E-05  4037   0.770E-03    0.588E-02
RMM:   5    -0.232165578011E+03    0.27011E-04   -0.16446E-05  4020   0.623E-03    0.235E-02
RMM:   6    -0.232165579475E+03   -0.14645E-05   -0.99001E-06  4001   0.488E-03    0.224E-02
RMM:   7    -0.232165575936E+03    0.35393E-05   -0.51786E-06  3370   0.357E-03    0.103E-02
RMM:   8    -0.232165575381E+03    0.55459E-06   -0.12239E-06  2179   0.182E-03
   2 F= -.23216558E+03 E0= -.23205549E+03  d E =-.203899E-03
       N       E                     dE             d eps       ncg     rms          rms(c)
DAV:   1    -0.232165383527E+03    0.19241E-03   -0.22156E-01  4116   0.770E-01    0.910E-02
RMM:   2    -0.232165840630E+03   -0.45710E-03   -0.43895E-03  4038   0.116E-01    0.958E-02
RMM:   3    -0.232165924210E+03   -0.83581E-04   -0.28790E-04  4038   0.267E-02    0.132E-01
RMM:   4    -0.232165885253E+03    0.38957E-04   -0.12964E-04  4043   0.164E-02    0.126E-01
RMM:   5    -0.232165758480E+03    0.12677E-03   -0.74200E-05  4038   0.132E-02    0.493E-02
RMM:   6    -0.232165764204E+03   -0.57236E-05   -0.43896E-05  4035   0.103E-02    0.466E-02
RMM:   7    -0.232165749460E+03    0.14744E-04   -0.23317E-05  4032   0.748E-03    0.221E-02
RMM:   8    -0.232165746607E+03    0.28524E-05   -0.55225E-06  3349   0.359E-03    0.893E-03
RMM:   9    -0.232165746073E+03    0.53440E-06   -0.92579E-07  2162   0.163E-03
   3 F= -.23216575E+03 E0= -.23205564E+03  d E =-.374590E-03
       N       E                     dE             d eps       ncg     rms          rms(c)
DAV:   1    -0.232165828411E+03   -0.81804E-04   -0.17249E-02  4164   0.206E-01    0.176E-02
RMM:   2    -0.232165855019E+03   -0.26608E-04   -0.27416E-04  4037   0.308E-02    0.134E-02
RMM:   3    -0.232165857531E+03   -0.25122E-05   -0.14097E-05  4040   0.614E-03    0.232E-02
RMM:   4    -0.232165855496E+03    0.20344E-05   -0.34163E-06  2785   0.288E-03    0.184E-02
RMM:   5    -0.232165852833E+03    0.26631E-05   -0.19277E-06  2332   0.233E-03    0.863E-03
RMM:   6    -0.232165852620E+03    0.21288E-06   -0.16756E-06  2176   0.220E-03
   4 F= -.23216585E+03 E0= -.23205576E+03  d E =-.106547E-03
       N       E                     dE             d eps       ncg     rms          rms(c)
DAV:   1    -0.232165880147E+03   -0.27314E-04   -0.15540E-01  4152   0.617E-01    0.515E-02
RMM:   2    -0.232166114457E+03   -0.23431E-03   -0.24065E-03  4036   0.916E-02    0.415E-02
RMM:   3    -0.232166143038E+03   -0.28580E-04   -0.12139E-04  4042   0.179E-02    0.745E-02
RMM:   4    -0.232166113282E+03    0.29756E-04   -0.33198E-05  4034   0.859E-03    0.532E-02
RMM:   5    -0.232166092306E+03    0.20975E-04   -0.16614E-05  4031   0.628E-03    0.271E-02
RMM:   6    -0.232166090870E+03    0.14365E-05   -0.16303E-05  4032   0.608E-03    0.212E-02
RMM:   7    -0.232166088498E+03    0.23721E-05   -0.11002E-05  4026   0.504E-03    0.108E-02
RMM:   8    -0.232166087788E+03    0.70944E-06   -0.16473E-06  2268   0.208E-03
   5 F= -.23216609E+03 E0= -.23205600E+03  d E =-.341715E-03
       N       E                     dE             d eps       ncg     rms          rms(c)
DAV:   1    -0.232165332833E+03    0.75566E-03   -0.62144E-01  4032   0.123E+00    0.103E-01
RMM:   2    -0.232166275404E+03   -0.94257E-03   -0.96942E-03  4035   0.184E-01    0.825E-02
RMM:   3    -0.232166306444E+03   -0.31040E-04   -0.46941E-04  4040   0.353E-02    0.118E-01
RMM:   4    -0.232166305938E+03    0.50590E-06   -0.12132E-04  4045   0.164E-02    0.121E-01
RMM:   5    -0.232166188163E+03    0.11778E-03   -0.62549E-05  4038   0.119E-02    0.554E-02
RMM:   6    -0.232166178555E+03    0.96076E-05   -0.64200E-05  4038   0.120E-02    0.378E-02
RMM:   7    -0.232166170085E+03    0.84703E-05   -0.43966E-05  4032   0.100E-02    0.171E-02
RMM:   8    -0.232166169078E+03    0.10068E-05   -0.59084E-06  3392   0.375E-03    0.133E-02
RMM:   9    -0.232166167431E+03    0.16466E-05   -0.10991E-06  2163   0.179E-03    0.625E-03
RMM:  10    -0.232166167176E+03    0.25568E-06   -0.70546E-07  2138   0.138E-03
   6 F= -.23216617E+03 E0= -.23205611E+03  d E =-.421103E-03
       N       E                     dE             d eps       ncg     rms          rms(c)
DAV:   1    -0.232166097293E+03    0.70139E-04   -0.76954E-02  4104   0.434E-01    0.357E-02
RMM:   2    -0.232166213928E+03   -0.11664E-03   -0.11873E-03  4035   0.644E-02    0.320E-02
RMM:   3    -0.232166218637E+03   -0.47088E-05   -0.60935E-05  4040   0.127E-02    0.437E-02
RMM:   4    -0.232166216755E+03    0.18817E-05   -0.15870E-05  4018   0.593E-03    0.436E-02
RMM:   5    -0.232166200985E+03    0.15770E-04   -0.80776E-06  3908   0.433E-03    0.187E-02
RMM:   6    -0.232166200695E+03    0.29025E-06   -0.75590E-06  3986   0.406E-03
   7 F= -.23216620E+03 E0= -.23205615E+03  d E =-.454622E-03
       N       E                     dE             d eps       ncg     rms          rms(c)
DAV:   1    -0.232166267487E+03   -0.66502E-04   -0.89032E-02  4032   0.474E-01    0.456E-02
RMM:   2    -0.232166435667E+03   -0.16818E-03   -0.15459E-03  4038   0.718E-02    0.636E-02
RMM:   3    -0.232166404106E+03    0.31561E-04   -0.88290E-05  4039   0.153E-02    0.346E-02
RMM:   4    -0.232166414481E+03   -0.10376E-04   -0.20577E-05  4043   0.698E-03    0.466E-02
RMM:   5    -0.232166409088E+03    0.53929E-05   -0.15779E-05  4007   0.557E-03    0.476E-02
RMM:   6    -0.232166395380E+03    0.13708E-04   -0.12364E-05  4020   0.524E-03    0.252E-02
RMM:   7    -0.232166393761E+03    0.16196E-05   -0.99380E-06  4012   0.470E-03    0.148E-02
RMM:   8    -0.232166391812E+03    0.19486E-05   -0.26052E-06  2471   0.253E-03    0.415E-03
RMM:   9    -0.232166391730E+03    0.82277E-07   -0.40819E-07  2123   0.109E-03
   8 F= -.23216639E+03 E0= -.23205635E+03  d E =-.191035E-03
       N       E                     dE             d eps       ncg     rms          rms(c)
DAV:   1    -0.232165986557E+03    0.40526E-03   -0.38041E-01  4032   0.980E-01    0.914E-02
RMM:   2    -0.232166626198E+03   -0.63964E-03   -0.64654E-03  4038   0.147E-01    0.940E-02
RMM:   3    -0.232166597561E+03    0.28638E-04   -0.32060E-04  4039   0.291E-02    0.791E-02
RMM:   4    -0.232166742704E+03   -0.14514E-03   -0.12146E-04  4043   0.160E-02    0.153E-01
RMM:   5    -0.232166546471E+03    0.19623E-03   -0.64714E-05  4038   0.119E-02    0.604E-02
RMM:   6    -0.232166540910E+03    0.55609E-05   -0.46959E-05  4038   0.103E-02    0.376E-02
RMM:   7    -0.232166532768E+03    0.81424E-05   -0.32897E-05  4032   0.872E-03    0.142E-02
RMM:   8    -0.232166531633E+03    0.11342E-05   -0.39194E-06  2982   0.316E-03    0.896E-03
RMM:   9    -0.232166531061E+03    0.57257E-06   -0.85539E-07  2175   0.160E-03
   9 F= -.23216653E+03 E0= -.23205654E+03  d E =-.330366E-03
       N       E                     dE             d eps       ncg     rms          rms(c)
DAV:   1    -0.232166511997E+03    0.19637E-04   -0.15681E-01  4032   0.611E-01    0.473E-02
RMM:   2    -0.232166736392E+03   -0.22439E-03   -0.22954E-03  4033   0.905E-02    0.414E-02
RMM:   3    -0.232166728955E+03    0.74367E-05   -0.11031E-04  4041   0.173E-02    0.397E-02
RMM:   4    -0.232166741091E+03   -0.12136E-04   -0.23817E-05  4035   0.761E-03    0.561E-02
RMM:   5    -0.232166716654E+03    0.24436E-04   -0.12362E-05  3983   0.509E-03    0.263E-02
RMM:   6    -0.232166715913E+03    0.74172E-06   -0.13516E-05  4020   0.554E-03    0.222E-02
RMM:   7    -0.232166712499E+03    0.34141E-05   -0.12327E-05  4020   0.529E-03    0.972E-03
RMM:   8    -0.232166712017E+03    0.48162E-06   -0.16213E-06  2250   0.206E-03
  10 F= -.23216671E+03 E0= -.23205674E+03  d E =-.180956E-03
       N       E                     dE             d eps       ncg     rms          rms(c)
DAV:   1    -0.232165927398E+03    0.78510E-03   -0.74033E-01  4032   0.133E+00    0.103E-01
RMM:   2    -0.232166987495E+03   -0.10601E-02   -0.10791E-02  4033   0.196E-01    0.931E-02
RMM:   3    -0.232166976567E+03    0.10929E-04   -0.52642E-04  4041   0.375E-02    0.105E-01
RMM:   4    -0.232167024197E+03   -0.47630E-04   -0.12189E-04  4042   0.166E-02    0.127E-01
RMM:   5    -0.232166881515E+03    0.14268E-03   -0.67238E-05  4037   0.122E-02    0.535E-02
RMM:   6    -0.232166882156E+03   -0.64019E-06   -0.63521E-05  4037   0.117E-02    0.511E-02
RMM:   7    -0.232166867766E+03    0.14389E-04   -0.61814E-05  4032   0.118E-02    0.265E-02
RMM:   8    -0.232166863771E+03    0.39951E-05   -0.10907E-05  4023   0.511E-03    0.148E-02
RMM:   9    -0.232166861977E+03    0.17939E-05   -0.16191E-06  2273   0.210E-03    0.775E-03
RMM:  10    -0.232166861319E+03    0.65861E-06   -0.86570E-07  2147   0.160E-03
  11 F= -.23216686E+03 E0= -.23205695E+03  d E =-.330258E-03
       N       E                     dE             d eps       ncg     rms          rms(c)
DAV:   1    -0.232166847038E+03    0.14940E-04   -0.16939E-01  4032   0.644E-01    0.572E-02
RMM:   2    -0.232167117979E+03   -0.27094E-03   -0.26473E-03  4038   0.959E-02    0.685E-02
RMM:   3    -0.232167094492E+03    0.23488E-04   -0.14542E-04  4040   0.197E-02    0.490E-02
RMM:   4    -0.232167149003E+03   -0.54511E-04   -0.47941E-05  4036   0.102E-02    0.926E-02
RMM:   5    -0.232167077516E+03    0.71487E-04   -0.27535E-05  4034   0.763E-03    0.392E-02
RMM:   6    -0.232167075522E+03    0.19942E-05   -0.18193E-05  4026   0.657E-03    0.287E-02
RMM:   7    -0.232167071664E+03    0.38574E-05   -0.17711E-05  4032   0.637E-03    0.179E-02
RMM:   8    -0.232167069357E+03    0.23073E-05   -0.30870E-06  2583   0.280E-03    0.641E-03
RMM:   9    -0.232167069058E+03    0.29905E-06   -0.68300E-07  2151   0.145E-03
  12 F= -.23216707E+03 E0= -.23205715E+03  d E =-.207739E-03
