 vasp.5.4.1 24Jun15 (build Mar 14 2019 10:18:33) complex                        
  
 executed on INTEL-19.0.2+OPENMPI date 2023.01.24  11:29:51
 running on   36 total cores
 distrk:  each k-point on   36 cores,    1 groups
 distr:  one band on NCORES_PER_BAND=   6 cores,    6 groups


--------------------------------------------------------------------------------------------------------


 INCAR:
 POTCAR:    PAW_PBE Au 04Oct2007                  
 POTCAR:    PAW_PBE O 08Apr2002                   
 POTCAR:    PAW_PBE Pd 04Jan2005                  
 POTCAR:    PAW_PBE Au 04Oct2007                  
  local pseudopotential read in
  partial core-charges read in
  partial kinetic energy density read in
  atomic valenz-charges read in
  non local Contribution for L=           2  read in
    real space projection operators read in
  non local Contribution for L=           2  read in
    real space projection operators read in
  non local Contribution for L=           0  read in
    real space projection operators read in
  non local Contribution for L=           0  read in
    real space projection operators read in
  non local Contribution for L=           1  read in
    real space projection operators read in
  non local Contribution for L=           1  read in
    real space projection operators read in
    PAW grid and wavefunctions read in
 
   number of l-projection  operators is LMAX  =           6
   number of lm-projection operators is LMMAX =          18
 
 POTCAR:    PAW_PBE O 08Apr2002                   
  local pseudopotential read in
  partial core-charges read in
  partial kinetic energy density read in
  kinetic energy density of atom read in
  atomic valenz-charges read in
  non local Contribution for L=           0  read in
    real space projection operators read in
  non local Contribution for L=           0  read in
    real space projection operators read in
  non local Contribution for L=           1  read in
    real space projection operators read in
  non local Contribution for L=           1  read in
    real space projection operators read in
    PAW grid and wavefunctions read in
 
   number of l-projection  operators is LMAX  =           4
   number of lm-projection operators is LMMAX =           8
 
 POTCAR:    PAW_PBE Pd 04Jan2005                  
  local pseudopotential read in
  partial core-charges read in
  partial kinetic energy density read in
  atomic valenz-charges read in
  non local Contribution for L=           2  read in
    real space projection operators read in
  non local Contribution for L=           2  read in
    real space projection operators read in
  non local Contribution for L=           0  read in
    real space projection operators read in
  non local Contribution for L=           0  read in
    real space projection operators read in
  non local Contribution for L=           1  read in
    real space projection operators read in
  non local Contribution for L=           1  read in
    real space projection operators read in
    PAW grid and wavefunctions read in
 
   number of l-projection  operators is LMAX  =           6
   number of lm-projection operators is LMMAX =          18
 
 Optimization of the real space projectors (new method)

 maximal supplied QI-value         = 15.12
 optimisation between [QCUT,QGAM] = [ 10.13, 20.41] = [ 28.73,116.64] Ry 
 Optimized for a Real-space Cutoff    1.51 Angstroem

   l    n(q)    QCUT    max X(q) W(low)/X(q) W(high)/X(q)  e(spline) 
   2      8    10.129    60.898    0.46E-03    0.46E-03    0.14E-06
   2      8    10.129    58.894    0.47E-03    0.47E-03    0.14E-06
   0      9    10.129   109.617    0.16E-03    0.11E-03    0.54E-07
   0      9    10.129    75.026    0.15E-03    0.11E-03    0.52E-07
   1      9    10.129    16.344    0.96E-04    0.15E-03    0.14E-06
   1      9    10.129    10.160    0.81E-04    0.12E-03    0.11E-06
 Optimization of the real space projectors (new method)

 maximal supplied QI-value         = 24.76
 optimisation between [QCUT,QGAM] = [ 10.15, 20.30] = [ 28.85,115.39] Ry 
 Optimized for a Real-space Cutoff    1.38 Angstroem

   l    n(q)    QCUT    max X(q) W(low)/X(q) W(high)/X(q)  e(spline) 
   0      8    10.150    20.381    0.22E-03    0.32E-03    0.29E-06
   0      8    10.150    15.268    0.23E-03    0.35E-03    0.30E-06
   1      8    10.150     5.964    0.46E-03    0.53E-03    0.21E-06
   1      8    10.150     5.382    0.38E-03    0.45E-03    0.19E-06
 Optimization of the real space projectors (new method)

 maximal supplied QI-value         = 14.36
 optimisation between [QCUT,QGAM] = [ 10.20, 20.39] = [ 29.12,116.47] Ry 
 Optimized for a Real-space Cutoff    1.51 Angstroem

   l    n(q)    QCUT    max X(q) W(low)/X(q) W(high)/X(q)  e(spline) 
   2      8    10.197    59.108    0.26E-03    0.14E-03    0.96E-07
   2      8    10.197    58.101    0.27E-03    0.14E-03    0.98E-07
   0      9    10.197   102.235    0.54E-04    0.60E-05    0.72E-07
   0      9    10.197    58.388    0.52E-04    0.60E-05    0.68E-07
   1      9    10.197    22.191    0.18E-03    0.25E-03    0.79E-07
   1      9    10.197    15.590    0.15E-03    0.21E-03    0.69E-07
  PAW_PBE Au 04Oct2007                  :
 energy of atom  1       EATOM= -926.0867
 kinetic energy error for atom=    0.0062 (will be added to EATOM!!)
  PAW_PBE O 08Apr2002                   :
 energy of atom  2       EATOM= -432.3788
 kinetic energy error for atom=    0.1156 (will be added to EATOM!!)
  PAW_PBE Pd 04Jan2005                  :
 energy of atom  3       EATOM= -809.7530
 kinetic energy error for atom=    0.0091 (will be added to EATOM!!)
 
 
 POSCAR: Au  O Pd                                
  positions in direct lattice
  velocities in cartesian coordinates
 exchange correlation table for  LEXCH =        8
   RHO(1)=    0.500       N(1)  =     2000
   RHO(2)=  100.500       N(2)  =     4000

 VTST: version 3.2, (02/03/18)

 CHAIN: initializing optimizer
 
 OPT: Using VASP Conjugate-Gradient optimizer
 CHAIN: Read ICHAIN            0
 
 POSCAR: Au  O Pd                                
  positions in direct lattice
  velocities in cartesian coordinates
 


--------------------------------------------------------------------------------------------------------


 ion  position               nearest neighbor table
   1  0.083  0.083  0.382-   7 2.75  44 2.75  53 2.75  56 2.75  38 2.75   6 2.75  50 2.87  16 2.93
                            21 2.95
   2  0.243  0.490  0.568-  29 2.10  41 2.68  14 2.71  33 2.75  34 2.76  46 2.87  24 2.93  15 2.95
                            20 3.08  13 3.49
   3  0.424  0.661  0.501-  54 2.77  42 2.78  11 2.78  15 2.79  22 2.80  21 2.84  20 2.84  24 2.88
                            43 3.47  23 3.51
   4  0.664  0.166  0.471-  54 2.76  50 2.76  15 2.76  45 2.77  18 2.77  55 2.78  12 2.79  36 2.81
                            39 2.83   6 2.85  51 2.88  41 2.90
   5  0.999  0.989  0.570-  27 2.09  51 2.72  14 2.73  17 2.78  55 2.79  12 2.90  21 2.98  20 3.01
                            50 3.05  49 3.25
   6  0.833  0.083  0.382-  39 2.75  40 2.75  53 2.75  56 2.75   1 2.75  36 2.75   4 2.85  50 2.85
                            12 2.94
   7  0.083  0.333  0.382-   1 2.75  10 2.75  38 2.75  52 2.75  35 2.75  53 2.75  16 2.95  34 2.98
                             8 3.01
   8  0.908  0.418  0.477-  54 2.73  48 2.73  50 2.74  42 2.75  16 2.77  34 2.77  46 2.85  53 2.93
                            52 2.96   7 3.01  22 3.11
   9  0.536  0.705  0.648-  32 1.93  30 1.96  22 2.90  20 2.97  13 3.16  19 3.43
  10  0.083  0.583  0.382-   7 2.75  35 2.75  40 2.75  56 2.75  52 2.75  23 2.75  24 2.94  48 2.95
                            34 2.99
  11  0.417  0.911  0.478-  42 2.69  21 2.72  45 2.74  18 2.78   3 2.78  16 2.83  37 2.84  17 2.93
                            44 2.95  47 2.97  38 3.01
  12  0.916  0.913  0.475-  24 2.75  48 2.76  51 2.77  50 2.78  45 2.78   4 2.79  21 2.79   5 2.90
                            40 2.90  56 2.92   6 2.94  14 2.94
  13  0.551  0.413  0.633-  29 2.03  32 2.05  28 2.05  41 2.72  55 2.85  22 3.00   9 3.16  20 3.48
                             2 3.49
  14  0.001  0.740  0.568-   2 2.71   5 2.73  51 2.79  19 2.81  46 2.84  24 2.88  48 2.91  12 2.94
                            20 3.17
  15  0.415  0.419  0.475-  54 2.70  24 2.71   4 2.76  41 2.78   3 2.79  18 2.80  34 2.81  23 2.90
                            35 2.92  39 2.92   2 2.95
  16  0.160  0.168  0.477-  50 2.72  18 2.76  34 2.76   8 2.77  33 2.79  21 2.79  11 2.83   1 2.93
                             7 2.95  17 2.99  38 2.99
  17  0.249  0.993  0.572-  27 2.27  37 2.67  33 2.69  20 2.69   5 2.78  11 2.93  21 2.96  16 2.99

  18  0.411  0.167  0.475-  16 2.76   4 2.77  45 2.78  34 2.78  11 2.78  15 2.80  33 2.86  38 2.88
                            41 2.89  35 2.91  36 2.94  37 2.94
  19  0.742  0.748  0.560-  30 2.17  48 2.74  46 2.75  51 2.77  37 2.80  14 2.81  22 2.83  45 2.86
                            42 2.87   9 3.43
  20  0.280  0.742  0.596-  29 2.16  17 2.69   3 2.84   9 2.97   5 3.01   2 3.08  14 3.17  13 3.48
                            21 3.56
  21  0.172  0.909  0.475-  24 2.72  11 2.72  12 2.79  16 2.79  50 2.83   3 2.84  44 2.89  56 2.90
                             1 2.95  17 2.96   5 2.98  20 3.56
  22  0.671  0.534  0.559-  25 2.20  54 2.72  42 2.78   3 2.80  55 2.81  19 2.83   9 2.90  13 3.00
                             8 3.11  46 3.24  49 3.30
  23  0.333  0.583  0.382-  35 2.75  39 2.75  44 2.75  56 2.75  10 2.75  43 2.75  15 2.90  24 2.94
                             3 3.51
  24  0.167  0.665  0.476-  15 2.71  21 2.72  34 2.74  12 2.75  48 2.83   3 2.88  14 2.88   2 2.93
                            10 2.94  23 2.94  56 2.96
  25  0.829  0.491  0.618-  49 1.99  46 2.07  22 2.20
  26  0.094  0.320  0.616-  33 1.97  49 1.99  46 2.03
  27  0.066  0.077  0.627-  49 1.99   5 2.09  17 2.27
  28  0.760  0.265  0.633-  55 2.00  49 2.05  13 2.05
  29  0.340  0.539  0.628-  13 2.03   2 2.10  20 2.16
  30  0.586  0.839  0.620-   9 1.96  37 2.04  19 2.17
  31  0.586  0.090  0.607-  51 1.97  41 1.98  37 2.04
  32  0.532  0.557  0.686-   9 1.93  13 2.05
  33  0.248  0.238  0.567-  26 1.97  37 2.62  17 2.69   2 2.75  16 2.79  18 2.86  46 2.87  34 2.87
                            41 2.88
  34  0.160  0.419  0.479-  48 2.73  24 2.74  16 2.76   2 2.76   8 2.77  18 2.78  15 2.81  33 2.87
                            46 2.97   7 2.98  10 2.99  35 3.04
  35  0.333  0.333  0.382-  10 2.75  23 2.75  36 2.75  38 2.75   7 2.75  39 2.75  18 2.91  15 2.92
                            34 3.04
  36  0.583  0.083  0.382-  35 2.75  39 2.75  40 2.75  47 2.75  38 2.75   6 2.75  45 2.80   4 2.81
                            18 2.94
  37  0.488  0.001  0.569-  31 2.04  30 2.04  33 2.62  17 2.67  19 2.80  11 2.84  51 2.86  41 2.91
                            18 2.94  45 3.11
  38  0.333  0.083  0.382-   7 2.75  35 2.75  44 2.75  47 2.75   1 2.75  36 2.75  18 2.88  16 2.99
                            11 3.01
  39  0.583  0.333  0.382-  54 2.74  23 2.75  36 2.75  43 2.75   6 2.75  53 2.75  35 2.75   4 2.83
                            15 2.92
  40  0.833  0.833  0.382-   6 2.75  10 2.75  36 2.75  52 2.75  47 2.75  56 2.75  45 2.81  12 2.90
                            48 2.92
  41  0.497  0.260  0.564-  31 1.98   2 2.68  13 2.72  55 2.76  15 2.78  51 2.85  33 2.88  18 2.89
                             4 2.90  37 2.91
  42  0.661  0.668  0.468-  11 2.69  43 2.73  45 2.73  48 2.74   8 2.75  54 2.75  47 2.75   3 2.78
                            22 2.78  52 2.79  19 2.87
  43  0.583  0.583  0.382-  42 2.73  39 2.75  44 2.75  47 2.75  53 2.75  52 2.75  23 2.75  54 2.76
                             3 3.47
  44  0.333  0.833  0.382-   1 2.75  23 2.75  38 2.75  43 2.75  47 2.75  56 2.75  21 2.89  11 2.95

  45  0.663  0.915  0.469-  48 2.73  42 2.73  11 2.74  47 2.76   4 2.77  18 2.78  12 2.78  36 2.80
                            40 2.81  19 2.86  51 2.90  37 3.11
  46  0.982  0.492  0.572-  26 2.03  25 2.07  19 2.75  14 2.84   8 2.85   2 2.87  33 2.87  49 2.92
                            34 2.97  48 3.04  22 3.24
  47  0.583  0.833  0.382-  42 2.75  38 2.75  36 2.75  43 2.75  52 2.75  44 2.75  40 2.75  45 2.76
                            11 2.97
  48  0.910  0.666  0.475-  34 2.73  45 2.73   8 2.73  19 2.74  42 2.74  12 2.76  24 2.83  52 2.88
                            14 2.91  40 2.92  10 2.95  46 3.04
  49  0.935  0.282  0.623-  27 1.99  26 1.99  25 1.99  28 2.05  55 2.80  46 2.92   5 3.25  22 3.30

  50  0.914  0.166  0.473-  55 2.69  16 2.72   8 2.74   4 2.76  12 2.78  54 2.79  21 2.83   6 2.85
                            53 2.86   1 2.87   5 3.05
  51  0.750  0.996  0.562-  31 1.97   5 2.72  12 2.77  19 2.77  14 2.79  55 2.80  41 2.85  37 2.86
                             4 2.88  45 2.90
  52  0.833  0.583  0.382-   7 2.75  40 2.75  47 2.75  53 2.75  10 2.75  43 2.75  42 2.79  48 2.88
                             8 2.96
  53  0.833  0.333  0.382-   1 2.75   6 2.75  43 2.75  52 2.75   7 2.75  39 2.75  54 2.80  50 2.86
                             8 2.93
  54  0.661  0.418  0.468-  15 2.70  22 2.72   8 2.73  39 2.74  42 2.75   4 2.76  43 2.76   3 2.77
                            50 2.79  53 2.80  55 2.84
  55  0.753  0.248  0.557-  28 2.00  50 2.69  41 2.76   4 2.78   5 2.79  51 2.80  49 2.80  22 2.81
                            54 2.84  13 2.85
  56  0.083  0.833  0.382-   1 2.75   6 2.75  10 2.75  23 2.75  40 2.75  44 2.75  21 2.90  12 2.92
                            24 2.96
 
  LATTYP: Found a hexagonal cell.
 ALAT       =    11.0025815153
 C/A-ratio  =     2.3805127059
  
  Lattice vectors:
  
 A1 = (   5.5012907576,  -9.5285150994,   0.0000000000)
 A2 = ( -11.0025815153,   0.0000000000,   0.0000000000)
 A3 = (   0.0000000000,   0.0000000000, -26.1917850943)


Analysis of symmetry for initial positions (statically):
=====================================================================
 Subroutine PRICEL returns:
 Original cell was already a primitive cell.
 

 Routine SETGRP: Setting up the symmetry group for a 
 hexagonal supercell.


 Subroutine GETGRP returns: Found  1 space group operations
 (whereof  1 operations were pure point group operations)
 out of a pool of 24 trial point group operations.


The static configuration has the point symmetry C_1 .


Analysis of symmetry for dynamics (positions and initial velocities):
=====================================================================
 Subroutine PRICEL returns:
 Original cell was already a primitive cell.
 

 Routine SETGRP: Setting up the symmetry group for a 
 hexagonal supercell.


 Subroutine GETGRP returns: Found  1 space group operations
 (whereof  1 operations were pure point group operations)
 out of a pool of 24 trial point group operations.


The dynamic configuration has the point symmetry C_1 .


Analysis of constrained symmetry for selective dynamics:
=====================================================================
 Subroutine PRICEL returns:
 Original cell was already a primitive cell.
 

 Routine SETGRP: Setting up the symmetry group for a 
 hexagonal supercell.


 Subroutine GETGRP returns: Found  1 space group operations
 (whereof  1 operations were pure point group operations)
 out of a pool of 24 trial point group operations.


The constrained configuration has the point symmetry C_1 .
 
 
 KPOINTS: Automatic mesh                          

Automatic generation of k-mesh.
Space group operators:
 irot       det(A)        alpha          n_x          n_y          n_z        tau_x        tau_y        tau_z
    1     1.000000     0.000000     1.000000     0.000000     0.000000     0.000000     0.000000     0.000000
 
 Subroutine IBZKPT returns following result:
 ===========================================
 
 Found      6 irreducible k-points:
 
 Following reciprocal coordinates:
            Coordinates               Weight
  0.250000  0.250000  0.000000     16.000000
  0.000000  0.250000  0.000000     16.000000
 -0.250000  0.000000  0.000000     16.000000
 -0.250000  0.250000  0.000000     16.000000
  0.500000 -0.250000  0.000000     16.000000
 -0.250000  0.500000  0.000000     16.000000
 
 Following cartesian coordinates:
            Coordinates               Weight
  0.022722  0.013119  0.000000     16.000000
  0.000000  0.026237  0.000000     16.000000
 -0.022722  0.013119  0.000000     16.000000
 -0.022722  0.039356  0.000000     16.000000
  0.045444 -0.052474  0.000000     16.000000
 -0.022722  0.065593  0.000000     16.000000
 


--------------------------------------------------------------------------------------------------------




 Dimension of arrays:
   k-points           NKPTS =      6   k-points in BZ     NKDIM =      6   number of bands    NBANDS=    336
   number of dos      NEDOS =    301   number of ions     NIONS =     56
   non local maximal  LDIM  =      6   non local SUM 2l+1 LMDIM =     18
   total plane-waves  NPLWV = 373248
   max r-space proj   IRMAX =   2004   max aug-charges    IRDMAX=   8511
   dimension x,y,z NGX =    54 NGY =   54 NGZ =  128
   dimension x,y,z NGXF=   108 NGYF=  108 NGZF=  256
   support grid    NGXF=   108 NGYF=  108 NGZF=  256
   ions per type =              24   8  24
 NGX,Y,Z   is equivalent  to a cutoff of   8.16,  8.16,  8.12 a.u.
 NGXF,Y,Z  is equivalent  to a cutoff of  16.32, 16.32, 16.25 a.u.


 I would recommend the setting:
   dimension x,y,z NGX =    54 NGY =   54 NGZ =  128
 SYSTEM =  unknown system                          
 POSCAR =  Au  O Pd                                

 Startparameter for this run:
   NWRITE =      1    write-flag & timer
   PREC   = normal    normal or accurate (medium, high low for compatibility)
   ISTART =      0    job   : 0-new  1-cont  2-samecut
   ICHARG =      2    charge: 1-file 2-atom 10-const
   ISPIN  =      1    spin polarized calculation?
   LNONCOLLINEAR =      F non collinear calculations
   LSORBIT =      F    spin-orbit coupling
   INIWAV =      1    electr: 0-lowe 1-rand  2-diag
   LASPH  =      F    aspherical Exc in radial PAW
   METAGGA=      F    non-selfconsistent MetaGGA calc.

 Electronic Relaxation 1
   ENCUT  =  400.0 eV  29.40 Ry    5.42 a.u.  17.94 17.94 42.71*2*pi/ulx,y,z
   ENINI  =  400.0     initial cutoff
   ENAUG  =  605.4 eV  augmentation charge cutoff
   NELM   =    500;   NELMIN=  2; NELMDL= -5     # of ELM steps 
   EDIFF  = 0.1E-05   stopping-criterion for ELM
   LREAL  =      T    real-space projection
   NLSPLINE    = F    spline interpolate recip. space projectors
   LCOMPAT=      F    compatible to vasp.4.4
   GGA_COMPAT  = T    GGA compatible to vasp.4.4-vasp.4.6
   LMAXPAW     = -100 max onsite density
   LMAXMIX     =    2 max onsite mixed and CHGCAR
   VOSKOWN=      1    Vosko Wilk Nusair interpolation
   ROPT   =   -0.00050  -0.00050  -0.00050
 Ionic relaxation
   EDIFFG = -.2E-01   stopping-criterion for IOM
   NSW    =    500    number of steps for IOM
   NBLOCK =      1;   KBLOCK =    500    inner block; outer block 
   IBRION =      2    ionic relax: 0-MD 1-quasi-New 2-CG
   NFREE  =      2    steps in history (QN), initial steepest desc. (CG)
   ISIF   =      0    stress and relaxation
   IWAVPR =     11    prediction:  0-non 1-charg 2-wave 3-comb
   ISYM   =      2    0-nonsym 1-usesym 2-fastsym
   LCORR  =      T    Harris-Foulkes like correction to forces

   POTIM  = 0.3500    time-step for ionic-motion
   TEIN   =    0.0    initial temperature
   TEBEG  =    0.0;   TEEND  =   0.0 temperature during run
   SMASS  =  -3.00    Nose mass-parameter (am)
   estimated Nose-frequenzy (Omega)   =  0.10E-29 period in steps =****** mass=  -0.277E-26a.u.
   SCALEE = 1.0000    scale energy and forces
   NPACO  =    256;   APACO  = 16.0  distance and # of slots for P.C.
   PSTRESS=    0.0 pullay stress

  Mass of Ions in am
   POMASS = 196.97 16.00106.42
  Ionic Valenz
   ZVAL   =  11.00  6.00 10.00
  Atomic Wigner-Seitz radii
   RWIGS  =  -1.00 -1.00 -1.00
  virtual crystal weights 
   VCA    =   1.00  1.00  1.00
   NELECT =     552.0000    total number of electrons
   NUPDOWN=      -1.0000    fix difference up-down

 DOS related values:
   EMIN   =  10.00;   EMAX   =-10.00  energy-range for DOS
   EFERMI =   0.00
   ISMEAR =     0;   SIGMA  =   0.10  broadening in eV -4-tet -1-fermi 0-gaus

 Electronic relaxation 2 (details)
   IALGO  =     68    algorithm
   LDIAG  =      T    sub-space diagonalisation (order eigenvalues)
   LSUBROT=      F    optimize rotation matrix (better conditioning)
   TURBO    =      0    0=normal 1=particle mesh
   IRESTART =      0    0=no restart 2=restart with 2 vectors
   NREBOOT  =      0    no. of reboots
   NMIN     =      0    reboot dimension
   EREF     =   0.00    reference energy to select bands
   IMIX   =      4    mixing-type and parameters
     AMIX     =   0.40;   BMIX     =  1.00
     AMIX_MAG =   1.60;   BMIX_MAG =  1.00
     AMIN     =   0.10
     WC   =   100.;   INIMIX=   1;  MIXPRE=   1;  MAXMIX= -45

 Intra band minimization:
   WEIMIN = 0.0010     energy-eigenvalue tresh-hold
   EBREAK =  0.74E-09  absolut break condition
   DEPER  =   0.30     relativ break condition  

   TIME   =   0.40     timestep for ELM

  volume/ion in A,a.u.               =      49.03       330.90
  Fermi-wavevector in a.u.,A,eV,Ry     =   0.959017  1.812279 12.513458  0.919713
  Thomas-Fermi vector in A             =   2.088176
 
 Write flags
   LWAVE  =      F    write WAVECAR
   LCHARG =      F    write CHGCAR
   LVTOT  =      F    write LOCPOT, total local potential
   LVHAR  =      F    write LOCPOT, Hartree potential only
   LELF   =      F    write electronic localiz. function (ELF)
   LORBIT =      0    0 simple, 1 ext, 2 COOP (PROOUT)


 Dipole corrections
   LMONO  =      F    monopole corrections only (constant potential shift)
   LDIPOL =      T    correct potential (dipole corrections)
   IDIPOL =      3    1-x, 2-y, 3-z, 4-all directions 
   EPSILON=  1.0000000 bulk dielectric constant

 Exchange correlation treatment:
   GGA     =    PE    GGA type
   LEXCH   =     8    internal setting for exchange type
   VOSKOWN=      1    Vosko Wilk Nusair interpolation
   LHFCALC =     F    Hartree Fock is set to
   LHFONE  =     F    Hartree Fock one center treatment
   AEXX    =    0.0000 exact exchange contribution

 Linear response parameters
   LEPSILON=     F    determine dielectric tensor
   LRPA    =     F    only Hartree local field effects (RPA)
   LNABLA  =     F    use nabla operator in PAW spheres
   LVEL    =     F    velocity operator in full k-point grid
   LINTERFAST=   F  fast interpolation
   KINTER  =     0    interpolate to denser k-point grid
   CSHIFT  =0.1000    complex shift for real part using Kramers Kronig
   OMEGAMAX=  -1.0    maximum frequency
   DEG_THRESHOLD= 0.2000000E-02 threshold for treating states as degnerate
   RTIME   =    0.100 relaxation time in fs

 Orbital magnetization related:
   ORBITALMAG=     F  switch on orbital magnetization
   LCHIMAG   =     F  perturbation theory with respect to B field
   DQ        =  0.001000  dq finite difference perturbation B field



--------------------------------------------------------------------------------------------------------


 conjugate gradient relaxation of ions
   using selective dynamics as specified on POSCAR
 charge density and potential will be updated during run
 non-spin polarized calculation
 RMM-DIIS sequential band-by-band and
  variant of blocked Davidson during initial phase
 perform sub-space diagonalisation
    before iterative eigenvector-optimisation
 modified Broyden-mixing scheme, WC =      100.0
 initial mixing is a Kerker type mixing with AMIX =  0.4000 and BMIX =      1.0000
 Hartree-type preconditioning will be used
 using additional bands           60
 real space projection scheme for non local part
 use partial core corrections
 calculate Harris-corrections to forces 
   (improved forces if not selfconsistent)
 use gradient corrections 
 use of overlap-Matrix (Vanderbilt PP)
 Gauss-broadening in eV      SIGMA  =   0.10


--------------------------------------------------------------------------------------------------------


  energy-cutoff  :      400.00
  volume of cell :     2745.90
      direct lattice vectors                 reciprocal lattice vectors
    11.002581515  0.000000000  0.000000000     0.090887761 -0.052474073  0.000000000
     5.501290758  9.528515099  0.000000000     0.000000000  0.104948147  0.000000000
     0.000000000  0.000000000 26.191785094     0.000000000  0.000000000  0.038179910

  length of vectors
    11.002581515 11.002581515 26.191785094     0.104948147  0.104948147  0.038179910


 
 k-points in units of 2pi/SCALE and weight: Automatic mesh                          
   0.02272194  0.01311852  0.00000000       0.167
   0.00000000  0.02623704  0.00000000       0.167
  -0.02272194  0.01311852  0.00000000       0.167
  -0.02272194  0.03935555  0.00000000       0.167
   0.04544388 -0.05247407  0.00000000       0.167
  -0.02272194  0.06559259  0.00000000       0.167
 
 k-points in reciprocal lattice and weights: Automatic mesh                          
   0.25000000  0.25000000  0.00000000       0.167
   0.00000000  0.25000000  0.00000000       0.167
  -0.25000000  0.00000000  0.00000000       0.167
  -0.25000000  0.25000000  0.00000000       0.167
   0.50000000 -0.25000000  0.00000000       0.167
  -0.25000000  0.50000000  0.00000000       0.167
 
 position of ions in fractional coordinates (direct lattice) 
   0.08333333  0.08333333  0.38179910
   0.24320013  0.49001714  0.56830123
   0.42425322  0.66075313  0.50095549
   0.66370262  0.16631863  0.47134515
   0.99892346  0.98949517  0.56984850
   0.83333333  0.08333333  0.38179910
   0.08333333  0.33333333  0.38179910
   0.90790827  0.41843606  0.47746907
   0.53582691  0.70530669  0.64830687
   0.08333333  0.58333333  0.38179910
   0.41739902  0.91123928  0.47797150
   0.91641895  0.91307297  0.47542017
   0.55100299  0.41295825  0.63274957
   0.00089096  0.73999212  0.56843554
   0.41525241  0.41911387  0.47502885
   0.16041336  0.16785369  0.47699571
   0.24938919  0.99314950  0.57170644
   0.41149484  0.16684338  0.47490648
   0.74248449  0.74758764  0.55999293
   0.28032652  0.74171579  0.59600065
   0.17150224  0.90922445  0.47502231
   0.67059739  0.53409917  0.55895159
   0.33333333  0.58333333  0.38179910
   0.16728050  0.66450233  0.47649168
   0.82904150  0.49130158  0.61795656
   0.09423827  0.31994748  0.61647223
   0.06577987  0.07654547  0.62657361
   0.76031878  0.26490484  0.63302553
   0.33957341  0.53867683  0.62800639
   0.58626247  0.83932078  0.62008602
   0.58553175  0.08982803  0.60744148
   0.53205436  0.55730873  0.68629477
   0.24820938  0.23757915  0.56650704
   0.15953153  0.41929589  0.47903181
   0.33333333  0.33333333  0.38179910
   0.58333333  0.08333333  0.38179910
   0.48790191  0.00071695  0.56946225
   0.33333333  0.08333333  0.38179910
   0.58333333  0.33333333  0.38179910
   0.83333333  0.83333333  0.38179910
   0.49742701  0.26027734  0.56389688
   0.66060220  0.66792612  0.46767379
   0.58333333  0.58333333  0.38179910
   0.33333333  0.83333333  0.38179910
   0.66344148  0.91503273  0.46931020
   0.98208010  0.49174627  0.57206035
   0.58333333  0.83333333  0.38179910
   0.90989438  0.66567679  0.47510241
   0.93533877  0.28243628  0.62262651
   0.91448995  0.16628085  0.47274161
   0.74966136  0.99560688  0.56190179
   0.83333333  0.58333333  0.38179910
   0.83333333  0.33333333  0.38179910
   0.66061179  0.41838610  0.46835917
   0.75344613  0.24765678  0.55722941
   0.08333333  0.83333333  0.38179910
 
 position of ions in cartesian coordinates  (Angst):
   1.37532269  0.79404292 10.00000000
   5.37155601  4.66913574 14.88482378
   8.30287575  6.29599616 13.12091849
   8.21740935  1.58476954 12.34537089
  16.43423735  9.42841962 14.92534952
   9.62725883  0.79404292 10.00000000
   2.75064538  3.17617170 10.00000000
  12.29127311  3.98707429 12.50576726
   9.77557647  6.72052543 16.98031413
   4.12596807  5.55830047 10.00000000
   9.60545897  8.68275720 12.51892675
  15.10605409  8.70022954 12.45210298
   8.33425872  3.93487895 16.57284074
   4.08071464  7.05102604 14.88834160
   6.87451576  3.99353282 12.44185362
   2.68837309  1.59939645 12.49336901
   8.20752912  9.46324005 14.97401233
   5.44535944  1.58976966 12.43864855
  12.28194307  7.12340008 14.66721455
   7.16470954  7.06745006 15.61032090
   6.88887545  8.66355894 12.44168224
  10.31653725  5.08917202 14.63993997
   6.87661345  5.55830047 10.00000000
   5.49613789  6.33172044 12.48016775
  11.82438955  4.68137449 16.18538543
   2.79698841  3.04862440 16.14650813
   1.14484726  0.72936465 16.41108135
   9.82278794  2.52414978 16.58006859
   6.69960200  5.13279031 16.44860840
  11.06774825  7.99748073 16.24115966
   6.93653094  0.85592771 15.90997662
   8.91988885  5.31032465 17.97528522
   4.03793594  2.26377649 14.83783061
   4.06192719  3.99526717 12.54669825
   5.50129076  3.17617170 10.00000000
   6.87661345  0.79404292 10.00000000
   5.37212469  0.00683150 14.91523285
   4.12596807  0.79404292 10.00000000
   8.25193614  3.17617170 10.00000000
  13.75322689  7.94042925 10.00000000
   6.90484252  2.48005657 14.76946588
  10.94278538  6.36434409 12.24921135
   9.62725883  5.55830047 10.00000000
   8.25193614  7.94042925 10.00000000
  12.33343008  8.71890315 12.29207178
  13.51065553  4.68561176 14.98328169
  11.00258152  7.94042925 10.00000000
  13.67326864  6.34291130 12.44378035
  11.84490516  2.69119840 16.30769984
  10.97650949  1.58440963 12.38194677
  13.72533317  9.48665520 14.71721085
  12.37790420  5.55830047 10.00000000
  11.00258152  3.17617170 10.00000000
   9.57009866  3.98659824 12.26716264
   9.65228436  2.35980134 14.59483287
   5.50129076  7.94042925 10.00000000
 


--------------------------------------------------------------------------------------------------------


 k-point  1 :   0.2500 0.2500 0.0000  plane waves:   49913
 k-point  2 :   0.0000 0.2500 0.0000  plane waves:   49913
 k-point  3 :  -0.2500 0.0000 0.0000  plane waves:   49913
 k-point  4 :  -0.2500 0.2500 0.0000  plane waves:   49888
 k-point  5 :   0.5000-0.2500 0.0000  plane waves:   49888
 k-point  6 :  -0.2500 0.5000 0.0000  plane waves:   49888

 maximum and minimum number of plane-waves per node :      8356     8289

 maximum number of plane-waves:     49913
 maximum index in each direction: 
   IXMAX=   18   IYMAX=   18   IZMAX=   42
   IXMIN=  -18   IYMIN=  -18   IZMIN=  -42

 WARNING: aliasing errors must be expected set NGX to  74 to avoid them
 WARNING: aliasing errors must be expected set NGY to  74 to avoid them
 WARNING: aliasing errors must be expected set NGZ to 170 to avoid them
 aliasing errors are usually negligible using standard VASP settings
 and one can safely disregard these warnings

 real space projection operators:
  total allocation   :      13535.64 KBytes
  max/ min on nodes  :       2271.56       2239.20


 parallel 3D FFT for wavefunctions:
    minimum data exchange during FFTs selected (reduces bandwidth)
 parallel 3D FFT for charge:
    minimum data exchange during FFTs selected (reduces bandwidth)


 total amount of memory used by VASP on root node    93023. kBytes
========================================================================

   base      :      30000. kBytes
   nonlr-proj:       4680. kBytes
   fftplans  :       4744. kBytes
   grid      :       7835. kBytes
   one-center:        155. kBytes
   wavefun   :      45609. kBytes
 
     INWAV:  cpu time    0.0000: real time    0.0000
 Broyden mixing: mesh for mixing (old mesh)
   NGX = 35   NGY = 35   NGZ = 85
  (NGX  =108   NGY  =108   NGZ  =256)
  gives a total of 104125 points

 initial charge density was supplied:
 charge density of overlapping atoms calculated
 number of electron     552.0000000 magnetization 
 keeping initial charge density in first step


--------------------------------------------------------------------------------------------------------


 Maximum index for non-local projection operator          347
 Maximum index for augmentation-charges          443 (set IRDMAX)


--------------------------------------------------------------------------------------------------------


 First call to EWALD:  gamma=   0.127
 Maximum number of real-space cells 4x 4x 2
 Maximum number of reciprocal cells 2x 2x 5

 FEWALD executed in parallel
    FEWALD:  cpu time    0.0027: real time    0.0030


----------------------------------------- Iteration    1(   1)  ---------------------------------------


    POTLOK:  cpu time    0.0606: real time    0.0607
    SETDIJ:  cpu time    0.0073: real time    0.0073
     EDDAV:  cpu time   11.3919: real time   11.4719
       DOS:  cpu time    0.0015: real time    0.0015
    --------------------------------------------
      LOOP:  cpu time   11.4654: real time   11.5483

 eigenvalue-minimisations  :  4056
 total energy-change (2. order) : 0.3607415E+04  (-0.2095867E+05)
 number of electron     552.0000000 magnetization 
 augmentation part      552.0000000 magnetization 

 DIPCOR: dipole corrections for dipol
 direction  3 min pos     1,
 dipolmoment           0.000000      0.000000      0.000091 electrons x Angstroem
 Tr[quadrupol]    -11343.896155

 energy correction for charged system         0.000000 eV
 dipol+quadrupol energy correction           -0.000000 eV
 added-field ion interaction          0.000583 eV  (added to PSCEN)


 Free energy of the ion-electron system (eV)
  ---------------------------------------------------
  alpha Z        PSCENC =       862.57706419
  Ewald energy   TEWEN  =    228999.69218152
  -Hartree energ DENC   =   -274644.23512466
  -exchange      EXHF   =         0.00000000
  -V(xc)+E(xc)   XCENC  =      -118.91407906
  PAW double counting   =     43112.45544455   -41079.41300390
  entropy T*S    EENTRO =        -0.15220618
  eigenvalues    EBANDS =      1357.51374674
  atomic energy  EATOM  =     45117.89144060
  Solvation  Ediel_sol  =         0.00000000
  ---------------------------------------------------
  free energy    TOTEN  =      3607.41546380 eV

  energy without entropy =     3607.56766998  energy(sigma->0) =     3607.49156689


--------------------------------------------------------------------------------------------------------




----------------------------------------- Iteration    1(   2)  ---------------------------------------


     EDDAV:  cpu time   13.5227: real time   14.1879
       DOS:  cpu time    0.0014: real time    0.0014
    --------------------------------------------
      LOOP:  cpu time   13.5247: real time   14.1913

 eigenvalue-minimisations  :  4812
 total energy-change (2. order) :-0.3554467E+04  (-0.3293667E+04)
 number of electron     552.0000000 magnetization 
 augmentation part      552.0000000 magnetization 

 DIPCOR: dipole corrections for dipol
 direction  3 min pos     1,
 dipolmoment           0.000000      0.000000      0.000091 electrons x Angstroem
 Tr[quadrupol]    -11343.896155

 energy correction for charged system         0.000000 eV
 dipol+quadrupol energy correction           -0.000000 eV
 added-field ion interaction          0.000583 eV  (added to PSCEN)


 Free energy of the ion-electron system (eV)
  ---------------------------------------------------
  alpha Z        PSCENC =       862.57706419
  Ewald energy   TEWEN  =    228999.69218152
  -Hartree energ DENC   =   -274644.23512466
  -exchange      EXHF   =         0.00000000
  -V(xc)+E(xc)   XCENC  =      -118.91407906
  PAW double counting   =     43112.45544455   -41079.41300390
  entropy T*S    EENTRO =        -0.14398338
  eigenvalues    EBANDS =     -2196.96189613
  atomic energy  EATOM  =     45117.89144060
  Solvation  Ediel_sol  =         0.00000000
  ---------------------------------------------------
  free energy    TOTEN  =        52.94804373 eV

  energy without entropy =       53.09202711  energy(sigma->0) =       53.02003542


--------------------------------------------------------------------------------------------------------




----------------------------------------- Iteration    1(   3)  ---------------------------------------


     EDDAV:  cpu time   13.4422: real time   13.4529
       DOS:  cpu time    0.0014: real time    0.0014
    --------------------------------------------
      LOOP:  cpu time   13.4442: real time   13.4586

 eigenvalue-minimisations  :  4632
 total energy-change (2. order) :-0.3070041E+03  (-0.2858948E+03)
 number of electron     552.0000000 magnetization 
 augmentation part      552.0000000 magnetization 

 DIPCOR: dipole corrections for dipol
 direction  3 min pos     1,
 dipolmoment           0.000000      0.000000      0.000091 electrons x Angstroem
 Tr[quadrupol]    -11343.896155

 energy correction for charged system         0.000000 eV
 dipol+quadrupol energy correction           -0.000000 eV
 added-field ion interaction          0.000583 eV  (added to PSCEN)


 Free energy of the ion-electron system (eV)
  ---------------------------------------------------
  alpha Z        PSCENC =       862.57706419
  Ewald energy   TEWEN  =    228999.69218152
  -Hartree energ DENC   =   -274644.23512466
  -exchange      EXHF   =         0.00000000
  -V(xc)+E(xc)   XCENC  =      -118.91407906
  PAW double counting   =     43112.45544455   -41079.41300390
  entropy T*S    EENTRO =        -0.26509622
  eigenvalues    EBANDS =     -2503.84488607
  atomic energy  EATOM  =     45117.89144060
  Solvation  Ediel_sol  =         0.00000000
  ---------------------------------------------------
  free energy    TOTEN  =      -254.05605904 eV

  energy without entropy =     -253.79096283  energy(sigma->0) =     -253.92351094


--------------------------------------------------------------------------------------------------------




----------------------------------------- Iteration    1(   4)  ---------------------------------------


     EDDAV:  cpu time   13.2760: real time   13.3507
       DOS:  cpu time    0.0014: real time    0.0014
    --------------------------------------------
      LOOP:  cpu time   13.2780: real time   13.3543

 eigenvalue-minimisations  :  4560
 total energy-change (2. order) :-0.1087794E+02  (-0.1066772E+02)
 number of electron     552.0000000 magnetization 
 augmentation part      552.0000000 magnetization 

 DIPCOR: dipole corrections for dipol
 direction  3 min pos     1,
 dipolmoment           0.000000      0.000000      0.000091 electrons x Angstroem
 Tr[quadrupol]    -11343.896155

 energy correction for charged system         0.000000 eV
 dipol+quadrupol energy correction           -0.000000 eV
 added-field ion interaction          0.000583 eV  (added to PSCEN)


 Free energy of the ion-electron system (eV)
  ---------------------------------------------------
  alpha Z        PSCENC =       862.57706419
  Ewald energy   TEWEN  =    228999.69218152
  -Hartree energ DENC   =   -274644.23512466
  -exchange      EXHF   =         0.00000000
  -V(xc)+E(xc)   XCENC  =      -118.91407906
  PAW double counting   =     43112.45544455   -41079.41300390
  entropy T*S    EENTRO =        -0.28081875
  eigenvalues    EBANDS =     -2514.70710601
  atomic energy  EATOM  =     45117.89144060
  Solvation  Ediel_sol  =         0.00000000
  ---------------------------------------------------
  free energy    TOTEN  =      -264.93400152 eV

  energy without entropy =     -264.65318277  energy(sigma->0) =     -264.79359215


--------------------------------------------------------------------------------------------------------




----------------------------------------- Iteration    1(   5)  ---------------------------------------


     EDDAV:  cpu time   13.2381: real time   13.2472
       DOS:  cpu time    0.0016: real time    0.0016
    CHARGE:  cpu time    0.3455: real time    0.3455
    MIXING:  cpu time    0.0026: real time    0.0027
    --------------------------------------------
      LOOP:  cpu time   13.5884: real time   13.6007

 eigenvalue-minimisations  :  4548
 total energy-change (2. order) :-0.2985926E+00  (-0.2978934E+00)
 number of electron     551.9999583 magnetization 
 augmentation part      194.6227757 magnetization 

 DIPCOR: dipole corrections for dipol
 direction  3 min pos     1,
 dipolmoment           0.000000      0.000000      0.000091 electrons x Angstroem
 Tr[quadrupol]    -11343.896155

 energy correction for charged system         0.000000 eV
 dipol+quadrupol energy correction           -0.000000 eV
 added-field ion interaction          0.000583 eV  (added to PSCEN)


 Broyden mixing:
  rms(total) = 0.64475E+01    rms(broyden)= 0.64465E+01
  rms(prec ) = 0.66320E+01
  weight for this iteration     100.00

 Free energy of the ion-electron system (eV)
  ---------------------------------------------------
  alpha Z        PSCENC =       862.57706419
  Ewald energy   TEWEN  =    228999.69218152
  -Hartree energ DENC   =   -274644.23512466
  -exchange      EXHF   =         0.00000000
  -V(xc)+E(xc)   XCENC  =      -118.91407906
  PAW double counting   =     43112.45544455   -41079.41300390
  entropy T*S    EENTRO =        -0.28170694
  eigenvalues    EBANDS =     -2515.00481038
  atomic energy  EATOM  =     45117.89144060
  Solvation  Ediel_sol  =         0.00000000
  ---------------------------------------------------
  free energy    TOTEN  =      -265.23259408 eV

  energy without entropy =     -264.95088714  energy(sigma->0) =     -265.09174061


--------------------------------------------------------------------------------------------------------




----------------------------------------- Iteration    1(   6)  ---------------------------------------


    POTLOK:  cpu time    0.0552: real time    0.0554
    SETDIJ:  cpu time    0.0067: real time    0.0068
    EDDIAG:  cpu time    2.0715: real time    2.0733
  RMM-DIIS:  cpu time    5.3285: real time    5.4892
    ORTHCH:  cpu time    0.4592: real time    0.7086
       DOS:  cpu time    0.0014: real time    0.0032
    CHARGE:  cpu time    0.3557: real time    0.5492
    MIXING:  cpu time    0.0029: real time    0.0046
    --------------------------------------------
      LOOP:  cpu time    8.2817: real time    8.8934

 eigenvalue-minimisations  :  4036
 total energy-change (2. order) : 0.8895590E+01  (-0.1881695E+02)
 number of electron     551.9999678 magnetization 
 augmentation part      196.8373119 magnetization 

 DIPCOR: dipole corrections for dipol
 direction  3 min pos     1,
 dipolmoment           0.000000      0.000000     -0.472487 electrons x Angstroem
 Tr[quadrupol]    -11338.137970

 energy correction for charged system         0.000000 eV
 dipol+quadrupol energy correction           -0.007356 eV
 added-field ion interaction         -3.028925 eV  (added to PSCEN)


 Broyden mixing:
  rms(total) = 0.64926E+01    rms(broyden)= 0.64920E+01
  rms(prec ) = 0.70206E+01
  weight for this iteration     100.00

 eigenvalues of (default mixing * dielectric matrix)
  average eigenvalue GAMMA=   0.5015
  0.5015

 Free energy of the ion-electron system (eV)
  ---------------------------------------------------
  alpha Z        PSCENC =       859.54020060
  Ewald energy   TEWEN  =    228999.69218152
  -Hartree energ DENC   =   -274217.53467443
  -exchange      EXHF   =         0.00000000
  -V(xc)+E(xc)   XCENC  =      -124.62203184
  PAW double counting   =     46311.75083148   -44339.51138307
  entropy T*S    EENTRO =        -0.31872942
  eigenvalues    EBANDS =     -2863.22483967
  atomic energy  EATOM  =     45117.89144060
  Solvation  Ediel_sol  =         0.00000000
  ---------------------------------------------------
  free energy    TOTEN  =      -256.33700423 eV

  energy without entropy =     -256.01827480  energy(sigma->0) =     -256.17763952


--------------------------------------------------------------------------------------------------------




----------------------------------------- Iteration    1(   7)  ---------------------------------------


    POTLOK:  cpu time    0.0505: real time    0.0735
    SETDIJ:  cpu time    0.0061: real time    0.0085
    EDDIAG:  cpu time    2.0010: real time    2.2114
  RMM-DIIS:  cpu time    5.4514: real time    5.4652
    ORTHCH:  cpu time    0.5483: real time    0.5493
       DOS:  cpu time    0.0016: real time    0.0016
    CHARGE:  cpu time    0.3487: real time    0.3489
    MIXING:  cpu time    0.0024: real time    0.0024
    --------------------------------------------
      LOOP:  cpu time    8.4108: real time    8.6643

 eigenvalue-minimisations  :  4038
 total energy-change (2. order) :-0.2148134E+02  (-0.6900584E+01)
 number of electron     551.9999575 magnetization 
 augmentation part      199.7338614 magnetization 

 DIPCOR: dipole corrections for dipol
 direction  3 min pos     1,
 dipolmoment           0.000000      0.000000      2.199767 electrons x Angstroem
 Tr[quadrupol]    -11343.045436

 energy correction for charged system         0.000000 eV
 dipol+quadrupol energy correction           -0.159442 eV
 added-field ion interaction         14.101808 eV  (added to PSCEN)


 Broyden mixing:
  rms(total) = 0.53709E+01    rms(broyden)= 0.53693E+01
  rms(prec ) = 0.66981E+01
  weight for this iteration     100.00

 eigenvalues of (default mixing * dielectric matrix)
  average eigenvalue GAMMA=   0.5306
  0.6802  0.3809

 Free energy of the ion-electron system (eV)
  ---------------------------------------------------
  alpha Z        PSCENC =       876.51884770
  Ewald energy   TEWEN  =    228999.69218152
  -Hartree energ DENC   =   -274252.30849917
  -exchange      EXHF   =         0.00000000
  -V(xc)+E(xc)   XCENC  =      -127.77312887
  PAW double counting   =     47337.46254565   -45382.07394851
  entropy T*S    EENTRO =        -0.16218713
  eigenvalues    EBANDS =     -2847.06559487
  atomic energy  EATOM  =     45117.89144060
  Solvation  Ediel_sol  =         0.00000000
  ---------------------------------------------------
  free energy    TOTEN  =      -277.81834308 eV

  energy without entropy =     -277.65615595  energy(sigma->0) =     -277.73724951


--------------------------------------------------------------------------------------------------------




----------------------------------------- Iteration    1(   8)  ---------------------------------------


    POTLOK:  cpu time    0.0550: real time    0.0552
    SETDIJ:  cpu time    0.0072: real time    0.0072
    EDDIAG:  cpu time    2.0501: real time    2.0622
  RMM-DIIS:  cpu time    5.1817: real time    5.2446
    ORTHCH:  cpu time    0.5394: real time    0.5396
       DOS:  cpu time    0.0016: real time    0.0016
    CHARGE:  cpu time    0.3569: real time    0.3569
    MIXING:  cpu time    0.0025: real time    0.0025
    --------------------------------------------
      LOOP:  cpu time    8.1951: real time    8.2736

 eigenvalue-minimisations  :  4032
 total energy-change (2. order) :-0.1862395E+02  (-0.8390174E+01)
 number of electron     551.9999682 magnetization 
 augmentation part      198.1334717 magnetization 

 DIPCOR: dipole corrections for dipol
 direction  3 min pos     1,
 dipolmoment           0.000000      0.000000     -2.484916 electrons x Angstroem
 Tr[quadrupol]    -11343.436709

 energy correction for charged system         0.000000 eV
 dipol+quadrupol energy correction           -0.203457 eV
 added-field ion interaction        -15.929788 eV  (added to PSCEN)


 Broyden mixing:
  rms(total) = 0.79918E+01    rms(broyden)= 0.79902E+01
  rms(prec ) = 0.94738E+01
  weight for this iteration     100.00

 eigenvalues of (default mixing * dielectric matrix)
  average eigenvalue GAMMA=   0.5187
  0.9806  0.4542  0.1212

 Free energy of the ion-electron system (eV)
  ---------------------------------------------------
  alpha Z        PSCENC =       846.44323645
  Ewald energy   TEWEN  =    228999.69218152
  -Hartree energ DENC   =   -274233.42963388
  -exchange      EXHF   =         0.00000000
  -V(xc)+E(xc)   XCENC  =      -132.82319931
  PAW double counting   =     48224.22037370   -46282.06495681
  entropy T*S    EENTRO =        -0.31436695
  eigenvalues    EBANDS =     -2836.05736653
  atomic energy  EATOM  =     45117.89144060
  Solvation  Ediel_sol  =         0.00000000
  ---------------------------------------------------
  free energy    TOTEN  =      -296.44229120 eV

  energy without entropy =     -296.12792425  energy(sigma->0) =     -296.28510773


--------------------------------------------------------------------------------------------------------




----------------------------------------- Iteration    1(   9)  ---------------------------------------


    POTLOK:  cpu time    0.0545: real time    0.0545
    SETDIJ:  cpu time    0.0071: real time    0.0071
    EDDIAG:  cpu time    2.0479: real time    2.0489
  RMM-DIIS:  cpu time    5.3522: real time    5.3549
    ORTHCH:  cpu time    0.5380: real time    0.5381
       DOS:  cpu time    0.0016: real time    0.0016
    CHARGE:  cpu time    0.3534: real time    0.3537
    MIXING:  cpu time    0.0025: real time    0.0025
    --------------------------------------------
      LOOP:  cpu time    8.3581: real time    8.3652

 eigenvalue-minimisations  :  4032
 total energy-change (2. order) : 0.2797598E+02  (-0.3332893E+01)
 number of electron     551.9999622 magnetization 
 augmentation part      200.5610524 magnetization 

 DIPCOR: dipole corrections for dipol
 direction  3 min pos     1,
 dipolmoment           0.000000      0.000000     -1.310788 electrons x Angstroem
 Tr[quadrupol]    -11345.211611

 energy correction for charged system         0.000000 eV
 dipol+quadrupol energy correction           -0.056613 eV
 added-field ion interaction         -8.402929 eV  (added to PSCEN)


 Broyden mixing:
  rms(total) = 0.62341E+01    rms(broyden)= 0.62339E+01
  rms(prec ) = 0.72253E+01
  weight for this iteration     100.00

 eigenvalues of (default mixing * dielectric matrix)
  average eigenvalue GAMMA=   0.6239
  1.6091  0.5182  0.1842  0.1842

 Free energy of the ion-electron system (eV)
  ---------------------------------------------------
  alpha Z        PSCENC =       854.11693971
  Ewald energy   TEWEN  =    228999.69218152
  -Hartree energ DENC   =   -274239.48634443
  -exchange      EXHF   =         0.00000000
  -V(xc)+E(xc)   XCENC  =      -133.78112993
  PAW double counting   =     49010.82584269   -47081.68027164
  entropy T*S    EENTRO =        -0.20716610
  eigenvalues    EBANDS =     -2795.83780381
  atomic energy  EATOM  =     45117.89144060
  Solvation  Ediel_sol  =         0.00000000
  ---------------------------------------------------
  free energy    TOTEN  =      -268.46631137 eV

  energy without entropy =     -268.25914527  energy(sigma->0) =     -268.36272832


--------------------------------------------------------------------------------------------------------




----------------------------------------- Iteration    1(  10)  ---------------------------------------


    POTLOK:  cpu time    0.0550: real time    0.0552
    SETDIJ:  cpu time    0.0065: real time    0.0065
    EDDIAG:  cpu time    2.0712: real time    2.0726
  RMM-DIIS:  cpu time    5.4716: real time    5.4744
    ORTHCH:  cpu time    0.5384: real time    0.5387
       DOS:  cpu time    0.0016: real time    0.0016
    CHARGE:  cpu time    0.3544: real time    0.3544
    MIXING:  cpu time    0.0026: real time    0.0026
    --------------------------------------------
      LOOP:  cpu time    8.5022: real time    8.5099

 eigenvalue-minimisations  :  4032
 total energy-change (2. order) : 0.6879952E+01  (-0.3703546E+01)
 number of electron     551.9999639 magnetization 
 augmentation part      201.8795123 magnetization 

 DIPCOR: dipole corrections for dipol
 direction  3 min pos     1,
 dipolmoment           0.000000      0.000000     -1.128568 electrons x Angstroem
 Tr[quadrupol]    -11343.213978

 energy correction for charged system         0.000000 eV
 dipol+quadrupol energy correction           -0.041967 eV
 added-field ion interaction         -7.234790 eV  (added to PSCEN)


 Broyden mixing:
  rms(total) = 0.49061E+01    rms(broyden)= 0.49057E+01
  rms(prec ) = 0.59992E+01
  weight for this iteration     100.00

 eigenvalues of (default mixing * dielectric matrix)
  average eigenvalue GAMMA=   0.6474
  2.0199  0.4179  0.4179  0.2207  0.1605

 Free energy of the ion-electron system (eV)
  ---------------------------------------------------
  alpha Z        PSCENC =       855.29972429
  Ewald energy   TEWEN  =    228999.69218152
  -Hartree energ DENC   =   -274156.17933326
  -exchange      EXHF   =         0.00000000
  -V(xc)+E(xc)   XCENC  =      -133.92174381
  PAW double counting   =     50338.77085913   -48427.93453781
  entropy T*S    EENTRO =        -0.20717919
  eigenvalues    EBANDS =     -2854.99777036
  atomic energy  EATOM  =     45117.89144060
  Solvation  Ediel_sol  =         0.00000000
  ---------------------------------------------------
  free energy    TOTEN  =      -261.58635888 eV

  energy without entropy =     -261.37917969  energy(sigma->0) =     -261.48276929


--------------------------------------------------------------------------------------------------------




----------------------------------------- Iteration    1(  11)  ---------------------------------------


    POTLOK:  cpu time    0.0545: real time    0.0546
    SETDIJ:  cpu time    0.0065: real time    0.0065
    EDDIAG:  cpu time    2.0701: real time    2.0815
  RMM-DIIS:  cpu time    5.3744: real time    5.3767
    ORTHCH:  cpu time    0.5390: real time    0.5394
       DOS:  cpu time    0.0017: real time    0.0017
    CHARGE:  cpu time    0.3464: real time    0.3466
    MIXING:  cpu time    0.0028: real time    0.0028
    --------------------------------------------
      LOOP:  cpu time    8.3963: real time    8.4119

 eigenvalue-minimisations  :  4032
 total energy-change (2. order) : 0.4483232E+01  (-0.4242563E+01)
 number of electron     551.9999597 magnetization 
 augmentation part      201.8259798 magnetization 

 DIPCOR: dipole corrections for dipol
 direction  3 min pos     1,
 dipolmoment           0.000000      0.000000     -0.194962 electrons x Angstroem
 Tr[quadrupol]    -11344.165925

 energy correction for charged system         0.000000 eV
 dipol+quadrupol energy correction           -0.001252 eV
 added-field ion interaction         -1.249824 eV  (added to PSCEN)


 Broyden mixing:
  rms(total) = 0.50382E+01    rms(broyden)= 0.50379E+01
  rms(prec ) = 0.58501E+01
  weight for this iteration     100.00

 eigenvalues of (default mixing * dielectric matrix)
  average eigenvalue GAMMA=   0.6347
  2.2083  0.5243  0.5243  0.1767  0.1874  0.1874

 Free energy of the ion-electron system (eV)
  ---------------------------------------------------
  alpha Z        PSCENC =       861.32540528
  Ewald energy   TEWEN  =    228999.69218152
  -Hartree energ DENC   =   -274191.32268241
  -exchange      EXHF   =         0.00000000
  -V(xc)+E(xc)   XCENC  =      -133.27743966
  PAW double counting   =     51092.55122219   -49189.57226662
  entropy T*S    EENTRO =        -0.17931767
  eigenvalues    EBANDS =     -2814.21166981
  atomic energy  EATOM  =     45117.89144060
  Solvation  Ediel_sol  =         0.00000000
  ---------------------------------------------------
  free energy    TOTEN  =      -257.10312657 eV

  energy without entropy =     -256.92380891  energy(sigma->0) =     -257.01346774


--------------------------------------------------------------------------------------------------------




----------------------------------------- Iteration    1(  12)  ---------------------------------------


    POTLOK:  cpu time    0.0546: real time    0.0547
    SETDIJ:  cpu time    0.0064: real time    0.0064
    EDDIAG:  cpu time    2.0600: real time    2.0632
  RMM-DIIS:  cpu time    5.3988: real time    5.4024
    ORTHCH:  cpu time    0.5416: real time    0.5417
       DOS:  cpu time    0.0016: real time    0.0016
    CHARGE:  cpu time    0.3479: real time    0.3539
    MIXING:  cpu time    0.0030: real time    0.0031
    --------------------------------------------
      LOOP:  cpu time    8.4148: real time    8.4314

 eigenvalue-minimisations  :  4034
 total energy-change (2. order) : 0.1450377E+02  (-0.2356281E+01)
 number of electron     551.9999566 magnetization 
 augmentation part      202.6212926 magnetization 

 DIPCOR: dipole corrections for dipol
 direction  3 min pos     1,
 dipolmoment           0.000000      0.000000      0.493217 electrons x Angstroem
 Tr[quadrupol]    -11344.036684

 energy correction for charged system         0.000000 eV
 dipol+quadrupol energy correction           -0.008015 eV
 added-field ion interaction          3.161811 eV  (added to PSCEN)


 Broyden mixing:
  rms(total) = 0.21763E+01    rms(broyden)= 0.21751E+01
  rms(prec ) = 0.25480E+01
  weight for this iteration     100.00

 eigenvalues of (default mixing * dielectric matrix)
  average eigenvalue GAMMA=   0.6157
  2.2481  0.5806  0.5806  0.2779  0.2779  0.1723  0.1723

 Free energy of the ion-electron system (eV)
  ---------------------------------------------------
  alpha Z        PSCENC =       865.73027727
  Ewald energy   TEWEN  =    228999.69218152
  -Hartree energ DENC   =   -274201.01495602
  -exchange      EXHF   =         0.00000000
  -V(xc)+E(xc)   XCENC  =      -132.38399092
  PAW double counting   =     51458.84414956   -49558.72694235
  entropy T*S    EENTRO =        -0.12598441
  eigenvalues    EBANDS =     -2792.50552823
  atomic energy  EATOM  =     45117.89144060
  Solvation  Ediel_sol  =         0.00000000
  ---------------------------------------------------
  free energy    TOTEN  =      -242.59935297 eV

  energy without entropy =     -242.47336856  energy(sigma->0) =     -242.53636076


--------------------------------------------------------------------------------------------------------




----------------------------------------- Iteration    1(  13)  ---------------------------------------


    POTLOK:  cpu time    0.0540: real time    0.0594
    SETDIJ:  cpu time    0.0066: real time    0.0067
    EDDIAG:  cpu time    2.0297: real time    2.0846
  RMM-DIIS:  cpu time    5.3162: real time    5.3188
    ORTHCH:  cpu time    0.5472: real time    0.5474
       DOS:  cpu time    0.0015: real time    0.0015
    CHARGE:  cpu time    0.3561: real time    0.3566
    MIXING:  cpu time    0.0033: real time    0.0033
    --------------------------------------------
      LOOP:  cpu time    8.3154: real time    8.3821

 eigenvalue-minimisations  :  4034
 total energy-change (2. order) : 0.5221459E+01  (-0.6050819E+00)
 number of electron     551.9999587 magnetization 
 augmentation part      203.0094125 magnetization 

 DIPCOR: dipole corrections for dipol
 direction  3 min pos     1,
 dipolmoment           0.000000      0.000000      0.629421 electrons x Angstroem
 Tr[quadrupol]    -11343.210803

 energy correction for charged system         0.000000 eV
 dipol+quadrupol energy correction           -0.013054 eV
 added-field ion interaction          4.034961 eV  (added to PSCEN)


 Broyden mixing:
  rms(total) = 0.18896E+01    rms(broyden)= 0.18887E+01
  rms(prec ) = 0.23002E+01
  weight for this iteration     100.00

 eigenvalues of (default mixing * dielectric matrix)
  average eigenvalue GAMMA=   0.5931
  2.2297  0.5655  0.5655  0.4360  0.3899  0.1968  0.1807  0.1807

 Free energy of the ion-electron system (eV)
  ---------------------------------------------------
  alpha Z        PSCENC =       866.59838910
  Ewald energy   TEWEN  =    228999.69218152
  -Hartree energ DENC   =   -274188.41023830
  -exchange      EXHF   =         0.00000000
  -V(xc)+E(xc)   XCENC  =      -131.87351414
  PAW double counting   =     51532.03069208   -49630.83282691
  entropy T*S    EENTRO =        -0.16540038
  eigenvalues    EBANDS =     -2802.30861724
  atomic energy  EATOM  =     45117.89144060
  Solvation  Ediel_sol  =         0.00000000
  ---------------------------------------------------
  free energy    TOTEN  =      -237.37789367 eV

  energy without entropy =     -237.21249329  energy(sigma->0) =     -237.29519348


--------------------------------------------------------------------------------------------------------




----------------------------------------- Iteration    1(  14)  ---------------------------------------


    POTLOK:  cpu time    0.0554: real time    0.0556
    SETDIJ:  cpu time    0.0073: real time    0.0073
    EDDIAG:  cpu time    1.7781: real time    2.5510
  RMM-DIIS:  cpu time    5.3823: real time    5.3972
    ORTHCH:  cpu time    0.5364: real time    0.5367
       DOS:  cpu time    0.0015: real time    0.0015
    CHARGE:  cpu time    0.3475: real time    0.3475
    MIXING:  cpu time    0.0035: real time    0.0035
    --------------------------------------------
      LOOP:  cpu time    8.1127: real time    8.9040

 eigenvalue-minimisations  :  4035
 total energy-change (2. order) : 0.2642834E+01  (-0.3100548E+00)
 number of electron     551.9999576 magnetization 
 augmentation part      202.2531158 magnetization 

 DIPCOR: dipole corrections for dipol
 direction  3 min pos     1,
 dipolmoment           0.000000      0.000000      0.361754 electrons x Angstroem
 Tr[quadrupol]    -11344.078669

 energy correction for charged system         0.000000 eV
 dipol+quadrupol energy correction           -0.004312 eV
 added-field ion interaction          2.319058 eV  (added to PSCEN)


 Broyden mixing:
  rms(total) = 0.14499E+01    rms(broyden)= 0.14491E+01
  rms(prec ) = 0.16986E+01
  weight for this iteration     100.00

 eigenvalues of (default mixing * dielectric matrix)
  average eigenvalue GAMMA=   0.5739
  2.2162  0.6206  0.6206  0.4705  0.4705  0.1801  0.1801  0.2031  0.2031

 Free energy of the ion-electron system (eV)
  ---------------------------------------------------
  alpha Z        PSCENC =       864.89122771
  Ewald energy   TEWEN  =    228999.69218152
  -Hartree energ DENC   =   -274227.12989464
  -exchange      EXHF   =         0.00000000
  -V(xc)+E(xc)   XCENC  =      -131.78955758
  PAW double counting   =     51563.98180285   -49660.43053048
  entropy T*S    EENTRO =        -0.12691653
  eigenvalues    EBANDS =     -2761.71481288
  atomic energy  EATOM  =     45117.89144060
  Solvation  Ediel_sol  =         0.00000000
  ---------------------------------------------------
  free energy    TOTEN  =      -234.73505943 eV

  energy without entropy =     -234.60814289  energy(sigma->0) =     -234.67160116


--------------------------------------------------------------------------------------------------------




----------------------------------------- Iteration    1(  15)  ---------------------------------------


    POTLOK:  cpu time    0.0558: real time    0.0561
    SETDIJ:  cpu time    0.0070: real time    0.0070
    EDDIAG:  cpu time    2.0755: real time    2.0771
  RMM-DIIS:  cpu time    5.4661: real time    5.4689
    ORTHCH:  cpu time    0.5296: real time    0.5305
       DOS:  cpu time    0.0015: real time    0.0015
    CHARGE:  cpu time    0.3418: real time    0.3418
    MIXING:  cpu time    0.0037: real time    0.0037
    --------------------------------------------
      LOOP:  cpu time    8.4818: real time    8.4900

 eigenvalue-minimisations  :  4035
 total energy-change (2. order) : 0.1740508E+01  (-0.6338671E-01)
 number of electron     551.9999597 magnetization 
 augmentation part      201.9879959 magnetization 

 DIPCOR: dipole corrections for dipol
 direction  3 min pos     1,
 dipolmoment           0.000000      0.000000      0.292397 electrons x Angstroem
 Tr[quadrupol]    -11343.781824

 energy correction for charged system         0.000000 eV
 dipol+quadrupol energy correction           -0.002817 eV
 added-field ion interaction          1.874439 eV  (added to PSCEN)


 Broyden mixing:
  rms(total) = 0.95182E+00    rms(broyden)= 0.95170E+00
  rms(prec ) = 0.10324E+01
  weight for this iteration     100.00

 eigenvalues of (default mixing * dielectric matrix)
  average eigenvalue GAMMA=   0.5830
  2.1830  0.7462  0.7462  0.5979  0.3801  0.3801  0.1801  0.1801  0.2179  0.2179

 Free energy of the ion-electron system (eV)
  ---------------------------------------------------
  alpha Z        PSCENC =       864.44810285
  Ewald energy   TEWEN  =    228999.69218152
  -Hartree energ DENC   =   -274226.33519554
  -exchange      EXHF   =         0.00000000
  -V(xc)+E(xc)   XCENC  =      -131.54991508
  PAW double counting   =     51573.81976465   -49668.86536878
  entropy T*S    EENTRO =        -0.18817587
  eigenvalues    EBANDS =     -2761.90738596
  atomic energy  EATOM  =     45117.89144060
  Solvation  Ediel_sol  =         0.00000000
  ---------------------------------------------------
  free energy    TOTEN  =      -232.99455160 eV

  energy without entropy =     -232.80637573  energy(sigma->0) =     -232.90046367


--------------------------------------------------------------------------------------------------------




----------------------------------------- Iteration    1(  16)  ---------------------------------------


    POTLOK:  cpu time    0.0556: real time    0.0560
    SETDIJ:  cpu time    0.0067: real time    0.0067
    EDDIAG:  cpu time    2.0409: real time    2.0415
  RMM-DIIS:  cpu time    5.4791: real time    5.4814
    ORTHCH:  cpu time    0.5294: real time    0.5299
       DOS:  cpu time    0.0015: real time    0.0015
    CHARGE:  cpu time    0.3503: real time    0.3503
    MIXING:  cpu time    0.0035: real time    0.0035
    --------------------------------------------
      LOOP:  cpu time    8.4678: real time    8.4734

 eigenvalue-minimisations  :  4035
 total energy-change (2. order) : 0.2083016E+00  (-0.3057113E-01)
 number of electron     551.9999597 magnetization 
 augmentation part      201.9915815 magnetization 

 DIPCOR: dipole corrections for dipol
 direction  3 min pos     1,
 dipolmoment           0.000000      0.000000      0.255790 electrons x Angstroem
 Tr[quadrupol]    -11343.762675

 energy correction for charged system         0.000000 eV
 dipol+quadrupol energy correction           -0.002156 eV
 added-field ion interaction          1.639768 eV  (added to PSCEN)


 Broyden mixing:
  rms(total) = 0.86748E+00    rms(broyden)= 0.86743E+00
  rms(prec ) = 0.93652E+00
  weight for this iteration     100.00

 eigenvalues of (default mixing * dielectric matrix)
  average eigenvalue GAMMA=   0.6383
  2.1515  1.1222  1.1222  0.5923  0.4837  0.4837  0.2830  0.1801  0.1801  0.2112
  0.2112

 Free energy of the ion-electron system (eV)
  ---------------------------------------------------
  alpha Z        PSCENC =       864.21409380
  Ewald energy   TEWEN  =    228999.69218152
  -Hartree energ DENC   =   -274225.91523344
  -exchange      EXHF   =         0.00000000
  -V(xc)+E(xc)   XCENC  =      -131.54235412
  PAW double counting   =     51555.01997371   -49649.12668404
  entropy T*S    EENTRO =        -0.19000243
  eigenvalues    EBANDS =     -2762.82966561
  atomic energy  EATOM  =     45117.89144060
  Solvation  Ediel_sol  =         0.00000000
  ---------------------------------------------------
  free energy    TOTEN  =      -232.78625001 eV

  energy without entropy =     -232.59624758  energy(sigma->0) =     -232.69124880


--------------------------------------------------------------------------------------------------------




----------------------------------------- Iteration    1(  17)  ---------------------------------------


    POTLOK:  cpu time    0.0546: real time    0.0546
    SETDIJ:  cpu time    0.0065: real time    0.0065
    EDDIAG:  cpu time    2.0423: real time    2.0436
  RMM-DIIS:  cpu time    5.3351: real time    5.4100
    ORTHCH:  cpu time    0.5305: real time    0.5307
       DOS:  cpu time    0.0015: real time    0.0015
    CHARGE:  cpu time    0.3462: real time    0.3462
    MIXING:  cpu time    0.0036: real time    0.0036
    --------------------------------------------
      LOOP:  cpu time    8.3210: real time    8.4014

 eigenvalue-minimisations  :  4032
 total energy-change (2. order) : 0.2369309E+00  (-0.3641428E-01)
 number of electron     551.9999598 magnetization 
 augmentation part      202.0276603 magnetization 

 DIPCOR: dipole corrections for dipol
 direction  3 min pos     1,
 dipolmoment           0.000000      0.000000      0.224344 electrons x Angstroem
 Tr[quadrupol]    -11343.964465

 energy correction for charged system         0.000000 eV
 dipol+quadrupol energy correction           -0.001658 eV
 added-field ion interaction          1.438176 eV  (added to PSCEN)


 Broyden mixing:
  rms(total) = 0.62393E+00    rms(broyden)= 0.62386E+00
  rms(prec ) = 0.66892E+00
  weight for this iteration     100.00

 eigenvalues of (default mixing * dielectric matrix)
  average eigenvalue GAMMA=   0.6831
  2.1818  1.4650  1.4650  0.5911  0.5911  0.4272  0.4272  0.1801  0.1801  0.2673
  0.2106  0.2106

 Free energy of the ion-electron system (eV)
  ---------------------------------------------------
  alpha Z        PSCENC =       864.01299934
  Ewald energy   TEWEN  =    228999.69218152
  -Hartree energ DENC   =   -274232.10101528
  -exchange      EXHF   =         0.00000000
  -V(xc)+E(xc)   XCENC  =      -131.53873502
  PAW double counting   =     51536.78760970   -49629.14537673
  entropy T*S    EENTRO =        -0.20704316
  eigenvalues    EBANDS =     -2757.94138011
  atomic energy  EATOM  =     45117.89144060
  Solvation  Ediel_sol  =         0.00000000
  ---------------------------------------------------
  free energy    TOTEN  =      -232.54931913 eV

  energy without entropy =     -232.34227597  energy(sigma->0) =     -232.44579755


--------------------------------------------------------------------------------------------------------




----------------------------------------- Iteration    1(  18)  ---------------------------------------


    POTLOK:  cpu time    0.0547: real time    0.0547
    SETDIJ:  cpu time    0.0065: real time    0.0065
    EDDIAG:  cpu time    2.0682: real time    2.0797
  RMM-DIIS:  cpu time    5.4763: real time    5.4787
    ORTHCH:  cpu time    0.5288: real time    0.5288
       DOS:  cpu time    0.0016: real time    0.0016
    CHARGE:  cpu time    0.3499: real time    0.3502
    MIXING:  cpu time    0.0040: real time    0.0040
    --------------------------------------------
      LOOP:  cpu time    8.4907: real time    8.5068

 eigenvalue-minimisations  :  4037
 total energy-change (2. order) : 0.1942772E+00  (-0.3089605E-01)
 number of electron     551.9999602 magnetization 
 augmentation part      202.0220925 magnetization 

 DIPCOR: dipole corrections for dipol
 direction  3 min pos     1,
 dipolmoment           0.000000      0.000000      0.325515 electrons x Angstroem
 Tr[quadrupol]    -11343.970433

 energy correction for charged system         0.000000 eV
 dipol+quadrupol energy correction           -0.003491 eV
 added-field ion interaction          2.086746 eV  (added to PSCEN)


 Broyden mixing:
  rms(total) = 0.44202E+00    rms(broyden)= 0.44183E+00
  rms(prec ) = 0.48072E+00
  weight for this iteration     100.00

 eigenvalues of (default mixing * dielectric matrix)
  average eigenvalue GAMMA=   0.6892
  2.1969  1.6021  1.6021  0.6556  0.6556  0.4373  0.4373  0.3485  0.1802  0.1802
  0.2097  0.2097  0.2445

 Free energy of the ion-electron system (eV)
  ---------------------------------------------------
  alpha Z        PSCENC =       864.65973571
  Ewald energy   TEWEN  =    228999.69218152
  -Hartree energ DENC   =   -274237.26616050
  -exchange      EXHF   =         0.00000000
  -V(xc)+E(xc)   XCENC  =      -131.19921898
  PAW double counting   =     51551.24416513   -49641.57780546
  entropy T*S    EENTRO =        -0.21539039
  eigenvalues    EBANDS =     -2755.58398960
  atomic energy  EATOM  =     45117.89144060
  Solvation  Ediel_sol  =         0.00000000
  ---------------------------------------------------
  free energy    TOTEN  =      -232.35504196 eV

  energy without entropy =     -232.13965157  energy(sigma->0) =     -232.24734676


--------------------------------------------------------------------------------------------------------




----------------------------------------- Iteration    1(  19)  ---------------------------------------


    POTLOK:  cpu time    0.0549: real time    0.0549
    SETDIJ:  cpu time    0.0066: real time    0.0066
    EDDIAG:  cpu time    2.0617: real time    2.0725
  RMM-DIIS:  cpu time    5.3887: real time    5.3914
    ORTHCH:  cpu time    0.5297: real time    0.5299
       DOS:  cpu time    0.0016: real time    0.0016
    CHARGE:  cpu time    0.3408: real time    0.3409
    MIXING:  cpu time    0.0043: real time    0.0043
    --------------------------------------------
      LOOP:  cpu time    8.3890: real time    8.4044

 eigenvalue-minimisations  :  4035
 total energy-change (2. order) : 0.1278337E+00  (-0.1863615E-01)
 number of electron     551.9999607 magnetization 
 augmentation part      201.7812420 magnetization 

 DIPCOR: dipole corrections for dipol
 direction  3 min pos     1,
 dipolmoment           0.000000      0.000000      0.385275 electrons x Angstroem
 Tr[quadrupol]    -11344.058084

 energy correction for charged system         0.000000 eV
 dipol+quadrupol energy correction           -0.004891 eV
 added-field ion interaction          2.469840 eV  (added to PSCEN)


 Broyden mixing:
  rms(total) = 0.29771E+00    rms(broyden)= 0.29760E+00
  rms(prec ) = 0.31342E+00
  weight for this iteration     100.00

 eigenvalues of (default mixing * dielectric matrix)
  average eigenvalue GAMMA=   0.6928
  2.1990  1.5854  1.5854  0.7196  0.7196  0.7015  0.4410  0.4410  0.1802  0.1802
  0.2641  0.2641  0.2092  0.2092

 Free energy of the ion-electron system (eV)
  ---------------------------------------------------
  alpha Z        PSCENC =       865.04143023
  Ewald energy   TEWEN  =    228999.69218152
  -Hartree energ DENC   =   -274246.75004987
  -exchange      EXHF   =         0.00000000
  -V(xc)+E(xc)   XCENC  =      -130.90739879
  PAW double counting   =     51572.71336033   -49661.49050033
  entropy T*S    EENTRO =        -0.22836097
  eigenvalues    EBANDS =     -2748.18931100
  atomic energy  EATOM  =     45117.89144060
  Solvation  Ediel_sol  =         0.00000000
  ---------------------------------------------------
  free energy    TOTEN  =      -232.22720828 eV

  energy without entropy =     -231.99884731  energy(sigma->0) =     -232.11302779


--------------------------------------------------------------------------------------------------------




----------------------------------------- Iteration    1(  20)  ---------------------------------------


    POTLOK:  cpu time    0.0547: real time    0.0556
    SETDIJ:  cpu time    0.0066: real time    0.0066
    EDDIAG:  cpu time    2.0442: real time    2.0469
  RMM-DIIS:  cpu time    5.4648: real time    5.4676
    ORTHCH:  cpu time    0.5292: real time    0.5295
       DOS:  cpu time    0.0016: real time    0.0016
    CHARGE:  cpu time    0.3509: real time    0.3511
    MIXING:  cpu time    0.0044: real time    0.0044
    --------------------------------------------
      LOOP:  cpu time    8.4576: real time    8.4683

 eigenvalue-minimisations  :  4036
 total energy-change (2. order) :-0.3068773E-01  (-0.8011829E-02)
 number of electron     551.9999610 magnetization 
 augmentation part      201.5641688 magnetization 

 DIPCOR: dipole corrections for dipol
 direction  3 min pos     1,
 dipolmoment           0.000000      0.000000      0.366929 electrons x Angstroem
 Tr[quadrupol]    -11344.278782

 energy correction for charged system         0.000000 eV
 dipol+quadrupol energy correction           -0.004436 eV
 added-field ion interaction          2.352233 eV  (added to PSCEN)


 Broyden mixing:
  rms(total) = 0.33024E+00    rms(broyden)= 0.33011E+00
  rms(prec ) = 0.37531E+00
  weight for this iteration     100.00

 eigenvalues of (default mixing * dielectric matrix)
  average eigenvalue GAMMA=   0.6875
  2.2474  1.5572  1.5572  0.8173  0.8173  0.8326  0.4601  0.4601  0.2826  0.2826
  0.1802  0.1802  0.2104  0.2104  0.2173

 Free energy of the ion-electron system (eV)
  ---------------------------------------------------
  alpha Z        PSCENC =       864.92427798
  Ewald energy   TEWEN  =    228999.69218152
  -Hartree energ DENC   =   -274256.12072857
  -exchange      EXHF   =         0.00000000
  -V(xc)+E(xc)   XCENC  =      -130.83365477
  PAW double counting   =     51605.93020921   -49694.24498418
  entropy T*S    EENTRO =        -0.24164147
  eigenvalues    EBANDS =     -2739.25499634
  atomic energy  EATOM  =     45117.89144060
  Solvation  Ediel_sol  =         0.00000000
  ---------------------------------------------------
  free energy    TOTEN  =      -232.25789601 eV

  energy without entropy =     -232.01625454  energy(sigma->0) =     -232.13707528


--------------------------------------------------------------------------------------------------------




----------------------------------------- Iteration    1(  21)  ---------------------------------------


    POTLOK:  cpu time    0.0564: real time    0.0575
    SETDIJ:  cpu time    0.0065: real time    0.0065
    EDDIAG:  cpu time    1.8092: real time    2.5265
  RMM-DIIS:  cpu time    5.2922: real time    5.4136
    ORTHCH:  cpu time    0.5253: real time    0.5258
       DOS:  cpu time    0.0016: real time    0.0016
    CHARGE:  cpu time    0.3464: real time    0.3464
    MIXING:  cpu time    0.0047: real time    0.0047
    --------------------------------------------
      LOOP:  cpu time    8.0431: real time    8.8863

 eigenvalue-minimisations  :  4037
 total energy-change (2. order) : 0.3501872E-01  (-0.2628516E-02)
 number of electron     551.9999611 magnetization 
 augmentation part      201.5761429 magnetization 

 DIPCOR: dipole corrections for dipol
 direction  3 min pos     1,
 dipolmoment           0.000000      0.000000      0.369359 electrons x Angstroem
 Tr[quadrupol]    -11344.348105

 energy correction for charged system         0.000000 eV
 dipol+quadrupol energy correction           -0.004495 eV
 added-field ion interaction          2.367810 eV  (added to PSCEN)


 Broyden mixing:
  rms(total) = 0.23325E+00    rms(broyden)= 0.23322E+00
  rms(prec ) = 0.28113E+00
  weight for this iteration     100.00

 eigenvalues of (default mixing * dielectric matrix)
  average eigenvalue GAMMA=   0.7079
  2.2331  1.7153  1.7153  0.8739  0.8739  0.9050  0.5046  0.5046  0.3634  0.3634
  0.1802  0.1802  0.2098  0.2098  0.2590  0.2344

 Free energy of the ion-electron system (eV)
  ---------------------------------------------------
  alpha Z        PSCENC =       864.93979612
  Ewald energy   TEWEN  =    228999.69218152
  -Hartree energ DENC   =   -274257.66805117
  -exchange      EXHF   =         0.00000000
  -V(xc)+E(xc)   XCENC  =      -130.82682520
  PAW double counting   =     51630.98856859   -49719.46907139
  entropy T*S    EENTRO =        -0.23426348
  eigenvalues    EBANDS =     -2737.53665288
  atomic energy  EATOM  =     45117.89144060
  Solvation  Ediel_sol  =         0.00000000
  ---------------------------------------------------
  free energy    TOTEN  =      -232.22287729 eV

  energy without entropy =     -231.98861381  energy(sigma->0) =     -232.10574555


--------------------------------------------------------------------------------------------------------




----------------------------------------- Iteration    1(  22)  ---------------------------------------


    POTLOK:  cpu time    0.0550: real time    0.0551
    SETDIJ:  cpu time    0.0074: real time    0.0076
    EDDIAG:  cpu time    2.0647: real time    2.0672
  RMM-DIIS:  cpu time    5.2397: real time    5.3144
    ORTHCH:  cpu time    0.5196: real time    0.5197
       DOS:  cpu time    0.0016: real time    0.0016
    CHARGE:  cpu time    0.3482: real time    0.3484
    MIXING:  cpu time    0.0048: real time    0.0048
[...]
 -0.001  -0.001  -0.000  -0.001  -8.231  -0.001  -0.001  -0.000
 -8.375   0.000   0.006  -0.004  -0.001  -8.502   0.000   0.006
  0.000  -8.308  -0.004  -0.003  -0.001   0.000  -8.436  -0.004
  0.006  -0.004  -8.311   0.001  -0.000   0.006  -0.004  -8.439
 -0.004  -0.003   0.001  -8.308  -0.001  -0.004  -0.003   0.001
 -0.001  -0.001  -0.000  -0.001  -8.374  -0.001  -0.001  -0.000
  0.002   0.001  -0.021  -0.000   0.000   0.002   0.001  -0.021
  0.003   0.002  -0.030  -0.000   0.001   0.003   0.002  -0.030
  0.000  -0.003  -0.001   0.000  -0.001   0.000  -0.003  -0.001
  0.000   0.001  -0.005  -0.000   0.000   0.000   0.001  -0.005
  0.002   0.000   0.000  -0.003  -0.001   0.002   0.000   0.000
  0.000  -0.003  -0.002   0.000  -0.002   0.000  -0.002  -0.002
  0.000   0.002  -0.005   0.000  -0.000   0.000   0.002  -0.005
  0.002   0.000   0.001  -0.003  -0.001   0.002   0.000   0.001
 total augmentation occupancy for first ion, spin component:           1
  4.195  -0.006   0.001   0.031  -0.175  -2.392   0.010   0.027  -0.068   0.155  -0.118   0.062  -0.045  -0.009  -0.064   0.002
 -0.006   4.312  -0.125   0.039   0.024   0.010  -2.032   0.081  -0.036  -0.063  -0.028  -0.013  -0.156   0.016   0.002   0.005
  0.001  -0.125   4.295   0.107  -0.105   0.027   0.082  -2.238  -0.087   0.095   0.836  -0.078   0.033  -0.219  -0.032  -0.003
  0.031   0.039   0.107   4.240  -0.035  -0.068  -0.036  -0.087  -1.974   0.025  -0.004   0.024  -0.002  -0.017  -0.144   0.000
 -0.175   0.024  -0.105  -0.035   4.398   0.155  -0.064   0.095   0.024  -2.567  -0.052   0.014   0.002   0.011   0.089  -0.002
 -2.392   0.010   0.027  -0.068   0.155   2.466  -0.013  -0.048   0.096  -0.139   0.100  -0.055   0.038   0.005   0.056  -0.002
  0.010  -2.032   0.082  -0.036  -0.064  -0.013   1.726  -0.048   0.032   0.093   0.022   0.013   0.143  -0.008  -0.003  -0.006
  0.027   0.081  -2.238  -0.087   0.095  -0.048  -0.048   2.111   0.070  -0.086  -0.802   0.106  -0.026   0.234   0.024   0.002
 -0.068  -0.036  -0.087  -1.974   0.024   0.096   0.032   0.070   1.683  -0.019  -0.001  -0.020  -0.000   0.011   0.135  -0.000
  0.155  -0.063   0.095   0.025  -2.567  -0.139   0.093  -0.086  -0.019   2.621   0.049  -0.016   0.000  -0.008  -0.076   0.000
 -0.118  -0.028   0.836  -0.004  -0.052   0.100   0.022  -0.802  -0.001   0.049   2.412  -0.496   0.017   0.125  -0.012  -0.001
  0.062  -0.013  -0.078   0.024   0.014  -0.055   0.013   0.106  -0.020  -0.016  -0.496   0.146  -0.012  -0.057   0.007   0.000
 -0.045  -0.156   0.033  -0.002   0.002   0.038   0.143  -0.026  -0.000   0.000   0.017  -0.012   0.194   0.000   0.005  -0.006
 -0.009   0.016  -0.219  -0.017   0.011   0.005  -0.008   0.234   0.011  -0.008   0.125  -0.057   0.000   0.096   0.000   0.000
 -0.064   0.002  -0.032  -0.144   0.089   0.056  -0.003   0.024   0.135  -0.076  -0.012   0.007   0.005   0.000   0.198  -0.000
  0.002   0.005  -0.003   0.000  -0.002  -0.002  -0.006   0.002  -0.000   0.000  -0.001   0.000  -0.006   0.000  -0.000   0.000
  0.000   0.001   0.002   0.001  -0.000  -0.000  -0.000  -0.007  -0.001   0.000  -0.008   0.003   0.000  -0.003  -0.000  -0.000
  0.004   0.000   0.002   0.004  -0.004  -0.003  -0.000  -0.001  -0.006   0.004   0.001  -0.000  -0.000  -0.000  -0.006   0.000


------------------------ aborting loop because EDIFF is reached ----------------------------------------


    CHARGE:  cpu time    0.3468: real time    0.3471
    FORLOC:  cpu time    0.0238: real time    0.0238
    FORNL :  cpu time    2.3017: real time    2.3178
    FORCOR:  cpu time    0.0894: real time    0.1006
    FORHAR:  cpu time    0.0446: real time    0.0448
    MIXING:  cpu time    0.0052: real time    0.0052
    OFIELD:  cpu time    0.0000: real time    0.0000

 VOLUME and BASIS-vectors are now :
 -----------------------------------------------------------------------------
  energy-cutoff  :      400.00
  volume of cell :     2745.90
      direct lattice vectors                 reciprocal lattice vectors
    11.002581515  0.000000000  0.000000000     0.090887761 -0.052474073  0.000000000
     5.501290758  9.528515099  0.000000000     0.000000000  0.104948147  0.000000000
     0.000000000  0.000000000 26.191785094     0.000000000  0.000000000  0.038179910

  length of vectors
    11.002581515 11.002581515 26.191785094     0.104948147  0.104948147  0.038179910


 FORCES acting on ions
    electron-ion (+dipol)            ewald-force                    non-local-force                 convergence-correction
 -----------------------------------------------------------------------------------------------
   -.245E+02 0.224E+02 0.249E+04   0.246E+02 -.227E+02 -.249E+04   0.468E-02 0.104E+00 -.383E+00   -.101E-02 0.121E-02 0.162E-02
   0.707E+02 -.416E+02 -.177E+04   -.720E+02 0.404E+02 0.177E+04   0.125E+01 0.126E+01 0.943E+00   0.341E-02 0.189E-02 0.630E-02
   0.408E+02 -.417E+02 -.270E+03   -.396E+02 0.409E+02 0.270E+03   -.122E+01 0.809E+00 -.121E+00   0.258E-02 -.112E-02 -.626E-02
   0.820E+01 -.970E+00 0.431E+03   -.759E+01 0.141E+01 -.431E+03   -.608E+00 -.440E+00 -.401E+00   0.740E-03 0.207E-02 0.164E-02
   0.364E+02 0.110E+03 -.178E+04   -.376E+02 -.110E+03 0.178E+04   0.119E+01 0.476E+00 0.124E+00   -.561E-02 -.487E-02 0.437E-02
   -.276E+01 0.108E+02 0.252E+04   0.249E+01 -.108E+02 -.252E+04   0.166E+00 -.834E-01 0.545E-01   0.967E-03 0.191E-02 0.107E-02
   -.882E+01 -.270E+01 0.248E+04   0.948E+01 0.290E+01 -.248E+04   -.520E+00 -.856E-01 0.811E-01   -.226E-02 0.714E-03 0.112E-02
   -.168E+02 0.402E+02 0.242E+03   0.165E+02 -.400E+02 -.242E+03   0.230E+00 -.175E+00 0.469E+00   -.499E-02 -.302E-03 -.348E-02
   -.346E+02 -.246E+03 -.281E+04   0.329E+02 0.246E+03 0.281E+04   0.172E+01 0.805E+00 0.209E+00   -.556E-02 -.783E-02 0.312E-02
   -.768E+00 -.197E+01 0.248E+04   0.248E-01 0.229E+01 -.248E+04   0.482E+00 -.200E+00 -.249E+00   -.151E-03 -.180E-03 0.103E-02
   0.364E+02 0.530E+02 0.255E+03   -.356E+02 -.537E+02 -.255E+03   -.759E+00 0.673E+00 -.464E+00   -.505E-02 -.146E-02 -.174E-02
   -.342E+02 0.326E+02 0.323E+03   0.337E+02 -.325E+02 -.322E+03   0.552E+00 -.735E-01 -.919E+00   -.225E-02 -.225E-03 0.197E-02
   0.175E+03 0.139E+03 -.265E+04   -.175E+03 -.138E+03 0.265E+04   0.369E+00 -.112E+01 -.152E-01   0.186E-02 0.518E-02 0.335E-02
   -.195E+02 -.563E+01 -.196E+04   0.186E+02 0.550E+01 0.196E+04   0.915E+00 0.123E+00 0.856E+00   -.287E-02 -.164E-02 0.187E-02
   -.118E+02 -.717E+02 0.332E+03   0.122E+02 0.714E+02 -.331E+03   -.379E+00 0.343E+00 -.923E+00   0.275E-02 0.241E-02 0.925E-03
   0.413E+02 0.123E+00 0.247E+03   -.416E+02 0.562E+00 -.246E+03   0.300E+00 -.687E+00 -.643E+00   -.439E-02 0.820E-03 -.195E-02
   -.441E+02 0.406E+02 -.182E+04   0.458E+02 -.416E+02 0.182E+04   -.171E+01 0.101E+01 0.119E+01   -.433E-02 0.981E-03 -.504E-02
   0.272E+02 0.281E+01 0.361E+03   -.276E+02 -.277E+01 -.360E+03   0.428E+00 -.374E-01 -.738E+00   0.254E-02 0.248E-02 -.119E-02
   -.714E+02 -.455E+01 -.159E+04   0.734E+02 0.425E+01 0.159E+04   -.200E+01 0.309E+00 0.222E+01   -.249E-02 -.327E-02 0.256E-03
   0.985E+02 -.119E+03 -.219E+04   -.980E+02 0.120E+03 0.219E+04   -.483E+00 -.729E+00 0.141E+01   0.175E-01 -.442E-02 0.350E-02
   -.248E+02 0.422E+02 0.299E+03   0.248E+02 -.427E+02 -.300E+03   -.126E-01 0.452E+00 0.996E+00   0.202E-02 0.288E-02 0.328E-02
   0.527E+02 -.707E+02 -.138E+04   -.534E+02 0.708E+02 0.138E+04   0.719E+00 -.998E-01 0.247E+01   -.653E-02 0.859E-03 -.108E-03
   -.441E+02 -.331E+02 0.245E+04   0.448E+02 0.330E+02 -.245E+04   -.288E+00 0.205E+00 0.363E+00   0.264E-02 -.377E-03 0.163E-02
   -.539E+02 -.172E+02 0.276E+03   0.536E+02 0.170E+02 -.276E+03   0.271E+00 0.268E+00 0.272E+00   -.857E-03 -.255E-02 0.913E-03
   -.777E+02 -.125E+03 -.149E+04   0.751E+02 0.139E+03 0.150E+04   0.261E+01 -.141E+02 -.176E+02   -.128E-02 0.118E-02 0.365E-02
   -.146E+03 0.211E+02 -.153E+04   0.155E+03 -.214E+02 0.155E+04   -.893E+01 0.262E+00 -.207E+02   -.461E-03 0.146E-02 0.756E-03
   -.383E+02 0.123E+03 -.158E+04   0.435E+02 -.131E+03 0.161E+04   -.515E+01 0.781E+01 -.213E+02   0.836E-03 -.693E-03 0.181E-02
   0.331E+02 0.173E+03 -.161E+04   -.339E+02 -.189E+03 0.163E+04   0.778E+00 0.158E+02 -.187E+02   -.343E-02 0.268E-02 0.539E-03
   0.185E+03 -.330E+02 -.152E+04   -.196E+03 0.371E+02 0.154E+04   0.102E+02 -.410E+01 -.190E+02   0.233E-03 -.637E-03 0.693E-03
   -.777E+02 -.874E+02 -.150E+04   0.899E+02 0.961E+02 0.151E+04   -.122E+02 -.871E+01 -.137E+02   -.165E-02 -.464E-02 0.173E-02
   0.448E+01 0.220E+02 -.156E+04   -.411E+01 -.226E+02 0.159E+04   -.381E+00 0.600E+00 -.270E+02   0.312E-02 0.193E-02 0.316E-02
   0.450E+02 -.145E+01 -.179E+04   -.501E+02 -.384E+01 0.182E+04   0.509E+01 0.529E+01 -.264E+02   -.184E-02 0.109E-02 -.170E-02
   -.446E+02 0.272E+02 -.159E+04   0.433E+02 -.275E+02 0.159E+04   0.124E+01 0.204E+00 -.184E+00   -.117E-02 0.532E-02 0.296E-02
   0.150E+02 -.717E+01 0.240E+03   -.149E+02 0.763E+01 -.239E+03   -.130E+00 -.459E+00 -.157E+01   0.779E-03 0.459E-02 0.138E-02
   0.317E+01 0.506E+01 0.227E+04   -.321E+01 -.561E+01 -.227E+04   0.879E-01 0.268E+00 -.130E+01   0.816E-03 0.141E-02 0.785E-03
   0.309E+02 0.149E+01 0.231E+04   -.313E+02 -.170E+01 -.231E+04   0.322E-01 0.278E+00 -.201E+01   0.111E-02 0.295E-03 0.778E-03
   0.103E+03 -.351E+01 -.160E+04   -.103E+03 0.352E+01 0.160E+04   0.354E+00 -.117E-01 -.131E+01   -.486E-02 -.145E-02 -.548E-02
   -.351E+01 0.220E+02 0.227E+04   0.402E+01 -.221E+02 -.227E+04   -.310E+00 -.439E-01 -.107E+01   -.111E-02 -.459E-03 0.635E-03
   0.121E+02 -.267E+02 0.230E+04   -.118E+02 0.270E+02 -.230E+04   -.330E+00 -.191E+00 -.190E+01   0.252E-02 0.238E-02 0.197E-02
   0.554E+01 0.160E+02 0.229E+04   -.580E+01 -.161E+02 -.229E+04   0.181E+00 -.321E-02 -.195E+01   -.199E-03 -.667E-03 0.735E-03
   0.689E+02 -.728E+02 -.148E+04   -.684E+02 0.718E+02 0.148E+04   -.529E+00 0.102E+01 -.133E+01   0.388E-02 0.750E-02 0.216E-02
   0.437E+02 -.229E+02 0.460E+03   -.436E+02 0.229E+02 -.461E+03   -.966E-01 0.156E-01 0.732E+00   -.472E-03 -.456E-02 0.962E-03
   0.347E+02 -.356E+02 0.226E+04   -.342E+02 0.355E+02 -.226E+04   -.533E+00 0.146E+00 -.192E+01   0.265E-04 -.159E-02 0.262E-02
   -.151E+02 0.356E+02 0.223E+04   0.154E+02 -.354E+02 -.223E+04   -.303E-01 -.292E+00 -.916E+00   0.574E-03 -.216E-02 0.119E-02
   0.228E+02 0.107E+02 0.417E+03   -.230E+02 -.113E+02 -.419E+03   0.165E+00 0.609E+00 0.112E+01   0.138E-02 -.403E-03 -.777E-03
   -.128E+03 -.109E+03 -.160E+04   0.127E+03 0.109E+03 0.160E+04   0.464E+00 0.411E+00 -.123E+01   0.193E-02 -.299E-02 0.169E-02
   0.324E+02 -.903E+00 0.229E+04   -.323E+02 0.788E+00 -.229E+04   -.277E+00 0.251E+00 -.243E+01   -.781E-03 -.276E-02 0.715E-03
   -.272E+02 0.199E+02 0.310E+03   0.262E+02 -.199E+02 -.309E+03   0.102E+01 -.345E-02 -.448E+00   0.186E-03 0.168E-03 0.534E-03
   -.890E+02 0.910E+02 -.239E+04   0.897E+02 -.912E+02 0.239E+04   -.734E+00 0.115E+00 0.126E+00   0.179E-02 0.415E-02 -.272E-02
   -.696E+02 0.235E+01 0.308E+03   0.692E+02 -.137E+01 -.308E+03   0.346E+00 -.989E+00 -.194E+00   0.125E-02 0.306E-02 0.536E-03
   -.843E+02 0.114E+03 -.156E+04   0.840E+02 -.113E+03 0.156E+04   0.283E+00 -.543E+00 -.162E+00   0.467E-03 -.130E-02 -.311E-02
   0.736E+01 -.344E+01 0.228E+04   -.760E+01 0.401E+01 -.228E+04   0.179E+00 -.511E+00 -.182E+01   -.233E-02 -.107E-02 0.146E-02
   -.497E+01 -.237E+02 0.229E+04   0.454E+01 0.240E+02 -.228E+04   0.364E+00 -.656E-01 -.207E+01   -.128E-02 0.172E-02 0.275E-02
   0.182E+02 -.363E+02 0.452E+03   -.178E+02 0.364E+02 -.452E+03   -.347E+00 -.109E+00 -.563E-01   0.156E-02 0.343E-02 -.230E-02
   -.273E+02 0.450E+02 -.121E+04   0.267E+02 -.455E+02 0.121E+04   0.602E+00 0.512E+00 -.585E+00   -.261E-02 -.118E-02 0.470E-04
   -.226E+02 0.161E+02 0.227E+04   0.225E+02 -.161E+02 -.226E+04   0.569E-01 -.503E-01 -.138E+01   0.503E-03 -.166E-03 0.378E-03
 -----------------------------------------------------------------------------------------------
   0.530E+01 -.651E+01 0.182E+03   -.306E-12 0.568E-13 0.000E+00   -.527E+01 0.649E+01 -.182E+03   -.119E-01 0.108E-01 0.387E-01
 
 
 POSITION                                       TOTAL-FORCE (eV/Angst)
 -----------------------------------------------------------------------------------
      1.37532      0.79404     10.00000         0.113090     -0.187622     -0.259219
      5.36881      4.66807     14.88061        -0.002235     -0.005898     -0.003496
      8.30530      6.29275     13.13657        -0.005581      0.003616      0.000902
      8.21622      1.58346     12.34767         0.007506      0.002508     -0.003600
     16.44211      9.43840     14.91562         0.004552      0.006227     -0.001136
      9.62726      0.79404     10.00000        -0.101704     -0.072867     -0.548971
      2.75065      3.17617     10.00000         0.137948      0.115796     -0.082188
     12.29221      3.98613     12.50140        -0.000781      0.004283      0.013927
      9.77106      6.71799     16.97830         0.004208      0.012525     -0.004372
      4.12597      5.55830     10.00000        -0.261903      0.114281     -0.054641
      9.60702      8.68042     12.51741         0.005679     -0.005116      0.009562
     15.10749      8.69825     12.45231         0.006507      0.006130     -0.001191
      8.32958      3.93363     16.57437         0.003210     -0.001912     -0.004748
      4.08494      7.05418     14.88926         0.001859     -0.003611     -0.003146
      6.87474      3.99172     12.43729        -0.000343      0.001437      0.006300
      2.68471      1.59623     12.49741         0.005947     -0.000849     -0.000023
      8.21447      9.45958     14.97829        -0.001330     -0.001733      0.009182
      5.44285      1.58811     12.44016         0.000488     -0.000492      0.000585
     12.28413      7.12676     14.66193         0.010095      0.006126      0.003527
      7.13869      7.07052     15.60803        -0.015329     -0.009396      0.006744
      6.89089      8.65801     12.44664        -0.003461     -0.001202     -0.013722
     10.32096      5.08940     14.64365         0.004963     -0.003232      0.000225
      6.87661      5.55830     10.00000         0.442626      0.077956     -0.175672
      5.49668      6.32813     12.47532         0.002490      0.002852      0.006208
     11.82455      4.68297     16.19257        -0.000011     -0.002393      0.008155
      2.79620      3.04869     16.14655        -0.002754      0.001204      0.003050
      1.14047      0.73335     16.41232         0.008260     -0.002616      0.004808
      9.82088      2.52471     16.58269        -0.004527      0.006921     -0.004543
      6.69455      5.12796     16.44807        -0.008431      0.007969      0.002007
     11.07052      7.99110     16.24252        -0.003095      0.000233     -0.004007
      6.94551      0.85986     15.91337        -0.008685     -0.008498      0.001084
      8.91440      5.30804     17.97472        -0.006471      0.008633     -0.000000
      4.03895      2.26296     14.83944        -0.006896     -0.005639     -0.000875
      4.05980      3.99216     12.54597         0.001843      0.000414     -0.001117
      5.50129      3.17617     10.00000         0.051228     -0.280556      0.240434
      6.87661      0.79404     10.00000        -0.313408      0.064592     -0.077234
      5.37919      0.00772     14.92225         0.005874      0.000666      0.003099
      4.12597      0.79404     10.00000         0.197841     -0.162428      0.195928
      8.25194      3.17617     10.00000        -0.065418      0.051998     -0.174012
     13.75323      7.94043     10.00000        -0.077603     -0.078225      0.137775
      6.90542      2.48084     14.76833        -0.001102     -0.004596      0.001118
     10.94470      6.36295     12.24992        -0.005258      0.000880     -0.002926
      9.62726      5.55830     10.00000        -0.085966      0.042971      0.007654
      8.25194      7.94043     10.00000         0.262837     -0.078346      0.366827
     12.33495      8.71919     12.29153        -0.005375     -0.005450      0.004847
     13.50865      4.69077     14.99060         0.007325     -0.003460     -0.010282
     11.00258      7.94043     10.00000        -0.143547      0.133742     -0.041422
     13.67559      6.34206     12.44259        -0.003231     -0.004579     -0.000267
     11.84353      2.69318     16.31083        -0.004753      0.003172      0.004519
     10.97329      1.58421     12.37956         0.001884     -0.003105      0.002595
     13.73310      9.48772     14.72230         0.001819     -0.001430     -0.003791
     12.37790      5.55830     10.00000        -0.071780      0.054818      0.117382
     11.00258      3.17617     10.00000        -0.068425      0.247036      0.096561
      9.57000      3.98810     12.26812        -0.001380     -0.004256     -0.000149
      9.65219      2.36373     14.59581         0.003022      0.002326      0.000740
      5.50129      7.94043     10.00000        -0.012322     -0.041803      0.221004
 -----------------------------------------------------------------------------------
    total drift:                                0.022453     -0.013571     -0.061261


--------------------------------------------------------------------------------------------------------



  FREE ENERGIE OF THE ION-ELECTRON SYSTEM (eV)
  ---------------------------------------------------
  free  energy   TOTEN  =      -232.16706906 eV

  energy  without entropy=     -231.94722753  energy(sigma->0) =     -232.05714829
 
 d Force = 0.2121483E-03[ 0.158E-03, 0.266E-03]  d Energy = 0.2077394E-03 0.441E-05
 d Force = 0.3389688E+01[ 0.339E+01, 0.339E+01]  d Ewald  = 0.3389686E+01 0.176E-05


--------------------------------------------------------------------------------------------------------


    POTLOK:  cpu time    0.0797: real time    0.0812


--------------------------------------------------------------------------------------------------------


 stress matrix after NEB project (eV)
      0.00000      0.00000      0.00000
      0.00000      0.00000      0.00000
      0.00000      0.00000      0.00000
  FORCES: max atom, RMS     0.019203    0.007586
  FORCE total and by dimension    0.056767    0.015329
  Stress total and by dimension    0.000000    0.000000
 Conjugate gradient step on ions:
 trial-energy change:   -0.000208  1 .order   -0.000212   -0.000266   -0.000158
  (g-gl).g = 0.170E-03      g.g   = 0.231E-03  gl.gl    = 0.296E-03
 g(Force)  = 0.231E-03   g(Stress)= 0.000E+00 ortho     =-0.615E-05
 gamma     =   0.57308
 trial     =   1.17014
 opt step  =   2.87602  (harmonic =   2.87602) maximal distance =0.00346904
 next E    =  -232.167189   (d E  =  -0.00033)


--------------------------------------------------------------------------------------------------------


  
 reached required accuracy - stopping structural energy minimisation
     LOOP+:  cpu time   77.0750: real time   77.3741
    4ORBIT:  cpu time    0.0000: real time    0.0000

 total amount of memory used by VASP on root node    93023. kBytes
========================================================================

   base      :      30000. kBytes
   nonlr-proj:       4680. kBytes
   fftplans  :       4744. kBytes
   grid      :       7835. kBytes
   one-center:        155. kBytes
   wavefun   :      45609. kBytes
 
  
  
 General timing and accounting informations for this job:
 ========================================================
  
                  Total CPU time used (sec):     1218.203
                            User time (sec):     1169.317
                          System time (sec):       48.886
                         Elapsed time (sec):     1228.608
  
                   Maximum memory used (kb):      539492.
                   Average memory used (kb):           0.
  
                          Minor page faults:       396257
                          Major page faults:            2
                 Voluntary context switches:         6066
