unknown system                          
           1
    11.002582    0.000000    0.000000
     5.501291    9.528515    0.000000
     0.000000    0.000000   26.191785
   Au   O    Pd
  24   8  24
Direct configuration=     1
   0.08333333  0.08333333  0.38179910
   0.24320013  0.49001714  0.56830123
   0.42425322  0.66075313  0.50095549
   0.66370262  0.16631863  0.47134515
   0.99892346  0.98949517  0.56984850
   0.83333333  0.08333333  0.38179910
   0.08333333  0.33333333  0.38179910
   0.90790827  0.41843606  0.47746907
   0.53582691  0.70530669  0.64830687
   0.08333333  0.58333333  0.38179910
   0.41739902  0.91123928  0.47797150
   0.91641895  0.91307297  0.47542017
   0.55100299  0.41295825  0.63274957
   0.00089096  0.73999212  0.56843554
   0.41525241  0.41911387  0.47502885
   0.16041336  0.16785369  0.47699571
   0.24938919  0.99314950  0.57170644
   0.41149484  0.16684338  0.47490648
   0.74248449  0.74758764  0.55999293
   0.28032652  0.74171579  0.59600065
   0.17150224  0.90922445  0.47502231
   0.67059739  0.53409917  0.55895159
   0.33333333  0.58333333  0.38179910
   0.16728050  0.66450233  0.47649168
   0.82904150  0.49130158  0.61795656
   0.09423827  0.31994748  0.61647223
   0.06577987  0.07654547  0.62657361
   0.76031878  0.26490484  0.63302553
   0.33957341  0.53867683  0.62800639
   0.58626247  0.83932078  0.62008602
   0.58553175  0.08982803  0.60744148
   0.53205436  0.55730873  0.68629477
   0.24820938  0.23757915  0.56650704
   0.15953153  0.41929589  0.47903181
   0.33333333  0.33333333  0.38179910
   0.58333333  0.08333333  0.38179910
   0.48790191  0.00071695  0.56946225
   0.33333333  0.08333333  0.38179910
   0.58333333  0.33333333  0.38179910
   0.83333333  0.83333333  0.38179910
   0.49742701  0.26027734  0.56389688
   0.66060220  0.66792612  0.46767379
   0.58333333  0.58333333  0.38179910
   0.33333333  0.83333333  0.38179910
   0.66344148  0.91503273  0.46931020
   0.98208010  0.49174627  0.57206035
   0.58333333  0.83333333  0.38179910
   0.90989438  0.66567679  0.47510241
   0.93533877  0.28243628  0.62262651
   0.91448995  0.16628085  0.47274161
   0.74966136  0.99560688  0.56190179
   0.83333333  0.58333333  0.38179910
   0.83333333  0.33333333  0.38179910
   0.66061179  0.41838610  0.46835917
   0.75344613  0.24765678  0.55722941
   0.08333333  0.83333333  0.38179910
Direct configuration=     2
   0.08333333  0.08333333  0.38179910
   0.24318292  0.49002380  0.56829678
   0.42426897  0.66074197  0.50097962
   0.66370938  0.16632056  0.47135364
   0.99891843  0.98955672  0.56983156
   0.83333333  0.08333333  0.38179910
   0.08333333  0.33333333  0.38179910
   0.90790539  0.41844297  0.47745181
   0.53580838  0.70532547  0.64829378
   0.08333333  0.58333333  0.38179910
   0.41742782  0.91121334  0.47796068
   0.91644267  0.91306591  0.47542082
   0.55094456  0.41299025  0.63276144
   0.00088406  0.73999509  0.56843873
   0.41526060  0.41910893  0.47501478
   0.16039984  0.16785469  0.47700098
   0.24940511  0.99316317  0.57171170
   0.41146984  0.16684705  0.47490871
   0.74247383  0.74763800  0.55998015
   0.28023096  0.74171617  0.59599871
   0.17150972  0.90918080  0.47503681
   0.67060152  0.53410727  0.55895990
   0.33333333  0.58333333  0.38179910
   0.16729342  0.66448396  0.47647766
   0.82904114  0.49128225  0.61797223
   0.09421326  0.31994905  0.61648102
   0.06573255  0.07657542  0.62657194
   0.76032796  0.26489996  0.63303534
   0.33960360  0.53863539  0.62800363
   0.58630293  0.83925995  0.62009748
   0.58555748  0.08985224  0.60744393
   0.53205095  0.55724754  0.68629722
   0.24825073  0.23755239  0.56650057
   0.15951914  0.41928943  0.47902998
   0.33333333  0.33333333  0.38179910
   0.58333333  0.08333333  0.38179910
   0.48795491  0.00073053  0.56947567
   0.33333333  0.08333333  0.38179910
   0.58333333  0.33333333  0.38179910
   0.83333333  0.83333333  0.38179910
   0.49742402  0.26029061  0.56389367
   0.66063189  0.66792040  0.46767567
   0.58333333  0.58333333  0.38179910
   0.33333333  0.83333333  0.38179910
   0.66343942  0.91501982  0.46930857
   0.98208048  0.49178584  0.57207347
   0.58333333  0.83333333  0.38179910
   0.90991343  0.66565761  0.47509976
   0.93533604  0.28245115  0.62263097
   0.91446047  0.16627247  0.47273617
   0.74969093  0.99559718  0.56191249
   0.83333333  0.58333333  0.38179910
   0.83333333  0.33333333  0.38179910
   0.66060747  0.41839341  0.46835310
   0.75344002  0.24765528  0.55722519
   0.08333333  0.83333333  0.38179910
Direct configuration=     3
   0.08333333  0.08333333  0.38179910
   0.24314643  0.49003791  0.56828733
   0.42430235  0.66071832  0.50103079
   0.66372371  0.16632465  0.47137163
   0.99890778  0.98968719  0.56979563
   0.83333333  0.08333333  0.38179910
   0.08333333  0.33333333  0.38179910
   0.90789930  0.41845763  0.47741523
   0.53576910  0.70536530  0.64826602
   0.08333333  0.58333333  0.38179910
   0.41748888  0.91115838  0.47793775
   0.91649295  0.91305096  0.47542218
   0.55082072  0.41305809  0.63278660
   0.00086943  0.74000141  0.56844548
   0.41527795  0.41909846  0.47498495
   0.16037117  0.16785680  0.47701215
   0.24943885  0.99319213  0.57172284
   0.41141684  0.16685483  0.47491343
   0.74245124  0.74774475  0.55995306
   0.28002839  0.74171699  0.59599460
   0.17152559  0.90908826  0.47506755
   0.67061030  0.53412444  0.55897752
   0.33333333  0.58333333  0.38179910
   0.16732081  0.66444503  0.47644793
   0.82904037  0.49124128  0.61800544
   0.09416023  0.31995237  0.61649967
   0.06563224  0.07663892  0.62656840
   0.76034743  0.26488960  0.63305613
   0.33966760  0.53854755  0.62799779
   0.58638871  0.83913100  0.62012178
   0.58561201  0.08990356  0.60744913
   0.53204372  0.55711782  0.68630240
   0.24833838  0.23749566  0.56648686
   0.15949289  0.41927574  0.47902610
   0.33333333  0.33333333  0.38179910
   0.58333333  0.08333333  0.38179910
   0.48806726  0.00075930  0.56950411
   0.33333333  0.08333333  0.38179910
   0.58333333  0.33333333  0.38179910
   0.83333333  0.83333333  0.38179910
   0.49741768  0.26031874  0.56388687
   0.66069483  0.66790827  0.46767966
   0.58333333  0.58333333  0.38179910
   0.33333333  0.83333333  0.38179910
   0.66343506  0.91499246  0.46930511
   0.98208129  0.49186971  0.57210129
   0.58333333  0.83333333  0.38179910
   0.90995380  0.66561696  0.47509412
   0.93533026  0.28248267  0.62264041
   0.91439800  0.16625471  0.47272462
   0.74975360  0.99557663  0.56193517
   0.83333333  0.58333333  0.38179910
   0.83333333  0.33333333  0.38179910
   0.66059830  0.41840890  0.46834025
   0.75342706  0.24765210  0.55721626
   0.08333333  0.83333333  0.38179910
Direct configuration=     4
   0.08333333  0.08333333  0.38179910
   0.24313649  0.49003821  0.56828333
   0.42431524  0.66070963  0.50104786
   0.66372421  0.16632112  0.47137605
   0.99890670  0.98972335  0.56978344
   0.83333333  0.08333333  0.38179910
   0.08333333  0.33333333  0.38179910
   0.90789888  0.41845875  0.47740500
   0.53575052  0.70533310  0.64826769
   0.08333333  0.58333333  0.38179910
   0.41749998  0.91114660  0.47793202
   0.91650297  0.91304472  0.47542304
   0.55082360  0.41304160  0.63278967
   0.00086797  0.74000853  0.56844749
   0.41528223  0.41909331  0.47497675
   0.16036101  0.16785056  0.47701568
   0.24945667  0.99319280  0.57172623
   0.41140746  0.16685410  0.47491434
   0.74244588  0.74777003  0.55994489
   0.27995942  0.74172204  0.59599199
   0.17153752  0.90906533  0.47507633
   0.67061624  0.53412725  0.55898280
   0.33333333  0.58333333  0.38179910
   0.16732841  0.66442997  0.47643986
   0.82903902  0.49123688  0.61801443
   0.09416261  0.31994986  0.61649991
   0.06560492  0.07665763  0.62656832
   0.76033767  0.26489910  0.63305911
   0.33966354  0.53853302  0.62799654
   0.58641866  0.83911354  0.62012476
   0.58563006  0.08992067  0.60745287
   0.53203935  0.55711326  0.68629959
   0.24834375  0.23749403  0.56648903
   0.15948644  0.41927106  0.47902503
   0.33333333  0.33333333  0.38179910
   0.58333333  0.08333333  0.38179910
   0.48809819  0.00076086  0.56951276
   0.33333333  0.08333333  0.38179910
   0.58333333  0.33333333  0.38179910
   0.83333333  0.83333333  0.38179910
   0.49741867  0.26032850  0.56388566
   0.66071250  0.66790148  0.46768116
   0.58333333  0.58333333  0.38179910
   0.33333333  0.83333333  0.38179910
   0.66343673  0.91498966  0.46930399
   0.98207510  0.49189145  0.57211106
   0.58333333  0.83333333  0.38179910
   0.90996500  0.66560912  0.47509241
   0.93532017  0.28248749  0.62264399
   0.91438469  0.16625133  0.47272037
   0.74977700  0.99557275  0.56194152
   0.83333333  0.58333333  0.38179910
   0.83333333  0.33333333  0.38179910
   0.66059426  0.41841773  0.46833773
   0.75341943  0.24765874  0.55721914
   0.08333333  0.83333333  0.38179910
Direct configuration=     5
   0.08333333  0.08333333  0.38179910
   0.24310669  0.49003909  0.56827133
   0.42435391  0.66068356  0.50109909
   0.66372570  0.16631053  0.47138932
   0.99890347  0.98983185  0.56974686
   0.83333333  0.08333333  0.38179910
   0.08333333  0.33333333  0.38179910
   0.90789763  0.41846212  0.47737431
   0.53569479  0.70523653  0.64827267
   0.08333333  0.58333333  0.38179910
   0.41753329  0.91111129  0.47791486
   0.91653304  0.91302600  0.47542561
   0.55083225  0.41299215  0.63279889
   0.00086359  0.74002989  0.56845352
   0.41529509  0.41907786  0.47495214
   0.16033054  0.16783186  0.47702627
   0.24951011  0.99319481  0.57173642
   0.41137932  0.16685189  0.47491704
   0.74242980  0.74784588  0.55992039
   0.27975250  0.74173720  0.59598417
   0.17157334  0.90899655  0.47510270
   0.67063406  0.53413570  0.55899865
   0.33333333  0.58333333  0.38179910
   0.16735122  0.66438480  0.47641563
   0.82903498  0.49122367  0.61804141
   0.09416975  0.31994236  0.61650063
   0.06552298  0.07671377  0.62656807
   0.76030841  0.26492761  0.63306807
   0.33965134  0.53848942  0.62799279
   0.58650852  0.83906114  0.62013371
   0.58568419  0.08997200  0.60746410
   0.53202624  0.55709959  0.68629115
   0.24835986  0.23748916  0.56649552
   0.15946710  0.41925704  0.47902182
   0.33333333  0.33333333  0.38179910
   0.58333333  0.08333333  0.38179910
   0.48819098  0.00076554  0.56953869
   0.33333333  0.08333333  0.38179910
   0.58333333  0.33333333  0.38179910
   0.83333333  0.83333333  0.38179910
   0.49742165  0.26035779  0.56388204
   0.66076551  0.66788109  0.46768563
   0.58333333  0.58333333  0.38179910
   0.33333333  0.83333333  0.38179910
   0.66344176  0.91498126  0.46930062
   0.98205653  0.49195669  0.57214038
   0.58333333  0.83333333  0.38179910
   0.90999857  0.66558561  0.47508727
   0.93528991  0.28250196  0.62265471
   0.91434476  0.16624118  0.47270762
   0.74984720  0.99556111  0.56196059
   0.83333333  0.58333333  0.38179910
   0.83333333  0.33333333  0.38179910
   0.66058212  0.41844422  0.46833015
   0.75339653  0.24767866  0.55722781
   0.08333333  0.83333333  0.38179910
Direct configuration=     6
   0.08333333  0.08333333  0.38179910
   0.24304709  0.49004086  0.56824731
   0.42443125  0.66063141  0.50120153
   0.66372870  0.16628935  0.47141585
   0.99889700  0.99004884  0.56967370
   0.83333333  0.08333333  0.38179910
   0.08333333  0.33333333  0.38179910
   0.90789512  0.41846886  0.47731292
   0.53558331  0.70504338  0.64828265
   0.08333333  0.58333333  0.38179910
   0.41759991  0.91104066  0.47788054
   0.91659317  0.91298856  0.47543076
   0.55084955  0.41289325  0.63281733
   0.00085482  0.74007262  0.56846558
   0.41532080  0.41904695  0.47490292
   0.16026959  0.16779447  0.47704747
   0.24961701  0.99319881  0.57175681
   0.41132303  0.16684748  0.47492246
   0.74239763  0.74799757  0.55987139
   0.27933867  0.74176753  0.59596854
   0.17164496  0.90885898  0.47515543
   0.67066971  0.53415260  0.55903035
   0.33333333  0.58333333  0.38179910
   0.16739682  0.66429446  0.47636719
   0.82902690  0.49119725  0.61809537
   0.09418403  0.31992736  0.61650207
   0.06535909  0.07682604  0.62656758
   0.76024988  0.26498463  0.63308598
   0.33962693  0.53840222  0.62798531
   0.58668824  0.83895634  0.62015161
   0.58579246  0.09007464  0.60748654
   0.53200001  0.55707226  0.68627428
   0.24839208  0.23747940  0.56650850
   0.15942842  0.41922898  0.47901540
   0.33333333  0.33333333  0.38179910
   0.58333333  0.08333333  0.38179910
   0.48837656  0.00077491  0.56959056
   0.33333333  0.08333333  0.38179910
   0.58333333  0.33333333  0.38179910
   0.83333333  0.83333333  0.38179910
   0.49742761  0.26041636  0.56387478
   0.66087153  0.66784033  0.46769458
   0.58333333  0.58333333  0.38179910
   0.33333333  0.83333333  0.38179910
   0.66345181  0.91496445  0.46929387
   0.98201938  0.49208717  0.57219903
   0.58333333  0.83333333  0.38179910
   0.91006573  0.66553859  0.47507700
   0.93522939  0.28253090  0.62267616
   0.91426490  0.16622089  0.47268211
   0.74998759  0.99553783  0.56199872
   0.83333333  0.58333333  0.38179910
   0.83333333  0.33333333  0.38179910
   0.66055784  0.41849720  0.46831499
   0.75335073  0.24771849  0.55724514
   0.08333333  0.83333333  0.38179910
Direct configuration=     7
   0.08333333  0.08333333  0.38179910
   0.24306805  0.49004024  0.56825576
   0.42440405  0.66064975  0.50116550
   0.66372764  0.16629680  0.47140652
   0.99889928  0.98997252  0.56969943
   0.83333333  0.08333333  0.38179910
   0.08333333  0.33333333  0.38179910
   0.90789600  0.41846649  0.47733451
   0.53562252  0.70511131  0.64827914
   0.08333333  0.58333333  0.38179910
   0.41757648  0.91106550  0.47789261
   0.91657202  0.91300173  0.47542895
   0.55084346  0.41292803  0.63281084
   0.00085790  0.74005759  0.56846134
   0.41531176  0.41905782  0.47492023
   0.16029103  0.16780762  0.47704001
   0.24957941  0.99319740  0.57174964
   0.41134283  0.16684903  0.47492055
   0.74240895  0.74794422  0.55988862
   0.27948422  0.74175687  0.59597404
   0.17161977  0.90890737  0.47513688
   0.67065717  0.53414666  0.55901920
   0.33333333  0.58333333  0.38179910
   0.16738078  0.66432624  0.47638423
   0.82902974  0.49120654  0.61807639
   0.09417901  0.31993263  0.61650156
   0.06541673  0.07678656  0.62656775
   0.76027046  0.26496458  0.63307968
   0.33963552  0.53843289  0.62798794
   0.58662503  0.83899320  0.62014532
   0.58575438  0.09003854  0.60747865
   0.53200924  0.55708188  0.68628021
   0.24838075  0.23748283  0.56650394
   0.15944202  0.41923885  0.47901765
   0.33333333  0.33333333  0.38179910
   0.58333333  0.08333333  0.38179910
   0.48831129  0.00077161  0.56957232
   0.33333333  0.08333333  0.38179910
   0.58333333  0.33333333  0.38179910
   0.83333333  0.83333333  0.38179910
   0.49742552  0.26039576  0.56387733
   0.66083424  0.66785466  0.46769144
   0.58333333  0.58333333  0.38179910
   0.33333333  0.83333333  0.38179910
   0.66344827  0.91497036  0.46929624
   0.98203245  0.49204128  0.57217840
   0.58333333  0.83333333  0.38179910
   0.91004211  0.66555512  0.47508062
   0.93525067  0.28252072  0.62266862
   0.91429299  0.16622802  0.47269108
   0.74993821  0.99554602  0.56198531
   0.83333333  0.58333333  0.38179910
   0.83333333  0.33333333  0.38179910
   0.66056638  0.41847856  0.46832032
   0.75336684  0.24770448  0.55723904
   0.08333333  0.83333333  0.38179910
Direct configuration=     8
   0.08333333  0.08333333  0.38179910
   0.24305540  0.49002969  0.56824397
   0.42444049  0.66062346  0.50120937
   0.66371587  0.16627852  0.47141239
   0.99891182  0.99003980  0.56967155
   0.83333333  0.08333333  0.38179910
   0.08333333  0.33333333  0.38179910
   0.90790526  0.41845374  0.47731982
   0.53561265  0.70512288  0.64826457
   0.08333333  0.58333333  0.38179910
   0.41757851  0.91105484  0.47788840
   0.91657859  0.91298097  0.47543071
   0.55088059  0.41285120  0.63280653
   0.00087067  0.74009018  0.56846468
   0.41531724  0.41904183  0.47490697
   0.16026982  0.16777603  0.47704986
   0.24964750  0.99316098  0.57175907
   0.41134240  0.16683492  0.47492324
   0.74240778  0.74796066  0.55987428
   0.27929983  0.74179414  0.59596454
   0.17166543  0.90887706  0.47515330
   0.67068742  0.53414840  0.55902973
   0.33333333  0.58333333  0.38179910
   0.16739723  0.66428662  0.47636953
   0.82902518  0.49122285  0.61809238
   0.09420798  0.31992295  0.61649135
   0.06537289  0.07681584  0.62657161
   0.76023592  0.26498611  0.63308242
   0.33959471  0.53840850  0.62798688
   0.58666543  0.83892862  0.62015298
   0.58580031  0.09007817  0.60749125
   0.53198362  0.55705524  0.68629074
   0.24835679  0.23750516  0.56651965
   0.15944080  0.41922110  0.47901568
   0.33333333  0.33333333  0.38179910
   0.58333333  0.08333333  0.38179910
   0.48834163  0.00077181  0.56958861
   0.33333333  0.08333333  0.38179910
   0.58333333  0.33333333  0.38179910
   0.83333333  0.83333333  0.38179910
   0.49742907  0.26041025  0.56387575
   0.66085722  0.66783500  0.46769495
   0.58333333  0.58333333  0.38179910
   0.33333333  0.83333333  0.38179910
   0.66346319  0.91498261  0.46929344
   0.98199268  0.49207434  0.57220311
   0.58333333  0.83333333  0.38179910
   0.91006192  0.66555570  0.47507710
   0.93521524  0.28253688  0.62267744
   0.91428138  0.16623206  0.47268317
   0.74999417  0.99555365  0.56199787
   0.83333333  0.58333333  0.38179910
   0.83333333  0.33333333  0.38179910
   0.66055684  0.41850185  0.46832392
   0.75334586  0.24773896  0.55725092
   0.08333333  0.83333333  0.38179910
Direct configuration=     9
   0.08333333  0.08333333  0.38179910
   0.24302924  0.49000787  0.56821958
   0.42451585  0.66056910  0.50130009
   0.66369153  0.16624073  0.47142453
   0.99893777  0.99017891  0.56961391
   0.83333333  0.08333333  0.38179910
   0.08333333  0.33333333  0.38179910
   0.90792439  0.41842737  0.47728943
   0.53559224  0.70514680  0.64823446
   0.08333333  0.58333333  0.38179910
   0.41758271  0.91103280  0.47787969
   0.91659217  0.91293804  0.47543434
   0.55095737  0.41269230  0.63279763
   0.00089708  0.74015755  0.56847159
   0.41532858  0.41900877  0.47487954
   0.16022596  0.16771072  0.47707022
   0.24978831  0.99308565  0.57177856
   0.41134151  0.16680576  0.47492879
   0.74240536  0.74799465  0.55984461
   0.27891853  0.74187123  0.59594491
   0.17175985  0.90881440  0.47518724
   0.67074997  0.53415201  0.55905150
   0.33333333  0.58333333  0.38179910
   0.16743124  0.66420471  0.47633914
   0.82901575  0.49125657  0.61812545
   0.09426788  0.31990292  0.61647022
   0.06528222  0.07687641  0.62657959
   0.76016449  0.26503064  0.63308809
   0.33951034  0.53835808  0.62798469
   0.58674897  0.83879510  0.62016883
   0.58589529  0.09016013  0.60751732
   0.53193065  0.55700017  0.68631250
   0.24830726  0.23755134  0.56655214
   0.15943826  0.41918439  0.47901161
   0.33333333  0.33333333  0.38179910
   0.58333333  0.08333333  0.38179910
   0.48840438  0.00077222  0.56962231
   0.33333333  0.08333333  0.38179910
   0.58333333  0.33333333  0.38179910
   0.83333333  0.83333333  0.38179910
   0.49743641  0.26044022  0.56387248
   0.66090474  0.66779433  0.46770221
   0.58333333  0.58333333  0.38179910
   0.33333333  0.83333333  0.38179910
   0.66349405  0.91500794  0.46928763
   0.98191044  0.49214269  0.57225420
   0.58333333  0.83333333  0.38179910
   0.91010287  0.66555689  0.47506982
   0.93514196  0.28257030  0.62269569
   0.91425738  0.16624041  0.47266683
   0.75010987  0.99556944  0.56202383
   0.83333333  0.58333333  0.38179910
   0.83333333  0.33333333  0.38179910
   0.66053711  0.41855000  0.46833137
   0.75330250  0.24781025  0.55727549
   0.08333333  0.83333333  0.38179910
Direct configuration=    10
   0.08333333  0.08333333  0.38179910
   0.24302336  0.48998604  0.56820130
   0.42455727  0.66052750  0.50136290
   0.66367589  0.16622012  0.47142846
   0.99897796  0.99026201  0.56957916
   0.83333333  0.08333333  0.38179910
   0.08333333  0.33333333  0.38179910
   0.90795395  0.41839853  0.47728671
   0.53558496  0.70511091  0.64823166
   0.08333333  0.58333333  0.38179910
   0.41758780  0.91102850  0.47788500
   0.91660015  0.91291127  0.47543413
   0.55087497  0.41272557  0.63280088
   0.00094257  0.74020481  0.56847297
   0.41533819  0.41898668  0.47487034
   0.16022113  0.16766009  0.47708916
   0.24989633  0.99300697  0.57179639
   0.41134872  0.16677279  0.47493654
   0.74242528  0.74797543  0.55982985
   0.27864682  0.74192593  0.59593462
   0.17182233  0.90877759  0.47519871
   0.67080416  0.53414910  0.55906204
   0.33333333  0.58333333  0.38179910
   0.16745234  0.66417419  0.47632790
   0.82900837  0.49130245  0.61814719
   0.09425365  0.31990860  0.61646525
   0.06524759  0.07689648  0.62658904
   0.76015705  0.26500664  0.63309871
   0.33948881  0.53829925  0.62798447
   0.58677969  0.83875365  0.62016495
   0.58595979  0.09019256  0.60753221
   0.53187672  0.55700674  0.68630487
   0.24830713  0.23755156  0.56656108
   0.15945141  0.41913663  0.47900976
   0.33333333  0.33333333  0.38179910
   0.58333333  0.08333333  0.38179910
   0.48841741  0.00078020  0.56964628
   0.33333333  0.08333333  0.38179910
   0.58333333  0.33333333  0.38179910
   0.83333333  0.83333333  0.38179910
   0.49743702  0.26042777  0.56386785
   0.66090006  0.66778399  0.46770370
   0.58333333  0.58333333  0.38179910
   0.33333333  0.83333333  0.38179910
   0.66351720  0.91502895  0.46928616
   0.98183328  0.49217584  0.57228219
   0.58333333  0.83333333  0.38179910
   0.91011696  0.66557195  0.47506627
   0.93513469  0.28260672  0.62270717
   0.91424627  0.16625066  0.47266166
   0.75016540  0.99560534  0.56204198
   0.83333333  0.58333333  0.38179910
   0.83333333  0.33333333  0.38179910
   0.66053193  0.41855805  0.46834638
   0.75328191  0.24787093  0.55727393
   0.08333333  0.83333333  0.38179910
Direct configuration=    11
   0.08333333  0.08333333  0.38179910
   0.24301058  0.48993861  0.56816157
   0.42464725  0.66043712  0.50149935
   0.66364192  0.16617534  0.47143701
   0.99906528  0.99044256  0.56950366
   0.83333333  0.08333333  0.38179910
   0.08333333  0.33333333  0.38179910
   0.90801816  0.41833586  0.47728079
   0.53556914  0.70503292  0.64822558
   0.08333333  0.58333333  0.38179910
   0.41759884  0.91101915  0.47789654
   0.91661749  0.91285310  0.47543367
   0.55069595  0.41279786  0.63280793
   0.00104139  0.74030750  0.56847596
   0.41535905  0.41893869  0.47485034
   0.16021064  0.16755008  0.47713031
   0.25013102  0.99283602  0.57183511
   0.41136440  0.16670116  0.47495336
   0.74246855  0.74793368  0.55979780
   0.27805650  0.74204478  0.59591227
   0.17195807  0.90869762  0.47522363
   0.67092190  0.53414275  0.55908494
   0.33333333  0.58333333  0.38179910
   0.16749819  0.66410787  0.47630349
   0.82899235  0.49140212  0.61819442
   0.09422275  0.31992092  0.61645443
   0.06517233  0.07694009  0.62660957
   0.76014088  0.26495451  0.63312177
   0.33944202  0.53817144  0.62798400
   0.58684644  0.83866358  0.62015651
   0.58609993  0.09026302  0.60756454
   0.53175955  0.55702103  0.68628827
   0.24830685  0.23755204  0.56658049
   0.15947995  0.41903288  0.47900574
   0.33333333  0.33333333  0.38179910
   0.58333333  0.08333333  0.38179910
   0.48844572  0.00079755  0.56969836
   0.33333333  0.08333333  0.38179910
   0.58333333  0.33333333  0.38179910
   0.83333333  0.83333333  0.38179910
   0.49743835  0.26040072  0.56385779
   0.66088991  0.66776151  0.46770694
   0.58333333  0.58333333  0.38179910
   0.33333333  0.83333333  0.38179910
   0.66356751  0.91507459  0.46928295
   0.98166564  0.49224785  0.57234300
   0.58333333  0.83333333  0.38179910
   0.91014755  0.66560466  0.47505856
   0.93511888  0.28268585  0.62273210
   0.91422214  0.16627292  0.47265043
   0.75028604  0.99568335  0.56208142
   0.83333333  0.58333333  0.38179910
   0.83333333  0.33333333  0.38179910
   0.66052068  0.41857555  0.46837899
   0.75323720  0.24800277  0.55727055
   0.08333333  0.83333333  0.38179910
Direct configuration=    12
   0.08333333  0.08333333  0.38179910
   0.24300594  0.48990551  0.56814017
   0.42464440  0.66041205  0.50155324
   0.66366310  0.16618088  0.47143310
   0.99911479  0.99054296  0.56947710
   0.83333333  0.08333333  0.38179910
   0.08333333  0.33333333  0.38179910
   0.90804301  0.41833705  0.47730248
   0.53554926  0.70504102  0.64822986
   0.08333333  0.58333333  0.38179910
   0.41766313  0.91099400  0.47791371
   0.91665366  0.91286478  0.47542817
   0.55064302  0.41282717  0.63280785
   0.00110926  0.74032322  0.56847045
   0.41536773  0.41892334  0.47485454
   0.16024684  0.16752143  0.47715007
   0.25021210  0.99276575  0.57186969
   0.41135323  0.16666969  0.47496401
   0.74250692  0.74793980  0.55979099
   0.27780013  0.74203803  0.59591303
   0.17197689  0.90864205  0.47521145
   0.67098778  0.53412295  0.55909334
   0.33333333  0.58333333  0.38179910
   0.16751819  0.66412547  0.47630653
   0.82897187  0.49146942  0.61823087
   0.09416326  0.31995419  0.61647393
   0.06517245  0.07696398  0.62662092
   0.76011620  0.26496341  0.63312556
   0.33936733  0.53816984  0.62798575
   0.58684875  0.83865115  0.62013794
   0.58614204  0.09024043  0.60757117
   0.53167561  0.55706856  0.68627315
   0.24834499  0.23749294  0.56656862
   0.15950074  0.41897003  0.47900389
   0.33333333  0.33333333  0.38179910
   0.58333333  0.08333333  0.38179910
   0.48849713  0.00081071  0.56973013
   0.33333333  0.08333333  0.38179910
   0.58333333  0.33333333  0.38179910
   0.83333333  0.83333333  0.38179910
   0.49743844  0.26035971  0.56385355
   0.66084989  0.66777939  0.46770072
   0.58333333  0.58333333  0.38179910
   0.33333333  0.83333333  0.38179910
   0.66356405  0.91506318  0.46928938
   0.98162700  0.49228756  0.57233986
   0.58333333  0.83333333  0.38179910
   0.91014968  0.66558746  0.47505699
   0.93510996  0.28264459  0.62274618
   0.91420764  0.16625967  0.47265055
   0.75031171  0.99571816  0.56209611
   0.83333333  0.58333333  0.38179910
   0.83333333  0.33333333  0.38179910
   0.66052393  0.41854381  0.46839576
   0.75323173  0.24806931  0.55726659
   0.08333333  0.83333333  0.38179910
