  48  48   0   0
  0.5349325E+02  0.1100258E-08  0.1100258E-08  0.2449179E-08  0.3500000E-15
  1.000000000000000E-004
  CAR 
 unknown system                          
      6.33349632     -9.59072098  301     -1.07830915      1.00000000
     -9.591  0.0000E+00  0.0000E+00
     -9.538  0.0000E+00  0.0000E+00
     -9.485  0.0000E+00  0.0000E+00
     -9.431  0.0000E+00  0.0000E+00
     -9.378  0.0000E+00  0.0000E+00
     -9.325  0.0000E+00  0.0000E+00
     -9.272  0.0000E+00  0.0000E+00
     -9.219  0.0000E+00  0.0000E+00
     -9.166  0.5578E-17  0.2961E-18
     -9.113  0.2046E-14  0.1089E-15
     -9.060  0.4489E-12  0.2394E-13
     -9.007  0.5669E-10  0.3033E-11
     -8.954  0.4125E-08  0.2220E-09
     -8.901  0.1733E-06  0.9423E-08
     -8.848  0.4214E-05  0.2331E-06
     -8.795  0.5941E-04  0.3387E-05
     -8.741  0.4868E-03  0.2923E-04
     -8.688  0.2324E-02  0.1526E-03
     -8.635  0.6475E-02  0.4962E-03
     -8.582  0.1058E-01  0.1058E-02
     -8.529  0.1044E-01  0.1612E-02
     -8.476  0.7638E-02  0.2018E-02
     -8.423  0.7781E-02  0.2431E-02
     -8.370  0.1054E-01  0.2990E-02
     -8.317  0.1031E-01  0.3537E-02
     -8.264  0.6117E-02  0.3862E-02
     -8.211  0.2310E-02  0.3985E-02
     -8.158  0.1494E-02  0.4064E-02
     -8.104  0.4002E-02  0.4276E-02
     -8.051  0.9833E-02  0.4798E-02
     -7.998  0.1694E-01  0.5697E-02
     -7.945  0.2102E-01  0.6813E-02
     -7.892  0.2021E-01  0.7885E-02
     -7.839  0.1713E-01  0.8795E-02
     -7.786  0.1440E-01  0.9559E-02
     -7.733  0.1338E-01  0.1027E-01
     -7.680  0.1460E-01  0.1104E-01
     -7.627  0.1555E-01  0.1187E-01
     -7.574  0.1446E-01  0.1264E-01
     -7.521  0.1348E-01  0.1335E-01
     -7.467  0.1408E-01  0.1410E-01
     -7.414  0.1581E-01  0.1494E-01
     -7.361  0.1847E-01  0.1592E-01
     -7.308  0.2062E-01  0.1701E-01
     -7.255  0.2135E-01  0.1815E-01
     -7.202  0.2311E-01  0.1937E-01
     -7.149  0.2842E-01  0.2088E-01
     -7.096  0.3652E-01  0.2282E-01
     -7.043  0.4471E-01  0.2519E-01
     -6.990  0.5291E-01  0.2800E-01
     -6.937  0.6162E-01  0.3127E-01
     -6.884  0.6873E-01  0.3492E-01
     -6.831  0.7298E-01  0.3879E-01
     -6.777  0.7477E-01  0.4276E-01
     -6.724  0.7712E-01  0.4686E-01
     -6.671  0.8443E-01  0.5134E-01
     -6.618  0.9406E-01  0.5633E-01
     -6.565  0.9788E-01  0.6153E-01
     -6.512  0.9753E-01  0.6670E-01
     -6.459  0.9977E-01  0.7200E-01
     -6.406  0.9994E-01  0.7731E-01
     -6.353  0.9699E-01  0.8245E-01
     -6.300  0.1025E+00  0.8789E-01
     -6.247  0.1190E+00  0.9421E-01
     -6.194  0.1360E+00  0.1014E+00
     -6.140  0.1435E+00  0.1090E+00
     -6.087  0.1421E+00  0.1166E+00
     -6.034  0.1406E+00  0.1240E+00
     -5.981  0.1448E+00  0.1317E+00
     -5.928  0.1521E+00  0.1398E+00
     -5.875  0.1578E+00  0.1482E+00
     -5.822  0.1596E+00  0.1567E+00
     -5.769  0.1584E+00  0.1651E+00
     -5.716  0.1573E+00  0.1734E+00
     -5.663  0.1551E+00  0.1816E+00
     -5.610  0.1499E+00  0.1896E+00
     -5.557  0.1459E+00  0.1973E+00
     -5.504  0.1482E+00  0.2052E+00
     -5.450  0.1557E+00  0.2135E+00
     -5.397  0.1649E+00  0.2222E+00
     -5.344  0.1735E+00  0.2314E+00
     -5.291  0.1791E+00  0.2409E+00
     -5.238  0.1818E+00  0.2506E+00
     -5.185  0.1810E+00  0.2602E+00
     -5.132  0.1752E+00  0.2695E+00
     -5.079  0.1677E+00  0.2784E+00
     -5.026  0.1643E+00  0.2871E+00
     -4.973  0.1642E+00  0.2958E+00
     -4.920  0.1644E+00  0.3046E+00
     -4.867  0.1657E+00  0.3134E+00
     -4.813  0.1670E+00  0.3222E+00
     -4.760  0.1674E+00  0.3311E+00
     -4.707  0.1706E+00  0.3402E+00
     -4.654  0.1759E+00  0.3495E+00
     -4.601  0.1800E+00  0.3591E+00
     -4.548  0.1825E+00  0.3688E+00
     -4.495  0.1839E+00  0.3785E+00
     -4.442  0.1852E+00  0.3883E+00
     -4.389  0.1896E+00  0.3984E+00
     -4.336  0.1963E+00  0.4088E+00
     -4.283  0.1990E+00  0.4194E+00
     -4.230  0.1945E+00  0.4297E+00
     -4.176  0.1880E+00  0.4397E+00
     -4.123  0.1857E+00  0.4495E+00
     -4.070  0.1873E+00  0.4595E+00
     -4.017  0.1883E+00  0.4695E+00
     -3.964  0.1842E+00  0.4793E+00
     -3.911  0.1759E+00  0.4886E+00
     -3.858  0.1708E+00  0.4977E+00
     -3.805  0.1730E+00  0.5068E+00
     -3.752  0.1795E+00  0.5164E+00
     -3.699  0.1890E+00  0.5264E+00
     -3.646  0.2028E+00  0.5372E+00
     -3.593  0.2169E+00  0.5487E+00
     -3.540  0.2237E+00  0.5606E+00
     -3.486  0.2214E+00  0.5723E+00
     -3.433  0.2121E+00  0.5836E+00
     -3.380  0.1990E+00  0.5941E+00
     -3.327  0.1858E+00  0.6040E+00
     -3.274  0.1746E+00  0.6133E+00
     -3.221  0.1684E+00  0.6222E+00
     -3.168  0.1689E+00  0.6312E+00
     -3.115  0.1722E+00  0.6403E+00
     -3.062  0.1729E+00  0.6495E+00
     -3.009  0.1695E+00  0.6585E+00
     -2.956  0.1642E+00  0.6672E+00
     -2.903  0.1616E+00  0.6758E+00
     -2.849  0.1638E+00  0.6845E+00
     -2.796  0.1670E+00  0.6933E+00
     -2.743  0.1683E+00  0.7023E+00
     -2.690  0.1694E+00  0.7113E+00
     -2.637  0.1722E+00  0.7204E+00
     -2.584  0.1763E+00  0.7298E+00
     -2.531  0.1804E+00  0.7393E+00
     -2.478  0.1828E+00  0.7490E+00
     -2.425  0.1836E+00  0.7588E+00
     -2.372  0.1853E+00  0.7686E+00
     -2.319  0.1885E+00  0.7786E+00
     -2.266  0.1893E+00  0.7887E+00
     -2.213  0.1859E+00  0.7985E+00
     -2.159  0.1805E+00  0.8081E+00
     -2.106  0.1756E+00  0.8174E+00
     -2.053  0.1750E+00  0.8267E+00
     -2.000  0.1812E+00  0.8364E+00
     -1.947  0.1913E+00  0.8465E+00
     -1.894  0.1993E+00  0.8571E+00
     -1.841  0.2026E+00  0.8678E+00
     -1.788  0.2031E+00  0.8786E+00
     -1.735  0.2046E+00  0.8895E+00
     -1.682  0.2093E+00  0.9006E+00
     -1.629  0.2150E+00  0.9120E+00
     -1.576  0.2166E+00  0.9235E+00
     -1.522  0.2117E+00  0.9347E+00
     -1.469  0.2022E+00  0.9455E+00
     -1.416  0.1937E+00  0.9558E+00
     -1.363  0.1885E+00  0.9658E+00
     -1.310  0.1820E+00  0.9754E+00
     -1.257  0.1714E+00  0.9845E+00
     -1.204  0.1563E+00  0.9928E+00
     -1.151  0.1357E+00  0.1000E+01
     -1.098  0.1133E+00  0.1006E+01
     -1.045  0.9528E-01  0.1011E+01
     -0.992  0.7854E-01  0.1015E+01
     -0.939  0.5758E-01  0.1018E+01
     -0.885  0.3649E-01  0.1020E+01
     -0.832  0.2285E-01  0.1021E+01
     -0.779  0.1736E-01  0.1022E+01
     -0.726  0.1462E-01  0.1023E+01
     -0.673  0.1047E-01  0.1024E+01
     -0.620  0.7521E-02  0.1024E+01
     -0.567  0.1088E-01  0.1025E+01
     -0.514  0.2053E-01  0.1026E+01
     -0.461  0.3194E-01  0.1027E+01
     -0.408  0.4151E-01  0.1030E+01
     -0.355  0.4750E-01  0.1032E+01
     -0.302  0.4847E-01  0.1035E+01
     -0.249  0.4572E-01  0.1037E+01
     -0.195  0.4241E-01  0.1039E+01
     -0.142  0.3749E-01  0.1041E+01
     -0.089  0.2998E-01  0.1043E+01
     -0.036  0.2526E-01  0.1044E+01
      0.017  0.2719E-01  0.1046E+01
      0.070  0.3194E-01  0.1048E+01
      0.123  0.3771E-01  0.1050E+01
      0.176  0.4627E-01  0.1052E+01
      0.229  0.5203E-01  0.1055E+01
      0.282  0.4920E-01  0.1057E+01
      0.335  0.4072E-01  0.1060E+01
      0.388  0.3034E-01  0.1061E+01
      0.442  0.2224E-01  0.1062E+01
      0.495  0.2133E-01  0.1063E+01
      0.548  0.2606E-01  0.1065E+01
      0.601  0.3201E-01  0.1067E+01
      0.654  0.3783E-01  0.1069E+01
      0.707  0.4276E-01  0.1071E+01
      0.760  0.4360E-01  0.1073E+01
      0.813  0.3875E-01  0.1075E+01
      0.866  0.3044E-01  0.1077E+01
      0.919  0.2307E-01  0.1078E+01
      0.972  0.2166E-01  0.1079E+01
      1.025  0.2472E-01  0.1080E+01
      1.079  0.2552E-01  0.1082E+01
      1.132  0.2112E-01  0.1083E+01
      1.185  0.1379E-01  0.1084E+01
      1.238  0.8732E-02  0.1084E+01
      1.291  0.9113E-02  0.1085E+01
      1.344  0.1281E-01  0.1085E+01
      1.397  0.1772E-01  0.1086E+01
      1.450  0.2530E-01  0.1088E+01
      1.503  0.3399E-01  0.1089E+01
      1.556  0.3821E-01  0.1091E+01
      1.609  0.3815E-01  0.1093E+01
      1.662  0.3866E-01  0.1096E+01
      1.715  0.4028E-01  0.1098E+01
      1.769  0.3949E-01  0.1100E+01
      1.822  0.3383E-01  0.1102E+01
      1.875  0.2453E-01  0.1103E+01
      1.928  0.1470E-01  0.1104E+01
      1.981  0.8478E-02  0.1104E+01
      2.034  0.8630E-02  0.1105E+01
      2.087  0.1215E-01  0.1105E+01
      2.140  0.1428E-01  0.1106E+01
      2.193  0.1645E-01  0.1107E+01
      2.246  0.2259E-01  0.1108E+01
      2.299  0.3244E-01  0.1110E+01
      2.352  0.4232E-01  0.1112E+01
      2.406  0.4932E-01  0.1115E+01
      2.459  0.5381E-01  0.1117E+01
      2.512  0.5616E-01  0.1120E+01
      2.565  0.5580E-01  0.1123E+01
      2.618  0.5441E-01  0.1126E+01
      2.671  0.5510E-01  0.1129E+01
      2.724  0.5604E-01  0.1132E+01
      2.777  0.4986E-01  0.1135E+01
      2.830  0.3517E-01  0.1137E+01
      2.883  0.2090E-01  0.1138E+01
      2.936  0.1491E-01  0.1139E+01
      2.989  0.1563E-01  0.1139E+01
      3.042  0.1848E-01  0.1140E+01
      3.096  0.2370E-01  0.1142E+01
      3.149  0.2929E-01  0.1143E+01
      3.202  0.2786E-01  0.1145E+01
      3.255  0.1963E-01  0.1146E+01
      3.308  0.1365E-01  0.1146E+01
      3.361  0.1228E-01  0.1147E+01
      3.414  0.1012E-01  0.1148E+01
      3.467  0.6924E-02  0.1148E+01
      3.520  0.7901E-02  0.1148E+01
      3.573  0.1469E-01  0.1149E+01
      3.626  0.2396E-01  0.1150E+01
      3.679  0.3273E-01  0.1152E+01
      3.733  0.4024E-01  0.1154E+01
      3.786  0.4464E-01  0.1157E+01
      3.839  0.4167E-01  0.1159E+01
      3.892  0.3138E-01  0.1161E+01
      3.945  0.2165E-01  0.1162E+01
      3.998  0.2026E-01  0.1163E+01
      4.051  0.2626E-01  0.1164E+01
      4.104  0.3078E-01  0.1166E+01
      4.157  0.2950E-01  0.1167E+01
      4.210  0.2683E-01  0.1169E+01
      4.263  0.2518E-01  0.1170E+01
      4.316  0.2236E-01  0.1171E+01
      4.370  0.1960E-01  0.1172E+01
      4.423  0.2015E-01  0.1173E+01
      4.476  0.2410E-01  0.1175E+01
      4.529  0.3257E-01  0.1176E+01
      4.582  0.4596E-01  0.1179E+01
      4.635  0.5710E-01  0.1182E+01
      4.688  0.5700E-01  0.1185E+01
      4.741  0.4740E-01  0.1187E+01
      4.794  0.3986E-01  0.1190E+01
      4.847  0.4210E-01  0.1192E+01
      4.900  0.5169E-01  0.1195E+01
      4.953  0.6130E-01  0.1198E+01
      5.006  0.6749E-01  0.1201E+01
      5.060  0.7106E-01  0.1205E+01
      5.113  0.7045E-01  0.1209E+01
      5.166  0.6720E-01  0.1213E+01
      5.219  0.6573E-01  0.1216E+01
      5.272  0.6132E-01  0.1219E+01
      5.325  0.4722E-01  0.1222E+01
      5.378  0.2737E-01  0.1223E+01
      5.431  0.1122E-01  0.1224E+01
      5.484  0.3073E-02  0.1224E+01
      5.537  0.5361E-03  0.1224E+01
      5.590  0.5758E-04  0.1224E+01
      5.643  0.3726E-05  0.1224E+01
      5.697  0.1432E-06  0.1224E+01
      5.750  0.3239E-08  0.1224E+01
      5.803  0.4282E-10  0.1224E+01
      5.856  0.3293E-12  0.1224E+01
      5.909  0.1468E-14  0.1224E+01
      5.962  0.2789E-17  0.1224E+01
      6.015  0.0000E+00  0.1224E+01
      6.068  0.0000E+00  0.1224E+01
      6.121  0.0000E+00  0.1224E+01
      6.174  0.0000E+00  0.1224E+01
      6.227  0.0000E+00  0.1224E+01
      6.280  0.0000E+00  0.1224E+01
      6.333  0.0000E+00  0.1224E+01
