<?xml version="1.0" encoding="ISO-8859-1"?>
<modeling>
 <generator>
  <i name="program" type="string">vasp </i>
  <i name="version" type="string">5.4.1  </i>
  <i name="subversion" type="string">24Jun15 (build Mar 14 2019 10:18:33) complex                          parallel </i>
  <i name="platform" type="string">INTEL-19.0.2+OPENMPI-3.1.3 </i>
  <i name="date" type="string">2023 01 31 </i>
  <i name="time" type="string">00:58:46 </i>
 </generator>
 <incar>
  <i type="int" name="ISTART">     0</i>
  <i type="string" name="PREC">normal</i>
  <i type="string" name="ALGO"> Fast</i>
  <i type="int" name="NELM">   500</i>
  <i type="int" name="IBRION">     2</i>
  <i type="int" name="NFREE">     2</i>
  <i name="EDIFF">      0.00000100</i>
  <i name="EDIFFG">     -0.02000000</i>
  <i type="int" name="NSW">   500</i>
  <i type="int" name="ISIF">     0</i>
  <i type="int" name="ISYM">     2</i>
  <i name="ENCUT">    400.00000000</i>
  <i name="POTIM">      0.35000000</i>
  <i type="string" name="LREAL"> Auto</i>
  <i type="logical" name="LPLANE"> T  </i>
  <i type="int" name="ISMEAR">     0</i>
  <i name="SIGMA">      0.10000000</i>
  <i type="int" name="NWRITE">     1</i>
  <i type="logical" name="LWAVE"> F  </i>
  <i type="logical" name="LCHARG"> F  </i>
  <i type="logical" name="LVTOT"> F  </i>
  <i type="logical" name="LORBIT"> F  </i>
  <i type="logical" name="LAECHG"> F  </i>
  <v type="int" name="KPOINT_BSE">    -1     0     0     0</v>
  <i type="int" name="NELM">   500</i>
  <i type="string" name="GGA"> PE          ! optPBE-vdW XC-functional</i>
  <i type="int" name="VOSKOWN">     1</i>
  <i type="logical" name="LDIPOL"> T  </i>
  <i type="logical" name="LMONO"> F  </i>
  <i type="int" name="IDIPOL">     3</i>
  <v name="DIPOL">      0.00000000      0.00000000      0.50000000</v>
 </incar>
 <kpoints>
  <generation param="Monkhorst-Pack">
   <v type="int" name="divisions">       2        2        1 </v>
   <v name="usershift">      0.00000000       0.00000000       0.00000000 </v>
   <v name="genvec1">      0.50000000      -0.00000000       0.00000000 </v>
   <v name="genvec2">      0.00000000       0.50000000       0.00000000 </v>
   <v name="genvec3">      0.00000000       0.00000000       1.00000000 </v>
   <v name="shift">      0.50000000       0.50000000       0.00000000 </v>
  </generation>
  <varray name="kpointlist" >
   <v>       0.25000000       0.25000000       0.00000000 </v>
   <v>       0.00000000       0.25000000       0.00000000 </v>
   <v>      -0.25000000       0.00000000       0.00000000 </v>
   <v>      -0.25000000       0.25000000       0.00000000 </v>
   <v>       0.50000000      -0.25000000       0.00000000 </v>
   <v>      -0.25000000       0.50000000       0.00000000 </v>
  </varray>
  <varray name="weights" >
   <v>       0.16666667 </v>
   <v>       0.16666667 </v>
   <v>       0.16666667 </v>
   <v>       0.16666667 </v>
   <v>       0.16666667 </v>
   <v>       0.16666667 </v>
  </varray>
 </kpoints>
 <parameters>
  <separator name="general" >
   <i type="string" name="SYSTEM">unknown system</i>
   <i type="logical" name="LCOMPAT"> F  </i>
  </separator>
  <separator name="electronic" >
   <i type="string" name="PREC">normal</i>
   <i name="ENMAX">    400.00000000</i>
   <i name="ENAUG">    416.23000000</i>
   <i name="EDIFF">      0.00000100</i>
   <i type="int" name="IALGO">    68</i>
   <i type="int" name="IWAVPR">    11</i>
   <i type="int" name="NBANDS">   306</i>
   <i name="NELECT">    504.00000000</i>
   <i type="int" name="TURBO">     0</i>
   <i type="int" name="IRESTART">     0</i>
   <i type="int" name="NREBOOT">     0</i>
   <i type="int" name="NMIN">     0</i>
   <i name="EREF">      0.00000000</i>
   <separator name="electronic smearing" >
    <i type="int" name="ISMEAR">     0</i>
    <i name="SIGMA">      0.10000000</i>
    <i name="KSPACING">      0.50000000</i>
    <i type="logical" name="KGAMMA"> T  </i>
   </separator>
   <separator name="electronic projectors" >
    <i type="logical" name="LREAL"> T  </i>
    <v name="ROPT">     -0.00050000     -0.00050000</v>
    <i type="int" name="LMAXPAW">  -100</i>
    <i type="int" name="LMAXMIX">     2</i>
    <i type="logical" name="NLSPLINE"> F  </i>
   </separator>
   <separator name="electronic startup" >
    <i type="int" name="ISTART">     0</i>
    <i type="int" name="ICHARG">     2</i>
    <i type="int" name="INIWAV">     1</i>
   </separator>
   <separator name="electronic spin" >
    <i type="int" name="ISPIN">     1</i>
    <i type="logical" name="LNONCOLLINEAR"> F  </i>
    <v name="MAGMOM">      1.00000000      1.00000000      1.00000000      1.00000000      1.00000000      1.00000000      1.00000000      1.00000000      1.00000000      1.00000000      1.00000000      1.00000000      1.00000000      1.00000000      1.00000000      1.00000000      1.00000000      1.00000000      1.00000000      1.00000000
      1.00000000      1.00000000      1.00000000      1.00000000      1.00000000      1.00000000      1.00000000      1.00000000      1.00000000      1.00000000      1.00000000      1.00000000      1.00000000      1.00000000      1.00000000      1.00000000      1.00000000      1.00000000      1.00000000      1.00000000
      1.00000000      1.00000000      1.00000000      1.00000000      1.00000000      1.00000000      1.00000000      1.00000000</v>
    <i name="NUPDOWN">     -1.00000000</i>
    <i type="logical" name="LSORBIT"> F  </i>
    <v name="SAXIS">      0.00000000      0.00000000      1.00000000</v>
    <i type="logical" name="LSPIRAL"> F  </i>
    <v name="QSPIRAL">      0.00000000      0.00000000      0.00000000</v>
    <i type="logical" name="LZEROZ"> F  </i>
   </separator>
   <separator name="electronic exchange-correlation" >
    <i type="logical" name="LASPH"> F  </i>
    <i type="logical" name="LMETAGGA"> F  </i>
   </separator>
   <separator name="electronic convergence" >
    <i type="int" name="NELM">   500</i>
    <i type="int" name="NELMDL">    -5</i>
    <i type="int" name="NELMIN">     2</i>
    <i name="ENINI">    400.00000000</i>
    <separator name="electronic convergence detail" >
     <i type="logical" name="LDIAG"> T  </i>
     <i type="logical" name="LSUBROT"> F  </i>
     <i name="WEIMIN">      0.00100000</i>
     <i name="EBREAK">      0.00000000</i>
     <i name="DEPER">      0.30000000</i>
     <i type="int" name="NRMM">     4</i>
     <i name="TIME">      0.40000000</i>
    </separator>
   </separator>
   <separator name="electronic mixer" >
    <i name="AMIX">      0.40000000</i>
    <i name="BMIX">      1.00000000</i>
    <i name="AMIN">      0.10000000</i>
    <i name="AMIX_MAG">      1.60000000</i>
    <i name="BMIX_MAG">      1.00000000</i>
    <separator name="electronic mixer details" >
     <i type="int" name="IMIX">     4</i>
     <i type="logical" name="MIXFIRST"> F  </i>
     <i type="int" name="MAXMIX">   -45</i>
     <i name="WC">    100.00000000</i>
     <i type="int" name="INIMIX">     1</i>
     <i type="int" name="MIXPRE">     1</i>
     <i type="int" name="MREMOVE">     5</i>
    </separator>
   </separator>
   <separator name="electronic dipolcorrection" >
    <i type="logical" name="LDIPOL"> T  </i>
    <i type="logical" name="LMONO"> F  </i>
    <i type="int" name="IDIPOL">     3</i>
    <i name="EPSILON">      1.00000000</i>
    <v name="DIPOL">      0.00000000      0.00000000      0.50000000</v>
    <i name="EFIELD">      0.00000000</i>
   </separator>
  </separator>
  <separator name="grids" >
   <i type="int" name="NGX">    54</i>
   <i type="int" name="NGY">    54</i>
   <i type="int" name="NGZ">   120</i>
   <i type="int" name="NGXF">   108</i>
   <i type="int" name="NGYF">   108</i>
   <i type="int" name="NGZF">   240</i>
   <i type="logical" name="ADDGRID"> F  </i>
  </separator>
  <separator name="ionic" >
   <i type="int" name="NSW">   500</i>
   <i type="int" name="IBRION">     2</i>
   <i type="int" name="ISIF">     0</i>
   <i name="PSTRESS">      0.00000000</i>
   <i name="EDIFFG">     -0.02000000</i>
   <i type="int" name="NFREE">     2</i>
   <i name="POTIM">      0.35000000</i>
   <i name="SMASS">     -3.00000000</i>
   <i name="SCALEE">      1.00000000</i>
  </separator>
  <separator name="ionic md" >
   <i name="TEBEG">      0.00010000</i>
   <i name="TEEND">      0.00010000</i>
   <i type="int" name="NBLOCK">     1</i>
   <i type="int" name="KBLOCK">   500</i>
   <i type="int" name="NPACO">   256</i>
   <i name="APACO">     16.00000000</i>
  </separator>
  <separator name="symmetry" >
   <i type="int" name="ISYM">     2</i>
   <i name="SYMPREC">      0.00001000</i>
  </separator>
  <separator name="dos" >
   <i type="logical" name="LORBIT"> F  </i>
   <v name="RWIGS">     -1.00000000     -1.00000000</v>
   <i type="int" name="NEDOS">   301</i>
   <i name="EMIN">     10.00000000</i>
   <i name="EMAX">    -10.00000000</i>
   <i name="EFERMI">      0.00000000</i>
  </separator>
  <separator name="writing" >
   <i type="int" name="NWRITE">     1</i>
   <i type="logical" name="LWAVE"> F  </i>
   <i type="logical" name="LCHARG"> F  </i>
   <i type="logical" name="LPARD"> F  </i>
   <i type="logical" name="LVTOT"> F  </i>
   <i type="logical" name="LVHAR"> F  </i>
   <i type="logical" name="LELF"> F  </i>
   <i type="logical" name="LOPTICS"> F  </i>
   <v name="STM">      0.00000000      0.00000000      0.00000000      0.00000000      0.00000000      0.00000000      0.00000000</v>
  </separator>
  <separator name="performance" >
   <i type="int" name="NPAR">     6</i>
   <i type="int" name="NSIM">     4</i>
   <i type="int" name="NBLK">    -1</i>
   <i type="logical" name="LPLANE"> T  </i>
   <i type="logical" name="LSCALAPACK"> T  </i>
   <i type="logical" name="LSCAAWARE"> F  </i>
   <i type="logical" name="LSCALU"> F  </i>
   <i type="logical" name="LASYNC"> F  </i>
   <i type="logical" name="LORBITALREAL"> F  </i>
  </separator>
  <separator name="miscellaneous" >
   <i type="int" name="IDIOT">     3</i>
   <i type="logical" name="LMUSIC"> F  </i>
   <v name="POMASS">    196.96600000    106.42000000</v>
   <v name="DARWINR">      0.00000000      0.00000000</v>
   <v name="DARWINV">      1.00000000      1.00000000</v>
   <i type="logical" name="LCORR"> T  </i>
  </separator>
  <i type="logical" name="GGA_COMPAT"> T  </i>
  <i type="logical" name="LBERRY"> F  </i>
  <i type="int" name="ICORELEVEL">     0</i>
  <i type="logical" name="LDAU"> F  </i>
  <i type="int" name="I_CONSTRAINED_M">     0</i>
  <separator name="electronic exchange-correlation" >
   <i type="string" name="GGA">PE</i>
   <i type="int" name="VOSKOWN">     1</i>
   <i type="logical" name="LHFCALC"> F  </i>
   <i type="string" name="PRECFOCK"></i>
   <i type="logical" name="LSYMGRAD"> F  </i>
   <i type="logical" name="LHFONE"> F  </i>
   <i type="logical" name="LRHFCALC"> F  </i>
   <i type="logical" name="LTHOMAS"> F  </i>
   <i type="logical" name="LMODELHF"> F  </i>
   <i name="ENCUT4O">     -1.00000000</i>
   <i type="int" name="EXXOEP">     0</i>
   <i type="int" name="FOURORBIT">     0</i>
   <i name="AEXX">      0.00000000</i>
   <i name="HFALPHA">      0.00000000</i>
   <i name="MCALPHA">      0.00000000</i>
   <i name="ALDAX">      1.00000000</i>
   <i name="AGGAX">      1.00000000</i>
   <i name="ALDAC">      1.00000000</i>
   <i name="AGGAC">      1.00000000</i>
   <i type="int" name="NKREDX">     1</i>
   <i type="int" name="NKREDY">     1</i>
   <i type="int" name="NKREDZ">     1</i>
   <i type="logical" name="SHIFTRED"> F  </i>
   <i type="logical" name="ODDONLY"> F  </i>
   <i type="logical" name="EVENONLY"> F  </i>
   <i type="int" name="LMAXFOCK">     0</i>
   <i type="int" name="NMAXFOCKAE">     0</i>
   <i type="logical" name="LFOCKAEDFT"> F  </i>
   <i name="HFSCREEN">      0.00000000</i>
   <i name="HFSCREENC">      0.00000000</i>
   <i type="int" name="NBANDSGWLOW">     0</i>
  </separator>
  <separator name="vdW DFT" >
   <i type="logical" name="LUSE_VDW"> F  </i>
   <i name="Zab_VDW">     -0.84910000</i>
   <i name="PARAM1">      0.12340000</i>
   <i name="PARAM2">      1.00000000</i>
   <i name="PARAM3">      0.00000000</i>
  </separator>
  <separator name="model GW" >
   <i type="int" name="MODEL_GW">     0</i>
   <i name="MODEL_EPS0">     32.09595293</i>
   <i name="MODEL_ALPHA">      1.00000000</i>
  </separator>
  <separator name="linear response parameters" >
   <i type="logical" name="LEPSILON"> F  </i>
   <i type="logical" name="LRPA"> F  </i>
   <i type="logical" name="LNABLA"> F  </i>
   <i type="logical" name="LVEL"> F  </i>
   <i type="int" name="KINTER">     0</i>
   <i name="CSHIFT">      0.10000000</i>
   <i name="OMEGAMAX">     -1.00000000</i>
   <i name="DEG_THRESHOLD">      0.00200000</i>
  </separator>
  <separator name="orbital magnetization" >
   <i type="logical" name="NUCIND"> F  </i>
   <v name="MAGPOS">      0.00000000      0.00000000      0.00000000</v>
   <i type="logical" name="LNICSALL"> T  </i>
   <i type="logical" name="ORBITALMAG"> F  </i>
   <i type="logical" name="LMAGBLOCH"> F  </i>
   <i type="logical" name="LCHIMAG"> F  </i>
   <i type="logical" name="LGAUGE"> T  </i>
   <i type="int" name="MAGATOM">     0</i>
   <v name="MAGDIPOL">      0.00000000      0.00000000      0.00000000</v>
   <v name="AVECCONST">      0.00000000      0.00000000      0.00000000</v>
  </separator>
  <separator name="response functions" >
   <i type="logical" name="LADDER"> F  </i>
   <i type="logical" name="LFXC"> F  </i>
   <i type="logical" name="LHARTREE"> T  </i>
   <i type="int" name="IBSE">     0</i>
   <v type="int" name="KPOINT">    -1     0     0     0</v>
   <i type="logical" name="LTCTE"> F  </i>
   <i type="logical" name="LTETE"> F  </i>
   <i type="logical" name="LTRIPLET"> F  </i>
   <i type="logical" name="LFXCEPS"> F  </i>
   <i type="logical" name="LFXHEG"> F  </i>
   <i type="int" name="NATURALO">     0</i>
   <i type="logical" name="L2ORDER"> F  </i>
   <i type="logical" name="LUSEW"> F  </i>
   <i name="ENCUTGW">     -2.00000000</i>
   <i name="ENCUTGWSOFT">     -2.00000000</i>
   <i name="ENCUTLF">     -1.00000000</i>
   <i type="int" name="LMAXMP2">    -1</i>
   <i name="SCISSOR">      0.00000000</i>
   <i type="int" name="NOMEGA">     0</i>
   <i type="int" name="NOMEGAR">     0</i>
   <i type="int" name="NBANDSGW">    -1</i>
   <i type="int" name="NBANDSO">    -1</i>
   <i type="int" name="NBANDSV">    -1</i>
   <i type="int" name="NELM">   500</i>
   <i type="int" name="NELMHF">     1</i>
   <i type="int" name="DIM">     3</i>
   <i type="int" name="ANTIRES">     0</i>
   <i name="OMEGAMAX">    -30.00000000</i>
   <i name="OMEGAMIN">    -30.00000000</i>
   <i name="OMEGATL">   -200.00000000</i>
   <i type="int" name="OMEGAGRID">     0</i>
   <i name="CSHIFT">     -0.10000000</i>
   <i type="logical" name="SELFENERGY"> F  </i>
   <i type="logical" name="LSPECTRAL"> F  </i>
   <i type="logical" name="LSPECTRALGW"> F  </i>
   <i type="logical" name="LSINGLES"> F  </i>
   <i type="logical" name="LFERMIGW"> F  </i>
   <i type="logical" name="ODDONLYGW"> F  </i>
   <i type="logical" name="EVENONLYGW"> F  </i>
   <i type="int" name="NKREDLFX">     1</i>
   <i type="int" name="NKREDLFY">     1</i>
   <i type="int" name="NKREDLFZ">     1</i>
   <i type="int" name="MAXMEM">  1800</i>
   <i type="int" name="TELESCOPE">     0</i>
   <i type="int" name="TAUPAR">     1</i>
   <i type="int" name="OMEGAPAR">    -1</i>
   <i name="LAMBDA">      1.00000000</i>
  </separator>
  <separator name="External order field" >
   <i name="OFIELD_KAPPA">      0.00000000</i>
   <v name="OFIELD_K">      0.00000000      0.00000000      0.00000000</v>
   <i name="OFIELD_Q6_NEAR">      0.00000000</i>
   <i name="OFIELD_Q6_FAR">      0.00000000</i>
   <i name="OFIELD_A">      0.00000000</i>
  </separator>
 </parameters>
 <atominfo>
  <atoms>      48 </atoms>
  <types>       2 </types>
  <array name="atoms" >
   <dimension dim="1">ion</dimension>
   <field type="string">element</field>
   <field type="int">atomtype</field>
   <set>
    <rc><c>Au</c><c>   1</c></rc>
    <rc><c>Au</c><c>   1</c></rc>
    <rc><c>Au</c><c>   1</c></rc>
    <rc><c>Au</c><c>   1</c></rc>
    <rc><c>Au</c><c>   1</c></rc>
    <rc><c>Au</c><c>   1</c></rc>
    <rc><c>Au</c><c>   1</c></rc>
    <rc><c>Au</c><c>   1</c></rc>
    <rc><c>Au</c><c>   1</c></rc>
    <rc><c>Au</c><c>   1</c></rc>
    <rc><c>Au</c><c>   1</c></rc>
    <rc><c>Au</c><c>   1</c></rc>
    <rc><c>Au</c><c>   1</c></rc>
    <rc><c>Au</c><c>   1</c></rc>
    <rc><c>Au</c><c>   1</c></rc>
    <rc><c>Au</c><c>   1</c></rc>
    <rc><c>Au</c><c>   1</c></rc>
    <rc><c>Au</c><c>   1</c></rc>
    <rc><c>Au</c><c>   1</c></rc>
    <rc><c>Au</c><c>   1</c></rc>
    <rc><c>Au</c><c>   1</c></rc>
    <rc><c>Au</c><c>   1</c></rc>
    <rc><c>Au</c><c>   1</c></rc>
    <rc><c>Au</c><c>   1</c></rc>
    <rc><c>Pd</c><c>   2</c></rc>
    <rc><c>Pd</c><c>   2</c></rc>
    <rc><c>Pd</c><c>   2</c></rc>
    <rc><c>Pd</c><c>   2</c></rc>
    <rc><c>Pd</c><c>   2</c></rc>
    <rc><c>Pd</c><c>   2</c></rc>
    <rc><c>Pd</c><c>   2</c></rc>
    <rc><c>Pd</c><c>   2</c></rc>
    <rc><c>Pd</c><c>   2</c></rc>
    <rc><c>Pd</c><c>   2</c></rc>
    <rc><c>Pd</c><c>   2</c></rc>
    <rc><c>Pd</c><c>   2</c></rc>
    <rc><c>Pd</c><c>   2</c></rc>
    <rc><c>Pd</c><c>   2</c></rc>
    <rc><c>Pd</c><c>   2</c></rc>
    <rc><c>Pd</c><c>   2</c></rc>
    <rc><c>Pd</c><c>   2</c></rc>
    <rc><c>Pd</c><c>   2</c></rc>
    <rc><c>Pd</c><c>   2</c></rc>
    <rc><c>Pd</c><c>   2</c></rc>
    <rc><c>Pd</c><c>   2</c></rc>
    <rc><c>Pd</c><c>   2</c></rc>
    <rc><c>Pd</c><c>   2</c></rc>
    <rc><c>Pd</c><c>   2</c></rc>
   </set>
  </array>
  <array name="atomtypes" >
   <dimension dim="1">type</dimension>
   <field type="int">atomspertype</field>
   <field type="string">element</field>
   <field>mass</field>
   <field>valence</field>
   <field type="string">pseudopotential</field>
   <set>
    <rc><c>  24</c><c>Au</c><c>    196.96600000</c><c>     11.00000000</c><c>  PAW_PBE Au 04Oct2007                  </c></rc>
    <rc><c>  24</c><c>Pd</c><c>    106.42000000</c><c>     10.00000000</c><c>  PAW_PBE Pd 04Jan2005                  </c></rc>
   </set>
  </array>
 </atominfo>
 <structure name="initialpos" >
  <crystal>
   <varray name="basis" >
    <v>      11.00258152       0.00000000       0.00000000 </v>
    <v>       5.50129076       9.52851510       0.00000000 </v>
    <v>       0.00000000       0.00000000      24.49178509 </v>
   </varray>
   <i name="volume">   2567.67623402 </i>
   <varray name="rec_basis" >
    <v>       0.09088776      -0.05247407       0.00000000 </v>
    <v>       0.00000000       0.10494815       0.00000000 </v>
    <v>       0.00000000       0.00000000       0.04083002 </v>
   </varray>
  </crystal>
  <varray name="positions" >
   <v>       0.08333333       0.08333333       0.40830017 </v>
   <v>       0.25000000       0.00000000       0.59169983 </v>
   <v>       0.91666667       0.41666667       0.50000000 </v>
   <v>       0.00000000       0.75000000       0.59169983 </v>
   <v>       0.08333333       0.83333333       0.40830017 </v>
   <v>       0.08333333       0.58333333       0.40830017 </v>
   <v>       0.33333333       0.33333333       0.40830017 </v>
   <v>       0.25000000       0.75000000       0.59169983 </v>
   <v>       0.25000000       0.25000000       0.59169983 </v>
   <v>       0.16666667       0.66666667       0.50000000 </v>
   <v>       0.16666667       0.91666667       0.50000000 </v>
   <v>       0.50000000       0.00000000       0.59169983 </v>
   <v>       0.91666667       0.66666667       0.50000000 </v>
   <v>       0.50000000       0.25000000       0.59169983 </v>
   <v>       0.58333333       0.58333333       0.40830017 </v>
   <v>       0.50000000       0.50000000       0.59169983 </v>
   <v>       0.58333333       0.83333333       0.40830017 </v>
   <v>       0.50000000       0.75000000       0.59169983 </v>
   <v>       0.75000000       0.00000000       0.59169983 </v>
   <v>       0.83333333       0.33333333       0.40830017 </v>
   <v>       0.75000000       0.25000000       0.59169983 </v>
   <v>       0.75000000       0.50000000       0.59169983 </v>
   <v>       0.83333333       0.83333333       0.40830017 </v>
   <v>       0.58333333       0.33333333       0.40830017 </v>
   <v>       0.41666667       0.41666667       0.50000000 </v>
   <v>       0.33333333       0.08333333       0.40830017 </v>
   <v>       0.41666667       0.16666667       0.50000000 </v>
   <v>       0.58333333       0.08333333       0.40830017 </v>
   <v>       0.33333333       0.58333333       0.40830017 </v>
   <v>       0.16666667       0.16666667       0.50000000 </v>
   <v>       0.33333333       0.83333333       0.40830017 </v>
   <v>       0.25000000       0.50000000       0.59169983 </v>
   <v>       0.91666667       0.91666667       0.50000000 </v>
   <v>       0.66666667       0.91666667       0.50000000 </v>
   <v>       0.41666667       0.66666667       0.50000000 </v>
   <v>       0.66666667       0.16666667       0.50000000 </v>
   <v>       0.66666667       0.66666667       0.50000000 </v>
   <v>       0.91666667       0.16666667       0.50000000 </v>
   <v>       0.83333333       0.08333333       0.40830017 </v>
   <v>       0.00000000       0.00000000       0.59169983 </v>
   <v>       0.00000000       0.25000000       0.59169983 </v>
   <v>       0.41666667       0.91666667       0.50000000 </v>
   <v>       0.66666667       0.41666667       0.50000000 </v>
   <v>       0.08333333       0.33333333       0.40830017 </v>
   <v>       0.83333333       0.58333333       0.40830017 </v>
   <v>       0.16666667       0.41666667       0.50000000 </v>
   <v>       0.00000000       0.50000000       0.59169983 </v>
   <v>       0.75000000       0.75000000       0.59169983 </v>
  </varray>
  <varray name="selective"  type="logical" >
   <v type="logical" >  F  F  F </v>
   <v type="logical" >  T  T  T </v>
   <v type="logical" >  T  T  T </v>
   <v type="logical" >  T  T  T </v>
   <v type="logical" >  F  F  F </v>
   <v type="logical" >  F  F  F </v>
   <v type="logical" >  F  F  F </v>
   <v type="logical" >  T  T  T </v>
   <v type="logical" >  T  T  T </v>
   <v type="logical" >  T  T  T </v>
   <v type="logical" >  T  T  T </v>
   <v type="logical" >  T  T  T </v>
   <v type="logical" >  T  T  T </v>
   <v type="logical" >  T  T  T </v>
   <v type="logical" >  F  F  F </v>
   <v type="logical" >  T  T  T </v>
   <v type="logical" >  F  F  F </v>
   <v type="logical" >  T  T  T </v>
   <v type="logical" >  T  T  T </v>
   <v type="logical" >  F  F  F </v>
   <v type="logical" >  T  T  T </v>
   <v type="logical" >  T  T  T </v>
   <v type="logical" >  F  F  F </v>
   <v type="logical" >  F  F  F </v>
   <v type="logical" >  T  T  T </v>
   <v type="logical" >  F  F  F </v>
   <v type="logical" >  T  T  T </v>
   <v type="logical" >  F  F  F </v>
   <v type="logical" >  F  F  F </v>
   <v type="logical" >  T  T  T </v>
   <v type="logical" >  F  F  F </v>
   <v type="logical" >  T  T  T </v>
   <v type="logical" >  T  T  T </v>
   <v type="logical" >  T  T  T </v>
   <v type="logical" >  T  T  T </v>
   <v type="logical" >  T  T  T </v>
   <v type="logical" >  T  T  T </v>
   <v type="logical" >  T  T  T </v>
   <v type="logical" >  F  F  F </v>
   <v type="logical" >  T  T  T </v>
   <v type="logical" >  T  T  T </v>
   <v type="logical" >  T  T  T </v>
   <v type="logical" >  T  T  T </v>
   <v type="logical" >  F  F  F </v>
   <v type="logical" >  F  F  F </v>
   <v type="logical" >  T  T  T </v>
   <v type="logical" >  T  T  T </v>
   <v type="logical" >  T  T  T </v>
  </varray>
  <nose>
   <v>      -3.00000000       0.00000000       0.00010000       0.00010000 </v>
  </nose>
 </structure>
 <calculation>
  <scstep>
   <time name="dav">    6.87    6.90</time>
   <time name="total">    6.93    6.96</time>
   <dipole>
    <v name="dipole">      0.00000000       0.00000000      -0.00000148 </v>
    <i name="Tr[quadrupol]"> -10289.09154654 </i>
    <i name="Echarged">      0.00000000 </i>
    <i name="Edipol_quadrupol">      0.00000000 </i>
    <i name="Eion">      0.00000000 </i>
   </dipole>
   <energy>
    <i name="alphaZ">    805.86936475 </i>
    <i name="ewald"> 199218.58680324 </i>
    <i name="hartreedc">-241628.78931951 </i>
    <i name="XCdc">   -327.88707286 </i>
    <i name="pawpsdc">  40340.05962942 </i>
    <i name="pawaedc"> -38292.62782345 </i>
    <i name="eentropy">     -0.13051511 </i>
    <i name="bandstr">   1425.18069094 </i>
    <i name="atom">  41659.78587232 </i>
    <i name="e_fr_energy">   3200.04762974 </i>
    <i name="e_wo_entrp">   3200.17814485 </i>
    <i name="e_0_energy">   3200.11288729 </i>
   </energy>
  </scstep>
  <scstep>
   <time name="dav">    8.07    8.10</time>
   <time name="total">    8.08    8.10</time>
   <dipole>
    <v name="dipole">      0.00000000       0.00000000      -0.00000148 </v>
    <i name="Tr[quadrupol]"> -10289.09154654 </i>
    <i name="Echarged">      0.00000000 </i>
    <i name="Edipol_quadrupol">      0.00000000 </i>
    <i name="Eion">      0.00000000 </i>
   </dipole>
   <energy>
    <i name="e_fr_energy">     12.77610068 </i>
    <i name="e_wo_entrp">     12.89790765 </i>
    <i name="e_0_energy">     12.83700417 </i>
   </energy>
  </scstep>
  <scstep>
   <time name="dav">    7.98    8.00</time>
   <time name="total">    7.98    8.01</time>
   <dipole>
    <v name="dipole">      0.00000000       0.00000000      -0.00000148 </v>
    <i name="Tr[quadrupol]"> -10289.09154654 </i>
    <i name="Echarged">      0.00000000 </i>
    <i name="Edipol_quadrupol">      0.00000000 </i>
    <i name="Eion">      0.00000000 </i>
   </dipole>
   <energy>
    <i name="e_fr_energy">   -202.77865762 </i>
    <i name="e_wo_entrp">   -202.61937823 </i>
    <i name="e_0_energy">   -202.69901792 </i>
   </energy>
  </scstep>
  <scstep>
   <time name="dav">    8.09    8.12</time>
   <time name="total">    8.10    8.12</time>
   <dipole>
    <v name="dipole">      0.00000000       0.00000000      -0.00000148 </v>
    <i name="Tr[quadrupol]"> -10289.09154654 </i>
    <i name="Echarged">      0.00000000 </i>
    <i name="Edipol_quadrupol">      0.00000000 </i>
    <i name="Eion">      0.00000000 </i>
   </dipole>
   <energy>
    <i name="e_fr_energy">   -208.51480348 </i>
    <i name="e_wo_entrp">   -208.35445498 </i>
    <i name="e_0_energy">   -208.43462923 </i>
   </energy>
  </scstep>
  <scstep>
   <time name="dav">    8.47    8.55</time>
   <time name="total">    8.71    8.81</time>
   <dipole>
    <v name="dipole">      0.00000000       0.00000000      -0.00000148 </v>
    <i name="Tr[quadrupol]"> -10289.09154654 </i>
    <i name="Echarged">      0.00000000 </i>
    <i name="Edipol_quadrupol">      0.00000000 </i>
    <i name="Eion">      0.00000000 </i>
   </dipole>
   <energy>
    <i name="e_fr_energy">   -208.71416666 </i>
    <i name="e_wo_entrp">   -208.55417358 </i>
    <i name="e_0_energy">   -208.63417012 </i>
   </energy>
  </scstep>
  <scstep>
   <time name="diag">    1.22    1.22</time>
   <time name="diis">    3.41    3.42</time>
   <time name="orth">    0.29    0.29</time>
   <time name="total">    5.21    5.23</time>
   <dipole>
    <v name="dipole">      0.00000000       0.00000000      -0.67037313 </v>
    <i name="Tr[quadrupol]"> -10293.25280356 </i>
    <i name="Echarged">      0.00000000 </i>
    <i name="Edipol_quadrupol">      0.00000000 </i>
    <i name="Eion">      0.00000000 </i>
   </dipole>
   <energy>
    <i name="e_fr_energy">   -205.91270884 </i>
    <i name="e_wo_entrp">   -205.70187873 </i>
    <i name="e_0_energy">   -205.80729378 </i>
   </energy>
  </scstep>
  <scstep>
   <time name="diag">    1.23    1.23</time>
   <time name="diis">    3.37    3.38</time>
   <time name="orth">    0.30    0.30</time>
   <time name="total">    5.19    5.21</time>
   <dipole>
    <v name="dipole">      0.00000000       0.00000000       0.63452763 </v>
    <i name="Tr[quadrupol]"> -10288.94047519 </i>
    <i name="Echarged">      0.00000000 </i>
    <i name="Edipol_quadrupol">      0.00000000 </i>
    <i name="Eion">      0.00000000 </i>
   </dipole>
   <energy>
    <i name="e_fr_energy">   -206.93845134 </i>
    <i name="e_wo_entrp">   -206.76398423 </i>
    <i name="e_0_energy">   -206.85121778 </i>
   </energy>
  </scstep>
  <scstep>
   <time name="diag">    1.22    1.22</time>
   <time name="diis">    3.43    3.44</time>
   <time name="orth">    0.29    0.29</time>
   <time name="total">    5.23    5.25</time>
   <dipole>
    <v name="dipole">      0.00000000       0.00000000      -1.64226417 </v>
    <i name="Tr[quadrupol]"> -10290.84469850 </i>
    <i name="Echarged">      0.00000000 </i>
    <i name="Edipol_quadrupol">      0.00000000 </i>
    <i name="Eion">      0.00000000 </i>
   </dipole>
   <energy>
    <i name="e_fr_energy">   -223.47862716 </i>
    <i name="e_wo_entrp">   -223.19647958 </i>
    <i name="e_0_energy">   -223.33755337 </i>
   </energy>
  </scstep>
  <scstep>
   <time name="diag">    1.22    1.22</time>
   <time name="diis">    3.42    3.43</time>
   <time name="orth">    0.29    0.29</time>
   <time name="total">    5.22    5.24</time>
   <dipole>
    <v name="dipole">      0.00000000       0.00000000       0.78857556 </v>
    <i name="Tr[quadrupol]"> -10292.60180383 </i>
    <i name="Echarged">      0.00000000 </i>
    <i name="Edipol_quadrupol">      0.00000000 </i>
    <i name="Eion">      0.00000000 </i>
   </dipole>
   <energy>
    <i name="e_fr_energy">   -213.34504830 </i>
    <i name="e_wo_entrp">   -213.16371610 </i>
    <i name="e_0_energy">   -213.25438220 </i>
   </energy>
  </scstep>
  <scstep>
   <time name="diag">    1.21    1.21</time>
   <time name="diis">    3.43    3.44</time>
   <time name="orth">    0.29    0.29</time>
   <time name="total">    5.22    5.23</time>
   <dipole>
    <v name="dipole">      0.00000000       0.00000000      -0.57302153 </v>
    <i name="Tr[quadrupol]"> -10291.43641345 </i>
    <i name="Echarged">      0.00000000 </i>
    <i name="Edipol_quadrupol">      0.00000000 </i>
    <i name="Eion">      0.00000000 </i>
   </dipole>
   <energy>
    <i name="e_fr_energy">   -198.98006560 </i>
    <i name="e_wo_entrp">   -198.80259466 </i>
    <i name="e_0_energy">   -198.89133013 </i>
   </energy>
  </scstep>
  <scstep>
   <time name="diag">    1.22    1.22</time>
   <time name="diis">    3.36    3.39</time>
   <time name="orth">    0.29    0.29</time>
   <time name="total">    5.16    5.19</time>
   <dipole>
    <v name="dipole">      0.00000000       0.00000000      -0.22811142 </v>
    <i name="Tr[quadrupol]"> -10292.44676285 </i>
    <i name="Echarged">      0.00000000 </i>
    <i name="Edipol_quadrupol">      0.00000000 </i>
    <i name="Eion">      0.00000000 </i>
   </dipole>
   <energy>
    <i name="e_fr_energy">   -196.64308996 </i>
    <i name="e_wo_entrp">   -196.42068150 </i>
    <i name="e_0_energy">   -196.53188573 </i>
   </energy>
  </scstep>
  <scstep>
   <time name="diag">    1.22    1.22</time>
   <time name="diis">    3.41    3.42</time>
   <time name="orth">    0.29    0.29</time>
   <time name="total">    5.21    5.22</time>
   <dipole>
    <v name="dipole">      0.00000000       0.00000000      -0.08340016 </v>
    <i name="Tr[quadrupol]"> -10292.54768424 </i>
    <i name="Echarged">      0.00000000 </i>
    <i name="Edipol_quadrupol">      0.00000000 </i>
    <i name="Eion">      0.00000000 </i>
   </dipole>
   <energy>
    <i name="e_fr_energy">   -192.24208953 </i>
    <i name="e_wo_entrp">   -192.00048188 </i>
    <i name="e_0_energy">   -192.12128570 </i>
   </energy>
  </scstep>
  <scstep>
   <time name="diag">    1.22    1.22</time>
   <time name="diis">    3.34    3.43</time>
   <time name="orth">    0.29    0.29</time>
   <time name="total">    5.13    5.23</time>
   <dipole>
    <v name="dipole">      0.00000000       0.00000000      -0.05431490 </v>
    <i name="Tr[quadrupol]"> -10292.74244941 </i>
    <i name="Echarged">      0.00000000 </i>
    <i name="Edipol_quadrupol">      0.00000000 </i>
    <i name="Eion">      0.00000000 </i>
   </dipole>
   <energy>
    <i name="e_fr_energy">   -191.31005109 </i>
    <i name="e_wo_entrp">   -191.08017203 </i>
    <i name="e_0_energy">   -191.19511156 </i>
   </energy>
  </scstep>
  <scstep>
   <time name="diag">    1.21    1.22</time>
   <time name="diis">    3.35    3.37</time>
   <time name="orth">    0.29    0.29</time>
   <time name="total">    5.14    5.17</time>
   <dipole>
    <v name="dipole">      0.00000000       0.00000000      -0.03998116 </v>
    <i name="Tr[quadrupol]"> -10292.92799440 </i>
    <i name="Echarged">      0.00000000 </i>
    <i name="Edipol_quadrupol">      0.00000000 </i>
    <i name="Eion">      0.00000000 </i>
   </dipole>
   <energy>
    <i name="e_fr_energy">   -190.58001416 </i>
    <i name="e_wo_entrp">   -190.33848699 </i>
    <i name="e_0_energy">   -190.45925058 </i>
   </energy>
  </scstep>
  <scstep>
   <time name="diag">    1.22    1.22</time>
   <time name="diis">    3.43    3.44</time>
   <time name="orth">    0.29    0.29</time>
   <time name="total">    5.22    5.24</time>
   <dipole>
    <v name="dipole">      0.00000000       0.00000000      -0.02890816 </v>
    <i name="Tr[quadrupol]"> -10292.98306087 </i>
    <i name="Echarged">      0.00000000 </i>
    <i name="Edipol_quadrupol">      0.00000000 </i>
    <i name="Eion">      0.00000000 </i>
   </dipole>
   <energy>
    <i name="e_fr_energy">   -190.52538516 </i>
    <i name="e_wo_entrp">   -190.27395073 </i>
    <i name="e_0_energy">   -190.39966795 </i>
   </energy>
  </scstep>
  <scstep>
   <time name="diag">    1.22    1.22</time>
   <time name="diis">    3.42    3.43</time>
   <time name="orth">    0.29    0.29</time>
   <time name="total">    5.21    5.23</time>
   <dipole>
    <v name="dipole">      0.00000000       0.00000000      -0.05856081 </v>
    <i name="Tr[quadrupol]"> -10293.26169546 </i>
    <i name="Echarged">      0.00000000 </i>
    <i name="Edipol_quadrupol">      0.00000000 </i>
    <i name="Eion">      0.00000000 </i>
   </dipole>
   <energy>
    <i name="e_fr_energy">   -190.53984550 </i>
    <i name="e_wo_entrp">   -190.28468732 </i>
    <i name="e_0_energy">   -190.41226641 </i>
   </energy>
  </scstep>
  <scstep>
   <time name="diag">    1.21    1.21</time>
   <time name="diis">    3.41    3.42</time>
   <time name="orth">    0.29    0.29</time>
   <time name="total">    5.20    5.21</time>
   <dipole>
    <v name="dipole">      0.00000000       0.00000000      -0.07675448 </v>
    <i name="Tr[quadrupol]"> -10293.51374018 </i>
    <i name="Echarged">      0.00000000 </i>
    <i name="Edipol_quadrupol">      0.00000000 </i>
    <i name="Eion">      0.00000000 </i>
   </dipole>
   <energy>
    <i name="e_fr_energy">   -190.41382646 </i>
    <i name="e_wo_entrp">   -190.14762177 </i>
    <i name="e_0_energy">   -190.28072412 </i>
   </energy>
  </scstep>
  <scstep>
   <time name="diag">    1.21    1.21</time>
   <time name="diis">    3.42    3.43</time>
   <time name="orth">    0.29    0.29</time>
   <time name="total">    5.20    5.22</time>
   <dipole>
    <v name="dipole">      0.00000000       0.00000000      -0.06624710 </v>
    <i name="Tr[quadrupol]"> -10293.76443531 </i>
    <i name="Echarged">      0.00000000 </i>
    <i name="Edipol_quadrupol">      0.00000000 </i>
    <i name="Eion">      0.00000000 </i>
   </dipole>
   <energy>
    <i name="e_fr_energy">   -190.35385135 </i>
    <i name="e_wo_entrp">   -190.08251113 </i>
    <i name="e_0_energy">   -190.21818124 </i>
   </energy>
  </scstep>
  <scstep>
   <time name="diag">    1.22    1.22</time>
   <time name="diis">    3.41    3.42</time>
   <time name="orth">    0.29    0.29</time>
   <time name="total">    5.21    5.22</time>
   <dipole>
    <v name="dipole">      0.00000000       0.00000000      -0.04463884 </v>
    <i name="Tr[quadrupol]"> -10293.89805161 </i>
    <i name="Echarged">      0.00000000 </i>
    <i name="Edipol_quadrupol">      0.00000000 </i>
    <i name="Eion">      0.00000000 </i>
   </dipole>
   <energy>
    <i name="e_fr_energy">   -190.33590898 </i>
    <i name="e_wo_entrp">   -190.06386723 </i>
    <i name="e_0_energy">   -190.19988810 </i>
   </energy>
  </scstep>
  <scstep>
   <time name="diag">    1.21    1.22</time>
   <time name="diis">    3.36    3.45</time>
   <time name="orth">    0.29    0.29</time>
   <time name="total">    5.16    7.31</time>
   <dipole>
    <v name="dipole">      0.00000000       0.00000000      -0.03385238 </v>
    <i name="Tr[quadrupol]"> -10293.93429467 </i>
    <i name="Echarged">      0.00000000 </i>
    <i name="Edipol_quadrupol">      0.00000000 </i>
    <i name="Eion">      0.00000000 </i>
   </dipole>
   <energy>
    <i name="e_fr_energy">   -190.32823543 </i>
    <i name="e_wo_entrp">   -190.05632868 </i>
    <i name="e_0_energy">   -190.19228206 </i>
   </energy>
  </scstep>
  <scstep>
   <time name="diag">    1.21    1.21</time>
   <time name="diis">    3.43    3.44</time>
   <time name="orth">    0.29    0.29</time>
   <time name="total">    5.21    5.23</time>
   <dipole>
    <v name="dipole">      0.00000000       0.00000000      -0.03107102 </v>
    <i name="Tr[quadrupol]"> -10293.99340708 </i>
    <i name="Echarged">      0.00000000 </i>
    <i name="Edipol_quadrupol">      0.00000000 </i>
    <i name="Eion">      0.00000000 </i>
   </dipole>
   <energy>
    <i name="e_fr_energy">   -190.32515026 </i>
    <i name="e_wo_entrp">   -190.05386576 </i>
    <i name="e_0_energy">   -190.18950801 </i>
   </energy>
  </scstep>
  <scstep>
   <time name="diag">    1.20    1.21</time>
   <time name="diis">    3.31    3.38</time>
   <time name="orth">    0.28    0.29</time>
   <time name="total">    5.08    5.17</time>
   <dipole>
    <v name="dipole">      0.00000000       0.00000000      -0.03353100 </v>
    <i name="Tr[quadrupol]"> -10294.09272966 </i>
    <i name="Echarged">      0.00000000 </i>
    <i name="Edipol_quadrupol">      0.00000000 </i>
    <i name="Eion">      0.00000000 </i>
   </dipole>
   <energy>
    <i name="e_fr_energy">   -190.32000159 </i>
    <i name="e_wo_entrp">   -190.04924790 </i>
    <i name="e_0_energy">   -190.18462475 </i>
   </energy>
  </scstep>
  <scstep>
   <time name="diag">    1.22    1.22</time>
   <time name="diis">    3.39    3.40</time>
   <time name="orth">    0.29    0.29</time>
   <time name="total">    5.19    5.21</time>
   <dipole>
    <v name="dipole">      0.00000000       0.00000000      -0.03331379 </v>
    <i name="Tr[quadrupol]"> -10294.18142935 </i>
    <i name="Echarged">      0.00000000 </i>
    <i name="Edipol_quadrupol">      0.00000000 </i>
    <i name="Eion">      0.00000000 </i>
   </dipole>
   <energy>
    <i name="e_fr_energy">   -190.31749059 </i>
    <i name="e_wo_entrp">   -190.04553535 </i>
    <i name="e_0_energy">   -190.18151297 </i>
   </energy>
  </scstep>
  <scstep>
   <time name="diag">    1.22    1.22</time>
   <time name="diis">    3.40    3.41</time>
   <time name="orth">    0.28    0.29</time>
   <time name="total">    5.19    5.21</time>
   <dipole>
    <v name="dipole">      0.00000000       0.00000000      -0.03258809 </v>
    <i name="Tr[quadrupol]"> -10294.23475003 </i>
    <i name="Echarged">      0.00000000 </i>
    <i name="Edipol_quadrupol">      0.00000000 </i>
    <i name="Eion">      0.00000000 </i>
   </dipole>
   <energy>
    <i name="e_fr_energy">   -190.31741633 </i>
    <i name="e_wo_entrp">   -190.04555803 </i>
    <i name="e_0_energy">   -190.18148718 </i>
   </energy>
  </scstep>
  <scstep>
   <time name="diag">    1.21    1.22</time>
   <time name="diis">    3.43    3.44</time>
   <time name="orth">    0.29    0.29</time>
   <time name="total">    5.22    5.23</time>
   <dipole>
    <v name="dipole">      0.00000000       0.00000000      -0.03165620 </v>
    <i name="Tr[quadrupol]"> -10294.26963172 </i>
    <i name="Echarged">      0.00000000 </i>
    <i name="Edipol_quadrupol">      0.00000000 </i>
    <i name="Eion">      0.00000000 </i>
   </dipole>
   <energy>
    <i name="e_fr_energy">   -190.31733311 </i>
    <i name="e_wo_entrp">   -190.04501261 </i>
    <i name="e_0_energy">   -190.18117286 </i>
   </energy>
  </scstep>
  <scstep>
   <time name="diag">    1.21    1.21</time>
   <time name="diis">    3.42    3.43</time>
   <time name="orth">    0.28    0.28</time>
   <time name="total">    5.20    5.22</time>
   <dipole>
    <v name="dipole">      0.00000000       0.00000000      -0.02938298 </v>
    <i name="Tr[quadrupol]"> -10294.34216401 </i>
    <i name="Echarged">      0.00000000 </i>
    <i name="Edipol_quadrupol">      0.00000000 </i>
    <i name="Eion">      0.00000000 </i>
   </dipole>
   <energy>
    <i name="e_fr_energy">   -190.31772267 </i>
    <i name="e_wo_entrp">   -190.04568538 </i>
    <i name="e_0_energy">   -190.18170402 </i>
   </energy>
  </scstep>
  <scstep>
   <time name="diag">    1.22    1.22</time>
   <time name="diis">    3.42    3.43</time>
   <time name="orth">    0.29    0.29</time>
   <time name="total">    5.21    5.23</time>
   <dipole>
    <v name="dipole">      0.00000000       0.00000000      -0.02786671 </v>
    <i name="Tr[quadrupol]"> -10294.40275707 </i>
    <i name="Echarged">      0.00000000 </i>
    <i name="Edipol_quadrupol">      0.00000000 </i>
    <i name="Eion">      0.00000000 </i>
   </dipole>
   <energy>
    <i name="e_fr_energy">   -190.31809414 </i>
    <i name="e_wo_entrp">   -190.04586945 </i>
    <i name="e_0_energy">   -190.18198179 </i>
   </energy>
  </scstep>
  <scstep>
   <time name="diag">    1.22    1.22</time>
   <time name="diis">    3.35    3.45</time>
   <time name="orth">    0.28    0.28</time>
   <time name="total">    5.14    5.24</time>
   <dipole>
    <v name="dipole">      0.00000000       0.00000000      -0.02726642 </v>
    <i name="Tr[quadrupol]"> -10294.42413441 </i>
    <i name="Echarged">      0.00000000 </i>
    <i name="Edipol_quadrupol">      0.00000000 </i>
    <i name="Eion">      0.00000000 </i>
   </dipole>
   <energy>
    <i name="e_fr_energy">   -190.31833623 </i>
    <i name="e_wo_entrp">   -190.04594165 </i>
    <i name="e_0_energy">   -190.18213894 </i>
   </energy>
  </scstep>
  <scstep>
   <time name="diag">    1.21    1.22</time>
   <time name="diis">    3.46    3.47</time>
   <time name="orth">    0.29    0.29</time>
   <time name="total">    5.25    5.27</time>
   <dipole>
    <v name="dipole">      0.00000000       0.00000000      -0.02634134 </v>
    <i name="Tr[quadrupol]"> -10294.45231263 </i>
    <i name="Echarged">      0.00000000 </i>
    <i name="Edipol_quadrupol">      0.00000000 </i>
    <i name="Eion">      0.00000000 </i>
   </dipole>
   <energy>
    <i name="e_fr_energy">   -190.31866080 </i>
    <i name="e_wo_entrp">   -190.04629444 </i>
    <i name="e_0_energy">   -190.18247762 </i>
   </energy>
  </scstep>
  <scstep>
   <time name="diag">    1.21    1.21</time>
   <time name="diis">    3.37    3.37</time>
   <time name="orth">    0.28    0.29</time>
   <time name="total">    5.15    5.17</time>
   <dipole>
    <v name="dipole">      0.00000000       0.00000000      -0.02452146 </v>
    <i name="Tr[quadrupol]"> -10294.50391405 </i>
    <i name="Echarged">      0.00000000 </i>
    <i name="Edipol_quadrupol">      0.00000000 </i>
    <i name="Eion">      0.00000000 </i>
   </dipole>
   <energy>
    <i name="e_fr_energy">   -190.31927697 </i>
    <i name="e_wo_entrp">   -190.04704106 </i>
    <i name="e_0_energy">   -190.18315901 </i>
   </energy>
  </scstep>
  <scstep>
   <time name="diag">    1.22    1.22</time>
   <time name="diis">    3.40    3.40</time>
   <time name="orth">    0.28    0.28</time>
   <time name="total">    5.19    5.21</time>
   <dipole>
    <v name="dipole">      0.00000000       0.00000000      -0.02264768 </v>
    <i name="Tr[quadrupol]"> -10294.54579320 </i>
    <i name="Echarged">      0.00000000 </i>
    <i name="Edipol_quadrupol">      0.00000000 </i>
    <i name="Eion">      0.00000000 </i>
   </dipole>
   <energy>
    <i name="e_fr_energy">   -190.31987644 </i>
    <i name="e_wo_entrp">   -190.04768323 </i>
    <i name="e_0_energy">   -190.18377983 </i>
   </energy>
  </scstep>
  <scstep>
   <time name="diag">    1.22    1.22</time>
   <time name="diis">    3.05    3.06</time>
   <time name="orth">    0.28    0.28</time>
   <time name="total">    4.84    4.85</time>
   <dipole>
    <v name="dipole">      0.00000000       0.00000000      -0.02165974 </v>
    <i name="Tr[quadrupol]"> -10294.56735604 </i>
    <i name="Echarged">      0.00000000 </i>
    <i name="Edipol_quadrupol">      0.00000000 </i>
    <i name="Eion">      0.00000000 </i>
   </dipole>
   <energy>
    <i name="e_fr_energy">   -190.32016306 </i>
    <i name="e_wo_entrp">   -190.04793153 </i>
    <i name="e_0_energy">   -190.18404729 </i>
   </energy>
  </scstep>
  <scstep>
   <time name="diag">    1.21    1.22</time>
   <time name="diis">    2.85    2.86</time>
   <time name="orth">    0.28    0.28</time>
   <time name="total">    4.64    4.66</time>
   <dipole>
    <v name="dipole">      0.00000000       0.00000000      -0.02055027 </v>
    <i name="Tr[quadrupol]"> -10294.59033257 </i>
    <i name="Echarged">      0.00000000 </i>
    <i name="Edipol_quadrupol">      0.00000000 </i>
    <i name="Eion">      0.00000000 </i>
   </dipole>
   <energy>
    <i name="e_fr_energy">   -190.32041286 </i>
    <i name="e_wo_entrp">   -190.04816110 </i>
    <i name="e_0_energy">   -190.18428698 </i>
   </energy>
  </scstep>
  <scstep>
   <time name="diag">    1.21    1.21</time>
   <time name="diis">    2.49    2.50</time>
   <time name="orth">    0.28    0.28</time>
   <time name="total">    4.27    4.29</time>
   <dipole>
    <v name="dipole">      0.00000000       0.00000000      -0.02013737 </v>
    <i name="Tr[quadrupol]"> -10294.59933391 </i>
    <i name="Echarged">      0.00000000 </i>
    <i name="Edipol_quadrupol">      0.00000000 </i>
    <i name="Eion">      0.00000000 </i>
   </dipole>
   <energy>
    <i name="e_fr_energy">   -190.32049600 </i>
    <i name="e_wo_entrp">   -190.04822944 </i>
    <i name="e_0_energy">   -190.18436272 </i>
   </energy>
  </scstep>
  <scstep>
   <time name="diag">    1.22    1.22</time>
   <time name="diis">    2.30    2.31</time>
   <time name="orth">    0.28    0.28</time>
   <time name="total">    4.10    4.11</time>
   <dipole>
    <v name="dipole">      0.00000000       0.00000000      -0.01969278 </v>
    <i name="Tr[quadrupol]"> -10294.60688904 </i>
    <i name="Echarged">      0.00000000 </i>
    <i name="Edipol_quadrupol">      0.00000000 </i>
    <i name="Eion">      0.00000000 </i>
   </dipole>
   <energy>
    <i name="e_fr_energy">   -190.32057386 </i>
    <i name="e_wo_entrp">   -190.04831140 </i>
    <i name="e_0_energy">   -190.18444263 </i>
   </energy>
  </scstep>
  <scstep>
   <time name="diag">    1.22    1.22</time>
   <time name="diis">    2.11    2.11</time>
   <time name="orth">    0.28    0.28</time>
   <time name="total">    3.90    3.91</time>
   <dipole>
    <v name="dipole">      0.00000000       0.00000000      -0.01948694 </v>
    <i name="Tr[quadrupol]"> -10294.60923169 </i>
    <i name="Echarged">      0.00000000 </i>
    <i name="Edipol_quadrupol">      0.00000000 </i>
    <i name="Eion">      0.00000000 </i>
   </dipole>
   <energy>
    <i name="e_fr_energy">   -190.32060430 </i>
    <i name="e_wo_entrp">   -190.04834351 </i>
    <i name="e_0_energy">   -190.18447390 </i>
   </energy>
  </scstep>
  <scstep>
   <time name="diag">    1.21    1.24</time>
   <time name="diis">    2.03    2.10</time>
   <time name="orth">    0.28    0.28</time>
   <time name="total">    3.82    3.91</time>
   <dipole>
    <v name="dipole">      0.00000000       0.00000000      -0.01918770 </v>
    <i name="Tr[quadrupol]"> -10294.61192462 </i>
    <i name="Echarged">      0.00000000 </i>
    <i name="Edipol_quadrupol">      0.00000000 </i>
    <i name="Eion">      0.00000000 </i>
   </dipole>
   <energy>
    <i name="e_fr_energy">   -190.32063707 </i>
    <i name="e_wo_entrp">   -190.04837539 </i>
    <i name="e_0_energy">   -190.18450623 </i>
   </energy>
  </scstep>
  <scstep>
   <time name="diag">    1.20    1.20</time>
   <time name="diis">    2.04    2.05</time>
   <time name="orth">    0.28    0.28</time>
   <time name="total">    3.82    3.83</time>
   <dipole>
    <v name="dipole">      0.00000000       0.00000000      -0.01895431 </v>
    <i name="Tr[quadrupol]"> -10294.61394044 </i>
    <i name="Echarged">      0.00000000 </i>
    <i name="Edipol_quadrupol">      0.00000000 </i>
    <i name="Eion">      0.00000000 </i>
   </dipole>
   <energy>
    <i name="e_fr_energy">   -190.32065705 </i>
    <i name="e_wo_entrp">   -190.04839365 </i>
    <i name="e_0_energy">   -190.18452535 </i>
   </energy>
  </scstep>
  <scstep>
   <time name="diag">    1.21    1.22</time>
   <time name="diis">    2.01    2.01</time>
   <time name="orth">    0.28    0.28</time>
   <time name="total">    3.80    3.81</time>
   <dipole>
    <v name="dipole">      0.00000000       0.00000000      -0.01872206 </v>
    <i name="Tr[quadrupol]"> -10294.61593319 </i>
    <i name="Echarged">      0.00000000 </i>
    <i name="Edipol_quadrupol">      0.00000000 </i>
    <i name="Eion">      0.00000000 </i>
   </dipole>
   <energy>
    <i name="e_fr_energy">   -190.32067032 </i>
    <i name="e_wo_entrp">   -190.04840380 </i>
    <i name="e_0_energy">   -190.18453706 </i>
   </energy>
  </scstep>
  <scstep>
   <time name="diag">    1.21    1.21</time>
   <time name="diis">    1.62    1.63</time>
   <time name="orth">    0.28    0.28</time>
   <time name="total">    3.41    3.42</time>
   <dipole>
    <v name="dipole">      0.00000000       0.00000000      -0.01860726 </v>
    <i name="Tr[quadrupol]"> -10294.61720574 </i>
    <i name="Echarged">      0.00000000 </i>
    <i name="Edipol_quadrupol">      0.00000000 </i>
    <i name="Eion">      0.00000000 </i>
   </dipole>
   <energy>
    <i name="e_fr_energy">   -190.32067372 </i>
    <i name="e_wo_entrp">   -190.04840900 </i>
    <i name="e_0_energy">   -190.18454136 </i>
   </energy>
  </scstep>
  <scstep>
   <time name="diag">    1.21    1.21</time>
   <time name="diis">    1.48    1.48</time>
   <time name="orth">    0.28    0.28</time>
   <time name="total">    3.26    3.27</time>
   <dipole>
    <v name="dipole">      0.00000000       0.00000000      -0.01853453 </v>
    <i name="Tr[quadrupol]"> -10294.61805010 </i>
    <i name="Echarged">      0.00000000 </i>
    <i name="Edipol_quadrupol">      0.00000000 </i>
    <i name="Eion">      0.00000000 </i>
   </dipole>
   <energy>
    <i name="e_fr_energy">   -190.32067478 </i>
    <i name="e_wo_entrp">   -190.04841109 </i>
    <i name="e_0_energy">   -190.18454294 </i>
   </energy>
  </scstep>
  <scstep>
   <time name="diag">    1.20    1.20</time>
   <time name="diis">    1.43    1.43</time>
   <time name="orth">    0.28    0.28</time>
   <time name="total">    2.96    2.97</time>
   <dipole>
    <v name="dipole">      0.00000000       0.00000000      -0.01847279 </v>
    <i name="Tr[quadrupol]"> -10294.61884995 </i>
    <i name="Echarged">      0.00000000 </i>
    <i name="Edipol_quadrupol">      0.00000000 </i>
    <i name="Eion">      0.00000000 </i>
   </dipole>
   <energy>
    <i name="alphaZ">    805.87519995 </i>
    <i name="ewald"> 199218.58680324 </i>
    <i name="hartreedc">-241415.19681038 </i>
    <i name="XCdc">   -344.03517156 </i>
    <i name="pawpsdc">  49180.23566244 </i>
    <i name="pawaedc"> -47258.95678037 </i>
    <i name="eentropy">     -0.27226324 </i>
    <i name="bandstr">  -2036.34318763 </i>
    <i name="atom">  41659.78587232 </i>
    <i name="e_fr_energy">   -190.32067523 </i>
    <i name="e_wo_entrp">   -190.04841199 </i>
    <i name="e_0_energy">   -190.18454361 </i>
   </energy>
  </scstep>
  <structure>
   <crystal>
    <varray name="basis" >
     <v>      11.00258152       0.00000000       0.00000000 </v>
     <v>       5.50129076       9.52851510       0.00000000 </v>
     <v>       0.00000000       0.00000000      24.49178509 </v>
    </varray>
    <i name="volume">   2567.67623402 </i>
    <varray name="rec_basis" >
     <v>       0.09088776      -0.05247407       0.00000000 </v>
     <v>       0.00000000       0.10494815       0.00000000 </v>
     <v>       0.00000000       0.00000000       0.04083002 </v>
    </varray>
   </crystal>
   <varray name="positions" >
    <v>       0.08333333       0.08333333       0.40830017 </v>
    <v>       0.25000000       0.00000000       0.59169983 </v>
    <v>       0.91666667       0.41666667       0.50000000 </v>
    <v>       0.00000000       0.75000000       0.59169983 </v>
    <v>       0.08333333       0.83333333       0.40830017 </v>
    <v>       0.08333333       0.58333333       0.40830017 </v>
    <v>       0.33333333       0.33333333       0.40830017 </v>
    <v>       0.25000000       0.75000000       0.59169983 </v>
    <v>       0.25000000       0.25000000       0.59169983 </v>
    <v>       0.16666667       0.66666667       0.50000000 </v>
    <v>       0.16666667       0.91666667       0.50000000 </v>
    <v>       0.50000000       0.00000000       0.59169983 </v>
    <v>       0.91666667       0.66666667       0.50000000 </v>
    <v>       0.50000000       0.25000000       0.59169983 </v>
    <v>       0.58333333       0.58333333       0.40830017 </v>
    <v>       0.50000000       0.50000000       0.59169983 </v>
    <v>       0.58333333       0.83333333       0.40830017 </v>
    <v>       0.50000000       0.75000000       0.59169983 </v>
    <v>       0.75000000       0.00000000       0.59169983 </v>
    <v>       0.83333333       0.33333333       0.40830017 </v>
    <v>       0.75000000       0.25000000       0.59169983 </v>
    <v>       0.75000000       0.50000000       0.59169983 </v>
    <v>       0.83333333       0.83333333       0.40830017 </v>
    <v>       0.58333333       0.33333333       0.40830017 </v>
    <v>       0.41666667       0.41666667       0.50000000 </v>
    <v>       0.33333333       0.08333333       0.40830017 </v>
    <v>       0.41666667       0.16666667       0.50000000 </v>
    <v>       0.58333333       0.08333333       0.40830017 </v>
    <v>       0.33333333       0.58333333       0.40830017 </v>
    <v>       0.16666667       0.16666667       0.50000000 </v>
    <v>       0.33333333       0.83333333       0.40830017 </v>
    <v>       0.25000000       0.50000000       0.59169983 </v>
    <v>       0.91666667       0.91666667       0.50000000 </v>
    <v>       0.66666667       0.91666667       0.50000000 </v>
    <v>       0.41666667       0.66666667       0.50000000 </v>
    <v>       0.66666667       0.16666667       0.50000000 </v>
    <v>       0.66666667       0.66666667       0.50000000 </v>
    <v>       0.91666667       0.16666667       0.50000000 </v>
    <v>       0.83333333       0.08333333       0.40830017 </v>
    <v>       0.00000000       0.00000000       0.59169983 </v>
    <v>       0.00000000       0.25000000       0.59169983 </v>
    <v>       0.41666667       0.91666667       0.50000000 </v>
    <v>       0.66666667       0.41666667       0.50000000 </v>
    <v>       0.08333333       0.33333333       0.40830017 </v>
    <v>       0.83333333       0.58333333       0.40830017 </v>
    <v>       0.16666667       0.41666667       0.50000000 </v>
    <v>       0.00000000       0.50000000       0.59169983 </v>
    <v>       0.75000000       0.75000000       0.59169983 </v>
   </varray>
  </structure>
  <varray name="forces" >
   <v>       0.25670981       0.12682074      -1.35641669 </v>
   <v>      -0.24056183       0.30966899       1.32827703 </v>
   <v>       0.21120355      -0.23699411       0.04711567 </v>
   <v>      -0.17194789      -0.06173386       1.54581459 </v>
   <v>       0.11526270       0.10988642      -1.60655755 </v>
   <v>      -0.07935154      -0.36359756      -1.59995362 </v>
   <v>      -0.12924715      -0.24105657      -1.07895005 </v>
   <v>      -0.11717347      -0.07164081       1.59338725 </v>
   <v>      -0.22725358       0.43263358       1.09339229 </v>
   <v>       0.36512115      -0.58874758       0.01894987 </v>
   <v>       0.14509996       0.30857728      -0.06687634 </v>
   <v>       0.14358432      -0.22666345       1.10242999 </v>
   <v>      -0.51345309      -0.01809011       0.28322429 </v>
   <v>      -0.12519002       0.22499915       1.09689917 </v>
   <v>      -0.15708331       0.25597551      -1.10087433 </v>
   <v>      -0.21728500      -0.01126763       1.12168498 </v>
   <v>      -0.15873237       0.21386664      -1.09504177 </v>
   <v>       0.28740318      -0.02757408       1.12897446 </v>
   <v>       0.12878124      -0.20249656       1.13085983 </v>
   <v>       0.11910685      -0.07665396      -1.28926406 </v>
   <v>       0.35317321      -0.23210332       1.11038013 </v>
   <v>       0.35387579       0.03997612       1.31633498 </v>
   <v>      -0.14296341       0.37305410      -1.35535684 </v>
   <v>      -0.13374750      -0.21535040      -1.05220958 </v>
   <v>      -0.02577818       0.01390591      -0.03575535 </v>
   <v>       0.00109237       0.04972101      -0.43185646 </v>
   <v>      -0.03703183      -0.08788248      -0.42467360 </v>
   <v>      -0.01064936      -0.00481932      -0.50868244 </v>
   <v>       0.15610507       0.08218662      -0.73398730 </v>
   <v>       0.20187378       0.12831877      -0.18312671 </v>
   <v>       0.09834183      -0.03592077      -0.73162543 </v>
   <v>      -0.17890446      -0.11256623       0.75721422 </v>
   <v>      -0.14023305       0.60647799       0.02187436 </v>
   <v>      -0.11791539       0.17494103      -0.09160080 </v>
   <v>       0.15564530      -0.13775215      -0.35630526 </v>
   <v>       0.04832448      -0.17080452      -0.36055730 </v>
   <v>      -0.05812924       0.18237002      -0.00703201 </v>
   <v>      -0.19399152      -0.12578882       0.18432022 </v>
   <v>      -0.20420891       0.01589865      -0.54602587 </v>
   <v>       0.01331217       0.20205546       0.73242344 </v>
   <v>       0.00889297      -0.07402581       0.69549339 </v>
   <v>       0.14676825       0.08491049      -0.40385954 </v>
   <v>      -0.19373805      -0.01368271      -0.04314989 </v>
   <v>       0.09298695      -0.06347582      -0.71915810 </v>
   <v>      -0.00236542      -0.10800098      -0.86831859 </v>
   <v>       0.08842977      -0.32465269       0.16192509 </v>
   <v>       0.06131783      -0.08184533       0.83472720 </v>
   <v>       0.02452303      -0.02105685       0.74151303 </v>
  </varray>
  <energy>
   <i name="e_fr_energy">   -190.32067523 </i>
   <i name="e_wo_entrp">   -190.18454361 </i>
   <i name="e_0_energy">     -0.27226324 </i>
  </energy>
  <time name="totalsc">  220.01  223.31</time>
 </calculation>
 <calculation>
  <scstep>
   <time name="dav">    7.12    7.14</time>
   <time name="total">    7.41    7.43</time>
   <dipole>
    <v name="dipole">      0.00000000       0.00000000      -0.01842271 </v>
    <i name="Tr[quadrupol]"> -10288.53996404 </i>
    <i name="Echarged">      0.00000000 </i>
    <i name="Edipol_quadrupol">      0.00000000 </i>
    <i name="Eion">      0.00000000 </i>
   </dipole>
   <energy>
    <i name="alphaZ">    805.88283914 </i>
    <i name="ewald"> 197909.42174160 </i>
    <i name="hartreedc">-240113.38835993 </i>
    <i name="XCdc">   -345.08513013 </i>
    <i name="pawpsdc">  49180.23095680 </i>
    <i name="pawaedc"> -47258.95209551 </i>
    <i name="eentropy">     -0.26834314 </i>
    <i name="bandstr">  -2028.44836703 </i>
    <i name="atom">  41659.78587232 </i>
    <i name="e_fr_energy">   -190.82088589 </i>
    <i name="e_wo_entrp">   -190.55254274 </i>
    <i name="e_0_energy">   -190.68671432 </i>
   </energy>
  </scstep>
  <scstep>
   <time name="diag">    1.22    1.22</time>
   <time name="diis">    3.45    3.46</time>
   <time name="orth">    0.28    0.28</time>
   <time name="total">    5.23    5.25</time>
   <dipole>
    <v name="dipole">      0.00000000       0.00000000       0.01207399 </v>
    <i name="Tr[quadrupol]"> -10288.40161707 </i>
    <i name="Echarged">      0.00000000 </i>
    <i name="Edipol_quadrupol">      0.00000000 </i>
    <i name="Eion">      0.00000000 </i>
   </dipole>
   <energy>
    <i name="e_fr_energy">   -191.01117146 </i>
    <i name="e_wo_entrp">   -190.73574037 </i>
    <i name="e_0_energy">   -190.87345592 </i>
   </energy>
  </scstep>
  <scstep>
   <time name="diag">    1.21    1.21</time>
   <time name="diis">    3.48    3.51</time>
   <time name="orth">    0.27    0.30</time>
   <time name="total">    5.26    5.33</time>
   <dipole>
    <v name="dipole">      0.00000000       0.00000000      -0.05497498 </v>
    <i name="Tr[quadrupol]"> -10288.63347084 </i>
    <i name="Echarged">      0.00000000 </i>
    <i name="Edipol_quadrupol">      0.00000000 </i>
    <i name="Eion">      0.00000000 </i>
   </dipole>
   <energy>
    <i name="e_fr_energy">   -191.05261446 </i>
    <i name="e_wo_entrp">   -190.79672129 </i>
    <i name="e_0_energy">   -190.92466787 </i>
   </energy>
  </scstep>
  <scstep>
   <time name="diag">    1.21    1.23</time>
   <time name="diis">    3.46    3.47</time>
   <time name="orth">    0.28    0.28</time>
   <time name="total">    5.23    5.27</time>
   <dipole>
    <v name="dipole">      0.00000000       0.00000000      -0.01743157 </v>
    <i name="Tr[quadrupol]"> -10288.61661836 </i>
    <i name="Echarged">      0.00000000 </i>
    <i name="Edipol_quadrupol">      0.00000000 </i>
    <i name="Eion">      0.00000000 </i>
   </dipole>
   <energy>
    <i name="e_fr_energy">   -190.99488425 </i>
    <i name="e_wo_entrp">   -190.72583074 </i>
    <i name="e_0_energy">   -190.86035750 </i>
   </energy>
  </scstep>
  <scstep>
   <time name="diag">    1.21    1.21</time>
   <time name="diis">    3.38    3.43</time>
   <time name="orth">    0.28    0.28</time>
   <time name="total">    5.16    5.22</time>
   <dipole>
    <v name="dipole">      0.00000000       0.00000000      -0.03906854 </v>
    <i name="Tr[quadrupol]"> -10288.56718519 </i>
    <i name="Echarged">      0.00000000 </i>
    <i name="Edipol_quadrupol">      0.00000000 </i>
    <i name="Eion">      0.00000000 </i>
   </dipole>
   <energy>
    <i name="e_fr_energy">   -191.00428481 </i>
    <i name="e_wo_entrp">   -190.73203161 </i>
    <i name="e_0_energy">   -190.86815821 </i>
   </energy>
  </scstep>
  <scstep>
   <time name="diag">    1.22    1.22</time>
   <time name="diis">    3.40    3.42</time>
   <time name="orth">    0.28    0.28</time>
   <time name="total">    5.18    5.21</time>
   <dipole>
    <v name="dipole">      0.00000000       0.00000000       0.01535337 </v>
    <i name="Tr[quadrupol]"> -10288.59072595 </i>
    <i name="Echarged">      0.00000000 </i>
    <i name="Edipol_quadrupol">      0.00000000 </i>
    <i name="Eion">      0.00000000 </i>
   </dipole>
   <energy>
    <i name="e_fr_energy">   -190.99681665 </i>
    <i name="e_wo_entrp">   -190.72811310 </i>
    <i name="e_0_energy">   -190.86246487 </i>
   </energy>
  </scstep>
  <scstep>
   <time name="diag">    1.21    1.21</time>
   <time name="diis">    3.42    3.43</time>
   <time name="orth">    0.28    0.28</time>
   <time name="total">    5.20    5.22</time>
   <dipole>
    <v name="dipole">      0.00000000       0.00000000      -0.01083925 </v>
    <i name="Tr[quadrupol]"> -10288.57280725 </i>
    <i name="Echarged">      0.00000000 </i>
    <i name="Edipol_quadrupol">      0.00000000 </i>
    <i name="Eion">      0.00000000 </i>
   </dipole>
   <energy>
    <i name="e_fr_energy">   -190.98729346 </i>
    <i name="e_wo_entrp">   -190.71598864 </i>
    <i name="e_0_energy">   -190.85164105 </i>
   </energy>
  </scstep>
  <scstep>
   <time name="diag">    1.21    1.22</time>
   <time name="diis">    3.43    3.44</time>
   <time name="orth">    0.28    0.28</time>
   <time name="total">    5.21    5.22</time>
   <dipole>
    <v name="dipole">      0.00000000       0.00000000      -0.01040656 </v>
    <i name="Tr[quadrupol]"> -10288.56978947 </i>
    <i name="Echarged">      0.00000000 </i>
    <i name="Edipol_quadrupol">      0.00000000 </i>
    <i name="Eion">      0.00000000 </i>
   </dipole>
   <energy>
    <i name="e_fr_energy">   -190.98691713 </i>
    <i name="e_wo_entrp">   -190.71585579 </i>
    <i name="e_0_energy">   -190.85138646 </i>
   </energy>
  </scstep>
  <scstep>
   <time name="diag">    1.21    1.21</time>
   <time name="diis">    3.47    3.48</time>
   <time name="orth">    0.28    0.28</time>
   <time name="total">    5.25    5.27</time>
   <dipole>
    <v name="dipole">      0.00000000       0.00000000      -0.01409975 </v>
    <i name="Tr[quadrupol]"> -10288.56264207 </i>
    <i name="Echarged">      0.00000000 </i>
    <i name="Edipol_quadrupol">      0.00000000 </i>
    <i name="Eion">      0.00000000 </i>
   </dipole>
   <energy>
    <i name="e_fr_energy">   -190.98634343 </i>
    <i name="e_wo_entrp">   -190.71510820 </i>
    <i name="e_0_energy">   -190.85072582 </i>
   </energy>
  </scstep>
  <scstep>
   <time name="diag">    1.21    1.22</time>
   <time name="diis">    3.38    3.39</time>
   <time name="orth">    0.29    0.29</time>
   <time name="total">    5.16    5.18</time>
   <dipole>
    <v name="dipole">      0.00000000       0.00000000      -0.01344431 </v>
    <i name="Tr[quadrupol]"> -10288.55899312 </i>
    <i name="Echarged">      0.00000000 </i>
    <i name="Edipol_quadrupol">      0.00000000 </i>
    <i name="Eion">      0.00000000 </i>
   </dipole>
   <energy>
    <i name="e_fr_energy">   -190.98623236 </i>
    <i name="e_wo_entrp">   -190.71557225 </i>
    <i name="e_0_energy">   -190.85090231 </i>
   </energy>
  </scstep>
  <scstep>
   <time name="diag">    1.20    1.21</time>
   <time name="diis">    3.36    3.45</time>
   <time name="orth">    0.28    0.28</time>
   <time name="total">    5.13    5.23</time>
   <dipole>
    <v name="dipole">      0.00000000       0.00000000      -0.01261954 </v>
    <i name="Tr[quadrupol]"> -10288.55801685 </i>
    <i name="Echarged">      0.00000000 </i>
    <i name="Edipol_quadrupol">      0.00000000 </i>
    <i name="Eion">      0.00000000 </i>
   </dipole>
   <energy>
    <i name="e_fr_energy">   -190.98617712 </i>
    <i name="e_wo_entrp">   -190.71534578 </i>
    <i name="e_0_energy">   -190.85076145 </i>
   </energy>
  </scstep>
  <scstep>
   <time name="diag">    1.21    1.21</time>
   <time name="diis">    3.40    3.42</time>
   <time name="orth">    0.28    0.28</time>
   <time name="total">    5.18    5.20</time>
   <dipole>
    <v name="dipole">      0.00000000       0.00000000      -0.01255630 </v>
    <i name="Tr[quadrupol]"> -10288.55882898 </i>
    <i name="Echarged">      0.00000000 </i>
    <i name="Edipol_quadrupol">      0.00000000 </i>
    <i name="Eion">      0.00000000 </i>
   </dipole>
   <energy>
    <i name="e_fr_energy">   -190.98617281 </i>
    <i name="e_wo_entrp">   -190.71537557 </i>
    <i name="e_0_energy">   -190.85077419 </i>
   </energy>
  </scstep>
  <scstep>
   <time name="diag">    1.21    1.21</time>
   <time name="diis">    3.32    3.32</time>
   <time name="orth">    0.28    0.28</time>
   <time name="total">    5.09    5.11</time>
   <dipole>
    <v name="dipole">      0.00000000       0.00000000      -0.01267661 </v>
    <i name="Tr[quadrupol]"> -10288.55989541 </i>
    <i name="Echarged">      0.00000000 </i>
    <i name="Edipol_quadrupol">      0.00000000 </i>
    <i name="Eion">      0.00000000 </i>
   </dipole>
   <energy>
    <i name="e_fr_energy">   -190.98616756 </i>
    <i name="e_wo_entrp">   -190.71531507 </i>
    <i name="e_0_energy">   -190.85074131 </i>
   </energy>
  </scstep>
  <scstep>
   <time name="diag">    1.21    1.21</time>
   <time name="diis">    2.61    2.61</time>
   <time name="orth">    0.28    0.28</time>
   <time name="total">    4.15    4.16</time>
   <dipole>
    <v name="dipole">      0.00000000       0.00000000      -0.01270227 </v>
    <i name="Tr[quadrupol]"> -10288.56086872 </i>
    <i name="Echarged">      0.00000000 </i>
    <i name="Edipol_quadrupol">      0.00000000 </i>
    <i name="Eion">      0.00000000 </i>
   </dipole>
   <energy>
    <i name="alphaZ">    805.87865763 </i>
    <i name="ewald"> 197909.42174160 </i>
    <i name="hartreedc">-240114.62981981 </i>
    <i name="XCdc">   -345.06013754 </i>
    <i name="pawpsdc">  48970.72844020 </i>
    <i name="pawaedc"> -47047.94417653 </i>
    <i name="eentropy">     -0.27085194 </i>
    <i name="bandstr">  -2028.89589309 </i>
    <i name="atom">  41659.78587232 </i>
    <i name="e_fr_energy">   -190.98616718 </i>
    <i name="e_wo_entrp">   -190.71531523 </i>
    <i name="e_0_energy">   -190.85074121 </i>
   </energy>
  </scstep>
  <structure>
   <crystal>
    <varray name="basis" >
     <v>      11.00258152       0.00000000       0.00000000 </v>
     <v>       5.50129076       9.52851510       0.00000000 </v>
     <v>       0.00000000       0.00000000      24.49178509 </v>
    </varray>
    <i name="volume">   2567.67623402 </i>
    <varray name="rec_basis" >
     <v>       0.09088776      -0.05247407       0.00000000 </v>
     <v>       0.00000000       0.10494815       0.00000000 </v>
     <v>       0.00000000       0.00000000       0.04083002 </v>
    </varray>
   </crystal>
   <varray name="positions" >
    <v>       0.08333333       0.08333333       0.40830017 </v>
    <v>       0.24871291       0.00109749       0.59353129 </v>
    <v>       0.91773487       0.41582674       0.50006496 </v>
    <v>      -0.00041836       0.74978121       0.59383124 </v>
    <v>       0.08333333       0.83333333       0.40830017 </v>
    <v>       0.08333333       0.58333333       0.40830017 </v>
    <v>       0.33333333       0.33333333       0.40830017 </v>
    <v>       0.24976731       0.74974610       0.59389683 </v>
    <v>       0.24853585       0.25153329       0.59320743 </v>
    <v>       0.16883061       0.66458010       0.50002613 </v>
    <v>       0.16656521       0.91776029       0.49990779 </v>
    <v>       0.50084236      -0.00080331       0.59321989 </v>
    <v>       0.91512280       0.66660255       0.50039052 </v>
    <v>       0.49921705       0.25079742       0.59321226 </v>
    <v>       0.58333333       0.58333333       0.40830017 </v>
    <v>       0.49935306       0.49996007       0.59324644 </v>
    <v>       0.58333333       0.83333333       0.40830017 </v>
    <v>       0.50093098       0.74990228       0.59325649 </v>
    <v>       0.75075410      -0.00071766       0.59325909 </v>
    <v>       0.83333333       0.33333333       0.40830017 </v>
    <v>       0.75149528       0.24917741       0.59323085 </v>
    <v>       0.75101530       0.50014168       0.59351482 </v>
    <v>       0.83333333       0.83333333       0.40830017 </v>
    <v>       0.58333333       0.33333333       0.40830017 </v>
    <v>       0.41656290       0.41671595       0.49995070 </v>
    <v>       0.33333333       0.08333333       0.40830017 </v>
    <v>       0.41670874       0.16635520       0.49941445 </v>
    <v>       0.58333333       0.08333333       0.40830017 </v>
    <v>       0.33333333       0.58333333       0.40830017 </v>
    <v>       0.16705888       0.16712144       0.49974750 </v>
    <v>       0.33333333       0.83333333       0.40830017 </v>
    <v>       0.24965037       0.49960106       0.59274390 </v>
    <v>       0.91516155       0.91881608       0.50003016 </v>
    <v>       0.66599475       0.91728667       0.49987370 </v>
    <v>       0.41738849       0.66617846       0.49950872 </v>
    <v>       0.66711766       0.16606132       0.49950285 </v>
    <v>       0.66616509       0.66731300       0.49999030 </v>
    <v>       0.91629416       0.16622086       0.50025415 </v>
    <v>       0.83333333       0.08333333       0.40830017 </v>
    <v>      -0.00031719       0.00071610       0.59270971 </v>
    <v>       0.00015847       0.24973765       0.59265879 </v>
    <v>       0.41696667       0.91696760       0.49944315 </v>
    <v>       0.66609628       0.41661817       0.49994050 </v>
    <v>       0.08333333       0.33333333       0.40830017 </v>
    <v>       0.83333333       0.58333333       0.40830017 </v>
    <v>       0.16751338       0.41551607       0.50022327 </v>
    <v>       0.00033323       0.49970993       0.59285077 </v>
    <v>       0.75011258       0.74992537       0.59272225 </v>
   </varray>
  </structure>
  <varray name="forces" >
   <v>       0.23722426       0.15335182      -1.36253899 </v>
   <v>      -0.09210084       0.15725338       0.95599649 </v>
   <v>       0.04004325      -0.15415651       0.25546680 </v>
   <v>      -0.05826022      -0.06473544       1.06209275 </v>
   <v>       0.09425701       0.08268556      -1.49927698 </v>
   <v>      -0.11874977      -0.34394817      -1.49061210 </v>
   <v>      -0.13146481      -0.21351828      -1.11207090 </v>
   <v>      -0.06795780       0.00572907       1.11636315 </v>
   <v>      -0.11196006       0.17780720       0.84498237 </v>
   <v>       0.13215983      -0.18979393       0.36387043 </v>
   <v>       0.12207793       0.06403901       0.31322531 </v>
   <v>       0.03346306      -0.03593829       0.79148613 </v>
   <v>      -0.15798065       0.04543772       0.41197239 </v>
   <v>      -0.05729699       0.05480395       0.76508070 </v>
   <v>      -0.12164757       0.23644585      -1.13722824 </v>
   <v>      -0.06014057       0.00173340       0.82113378 </v>
   <v>      -0.13416877       0.19531643      -1.15227286 </v>
   <v>       0.09190867       0.00267560       0.80577064 </v>
   <v>       0.05589698      -0.07243612       0.86180233 </v>
   <v>       0.12421613      -0.08153802      -1.24499854 </v>
   <v>       0.15718888      -0.09030902       0.83448195 </v>
   <v>       0.20884285      -0.00806543       0.95645149 </v>
   <v>      -0.11649162       0.33866964      -1.29936949 </v>
   <v>      -0.13737776      -0.20435766      -1.08367764 </v>
   <v>       0.05068412      -0.09919068       0.19065861 </v>
   <v>      -0.00765372       0.04961613      -0.50378712 </v>
   <v>      -0.00310850      -0.07381300       0.02439081 </v>
   <v>      -0.00620889      -0.00992342      -0.57450871 </v>
   <v>       0.15806075       0.07575973      -0.78956882 </v>
   <v>       0.19218214       0.03639705       0.09122940 </v>
   <v>       0.08018012      -0.03449417      -0.76168108 </v>
   <v>      -0.14038558      -0.02108414       0.63288790 </v>
   <v>      -0.07580364       0.21373650       0.25659367 </v>
   <v>      -0.07606254       0.17344082       0.15747093 </v>
   <v>       0.10303300      -0.02530335       0.09687089 </v>
   <v>      -0.01952434      -0.07119019       0.05882111 </v>
   <v>      -0.10271451       0.06363245       0.22633186 </v>
   <v>      -0.13144016      -0.01311584       0.26347130 </v>
   <v>      -0.18298956       0.01822157      -0.60174420 </v>
   <v>       0.02876562       0.03891803       0.58795169 </v>
   <v>       0.01518575      -0.02500562       0.55958778 </v>
   <v>       0.04955706       0.07627885       0.05132078 </v>
   <v>      -0.08458706      -0.01107657       0.30063932 </v>
   <v>       0.09818171      -0.04553214      -0.74639691 </v>
   <v>       0.00020844      -0.11785890      -0.84563331 </v>
   <v>       0.05760439      -0.21122653       0.25500996 </v>
   <v>       0.02704881      -0.02229939       0.67205731 </v>
   <v>       0.03810514      -0.02203896       0.61989589 </v>
  </varray>
  <energy>
   <i name="e_fr_energy">   -190.98616718 </i>
   <i name="e_wo_entrp">   -190.85074121 </i>
   <i name="e_0_energy">     -0.27085194 </i>
  </energy>
  <time name="totalsc">   76.28   76.76</time>
 </calculation>
 <calculation>
  <scstep>
   <time name="dav">    7.04    7.06</time>
   <time name="total">    7.33    7.35</time>
   <dipole>
    <v name="dipole">      0.00000000       0.00000000      -0.01273414 </v>
    <i name="Tr[quadrupol]"> -10271.03966908 </i>
    <i name="Echarged">      0.00000000 </i>
    <i name="Edipol_quadrupol">      0.00000000 </i>
    <i name="Eion">      0.00000000 </i>
   </dipole>
   <energy>
    <i name="alphaZ">    805.89454348 </i>
    <i name="ewald"> 194027.79686211 </i>
    <i name="hartreedc">-236251.74438349 </i>
    <i name="XCdc">   -347.66387090 </i>
    <i name="pawpsdc">  48970.58655829 </i>
    <i name="pawaedc"> -47047.80268261 </i>
    <i name="eentropy">     -0.26079718 </i>
    <i name="bandstr">  -2006.75485290 </i>
    <i name="atom">  41659.78587232 </i>
    <i name="e_fr_energy">   -190.16275089 </i>
    <i name="e_wo_entrp">   -189.90195371 </i>
    <i name="e_0_energy">   -190.03235230 </i>
   </energy>
  </scstep>
  <scstep>
   <time name="diag">    1.21    1.21</time>
   <time name="diis">    3.33    3.38</time>
   <time name="orth">    0.28    0.28</time>
   <time name="total">    5.12    5.17</time>
   <dipole>
    <v name="dipole">      0.00000000       0.00000000       0.05564786 </v>
    <i name="Tr[quadrupol]"> -10270.57445447 </i>
    <i name="Echarged">      0.00000000 </i>
    <i name="Edipol_quadrupol">      0.00000000 </i>
    <i name="Eion">      0.00000000 </i>
   </dipole>
   <energy>
    <i name="e_fr_energy">   -191.85385825 </i>
    <i name="e_wo_entrp">   -191.57436342 </i>
    <i name="e_0_energy">   -191.71411084 </i>
   </energy>
  </scstep>
  <scstep>
   <time name="diag">    1.21    1.22</time>
   <time name="diis">    3.44    3.45</time>
   <time name="orth">    0.28    0.28</time>
   <time name="total">    5.21    5.23</time>
   <dipole>
    <v name="dipole">      0.00000000       0.00000000      -0.04536434 </v>
    <i name="Tr[quadrupol]"> -10271.26424856 </i>
    <i name="Echarged">      0.00000000 </i>
    <i name="Edipol_quadrupol">      0.00000000 </i>
    <i name="Eion">      0.00000000 </i>
   </dipole>
   <energy>
    <i name="e_fr_energy">   -192.08060850 </i>
    <i name="e_wo_entrp">   -191.86548340 </i>
    <i name="e_0_energy">   -191.97304595 </i>
   </energy>
  </scstep>
  <scstep>
   <time name="diag">    1.22    1.22</time>
   <time name="diis">    3.37    3.42</time>
   <time name="orth">    0.27    0.29</time>
   <time name="total">    5.15    5.25</time>
   <dipole>
    <v name="dipole">      0.00000000       0.00000000      -0.03392188 </v>
    <i name="Tr[quadrupol]"> -10271.10702474 </i>
    <i name="Echarged">      0.00000000 </i>
    <i name="Edipol_quadrupol">      0.00000000 </i>
    <i name="Eion">      0.00000000 </i>
   </dipole>
   <energy>
    <i name="e_fr_energy">   -191.70666018 </i>
    <i name="e_wo_entrp">   -191.43880705 </i>
    <i name="e_0_energy">   -191.57273362 </i>
   </energy>
  </scstep>
  <scstep>
   <time name="diag">    1.21    1.22</time>
   <time name="diis">    3.37    3.38</time>
   <time name="orth">    0.28    0.28</time>
   <time name="total">    5.15    5.16</time>
   <dipole>
    <v name="dipole">      0.00000000       0.00000000       0.05448152 </v>
    <i name="Tr[quadrupol]"> -10271.10657473 </i>
    <i name="Echarged">      0.00000000 </i>
    <i name="Edipol_quadrupol">      0.00000000 </i>
    <i name="Eion">      0.00000000 </i>
   </dipole>
   <energy>
    <i name="e_fr_energy">   -191.79682412 </i>
    <i name="e_wo_entrp">   -191.53784877 </i>
    <i name="e_0_energy">   -191.66733644 </i>
   </energy>
  </scstep>
  <scstep>
   <time name="diag">    1.21    1.22</time>
   <time name="diis">    3.47    3.48</time>
   <time name="orth">    0.28    0.28</time>
   <time name="total">    5.25    5.27</time>
   <dipole>
    <v name="dipole">      0.00000000       0.00000000      -0.02056932 </v>
    <i name="Tr[quadrupol]"> -10271.12279977 </i>
    <i name="Echarged">      0.00000000 </i>
    <i name="Edipol_quadrupol">      0.00000000 </i>
    <i name="Eion">      0.00000000 </i>
   </dipole>
   <energy>
[...]
       <r>    -9.1130     0.0000     0.0000 </r>
       <r>    -9.0599     0.0000     0.0000 </r>
       <r>    -9.0068     0.0000     0.0000 </r>
       <r>    -8.9538     0.0000     0.0000 </r>
       <r>    -8.9007     0.0001     0.0000 </r>
       <r>    -8.8476     0.0021     0.0001 </r>
       <r>    -8.7945     0.0297     0.0017 </r>
       <r>    -8.7414     0.2434     0.0146 </r>
       <r>    -8.6883     1.1618     0.0763 </r>
       <r>    -8.6353     3.2373     0.2481 </r>
       <r>    -8.5822     5.2911     0.5290 </r>
       <r>    -8.5291     5.2212     0.8061 </r>
       <r>    -8.4760     3.8188     1.0088 </r>
       <r>    -8.4229     3.8905     1.2153 </r>
       <r>    -8.3699     5.2690     1.4950 </r>
       <r>    -8.3168     5.1539     1.7686 </r>
       <r>    -8.2637     3.0586     1.9309 </r>
       <r>    -8.2106     1.1552     1.9923 </r>
       <r>    -8.1575     0.7470     2.0319 </r>
       <r>    -8.1045     2.0009     2.1381 </r>
       <r>    -8.0514     4.9163     2.3991 </r>
       <r>    -7.9983     8.4689     2.8486 </r>
       <r>    -7.9452    10.5098     3.4065 </r>
       <r>    -7.8921    10.1026     3.9427 </r>
       <r>    -7.8391     8.5644     4.3974 </r>
       <r>    -7.7860     7.1993     4.7795 </r>
       <r>    -7.7329     6.6878     5.1345 </r>
       <r>    -7.6798     7.2996     5.5220 </r>
       <r>    -7.6267     7.7759     5.9347 </r>
       <r>    -7.5737     7.2302     6.3185 </r>
       <r>    -7.5206     6.7385     6.6762 </r>
       <r>    -7.4675     7.0376     7.0497 </r>
       <r>    -7.4144     7.9034     7.4693 </r>
       <r>    -7.3613     9.2345     7.9594 </r>
       <r>    -7.3082    10.3097     8.5067 </r>
       <r>    -7.2552    10.6746     9.0733 </r>
       <r>    -7.2021    11.5533     9.6866 </r>
       <r>    -7.1490    14.2100    10.4408 </r>
       <r>    -7.0959    18.2615    11.4102 </r>
       <r>    -7.0428    22.3547    12.5968 </r>
       <r>    -6.9898    26.4529    14.0009 </r>
       <r>    -6.9367    30.8125    15.6365 </r>
       <r>    -6.8836    34.3668    17.4607 </r>
       <r>    -6.8305    36.4881    19.3975 </r>
       <r>    -6.7774    37.3836    21.3818 </r>
       <r>    -6.7244    38.5607    23.4287 </r>
       <r>    -6.6713    42.2162    25.6695 </r>
       <r>    -6.6182    47.0296    28.1659 </r>
       <r>    -6.5651    48.9409    30.7637 </r>
       <r>    -6.5120    48.7664    33.3523 </r>
       <r>    -6.4590    49.8845    36.0002 </r>
       <r>    -6.4059    49.9680    38.6525 </r>
       <r>    -6.3528    48.4932    41.2266 </r>
       <r>    -6.2997    51.2284    43.9458 </r>
       <r>    -6.2466    59.5003    47.1041 </r>
       <r>    -6.1936    67.9851    50.7128 </r>
       <r>    -6.1405    71.7506    54.5214 </r>
       <r>    -6.0874    71.0519    58.2929 </r>
       <r>    -6.0343    70.3039    62.0247 </r>
       <r>    -5.9812    72.3982    65.8676 </r>
       <r>    -5.9282    76.0431    69.9040 </r>
       <r>    -5.8751    78.8867    74.0914 </r>
       <r>    -5.8220    79.7923    78.3268 </r>
       <r>    -5.7689    79.2174    82.5317 </r>
       <r>    -5.7158    78.6347    86.7057 </r>
       <r>    -5.6627    77.5328    90.8212 </r>
       <r>    -5.6097    74.9506    94.7997 </r>
       <r>    -5.5566    72.9555    98.6722 </r>
       <r>    -5.5035    74.1230   102.6067 </r>
       <r>    -5.4504    77.8640   106.7398 </r>
       <r>    -5.3973    82.4501   111.1163 </r>
       <r>    -5.3443    86.7292   115.7199 </r>
       <r>    -5.2912    89.5718   120.4745 </r>
       <r>    -5.2381    90.8938   125.2992 </r>
       <r>    -5.1850    90.5190   130.1040 </r>
       <r>    -5.1319    87.6121   134.7545 </r>
       <r>    -5.0789    83.8351   139.2045 </r>
       <r>    -5.0258    82.1571   143.5655 </r>
       <r>    -4.9727    82.1013   147.9235 </r>
       <r>    -4.9196    82.1816   152.2857 </r>
       <r>    -4.8665    82.8638   156.6842 </r>
       <r>    -4.8135    83.4872   161.1158 </r>
       <r>    -4.7604    83.7127   165.5593 </r>
       <r>    -4.7073    85.2971   170.0869 </r>
       <r>    -4.6542    87.9550   174.7557 </r>
       <r>    -4.6011    89.9947   179.5326 </r>
       <r>    -4.5481    91.2672   184.3772 </r>
       <r>    -4.4950    91.9433   189.2576 </r>
       <r>    -4.4419    92.6052   194.1731 </r>
       <r>    -4.3888    94.7844   199.2044 </r>
       <r>    -4.3357    98.1413   204.4138 </r>
       <r>    -4.2826    99.5093   209.6958 </r>
       <r>    -4.2296    97.2304   214.8569 </r>
       <r>    -4.1765    93.9750   219.8451 </r>
       <r>    -4.1234    92.8459   224.7734 </r>
       <r>    -4.0703    93.6533   229.7446 </r>
       <r>    -4.0172    94.1730   234.7434 </r>
       <r>    -3.9642    92.1048   239.6324 </r>
       <r>    -3.9111    87.9278   244.2997 </r>
       <r>    -3.8580    85.4091   248.8332 </r>
       <r>    -3.8049    86.4970   253.4246 </r>
       <r>    -3.7518    89.7620   258.1892 </r>
       <r>    -3.6988    94.4935   263.2050 </r>
       <r>    -3.6457   101.3834   268.5865 </r>
       <r>    -3.5926   108.4451   274.3428 </r>
       <r>    -3.5395   111.8374   280.2792 </r>
       <r>    -3.4864   110.6913   286.1548 </r>
       <r>    -3.4334   106.0503   291.7840 </r>
       <r>    -3.3803    99.5224   297.0668 </r>
       <r>    -3.3272    92.9175   301.9989 </r>
       <r>    -3.2741    87.2850   306.6320 </r>
       <r>    -3.2210    84.2019   311.1015 </r>
       <r>    -3.1680    84.4678   315.5851 </r>
       <r>    -3.1149    86.0851   320.1546 </r>
       <r>    -3.0618    86.4577   324.7438 </r>
       <r>    -3.0087    84.7534   329.2426 </r>
       <r>    -2.9556    82.0919   333.6001 </r>
       <r>    -2.9025    80.8230   337.8902 </r>
       <r>    -2.8495    81.9044   342.2378 </r>
       <r>    -2.7964    83.4929   346.6697 </r>
       <r>    -2.7433    84.1392   351.1358 </r>
       <r>    -2.6902    84.7063   355.6321 </r>
       <r>    -2.6371    86.0895   360.2018 </r>
       <r>    -2.5841    88.1637   364.8816 </r>
       <r>    -2.5310    90.2053   369.6698 </r>
       <r>    -2.4779    91.4099   374.5219 </r>
       <r>    -2.4248    91.8071   379.3950 </r>
       <r>    -2.3717    92.6308   384.3120 </r>
       <r>    -2.3187    94.2613   389.3154 </r>
       <r>    -2.2656    94.6646   394.3403 </r>
       <r>    -2.2125    92.9493   399.2741 </r>
       <r>    -2.1594    90.2668   404.0655 </r>
       <r>    -2.1063    87.7751   408.7247 </r>
       <r>    -2.0533    87.4826   413.3683 </r>
       <r>    -2.0002    90.6231   418.1787 </r>
       <r>    -1.9471    95.6647   423.2566 </r>
       <r>    -1.8940    99.6682   428.5471 </r>
       <r>    -1.8409   101.2787   433.9230 </r>
       <r>    -1.7879   101.5534   439.3136 </r>
       <r>    -1.7348   102.3129   444.7444 </r>
       <r>    -1.6817   104.6681   450.3003 </r>
       <r>    -1.6286   107.4967   456.0063 </r>
       <r>    -1.5755   108.2884   461.7543 </r>
       <r>    -1.5225   105.8273   467.3717 </r>
       <r>    -1.4694   101.1164   472.7390 </r>
       <r>    -1.4163    96.8711   477.8810 </r>
       <r>    -1.3632    94.2376   482.8832 </r>
       <r>    -1.3101    91.0133   487.7142 </r>
       <r>    -1.2570    85.7143   492.2640 </r>
       <r>    -1.2040    78.1612   496.4129 </r>
       <r>    -1.1509    67.8359   500.0136 </r>
       <r>    -1.0978    56.6726   503.0219 </r>
       <r>    -1.0447    47.6376   505.5505 </r>
       <r>    -0.9916    39.2676   507.6349 </r>
       <r>    -0.9386    28.7914   509.1631 </r>
       <r>    -0.8855    18.2458   510.1316 </r>
       <r>    -0.8324    11.4266   510.7382 </r>
       <r>    -0.7793     8.6800   511.1989 </r>
       <r>    -0.7262     7.3096   511.5869 </r>
       <r>    -0.6732     5.2330   511.8647 </r>
       <r>    -0.6201     3.7603   512.0643 </r>
       <r>    -0.5670     5.4397   512.3530 </r>
       <r>    -0.5139    10.2641   512.8978 </r>
       <r>    -0.4608    15.9711   513.7456 </r>
       <r>    -0.4078    20.7538   514.8472 </r>
       <r>    -0.3547    23.7484   516.1078 </r>
       <r>    -0.3016    24.2330   517.3941 </r>
       <r>    -0.2485    22.8586   518.6075 </r>
       <r>    -0.1954    21.2031   519.7329 </r>
       <r>    -0.1424    18.7446   520.7279 </r>
       <r>    -0.0893    14.9885   521.5235 </r>
       <r>    -0.0362    12.6319   522.1940 </r>
       <r>     0.0169    13.5960   522.9157 </r>
       <r>     0.0700    15.9684   523.7633 </r>
       <r>     0.1231    18.8550   524.7642 </r>
       <r>     0.1761    23.1360   525.9922 </r>
       <r>     0.2292    26.0152   527.3731 </r>
       <r>     0.2823    24.6002   528.6789 </r>
       <r>     0.3354    20.3596   529.7596 </r>
       <r>     0.3885    15.1677   530.5648 </r>
       <r>     0.4415    11.1199   531.1550 </r>
       <r>     0.4946    10.6663   531.7212 </r>
       <r>     0.5477    13.0295   532.4128 </r>
       <r>     0.6008    16.0063   533.2624 </r>
       <r>     0.6539    18.9166   534.2665 </r>
       <r>     0.7069    21.3795   535.4014 </r>
       <r>     0.7600    21.8005   536.5586 </r>
       <r>     0.8131    19.3728   537.5869 </r>
       <r>     0.8662    15.2187   538.3947 </r>
       <r>     0.9193    11.5341   539.0069 </r>
       <r>     0.9723    10.8295   539.5818 </r>
       <r>     1.0254    12.3608   540.2379 </r>
       <r>     1.0785    12.7618   540.9153 </r>
       <r>     1.1316    10.5617   541.4759 </r>
       <r>     1.1847     6.8930   541.8418 </r>
       <r>     1.2377     4.3660   542.0736 </r>
       <r>     1.2908     4.5564   542.3154 </r>
       <r>     1.3439     6.4031   542.6553 </r>
       <r>     1.3970     8.8614   543.1257 </r>
       <r>     1.4501    12.6512   543.7972 </r>
       <r>     1.5032    16.9950   544.6993 </r>
       <r>     1.5562    19.1044   545.7134 </r>
       <r>     1.6093    19.0757   546.7259 </r>
       <r>     1.6624    19.3317   547.7521 </r>
       <r>     1.7155    20.1412   548.8212 </r>
       <r>     1.7686    19.7427   549.8691 </r>
       <r>     1.8216    16.9159   550.7671 </r>
       <r>     1.8747    12.2642   551.4180 </r>
       <r>     1.9278     7.3504   551.8082 </r>
       <r>     1.9809     4.2390   552.0332 </r>
       <r>     2.0340     4.3152   552.2623 </r>
       <r>     2.0870     6.0726   552.5846 </r>
       <r>     2.1401     7.1414   552.9637 </r>
       <r>     2.1932     8.2239   553.4002 </r>
       <r>     2.2463    11.2955   553.9998 </r>
       <r>     2.2994    16.2220   554.8609 </r>
       <r>     2.3524    21.1624   555.9842 </r>
       <r>     2.4055    24.6603   557.2932 </r>
       <r>     2.4586    26.9042   558.7213 </r>
       <r>     2.5117    28.0784   560.2117 </r>
       <r>     2.5648    27.8981   561.6925 </r>
       <r>     2.6178    27.2068   563.1367 </r>
       <r>     2.6709    27.5512   564.5991 </r>
       <r>     2.7240    28.0210   566.0865 </r>
       <r>     2.7771    24.9277   567.4097 </r>
       <r>     2.8302    17.5868   568.3432 </r>
       <r>     2.8832    10.4485   568.8978 </r>
       <r>     2.9363     7.4559   569.2936 </r>
       <r>     2.9894     7.8165   569.7085 </r>
       <r>     3.0425     9.2376   570.1988 </r>
       <r>     3.0956    11.8508   570.8279 </r>
       <r>     3.1487    14.6426   571.6051 </r>
       <r>     3.2017    13.9276   572.3444 </r>
       <r>     3.2548     9.8143   572.8654 </r>
       <r>     3.3079     6.8225   573.2275 </r>
       <r>     3.3610     6.1377   573.5533 </r>
       <r>     3.4141     5.0607   573.8219 </r>
       <r>     3.4671     3.4621   574.0057 </r>
       <r>     3.5202     3.9506   574.2154 </r>
       <r>     3.5733     7.3432   574.6052 </r>
       <r>     3.6264    11.9779   575.2410 </r>
       <r>     3.6795    16.3647   576.1096 </r>
       <r>     3.7325    20.1190   577.1775 </r>
       <r>     3.7856    22.3220   578.3624 </r>
       <r>     3.8387    20.8370   579.4685 </r>
       <r>     3.8918    15.6913   580.3014 </r>
       <r>     3.9449    10.8251   580.8760 </r>
       <r>     3.9979    10.1280   581.4136 </r>
       <r>     4.0510    13.1280   582.1104 </r>
       <r>     4.1041    15.3897   582.9273 </r>
       <r>     4.1572    14.7494   583.7102 </r>
       <r>     4.2103    13.4148   584.4223 </r>
       <r>     4.2633    12.5893   585.0905 </r>
       <r>     4.3164    11.1788   585.6839 </r>
       <r>     4.3695     9.8007   586.2041 </r>
       <r>     4.4226    10.0746   586.7389 </r>
       <r>     4.4757    12.0515   587.3786 </r>
       <r>     4.5288    16.2836   588.2430 </r>
       <r>     4.5818    22.9779   589.4626 </r>
       <r>     4.6349    28.5502   590.9781 </r>
       <r>     4.6880    28.4976   592.4908 </r>
       <r>     4.7411    23.6979   593.7487 </r>
       <r>     4.7942    19.9284   594.8065 </r>
       <r>     4.8472    21.0497   595.9238 </r>
       <r>     4.9003    25.8442   597.2957 </r>
       <r>     4.9534    30.6489   598.9225 </r>
       <r>     5.0065    33.7465   600.7138 </r>
       <r>     5.0596    35.5292   602.5997 </r>
       <r>     5.1126    35.2270   604.4696 </r>
       <r>     5.1657    33.5993   606.2531 </r>
       <r>     5.2188    32.8662   607.9976 </r>
       <r>     5.2719    30.6623   609.6252 </r>
       <r>     5.3250    23.6097   610.8784 </r>
       <r>     5.3780    13.6840   611.6048 </r>
       <r>     5.4311     5.6102   611.9026 </r>
       <r>     5.4842     1.5366   611.9841 </r>
       <r>     5.5373     0.2680   611.9984 </r>
       <r>     5.5904     0.0288   611.9999 </r>
       <r>     5.6434     0.0019   612.0000 </r>
       <r>     5.6965     0.0001   612.0000 </r>
       <r>     5.7496     0.0000   612.0000 </r>
       <r>     5.8027     0.0000   612.0000 </r>
       <r>     5.8558     0.0000   612.0000 </r>
       <r>     5.9089     0.0000   612.0000 </r>
       <r>     5.9619     0.0000   612.0000 </r>
       <r>     6.0150     0.0000   612.0000 </r>
       <r>     6.0681     0.0000   612.0000 </r>
       <r>     6.1212     0.0000   612.0000 </r>
       <r>     6.1743     0.0000   612.0000 </r>
       <r>     6.2273     0.0000   612.0000 </r>
       <r>     6.2804     0.0000   612.0000 </r>
       <r>     6.3335     0.0000   612.0000 </r>
      </set>
     </set>
    </array>
   </total>
  </dos>
 </calculation>
 <structure name="finalpos" >
  <crystal>
   <varray name="basis" >
    <v>      11.00258152       0.00000000       0.00000000 </v>
    <v>       5.50129076       9.52851510       0.00000000 </v>
    <v>       0.00000000       0.00000000      24.49178509 </v>
   </varray>
   <i name="volume">   2567.67623402 </i>
   <varray name="rec_basis" >
    <v>       0.09088776      -0.05247407       0.00000000 </v>
    <v>       0.00000000       0.10494815       0.00000000 </v>
    <v>       0.00000000       0.00000000       0.04083002 </v>
   </varray>
  </crystal>
  <varray name="positions" >
   <v>       0.08333333       0.08333333       0.40830017 </v>
   <v>       0.24729913       0.00270412       0.61001412 </v>
   <v>       0.91865191       0.41412046       0.50698409 </v>
   <v>      -0.00016606       0.74865323       0.61222259 </v>
   <v>       0.08333333       0.83333333       0.40830017 </v>
   <v>       0.08333333       0.58333333       0.40830017 </v>
   <v>       0.33333333       0.33333333       0.40830017 </v>
   <v>       0.24905985       0.75013558       0.61395765 </v>
   <v>       0.24681086       0.25337678       0.60749675 </v>
   <v>       0.17107475       0.66361935       0.50937561 </v>
   <v>       0.16911465       0.91663438       0.50849986 </v>
   <v>       0.50051069      -0.00025175       0.60721608 </v>
   <v>       0.91507370       0.66750218       0.50889182 </v>
   <v>       0.49877071       0.25155091       0.60660929 </v>
   <v>       0.58333333       0.58333333       0.40830017 </v>
   <v>       0.49899322       0.50060179       0.60806017 </v>
   <v>       0.58333333       0.83333333       0.40830017 </v>
   <v>       0.50092723       0.75036411       0.60752189 </v>
   <v>       0.75172614      -0.00128767       0.60788496 </v>
   <v>       0.83333333       0.33333333       0.40830017 </v>
   <v>       0.75369201       0.24816252       0.60770468 </v>
   <v>       0.75349237       0.50016523       0.60936863 </v>
   <v>       0.83333333       0.83333333       0.40830017 </v>
   <v>       0.58333333       0.33333333       0.40830017 </v>
   <v>       0.41925958       0.41471476       0.50724266 </v>
   <v>       0.33333333       0.08333333       0.40830017 </v>
   <v>       0.41762665       0.16558801       0.50579380 </v>
   <v>       0.58333333       0.08333333       0.40830017 </v>
   <v>       0.33333333       0.58333333       0.40830017 </v>
   <v>       0.17036961       0.16528607       0.50655018 </v>
   <v>       0.33333333       0.83333333       0.40830017 </v>
   <v>       0.24871968       0.50029429       0.60540466 </v>
   <v>       0.91472250       0.91891458       0.50816868 </v>
   <v>       0.66469841       0.91913210       0.50697835 </v>
   <v>       0.41926467       0.66524582       0.50685197 </v>
   <v>       0.66777272       0.16527205       0.50629463 </v>
   <v>       0.66504135       0.66740054       0.50772758 </v>
   <v>       0.91573156       0.16531836       0.50738049 </v>
   <v>       0.83333333       0.08333333       0.40830017 </v>
   <v>       0.00086198      -0.00037994       0.60455468 </v>
   <v>       0.00046028       0.24976021       0.60360861 </v>
   <v>       0.41827317       0.91679238       0.50637002 </v>
   <v>       0.66592450       0.41611285       0.50871948 </v>
   <v>       0.08333333       0.33333333       0.40830017 </v>
   <v>       0.83333333       0.58333333       0.40830017 </v>
   <v>       0.17052412       0.41294627       0.50759565 </v>
   <v>       0.00041764       0.50012105       0.60488349 </v>
   <v>       0.75049613       0.75012717       0.60486979 </v>
  </varray>
  <varray name="selective"  type="logical" >
   <v type="logical" >  F  F  F </v>
   <v type="logical" >  T  T  T </v>
   <v type="logical" >  T  T  T </v>
   <v type="logical" >  T  T  T </v>
   <v type="logical" >  F  F  F </v>
   <v type="logical" >  F  F  F </v>
   <v type="logical" >  F  F  F </v>
   <v type="logical" >  T  T  T </v>
   <v type="logical" >  T  T  T </v>
   <v type="logical" >  T  T  T </v>
   <v type="logical" >  T  T  T </v>
   <v type="logical" >  T  T  T </v>
   <v type="logical" >  T  T  T </v>
   <v type="logical" >  T  T  T </v>
   <v type="logical" >  F  F  F </v>
   <v type="logical" >  T  T  T </v>
   <v type="logical" >  F  F  F </v>
   <v type="logical" >  T  T  T </v>
   <v type="logical" >  T  T  T </v>
   <v type="logical" >  F  F  F </v>
   <v type="logical" >  T  T  T </v>
   <v type="logical" >  T  T  T </v>
   <v type="logical" >  F  F  F </v>
   <v type="logical" >  F  F  F </v>
   <v type="logical" >  T  T  T </v>
   <v type="logical" >  F  F  F </v>
   <v type="logical" >  T  T  T </v>
   <v type="logical" >  F  F  F </v>
   <v type="logical" >  F  F  F </v>
   <v type="logical" >  T  T  T </v>
   <v type="logical" >  F  F  F </v>
   <v type="logical" >  T  T  T </v>
   <v type="logical" >  T  T  T </v>
   <v type="logical" >  T  T  T </v>
   <v type="logical" >  T  T  T </v>
   <v type="logical" >  T  T  T </v>
   <v type="logical" >  T  T  T </v>
   <v type="logical" >  T  T  T </v>
   <v type="logical" >  F  F  F </v>
   <v type="logical" >  T  T  T </v>
   <v type="logical" >  T  T  T </v>
   <v type="logical" >  T  T  T </v>
   <v type="logical" >  T  T  T </v>
   <v type="logical" >  F  F  F </v>
   <v type="logical" >  F  F  F </v>
   <v type="logical" >  T  T  T </v>
   <v type="logical" >  T  T  T </v>
   <v type="logical" >  T  T  T </v>
  </varray>
  <nose>
   <v>      -3.00000000       0.00000000       0.00010000       0.00010000 </v>
  </nose>
 </structure>
</modeling>
