  56  56   0   0
  0.4903395E+02  0.1100258E-08  0.1100258E-08  0.2619179E-08  0.3500000E-15
  1.000000000000000E-004
  CAR 
 unknown system                          
      6.48530789    -21.65150604  301     -1.41463598      1.00000000
    -21.652  0.0000E+00  0.0000E+00
    -21.558  0.0000E+00  0.0000E+00
    -21.464  0.0000E+00  0.0000E+00
    -21.370  0.0000E+00  0.0000E+00
    -21.276  0.0000E+00  0.0000E+00
    -21.183  0.0000E+00  0.0000E+00
    -21.089  0.0000E+00  0.0000E+00
    -20.995  0.0000E+00  0.0000E+00
    -20.901  0.1431E-14  0.1342E-15
    -20.807  0.1483E-10  0.1391E-11
    -20.714  0.2756E-07  0.2586E-08
    -20.620  0.9367E-05  0.8811E-06
    -20.526  0.6016E-03  0.5731E-04
    -20.432  0.7679E-02  0.7775E-03
    -20.338  0.2074E-01  0.2723E-02
    -20.245  0.1502E-01  0.4131E-02
    -20.151  0.2442E-01  0.6421E-02
    -20.057  0.4103E-01  0.1027E-01
    -19.963  0.1735E-01  0.1190E-01
    -19.870  0.9714E-02  0.1281E-01
    -19.776  0.3578E-01  0.1616E-01
    -19.682  0.5048E-01  0.2090E-01
    -19.588  0.3796E-01  0.2446E-01
    -19.494  0.3304E-01  0.2756E-01
    -19.401  0.3044E-01  0.3041E-01
    -19.307  0.1483E-01  0.3180E-01
    -19.213  0.2062E-02  0.3199E-01
    -19.119  0.6160E-04  0.3200E-01
    -19.025  0.3568E-06  0.3200E-01
    -18.932  0.3826E-09  0.3200E-01
    -18.838  0.7407E-13  0.3200E-01
    -18.744  0.0000E+00  0.3200E-01
    -18.650  0.0000E+00  0.3200E-01
    -18.556  0.0000E+00  0.3200E-01
    -18.463  0.0000E+00  0.3200E-01
    -18.369  0.0000E+00  0.3200E-01
    -18.275  0.0000E+00  0.3200E-01
    -18.181  0.0000E+00  0.3200E-01
    -18.088  0.0000E+00  0.3200E-01
    -17.994  0.0000E+00  0.3200E-01
    -17.900  0.0000E+00  0.3200E-01
    -17.806  0.0000E+00  0.3200E-01
    -17.712  0.0000E+00  0.3200E-01
    -17.619  0.0000E+00  0.3200E-01
    -17.525  0.0000E+00  0.3200E-01
    -17.431  0.0000E+00  0.3200E-01
    -17.337  0.0000E+00  0.3200E-01
    -17.243  0.0000E+00  0.3200E-01
    -17.150  0.0000E+00  0.3200E-01
    -17.056  0.0000E+00  0.3200E-01
    -16.962  0.0000E+00  0.3200E-01
    -16.868  0.0000E+00  0.3200E-01
    -16.774  0.0000E+00  0.3200E-01
    -16.681  0.0000E+00  0.3200E-01
    -16.587  0.0000E+00  0.3200E-01
    -16.493  0.0000E+00  0.3200E-01
    -16.399  0.0000E+00  0.3200E-01
    -16.306  0.0000E+00  0.3200E-01
    -16.212  0.0000E+00  0.3200E-01
    -16.118  0.0000E+00  0.3200E-01
    -16.024  0.0000E+00  0.3200E-01
    -15.930  0.0000E+00  0.3200E-01
    -15.837  0.0000E+00  0.3200E-01
    -15.743  0.0000E+00  0.3200E-01
    -15.649  0.0000E+00  0.3200E-01
    -15.555  0.0000E+00  0.3200E-01
    -15.461  0.0000E+00  0.3200E-01
    -15.368  0.0000E+00  0.3200E-01
    -15.274  0.0000E+00  0.3200E-01
    -15.180  0.0000E+00  0.3200E-01
    -15.086  0.0000E+00  0.3200E-01
    -14.992  0.0000E+00  0.3200E-01
    -14.899  0.0000E+00  0.3200E-01
    -14.805  0.0000E+00  0.3200E-01
    -14.711  0.0000E+00  0.3200E-01
    -14.617  0.0000E+00  0.3200E-01
    -14.524  0.0000E+00  0.3200E-01
    -14.430  0.0000E+00  0.3200E-01
    -14.336  0.0000E+00  0.3200E-01
    -14.242  0.0000E+00  0.3200E-01
    -14.148  0.0000E+00  0.3200E-01
    -14.055  0.0000E+00  0.3200E-01
    -13.961  0.0000E+00  0.3200E-01
    -13.867  0.0000E+00  0.3200E-01
    -13.773  0.0000E+00  0.3200E-01
    -13.679  0.0000E+00  0.3200E-01
    -13.586  0.0000E+00  0.3200E-01
    -13.492  0.0000E+00  0.3200E-01
    -13.398  0.0000E+00  0.3200E-01
    -13.304  0.0000E+00  0.3200E-01
    -13.210  0.0000E+00  0.3200E-01
    -13.117  0.0000E+00  0.3200E-01
    -13.023  0.0000E+00  0.3200E-01
    -12.929  0.0000E+00  0.3200E-01
    -12.835  0.0000E+00  0.3200E-01
    -12.742  0.0000E+00  0.3200E-01
    -12.648  0.0000E+00  0.3200E-01
    -12.554  0.0000E+00  0.3200E-01
    -12.460  0.0000E+00  0.3200E-01
    -12.366  0.0000E+00  0.3200E-01
    -12.273  0.0000E+00  0.3200E-01
    -12.179  0.0000E+00  0.3200E-01
    -12.085  0.0000E+00  0.3200E-01
    -11.991  0.0000E+00  0.3200E-01
    -11.897  0.0000E+00  0.3200E-01
    -11.804  0.0000E+00  0.3200E-01
    -11.710  0.0000E+00  0.3200E-01
    -11.616  0.0000E+00  0.3200E-01
    -11.522  0.0000E+00  0.3200E-01
    -11.428  0.0000E+00  0.3200E-01
    -11.335  0.0000E+00  0.3200E-01
    -11.241  0.0000E+00  0.3200E-01
    -11.147  0.0000E+00  0.3200E-01
    -11.053  0.0000E+00  0.3200E-01
    -10.960  0.0000E+00  0.3200E-01
    -10.866  0.0000E+00  0.3200E-01
    -10.772  0.0000E+00  0.3200E-01
    -10.678  0.0000E+00  0.3200E-01
    -10.584  0.0000E+00  0.3200E-01
    -10.491  0.0000E+00  0.3200E-01
    -10.397  0.0000E+00  0.3200E-01
    -10.303  0.0000E+00  0.3200E-01
    -10.209  0.0000E+00  0.3200E-01
    -10.115  0.0000E+00  0.3200E-01
    -10.022  0.0000E+00  0.3200E-01
     -9.928  0.6589E-16  0.3200E-01
     -9.834  0.9404E-12  0.3200E-01
     -9.740  0.2455E-08  0.3200E-01
     -9.646  0.1199E-05  0.3200E-01
     -9.553  0.1133E-03  0.3201E-01
     -9.459  0.2179E-02  0.3222E-01
     -9.365  0.9288E-02  0.3309E-01
     -9.271  0.1192E-01  0.3420E-01
     -9.178  0.1125E-01  0.3526E-01
     -9.084  0.6642E-02  0.3588E-01
     -8.990  0.1259E-02  0.3600E-01
     -8.896  0.1028E-02  0.3610E-01
     -8.802  0.3683E-02  0.3644E-01
     -8.709  0.6722E-02  0.3707E-01
     -8.615  0.1287E-01  0.3828E-01
     -8.521  0.1839E-01  0.4001E-01
     -8.427  0.2572E-01  0.4242E-01
     -8.333  0.3110E-01  0.4533E-01
     -8.240  0.3540E-01  0.4865E-01
     -8.146  0.3183E-01  0.5164E-01
     -8.052  0.3185E-01  0.5463E-01
     -7.958  0.4248E-01  0.5861E-01
     -7.864  0.5096E-01  0.6339E-01
     -7.771  0.5797E-01  0.6883E-01
     -7.677  0.7667E-01  0.7602E-01
     -7.583  0.9668E-01  0.8509E-01
     -7.489  0.1026E+00  0.9471E-01
     -7.396  0.9851E-01  0.1039E+00
     -7.302  0.9319E-01  0.1127E+00
     -7.208  0.1041E+00  0.1224E+00
     -7.114  0.1131E+00  0.1331E+00
     -7.020  0.1187E+00  0.1442E+00
     -6.927  0.1311E+00  0.1565E+00
     -6.833  0.1433E+00  0.1699E+00
     -6.739  0.1514E+00  0.1841E+00
     -6.645  0.1671E+00  0.1998E+00
     -6.551  0.1750E+00  0.2162E+00
     -6.458  0.1714E+00  0.2323E+00
     -6.364  0.1687E+00  0.2481E+00
     -6.270  0.1617E+00  0.2633E+00
     -6.176  0.1541E+00  0.2777E+00
     -6.082  0.1493E+00  0.2917E+00
     -5.989  0.1512E+00  0.3059E+00
     -5.895  0.1567E+00  0.3206E+00
     -5.801  0.1631E+00  0.3359E+00
     -5.707  0.1573E+00  0.3507E+00
     -5.614  0.1559E+00  0.3653E+00
     -5.520  0.1679E+00  0.3810E+00
     -5.426  0.1773E+00  0.3977E+00
     -5.332  0.1808E+00  0.4146E+00
     -5.238  0.1717E+00  0.4307E+00
     -5.145  0.1623E+00  0.4459E+00
     -5.051  0.1644E+00  0.4614E+00
     -4.957  0.1664E+00  0.4770E+00
     -4.863  0.1603E+00  0.4920E+00
     -4.769  0.1670E+00  0.5077E+00
     -4.676  0.1711E+00  0.5237E+00
     -4.582  0.1637E+00  0.5391E+00
     -4.488  0.1735E+00  0.5553E+00
     -4.394  0.1800E+00  0.5722E+00
     -4.300  0.1756E+00  0.5887E+00
     -4.207  0.1813E+00  0.6057E+00
     -4.113  0.1912E+00  0.6236E+00
     -4.019  0.1960E+00  0.6420E+00
     -3.925  0.1939E+00  0.6602E+00
     -3.832  0.1915E+00  0.6781E+00
     -3.738  0.1869E+00  0.6957E+00
     -3.644  0.1869E+00  0.7132E+00
     -3.550  0.1830E+00  0.7304E+00
     -3.456  0.1755E+00  0.7468E+00
     -3.363  0.1799E+00  0.7637E+00
     -3.269  0.1863E+00  0.7812E+00
     -3.175  0.1869E+00  0.7987E+00
     -3.081  0.1883E+00  0.8164E+00
     -2.987  0.1960E+00  0.8347E+00
     -2.894  0.1968E+00  0.8532E+00
     -2.800  0.1917E+00  0.8712E+00
     -2.706  0.1891E+00  0.8889E+00
     -2.612  0.1841E+00  0.9062E+00
     -2.518  0.1816E+00  0.9232E+00
     -2.425  0.1777E+00  0.9399E+00
     -2.331  0.1863E+00  0.9574E+00
     -2.237  0.2008E+00  0.9762E+00
     -2.143  0.2042E+00  0.9953E+00
     -2.050  0.1955E+00  0.1014E+01
     -1.956  0.1823E+00  0.1031E+01
     -1.862  0.1731E+00  0.1047E+01
     -1.768  0.1643E+00  0.1062E+01
     -1.674  0.1505E+00  0.1077E+01
     -1.581  0.1232E+00  0.1088E+01
     -1.487  0.1010E+00  0.1098E+01
     -1.393  0.8786E-01  0.1106E+01
     -1.299  0.7282E-01  0.1113E+01
     -1.205  0.5487E-01  0.1118E+01
     -1.112  0.4959E-01  0.1122E+01
     -1.018  0.5290E-01  0.1127E+01
     -0.924  0.4767E-01  0.1132E+01
     -0.830  0.4330E-01  0.1136E+01
     -0.736  0.4878E-01  0.1140E+01
     -0.643  0.5019E-01  0.1145E+01
     -0.549  0.5164E-01  0.1150E+01
     -0.455  0.4900E-01  0.1155E+01
     -0.361  0.4848E-01  0.1159E+01
     -0.268  0.4563E-01  0.1163E+01
     -0.174  0.3512E-01  0.1167E+01
     -0.080  0.2614E-01  0.1169E+01
      0.014  0.2215E-01  0.1171E+01
      0.108  0.2106E-01  0.1173E+01
      0.201  0.2240E-01  0.1175E+01
      0.295  0.2937E-01  0.1178E+01
      0.389  0.3330E-01  0.1181E+01
      0.483  0.3626E-01  0.1185E+01
      0.577  0.3887E-01  0.1188E+01
      0.670  0.3623E-01  0.1192E+01
      0.764  0.3186E-01  0.1195E+01
      0.858  0.2846E-01  0.1197E+01
      0.952  0.2816E-01  0.1200E+01
      1.046  0.2933E-01  0.1203E+01
      1.139  0.2797E-01  0.1205E+01
      1.233  0.2267E-01  0.1207E+01
      1.327  0.1845E-01  0.1209E+01
      1.421  0.2039E-01  0.1211E+01
      1.514  0.2356E-01  0.1213E+01
      1.608  0.3001E-01  0.1216E+01
      1.702  0.3627E-01  0.1220E+01
      1.796  0.3320E-01  0.1223E+01
      1.890  0.2812E-01  0.1225E+01
      1.983  0.3350E-01  0.1228E+01
      2.077  0.4046E-01  0.1232E+01
      2.171  0.3338E-01  0.1235E+01
      2.265  0.2617E-01  0.1238E+01
      2.359  0.2833E-01  0.1240E+01
      2.452  0.2978E-01  0.1243E+01
      2.546  0.2677E-01  0.1246E+01
      2.640  0.2309E-01  0.1248E+01
      2.734  0.2081E-01  0.1250E+01
      2.828  0.1405E-01  0.1251E+01
      2.921  0.1318E-01  0.1252E+01
      3.015  0.2124E-01  0.1254E+01
      3.109  0.2663E-01  0.1257E+01
      3.203  0.2654E-01  0.1259E+01
      3.296  0.3229E-01  0.1262E+01
      3.390  0.3938E-01  0.1266E+01
      3.484  0.3559E-01  0.1269E+01
      3.578  0.3507E-01  0.1273E+01
      3.672  0.4084E-01  0.1277E+01
      3.765  0.4132E-01  0.1280E+01
      3.859  0.3325E-01  0.1284E+01
      3.953  0.3093E-01  0.1287E+01
      4.047  0.3490E-01  0.1290E+01
      4.141  0.3663E-01  0.1293E+01
      4.234  0.3749E-01  0.1297E+01
      4.328  0.3726E-01  0.1300E+01
      4.422  0.3634E-01  0.1304E+01
      4.516  0.3822E-01  0.1307E+01
      4.610  0.4337E-01  0.1311E+01
      4.703  0.5203E-01  0.1316E+01
      4.797  0.5505E-01  0.1321E+01
      4.891  0.5798E-01  0.1327E+01
      4.985  0.5479E-01  0.1332E+01
      5.078  0.5481E-01  0.1337E+01
      5.172  0.4928E-01  0.1342E+01
      5.266  0.2138E-01  0.1344E+01
      5.360  0.3232E-02  0.1344E+01
      5.454  0.1527E-03  0.1344E+01
      5.547  0.1916E-05  0.1344E+01
      5.641  0.5267E-08  0.1344E+01
      5.735  0.2808E-11  0.1344E+01
      5.829  0.2730E-15  0.1344E+01
      5.923  0.0000E+00  0.1344E+01
      6.016  0.0000E+00  0.1344E+01
      6.110  0.0000E+00  0.1344E+01
      6.204  0.0000E+00  0.1344E+01
      6.298  0.0000E+00  0.1344E+01
      6.392  0.0000E+00  0.1344E+01
      6.485  0.0000E+00  0.1344E+01
