       N       E                     dE             d eps       ncg     rms          rms(c)
DAV:   1     0.362897089480E+04    0.36290E+04   -0.20999E+05  4080   0.112E+03
DAV:   2     0.548391487136E+02   -0.35741E+04   -0.33180E+04  4836   0.271E+02
DAV:   3    -0.251575998511E+03   -0.30642E+03   -0.28532E+03  4632   0.759E+01
DAV:   4    -0.262508267301E+03   -0.10932E+02   -0.10720E+02  4500   0.150E+01
DAV:   5    -0.262823365409E+03   -0.31510E+00   -0.31422E+00  4620   0.251E+00    0.678E+01
RMM:   6    -0.249203581222E+03    0.13620E+02   -0.17625E+02  4038   0.200E+01    0.599E+01
RMM:   7    -0.242779356099E+03    0.64242E+01   -0.52370E+01  4039   0.114E+01    0.376E+01
RMM:   8    -0.318356310710E+03   -0.75577E+02   -0.78037E+01  4032   0.126E+01    0.835E+01
RMM:   9    -0.258473373812E+03    0.59883E+02   -0.47793E+01  4037   0.969E+00    0.459E+01
RMM:  10    -0.237192200903E+03    0.21281E+02   -0.23594E+01  4038   0.767E+00    0.198E+01
RMM:  11    -0.231587453365E+03    0.56047E+01   -0.12991E+01  4038   0.552E+00    0.106E+01
RMM:  12    -0.230972512949E+03    0.61494E+00   -0.33234E+00  4038   0.267E+00    0.102E+01
RMM:  13    -0.230613876334E+03    0.35864E+00   -0.11536E+00  4038   0.163E+00    0.730E+00
RMM:  14    -0.230441478782E+03    0.17240E+00   -0.36435E-01  4038   0.950E-01    0.506E+00
RMM:  15    -0.230344908875E+03    0.96570E-01   -0.17174E-01  4036   0.621E-01    0.411E+00
RMM:  16    -0.230319770217E+03    0.25139E-01   -0.14937E-01  4036   0.564E-01    0.349E+00
RMM:  17    -0.230236234884E+03    0.83535E-01   -0.58264E-02  4038   0.356E-01    0.234E+00
RMM:  18    -0.230189456228E+03    0.46779E-01   -0.33358E-02  4038   0.264E-01    0.125E+00
RMM:  19    -0.230177250927E+03    0.12205E-01   -0.11193E-02  4038   0.149E-01    0.842E-01
RMM:  20    -0.230174369011E+03    0.28819E-02   -0.23050E-03  4040   0.643E-02    0.679E-01
RMM:  21    -0.230172118913E+03    0.22501E-02   -0.15314E-03  4038   0.552E-02    0.537E-01
RMM:  22    -0.230170265705E+03    0.18532E-02   -0.52719E-03  4038   0.104E-01    0.289E-01
RMM:  23    -0.230169863225E+03    0.40248E-03   -0.13729E-03  4038   0.539E-02    0.159E-01
RMM:  24    -0.230169775585E+03    0.87640E-04   -0.24469E-04  4038   0.233E-02    0.892E-02
RMM:  25    -0.230169962652E+03   -0.18707E-03   -0.71099E-05  4034   0.122E-02    0.660E-02
RMM:  26    -0.230170272021E+03   -0.30937E-03   -0.63641E-05  4032   0.111E-02    0.390E-02
RMM:  27    -0.230170650312E+03   -0.37829E-03   -0.47625E-05  4032   0.905E-03    0.226E-02
RMM:  28    -0.230170873943E+03   -0.22363E-03   -0.21054E-05  4019   0.602E-03    0.166E-02
RMM:  29    -0.230171290347E+03   -0.41640E-03   -0.19249E-05  3972   0.549E-03    0.183E-02
RMM:  30    -0.230171675235E+03   -0.38489E-03   -0.22787E-05  3932   0.578E-03    0.195E-02
RMM:  31    -0.230171940259E+03   -0.26502E-03   -0.19781E-05  3656   0.498E-03    0.108E-02
RMM:  32    -0.230172057058E+03   -0.11680E-03   -0.92000E-06  3131   0.321E-03    0.787E-03
RMM:  33    -0.230172125048E+03   -0.67990E-04   -0.36719E-06  2835   0.209E-03    0.619E-03
RMM:  34    -0.230172167585E+03   -0.42537E-04   -0.13224E-06  2454   0.141E-03    0.558E-03
RMM:  35    -0.230172212557E+03   -0.44972E-04   -0.97454E-07  2392   0.131E-03    0.483E-03
RMM:  36    -0.230172235027E+03   -0.22471E-04   -0.46464E-07  2332   0.908E-04    0.394E-03
RMM:  37    -0.230172255327E+03   -0.20300E-04   -0.40496E-07  2331   0.898E-04    0.244E-03
RMM:  38    -0.230172268982E+03   -0.13655E-04   -0.34087E-07  2301   0.804E-04    0.177E-03
RMM:  39    -0.230172275251E+03   -0.62695E-05   -0.18661E-07  1453   0.536E-04    0.921E-04
RMM:  40    -0.230172278399E+03   -0.31475E-05   -0.95621E-08  1636   0.473E-04    0.581E-04
RMM:  41    -0.230172280539E+03   -0.21402E-05   -0.48084E-08  1162   0.356E-04    0.342E-04
RMM:  42    -0.230172281880E+03   -0.13413E-05   -0.27172E-08   898   0.316E-04    0.213E-04
RMM:  43    -0.230172282802E+03   -0.92192E-06   -0.21861E-08   750   0.315E-04
   1 F= -.23017228E+03 E0= -.23006628E+03  d E =-.230172E+03
       N       E                     dE             d eps       ncg     rms          rms(c)
DAV:   1    -0.230172826927E+03   -0.54505E-03   -0.35351E-01  4116   0.102E+00    0.155E-01
RMM:   2    -0.230173786301E+03   -0.95937E-03   -0.90139E-03  4040   0.158E-01    0.173E-01
RMM:   3    -0.230174035131E+03   -0.24883E-03   -0.64516E-04  4044   0.385E-02    0.219E-01
RMM:   4    -0.230173861443E+03    0.17369E-03   -0.39775E-04  4041   0.285E-02    0.190E-01
RMM:   5    -0.230173611406E+03    0.25004E-03   -0.19281E-04  4039   0.210E-02    0.108E-01
RMM:   6    -0.230173573372E+03    0.38033E-04   -0.86601E-05  4039   0.140E-02    0.629E-02
RMM:   7    -0.230173556624E+03    0.16748E-04   -0.49946E-05  4032   0.107E-02    0.368E-02
RMM:   8    -0.230173545742E+03    0.10882E-04   -0.14907E-05  4025   0.595E-03    0.115E-02
RMM:   9    -0.230173545165E+03    0.57757E-06   -0.17684E-06  2366   0.220E-03
   2 F= -.23017355E+03 E0= -.23006754E+03  d E =-.126236E-02
       N       E                     dE             d eps       ncg     rms          rms(c)
DAV:   1    -0.230173480393E+03    0.65349E-04   -0.14845E-01  4104   0.659E-01    0.101E-01
RMM:   2    -0.230173893177E+03   -0.41278E-03   -0.38095E-03  4040   0.103E-01    0.117E-01
RMM:   3    -0.230173984462E+03   -0.91285E-04   -0.27229E-04  4044   0.250E-02    0.141E-01
RMM:   4    -0.230173904795E+03    0.79667E-04   -0.16300E-04  4041   0.184E-02    0.117E-01
RMM:   5    -0.230173810668E+03    0.94127E-04   -0.80104E-05  4039   0.136E-02    0.697E-02
RMM:   6    -0.230173795484E+03    0.15184E-04   -0.35296E-05  4033   0.895E-03    0.409E-02
RMM:   7    -0.230173788322E+03    0.71624E-05   -0.21118E-05  4026   0.699E-03    0.234E-02
RMM:   8    -0.230173783962E+03    0.43594E-05   -0.62175E-06  3557   0.387E-03    0.706E-03
RMM:   9    -0.230173783850E+03    0.11231E-06   -0.78348E-07  2173   0.150E-03
   3 F= -.23017378E+03 E0= -.23006778E+03  d E =-.150105E-02
       N       E                     dE             d eps       ncg     rms          rms(c)
DAV:   1    -0.230174024798E+03   -0.24084E-03   -0.43540E-01  4176   0.113E+00    0.123E-01
RMM:   2    -0.230174956997E+03   -0.93220E-03   -0.96074E-03  4038   0.169E-01    0.107E-01
RMM:   3    -0.230174922945E+03    0.34052E-04   -0.53252E-04  4043   0.370E-02    0.112E-01
RMM:   4    -0.230174984918E+03   -0.61972E-04   -0.15218E-04  4043   0.186E-02    0.131E-01
RMM:   5    -0.230174870998E+03    0.11392E-03   -0.10074E-04  4040   0.141E-02    0.872E-02
RMM:   6    -0.230174839731E+03    0.31267E-04   -0.57665E-05  4038   0.112E-02    0.587E-02
RMM:   7    -0.230174826182E+03    0.13549E-04   -0.46731E-05  4033   0.106E-02    0.267E-02
RMM:   8    -0.230174822879E+03    0.33033E-05   -0.12430E-05  4024   0.539E-03    0.128E-02
RMM:   9    -0.230174821583E+03    0.12958E-05   -0.14264E-06  2243   0.196E-03    0.657E-03
RMM:  10    -0.230174821203E+03    0.37973E-06   -0.68170E-07  2143   0.140E-03
   4 F= -.23017482E+03 E0= -.23006878E+03  d E =-.103735E-02
       N       E                     dE             d eps       ncg     rms          rms(c)
DAV:   1    -0.230173045320E+03    0.17763E-02   -0.13491E+00  4104   0.199E+00    0.216E-01
RMM:   2    -0.230175942817E+03   -0.28975E-02   -0.29790E-02  4038   0.297E-01    0.190E-01
RMM:   3    -0.230175802702E+03    0.14012E-03   -0.16404E-03  4043   0.650E-02    0.186E-01
RMM:   4    -0.230175968528E+03   -0.16583E-03   -0.45168E-04  4043   0.324E-02    0.219E-01
RMM:   5    -0.230175703962E+03    0.26457E-03   -0.30097E-04  4040   0.242E-02    0.164E-01
RMM:   6    -0.230175568906E+03    0.13506E-03   -0.18209E-04  4038   0.198E-02    0.103E-01
RMM:   7    -0.230175525752E+03    0.43154E-04   -0.14762E-04  4036   0.189E-02    0.469E-02
RMM:   8    -0.230175514951E+03    0.10801E-04   -0.37995E-05  4032   0.942E-03    0.239E-02
RMM:   9    -0.230175510753E+03    0.41980E-05   -0.49585E-06  3242   0.352E-03    0.119E-02
RMM:  10    -0.230175509561E+03    0.11923E-05   -0.21005E-06  2263   0.239E-03    0.787E-03
RMM:  11    -0.230175509507E+03    0.53798E-07   -0.25201E-06  2314   0.261E-03
   5 F= -.23017551E+03 E0= -.23006942E+03  d E =-.172566E-02
       N       E                     dE             d eps       ncg     rms          rms(c)
DAV:   1    -0.230175257882E+03    0.25168E-03   -0.56411E-01  4056   0.131E+00    0.144E-01
RMM:   2    -0.230176566668E+03   -0.13088E-02   -0.13155E-02  4038   0.194E-01    0.153E-01
RMM:   3    -0.230176439897E+03    0.12677E-03   -0.70927E-04  4043   0.427E-02    0.115E-01
RMM:   4    -0.230176560038E+03   -0.12014E-03   -0.20542E-04  4042   0.215E-02    0.166E-01
RMM:   5    -0.230176358202E+03    0.20184E-03   -0.85999E-05  4043   0.134E-02    0.763E-02
RMM:   6    -0.230176384986E+03   -0.26784E-04   -0.87101E-05  4038   0.138E-02    0.836E-02
RMM:   7    -0.230176341284E+03    0.43701E-04   -0.64695E-05  4034   0.124E-02    0.310E-02
RMM:   8    -0.230176336987E+03    0.42971E-05   -0.15862E-05  4027   0.613E-03    0.156E-02
RMM:   9    -0.230176335311E+03    0.16768E-05   -0.17843E-06  2315   0.223E-03    0.757E-03
RMM:  10    -0.230176334878E+03    0.43262E-06   -0.10122E-06  2166   0.171E-03
   6 F= -.23017633E+03 E0= -.23007031E+03  d E =-.825371E-03
       N       E                     dE             d eps       ncg     rms          rms(c)
DAV:   1    -0.230175866230E+03    0.46908E-03   -0.40188E-01  4056   0.110E+00    0.123E-01
RMM:   2    -0.230176797452E+03   -0.93122E-03   -0.93916E-03  4038   0.164E-01    0.128E-01
RMM:   3    -0.230176699952E+03    0.97500E-04   -0.50447E-04  4043   0.361E-02    0.935E-02
RMM:   4    -0.230176710163E+03   -0.10212E-04   -0.11933E-04  4042   0.169E-02    0.105E-01
RMM:   5    -0.230176680583E+03    0.29581E-04   -0.55816E-05  4043   0.107E-02    0.787E-02
RMM:   6    -0.230176678287E+03    0.22955E-05   -0.67570E-05  4035   0.119E-02    0.745E-02
RMM:   7    -0.230176640925E+03    0.37362E-04   -0.45500E-05  4035   0.104E-02    0.259E-02
RMM:   8    -0.230176638033E+03    0.28923E-05   -0.10866E-05  4016   0.506E-03    0.137E-02
RMM:   9    -0.230176636692E+03    0.13408E-05   -0.12844E-06  2177   0.190E-03    0.630E-03
RMM:  10    -0.230176636392E+03    0.29981E-06   -0.70678E-07  2135   0.144E-03
   7 F= -.23017664E+03 E0= -.23007068E+03  d E =-.112689E-02
       N       E                     dE             d eps       ncg     rms          rms(c)
DAV:   1    -0.230176589230E+03    0.47462E-04   -0.33780E-02  4152   0.320E-01    0.360E-02
RMM:   2    -0.230176667614E+03   -0.78384E-04   -0.79582E-04  4038   0.478E-02    0.366E-02
RMM:   3    -0.230176659666E+03    0.79486E-05   -0.42984E-05  4043   0.106E-02    0.277E-02
RMM:   4    -0.230176656305E+03    0.33608E-05   -0.88196E-06  3969   0.476E-03    0.198E-02
RMM:   5    -0.230176656625E+03   -0.32045E-06   -0.50179E-06  3249   0.346E-03
   8 F= -.23017666E+03 E0= -.23007072E+03  d E =-.114712E-02
       N       E                     dE             d eps       ncg     rms          rms(c)
DAV:   1    -0.230176500411E+03    0.15589E-03   -0.39724E-01  4056   0.108E+00    0.120E-01
RMM:   2    -0.230177431789E+03   -0.93138E-03   -0.87809E-03  4039   0.161E-01    0.155E-01
RMM:   3    -0.230177409493E+03    0.22296E-04   -0.52355E-04  4043   0.361E-02    0.141E-01
RMM:   4    -0.230177521830E+03   -0.11234E-03   -0.23977E-04  4042   0.221E-02    0.185E-01
RMM:   5    -0.230177226280E+03    0.29555E-03   -0.93936E-05  4040   0.146E-02    0.654E-02
RMM:   6    -0.230177241619E+03   -0.15339E-04   -0.59147E-05  4038   0.116E-02    0.622E-02
RMM:   7    -0.230177222090E+03    0.19528E-04   -0.47844E-05  4033   0.106E-02    0.288E-02
RMM:   8    -0.230177216141E+03    0.59489E-05   -0.11293E-05  4019   0.522E-03    0.120E-02
RMM:   9    -0.230177215321E+03    0.82026E-06   -0.13316E-06  2230   0.193E-03
   9 F= -.23017722E+03 E0= -.23007128E+03  d E =-.558696E-03
       N       E                     dE             d eps       ncg     rms          rms(c)
DAV:   1    -0.230176307431E+03    0.90871E-03   -0.63741E-01  4056   0.137E+00    0.151E-01
RMM:   2    -0.230177832782E+03   -0.15254E-02   -0.14181E-02  4039   0.204E-01    0.195E-01
RMM:   3    -0.230177967549E+03   -0.13477E-03   -0.87113E-04  4043   0.459E-02    0.221E-01
RMM:   4    -0.230177770869E+03    0.19668E-03   -0.38340E-04  4042   0.285E-02    0.185E-01
RMM:   5    -0.230177500930E+03    0.26994E-03   -0.14118E-04  4039   0.182E-02    0.867E-02
RMM:   6    -0.230177510218E+03   -0.92873E-05   -0.92336E-05  4039   0.145E-02    0.734E-02
RMM:   7    -0.230177483253E+03    0.26964E-04   -0.71459E-05  4032   0.130E-02    0.361E-02
RMM:   8    -0.230177473941E+03    0.93124E-05   -0.17172E-05  4026   0.640E-03    0.143E-02
RMM:   9    -0.230177472794E+03    0.11473E-05   -0.20672E-06  2354   0.239E-03    0.804E-03
RMM:  10    -0.230177472251E+03    0.54272E-06   -0.10539E-06  2172   0.175E-03
  10 F= -.23017747E+03 E0= -.23007153E+03  d E =-.815626E-03
       N       E                     dE             d eps       ncg     rms          rms(c)
DAV:   1    -0.230176951516E+03    0.52128E-03   -0.57600E-01  4056   0.130E+00    0.133E-01
RMM:   2    -0.230178146580E+03   -0.11951E-02   -0.12281E-02  4038   0.191E-01    0.123E-01
RMM:   3    -0.230178079501E+03    0.67079E-04   -0.64377E-04  4042   0.406E-02    0.122E-01
RMM:   4    -0.230178017569E+03    0.61932E-04   -0.12541E-04  4045   0.176E-02    0.824E-02
RMM:   5    -0.230178040273E+03   -0.22704E-04   -0.67795E-05  4041   0.120E-02    0.968E-02
RMM:   6    -0.230178001514E+03    0.38759E-04   -0.64656E-05  4040   0.116E-02    0.640E-02
RMM:   7    -0.230177976550E+03    0.24964E-04   -0.52979E-05  4032   0.112E-02    0.279E-02
RMM:   8    -0.230177972671E+03    0.38791E-05   -0.13628E-05  4023   0.572E-03    0.127E-02
RMM:   9    -0.230177971200E+03    0.14716E-05   -0.18379E-06  2293   0.225E-03    0.699E-03
RMM:  10    -0.230177970758E+03    0.44181E-06   -0.70337E-07  2141   0.147E-03
  11 F= -.23017797E+03 E0= -.23007203E+03  d E =-.498507E-03
       N       E                     dE             d eps       ncg     rms          rms(c)
DAV:   1    -0.230175741601E+03    0.22296E-02   -0.13574E+00  4032   0.199E+00    0.205E-01
RMM:   2    -0.230178569347E+03   -0.28277E-02   -0.28919E-02  4038   0.293E-01    0.192E-01
RMM:   3    -0.230178409507E+03    0.15984E-03   -0.15235E-03  4042   0.623E-02    0.188E-01
RMM:   4    -0.230178293465E+03    0.11604E-03   -0.30668E-04  4045   0.274E-02    0.140E-01
RMM:   5    -0.230178290560E+03    0.29053E-05   -0.16081E-04  4042   0.183E-02    0.144E-01
RMM:   6    -0.230178206867E+03    0.83693E-04   -0.15463E-04  4040   0.182E-02    0.950E-02
RMM:   7    -0.230178153672E+03    0.53195E-04   -0.12508E-04  4032   0.172E-02    0.435E-02
RMM:   8    -0.230178144143E+03    0.95290E-05   -0.32165E-05  4032   0.876E-03    0.199E-02
RMM:   9    -0.230178140610E+03    0.35334E-05   -0.46726E-06  3188   0.347E-03    0.109E-02
RMM:  10    -0.230178139488E+03    0.11222E-05   -0.15348E-06  2168   0.209E-03    0.712E-03
RMM:  11    -0.230178139243E+03    0.24506E-06   -0.19439E-06  2174   0.226E-03
  12 F= -.23017814E+03 E0= -.23007220E+03  d E =-.666992E-03
       N       E                     dE             d eps       ncg     rms          rms(c)
DAV:   1    -0.230177978361E+03    0.16113E-03   -0.10790E-01  4056   0.563E-01    0.572E-02
RMM:   2    -0.230178201385E+03   -0.22302E-03   -0.22806E-03  4038   0.823E-02    0.554E-02
RMM:   3    -0.230178186168E+03    0.15217E-04   -0.12123E-04  4042   0.176E-02    0.515E-02
RMM:   4    -0.230178178540E+03    0.76285E-05   -0.23772E-05  4045   0.764E-03    0.390E-02
RMM:   5    -0.230178178895E+03   -0.35483E-06   -0.12480E-05  4014   0.510E-03    0.401E-02
RMM:   6    -0.230178172493E+03    0.64018E-05   -0.11622E-05  4024   0.499E-03    0.267E-02
RMM:   7    -0.230178168895E+03    0.35979E-05   -0.96095E-06  4025   0.477E-03    0.121E-02
RMM:   8    -0.230178168329E+03    0.56618E-06   -0.22428E-06  2387   0.244E-03
  13 F= -.23017817E+03 E0= -.23007222E+03  d E =-.696078E-03
       N       E                     dE             d eps       ncg     rms          rms(c)
DAV:   1    -0.230177423304E+03    0.74559E-03   -0.70117E-01  4032   0.143E+00    0.148E-01
RMM:   2    -0.230178882832E+03   -0.14595E-02   -0.14670E-02  4039   0.210E-01    0.153E-01
RMM:   3    -0.230178718780E+03    0.16405E-03   -0.84637E-04  4042   0.469E-02    0.115E-01
RMM:   4    -0.230178760203E+03   -0.41423E-04   -0.19328E-04  4046   0.218E-02    0.133E-01
RMM:   5    -0.230178654643E+03    0.10556E-03   -0.82926E-05  4046   0.129E-02    0.811E-02
RMM:   6    -0.230178634878E+03    0.19764E-04   -0.78134E-05  4037   0.134E-02    0.674E-02
RMM:   7    -0.230178625992E+03    0.88861E-05   -0.63816E-05  4034   0.122E-02    0.463E-02
RMM:   8    -0.230178611089E+03    0.14903E-04   -0.22952E-05  4032   0.724E-03    0.146E-02
RMM:   9    -0.230178609683E+03    0.14053E-05   -0.29274E-06  2594   0.279E-03    0.846E-03
RMM:  10    -0.230178609044E+03    0.63961E-06   -0.10272E-06  2147   0.174E-03
  14 F= -.23017861E+03 E0= -.23007270E+03  d E =-.440715E-03
       N       E                     dE             d eps       ncg     rms          rms(c)
DAV:   1    -0.230177995404E+03    0.61428E-03   -0.40941E-01  4032   0.109E+00    0.114E-01
RMM:   2    -0.230178848955E+03   -0.85355E-03   -0.86175E-03  4039   0.160E-01    0.115E-01
RMM:   3    -0.230178762171E+03    0.86784E-04   -0.50115E-04  4042   0.361E-02    0.892E-02
RMM:   4    -0.230178802307E+03   -0.40136E-04   -0.12341E-04  4046   0.173E-02    0.111E-01
RMM:   5    -0.230178715797E+03    0.86510E-04   -0.49769E-05  4046   0.100E-02    0.588E-02
RMM:   6    -0.230178709167E+03    0.66298E-05   -0.44965E-05  4033   0.102E-02    0.496E-02
RMM:   7    -0.230178706092E+03    0.30748E-05   -0.37249E-05  4037   0.935E-03    0.358E-02
RMM:   8    -0.230178697309E+03    0.87836E-05   -0.12986E-05  4027   0.543E-03    0.115E-02
RMM:   9    -0.230178696473E+03    0.83618E-06   -0.16839E-06  2299   0.215E-03
  15 F= -.23017870E+03 E0= -.23007284E+03  d E =-.528144E-03
       N       E                     dE             d eps       ncg     rms          rms(c)
DAV:   1    -0.230178135224E+03    0.56209E-03   -0.44176E-01  4032   0.117E+00    0.131E-01
RMM:   2    -0.230179119852E+03   -0.98463E-03   -0.10109E-02  4040   0.170E-01    0.114E-01
RMM:   3    -0.230179401301E+03   -0.28145E-03   -0.61706E-04  4042   0.389E-02    0.211E-01
RMM:   4    -0.230179081377E+03    0.31992E-03   -0.21508E-04  4045   0.213E-02    0.119E-01
RMM:   5    -0.230178989866E+03    0.91511E-04   -0.10339E-04  4040   0.151E-02    0.775E-02
RMM:   6    -0.230178977210E+03    0.12657E-04   -0.53246E-05  4038   0.115E-02    0.461E-02
RMM:   7    -0.230178971184E+03    0.60254E-05   -0.41299E-05  4033   0.101E-02    0.290E-02
RMM:   8    -0.230178964838E+03    0.63464E-05   -0.99628E-06  4011   0.477E-03    0.124E-02
RMM:   9    -0.230178963885E+03    0.95233E-06   -0.14916E-06  2238   0.203E-03
  16 F= -.23017896E+03 E0= -.23007315E+03  d E =-.267413E-03
