 vasp.5.4.1 24Jun15 (build Mar 14 2019 10:18:33) complex                        
  
 executed on INTEL-19.0.2+OPENMPI date 2023.01.23  14:30:06
 running on   36 total cores
 distrk:  each k-point on   36 cores,    1 groups
 distr:  one band on NCORES_PER_BAND=   6 cores,    6 groups


--------------------------------------------------------------------------------------------------------


 INCAR:
 POTCAR:    PAW_PBE Au 04Oct2007                  
 POTCAR:    PAW_PBE O 08Apr2002                   
 POTCAR:    PAW_PBE Pd 04Jan2005                  
 POTCAR:    PAW_PBE Au 04Oct2007                  
  local pseudopotential read in
  partial core-charges read in
  partial kinetic energy density read in
  atomic valenz-charges read in
  non local Contribution for L=           2  read in
    real space projection operators read in
  non local Contribution for L=           2  read in
    real space projection operators read in
  non local Contribution for L=           0  read in
    real space projection operators read in
  non local Contribution for L=           0  read in
    real space projection operators read in
  non local Contribution for L=           1  read in
    real space projection operators read in
  non local Contribution for L=           1  read in
    real space projection operators read in
    PAW grid and wavefunctions read in
 
   number of l-projection  operators is LMAX  =           6
   number of lm-projection operators is LMMAX =          18
 
 POTCAR:    PAW_PBE O 08Apr2002                   
  local pseudopotential read in
  partial core-charges read in
  partial kinetic energy density read in
  kinetic energy density of atom read in
  atomic valenz-charges read in
  non local Contribution for L=           0  read in
    real space projection operators read in
  non local Contribution for L=           0  read in
    real space projection operators read in
  non local Contribution for L=           1  read in
    real space projection operators read in
  non local Contribution for L=           1  read in
    real space projection operators read in
    PAW grid and wavefunctions read in
 
   number of l-projection  operators is LMAX  =           4
   number of lm-projection operators is LMMAX =           8
 
 POTCAR:    PAW_PBE Pd 04Jan2005                  
  local pseudopotential read in
  partial core-charges read in
  partial kinetic energy density read in
  atomic valenz-charges read in
  non local Contribution for L=           2  read in
    real space projection operators read in
  non local Contribution for L=           2  read in
    real space projection operators read in
  non local Contribution for L=           0  read in
    real space projection operators read in
  non local Contribution for L=           0  read in
    real space projection operators read in
  non local Contribution for L=           1  read in
    real space projection operators read in
  non local Contribution for L=           1  read in
    real space projection operators read in
    PAW grid and wavefunctions read in
 
   number of l-projection  operators is LMAX  =           6
   number of lm-projection operators is LMMAX =          18
 
 Optimization of the real space projectors (new method)

 maximal supplied QI-value         = 15.12
 optimisation between [QCUT,QGAM] = [ 10.13, 20.41] = [ 28.73,116.64] Ry 
 Optimized for a Real-space Cutoff    1.51 Angstroem

   l    n(q)    QCUT    max X(q) W(low)/X(q) W(high)/X(q)  e(spline) 
   2      8    10.129    60.898    0.46E-03    0.46E-03    0.14E-06
   2      8    10.129    58.894    0.47E-03    0.47E-03    0.14E-06
   0      9    10.129   109.617    0.16E-03    0.11E-03    0.54E-07
   0      9    10.129    75.026    0.15E-03    0.11E-03    0.52E-07
   1      9    10.129    16.344    0.96E-04    0.15E-03    0.14E-06
   1      9    10.129    10.160    0.81E-04    0.12E-03    0.11E-06
 Optimization of the real space projectors (new method)

 maximal supplied QI-value         = 24.76
 optimisation between [QCUT,QGAM] = [ 10.15, 20.30] = [ 28.85,115.39] Ry 
 Optimized for a Real-space Cutoff    1.38 Angstroem

   l    n(q)    QCUT    max X(q) W(low)/X(q) W(high)/X(q)  e(spline) 
   0      8    10.150    20.381    0.22E-03    0.32E-03    0.29E-06
   0      8    10.150    15.268    0.23E-03    0.35E-03    0.30E-06
   1      8    10.150     5.964    0.46E-03    0.53E-03    0.21E-06
   1      8    10.150     5.382    0.38E-03    0.45E-03    0.19E-06
 Optimization of the real space projectors (new method)

 maximal supplied QI-value         = 14.36
 optimisation between [QCUT,QGAM] = [ 10.20, 20.39] = [ 29.12,116.47] Ry 
 Optimized for a Real-space Cutoff    1.51 Angstroem

   l    n(q)    QCUT    max X(q) W(low)/X(q) W(high)/X(q)  e(spline) 
   2      8    10.197    59.108    0.26E-03    0.14E-03    0.96E-07
   2      8    10.197    58.101    0.27E-03    0.14E-03    0.98E-07
   0      9    10.197   102.235    0.54E-04    0.60E-05    0.72E-07
   0      9    10.197    58.388    0.52E-04    0.60E-05    0.68E-07
   1      9    10.197    22.191    0.18E-03    0.25E-03    0.79E-07
   1      9    10.197    15.590    0.15E-03    0.21E-03    0.69E-07
  PAW_PBE Au 04Oct2007                  :
 energy of atom  1       EATOM= -926.0867
 kinetic energy error for atom=    0.0062 (will be added to EATOM!!)
  PAW_PBE O 08Apr2002                   :
 energy of atom  2       EATOM= -432.3788
 kinetic energy error for atom=    0.1156 (will be added to EATOM!!)
  PAW_PBE Pd 04Jan2005                  :
 energy of atom  3       EATOM= -809.7530
 kinetic energy error for atom=    0.0091 (will be added to EATOM!!)
 
 
 POSCAR: Au  O Pd                                
  positions in direct lattice
  velocities in cartesian coordinates
 exchange correlation table for  LEXCH =        8
   RHO(1)=    0.500       N(1)  =     2000
   RHO(2)=  100.500       N(2)  =     4000

 VTST: version 3.2, (02/03/18)

 CHAIN: initializing optimizer
 
 OPT: Using VASP Conjugate-Gradient optimizer
 CHAIN: Read ICHAIN            0
 
 POSCAR: Au  O Pd                                
  positions in direct lattice
  velocities in cartesian coordinates
 


--------------------------------------------------------------------------------------------------------


 ion  position               nearest neighbor table
   1  0.911  0.918  0.473-  49 2.68  47 2.73  42 2.75   3 2.76  12 2.81  41 2.82  23 2.83  50 2.86
                            54 2.87  53 2.91   2 2.91   4 3.05
   2  0.083  0.833  0.382-  43 2.75  46 2.75  54 2.75  56 2.75  36 2.75  50 2.75  23 2.89  12 2.90
                             1 2.91
   3  0.914  0.168  0.475-  47 2.73   6 2.75   1 2.76  14 2.78  16 2.79  23 2.79  24 2.89  54 2.91
                            15 2.92   4 2.93  46 2.94
   4  0.012  0.000  0.569-  39 2.68  35 2.70  53 2.71   7 2.74  24 2.76  41 2.77  23 2.92   3 2.93
                             1 3.05
   5  0.583  0.333  0.382-  34 2.75  40 2.75  54 2.75  56 2.75  15 2.75  19 2.75  55 2.91  47 2.99
                            14 3.04
   6  0.912  0.418  0.478-  52 2.72   3 2.75  42 2.75  14 2.75  16 2.79  20 2.81  10 2.81  51 2.95
                            15 2.97   9 2.98  44 3.01
   7  0.035  0.223  0.604-  27 2.03  21 2.64  39 2.71   4 2.74  10 2.96  24 3.04  51 3.19
   8  0.498  0.004  0.563-  28 2.12  31 2.21  39 2.69  21 2.72  33 2.77  22 2.81  17 2.86  49 2.88
                            45 2.90  53 2.93  13 3.03
   9  0.833  0.583  0.382-  11 2.75  15 2.75  44 2.75  50 2.75  40 2.75  43 2.75  42 2.87   6 2.98
                            52 3.04
  10  1.000  0.494  0.568-  51 2.67  17 2.71  21 2.72  37 2.73   6 2.81  41 2.88  42 2.96   7 2.96
                            20 2.96
  11  0.583  0.833  0.382-   9 2.75  34 2.75  38 2.75  40 2.75  36 2.75  50 2.75  49 2.84  22 2.85
                            52 3.04
  12  0.168  0.665  0.474-  20 2.73  55 2.74  41 2.76  23 2.76  18 2.77  37 2.78  42 2.79   1 2.81
                            56 2.88  43 2.89   2 2.90  35 2.96
  13  0.456  0.778  0.611-  28 2.03  32 2.06  39 2.59  48 2.62  35 2.63   8 3.03  51 3.28  17 3.34

  14  0.661  0.420  0.481-  18 2.68  55 2.70  52 2.74  47 2.75   6 2.75   3 2.78  24 2.85  51 2.97
                            40 3.03   5 3.04  15 3.07
  15  0.833  0.333  0.382-   9 2.75  40 2.75  46 2.75  54 2.75   5 2.75  44 2.75   3 2.92   6 2.97
                            14 3.07
  16  0.168  0.167  0.472-  20 2.75  23 2.76  21 2.77  22 2.79   3 2.79   6 2.79  33 2.82  38 2.84
                            44 2.85  46 2.86  39 2.92
  17  0.757  0.742  0.566-  28 2.18  30 2.23  51 2.66  10 2.71  52 2.74  41 2.83  42 2.83   8 2.86
                            53 2.90  49 2.98  13 3.34
  18  0.420  0.665  0.477-  14 2.68  52 2.72  55 2.75  23 2.75  22 2.76  12 2.77  35 2.87  40 2.93
                            36 2.95  56 2.96
  19  0.333  0.333  0.382-  34 2.75  38 2.75  43 2.75  56 2.75  44 2.75   5 2.75  20 2.85  33 2.92
                            55 2.93
  20  0.167  0.417  0.472-  12 2.73  16 2.75  55 2.76  42 2.77  33 2.79   6 2.81  37 2.84  43 2.85
                            19 2.85  44 2.86  21 2.88  10 2.96
  21  0.243  0.243  0.562-  25 2.12   7 2.64  39 2.67  10 2.72   8 2.72  16 2.77  33 2.86  20 2.88
                            37 2.88  45 2.95
  22  0.422  0.915  0.473-  52 2.72  49 2.72  18 2.76  23 2.78  33 2.78  16 2.79   8 2.81  39 2.83
                            11 2.85  38 2.89  36 2.90
  23  0.169  0.915  0.474-  18 2.75  16 2.76  12 2.76  22 2.78   3 2.79   1 2.83  39 2.85  36 2.87
                             2 2.89  46 2.89   4 2.92  35 2.92
  24  0.758  0.249  0.570-  27 2.17  29 2.28  53 2.69   4 2.76  45 2.77  51 2.78  14 2.85   3 2.89
                            47 2.91   7 3.04
  25  0.321  0.342  0.611-  37 2.01  45 2.04  21 2.12
  26  0.251  0.621  0.622-  48 1.94  37 2.04  35 2.04
  27  0.832  0.343  0.626-   7 2.03  51 2.03  24 2.17
  28  0.589  0.853  0.622-  13 2.03   8 2.12  17 2.18
  29  0.570  0.342  0.624-  48 1.94  45 2.03  24 2.28
  30  0.861  0.831  0.614-  41 1.96  53 1.98  17 2.23
  31  0.595  0.096  0.611-  53 1.94  45 1.99   8 2.21
  32  0.609  0.580  0.633-  48 1.95  51 2.04  13 2.06
  33  0.424  0.167  0.475-  47 2.67  55 2.72  49 2.72   8 2.77  22 2.78  20 2.79  16 2.82  21 2.86
                            34 2.88  19 2.92  45 2.95  38 2.96
  34  0.583  0.083  0.382-   5 2.75  11 2.75  19 2.75  50 2.75  38 2.75  54 2.75  49 2.83  33 2.88
                            47 3.00
  35  0.254  0.752  0.568-  26 2.04  13 2.63  39 2.68   4 2.70  48 2.70  41 2.71  37 2.78  18 2.87
                            23 2.92  12 2.96
  36  0.333  0.833  0.382-  38 2.75  40 2.75  46 2.75  56 2.75   2 2.75  11 2.75  23 2.87  22 2.90
                            18 2.95
  37  0.241  0.506  0.563-  25 2.01  26 2.04  41 2.62  10 2.73  45 2.74  35 2.78  12 2.78  20 2.84
                            55 2.85  21 2.88  48 3.05
  38  0.333  0.083  0.382-  11 2.75  19 2.75  36 2.75  44 2.75  34 2.75  46 2.75  16 2.84  22 2.89
                            33 2.96
  39  0.259  0.993  0.564-  13 2.59  21 2.67  35 2.68   4 2.68   8 2.69   7 2.71  22 2.83  23 2.85
                            16 2.92
  40  0.583  0.583  0.382-   5 2.75  11 2.75  15 2.75  36 2.75   9 2.75  56 2.75  18 2.93  14 3.03
                            52 3.03
  41  0.009  0.751  0.562-  30 1.96  37 2.62  35 2.71  53 2.73  12 2.76   4 2.77   1 2.82  17 2.83
                            42 2.87  10 2.88
  42  0.913  0.667  0.474-  52 2.72  49 2.73   6 2.75   1 2.75  20 2.77  12 2.79  17 2.83  41 2.87
                             9 2.87  50 2.89  43 2.91  10 2.96
  43  0.083  0.583  0.382-   2 2.75  19 2.75  44 2.75  50 2.75   9 2.75  56 2.75  20 2.85  12 2.89
                            42 2.91
  44  0.083  0.333  0.382-   9 2.75  38 2.75  43 2.75  46 2.75  19 2.75  15 2.75  16 2.85  20 2.86
                             6 3.01
  45  0.498  0.267  0.568-  31 1.99  29 2.03  25 2.04  37 2.74  24 2.77  55 2.82  47 2.84   8 2.90
                            53 2.93  21 2.95  33 2.95  48 3.22
  46  0.083  0.083  0.382-   2 2.75  15 2.75  36 2.75  44 2.75  38 2.75  54 2.75  16 2.86  23 2.89
                             3 2.94
  47  0.666  0.168  0.479-  33 2.67   1 2.73   3 2.73  55 2.73  14 2.75  49 2.76  45 2.84  53 2.89
                            24 2.91   5 2.99  34 3.00  54 3.00
  48  0.453  0.545  0.626-  29 1.94  26 1.94  32 1.95  13 2.62  35 2.70  37 3.05  45 3.22  51 3.38

  49  0.668  0.917  0.471-   1 2.68  22 2.72  33 2.72  42 2.73  47 2.76  52 2.78  50 2.83  34 2.83
                            11 2.84   8 2.88  17 2.98  53 3.13
  50  0.833  0.833  0.382-   9 2.75  34 2.75  43 2.75  54 2.75  11 2.75   2 2.75  49 2.83   1 2.86
                            42 2.89
  51  0.752  0.504  0.575-  27 2.03  32 2.04  17 2.66  10 2.67  24 2.78  52 2.91   6 2.95  14 2.97
                             7 3.19  13 3.28  48 3.38
  52  0.666  0.666  0.481-   6 2.72  22 2.72  18 2.72  42 2.72  14 2.74  17 2.74  49 2.78  51 2.91
                            40 3.03   9 3.04  11 3.04
  53  0.765  0.001  0.571-  31 1.94  30 1.98  24 2.69   4 2.71  41 2.73  47 2.89  17 2.90   1 2.91
                             8 2.93  45 2.93  49 3.13
  54  0.833  0.083  0.382-   2 2.75   5 2.75  15 2.75  50 2.75  46 2.75  34 2.75   1 2.87   3 2.91
                            47 3.00
  55  0.418  0.416  0.475-  14 2.70  33 2.72  47 2.73  12 2.74  18 2.75  20 2.76  45 2.82  37 2.85
                             5 2.91  56 2.92  19 2.93
  56  0.333  0.583  0.382-   2 2.75   5 2.75  19 2.75  36 2.75  40 2.75  43 2.75  12 2.88  55 2.92
                            18 2.96
 
  LATTYP: Found a hexagonal cell.
 ALAT       =    11.0025815153
 C/A-ratio  =     2.3805127059
  
  Lattice vectors:
  
 A1 = (   5.5012907576,  -9.5285150994,   0.0000000000)
 A2 = ( -11.0025815153,   0.0000000000,   0.0000000000)
 A3 = (   0.0000000000,   0.0000000000, -26.1917850943)


Analysis of symmetry for initial positions (statically):
=====================================================================
 Subroutine PRICEL returns:
 Original cell was already a primitive cell.
 

 Routine SETGRP: Setting up the symmetry group for a 
 hexagonal supercell.


 Subroutine GETGRP returns: Found  1 space group operations
 (whereof  1 operations were pure point group operations)
 out of a pool of 24 trial point group operations.


The static configuration has the point symmetry C_1 .


Analysis of symmetry for dynamics (positions and initial velocities):
=====================================================================
 Subroutine PRICEL returns:
 Original cell was already a primitive cell.
 

 Routine SETGRP: Setting up the symmetry group for a 
 hexagonal supercell.


 Subroutine GETGRP returns: Found  1 space group operations
 (whereof  1 operations were pure point group operations)
 out of a pool of 24 trial point group operations.


The dynamic configuration has the point symmetry C_1 .


Analysis of constrained symmetry for selective dynamics:
=====================================================================
 Subroutine PRICEL returns:
 Original cell was already a primitive cell.
 

 Routine SETGRP: Setting up the symmetry group for a 
 hexagonal supercell.


 Subroutine GETGRP returns: Found  1 space group operations
 (whereof  1 operations were pure point group operations)
 out of a pool of 24 trial point group operations.


The constrained configuration has the point symmetry C_1 .
 
 
 KPOINTS: Automatic mesh                          

Automatic generation of k-mesh.
Space group operators:
 irot       det(A)        alpha          n_x          n_y          n_z        tau_x        tau_y        tau_z
    1     1.000000     0.000000     1.000000     0.000000     0.000000     0.000000     0.000000     0.000000
 
 Subroutine IBZKPT returns following result:
 ===========================================
 
 Found      6 irreducible k-points:
 
 Following reciprocal coordinates:
            Coordinates               Weight
  0.250000  0.250000  0.000000     16.000000
  0.000000  0.250000  0.000000     16.000000
 -0.250000  0.000000  0.000000     16.000000
 -0.250000  0.250000  0.000000     16.000000
  0.500000 -0.250000  0.000000     16.000000
 -0.250000  0.500000  0.000000     16.000000
 
 Following cartesian coordinates:
            Coordinates               Weight
  0.022722  0.013119  0.000000     16.000000
  0.000000  0.026237  0.000000     16.000000
 -0.022722  0.013119  0.000000     16.000000
 -0.022722  0.039356  0.000000     16.000000
  0.045444 -0.052474  0.000000     16.000000
 -0.022722  0.065593  0.000000     16.000000
 


--------------------------------------------------------------------------------------------------------




 Dimension of arrays:
   k-points           NKPTS =      6   k-points in BZ     NKDIM =      6   number of bands    NBANDS=    336
   number of dos      NEDOS =    301   number of ions     NIONS =     56
   non local maximal  LDIM  =      6   non local SUM 2l+1 LMDIM =     18
   total plane-waves  NPLWV = 373248
   max r-space proj   IRMAX =   2004   max aug-charges    IRDMAX=   8511
   dimension x,y,z NGX =    54 NGY =   54 NGZ =  128
   dimension x,y,z NGXF=   108 NGYF=  108 NGZF=  256
   support grid    NGXF=   108 NGYF=  108 NGZF=  256
   ions per type =              24   8  24
 NGX,Y,Z   is equivalent  to a cutoff of   8.16,  8.16,  8.12 a.u.
 NGXF,Y,Z  is equivalent  to a cutoff of  16.32, 16.32, 16.25 a.u.


 I would recommend the setting:
   dimension x,y,z NGX =    54 NGY =   54 NGZ =  128
 SYSTEM =  unknown system                          
 POSCAR =  Au  O Pd                                

 Startparameter for this run:
   NWRITE =      1    write-flag & timer
   PREC   = normal    normal or accurate (medium, high low for compatibility)
   ISTART =      0    job   : 0-new  1-cont  2-samecut
   ICHARG =      2    charge: 1-file 2-atom 10-const
   ISPIN  =      1    spin polarized calculation?
   LNONCOLLINEAR =      F non collinear calculations
   LSORBIT =      F    spin-orbit coupling
   INIWAV =      1    electr: 0-lowe 1-rand  2-diag
   LASPH  =      F    aspherical Exc in radial PAW
   METAGGA=      F    non-selfconsistent MetaGGA calc.

 Electronic Relaxation 1
   ENCUT  =  400.0 eV  29.40 Ry    5.42 a.u.  17.94 17.94 42.71*2*pi/ulx,y,z
   ENINI  =  400.0     initial cutoff
   ENAUG  =  605.4 eV  augmentation charge cutoff
   NELM   =    500;   NELMIN=  2; NELMDL= -5     # of ELM steps 
   EDIFF  = 0.1E-05   stopping-criterion for ELM
   LREAL  =      T    real-space projection
   NLSPLINE    = F    spline interpolate recip. space projectors
   LCOMPAT=      F    compatible to vasp.4.4
   GGA_COMPAT  = T    GGA compatible to vasp.4.4-vasp.4.6
   LMAXPAW     = -100 max onsite density
   LMAXMIX     =    2 max onsite mixed and CHGCAR
   VOSKOWN=      1    Vosko Wilk Nusair interpolation
   ROPT   =   -0.00050  -0.00050  -0.00050
 Ionic relaxation
   EDIFFG = -.2E-01   stopping-criterion for IOM
   NSW    =    500    number of steps for IOM
   NBLOCK =      1;   KBLOCK =    500    inner block; outer block 
   IBRION =      2    ionic relax: 0-MD 1-quasi-New 2-CG
   NFREE  =      2    steps in history (QN), initial steepest desc. (CG)
   ISIF   =      0    stress and relaxation
   IWAVPR =     11    prediction:  0-non 1-charg 2-wave 3-comb
   ISYM   =      2    0-nonsym 1-usesym 2-fastsym
   LCORR  =      T    Harris-Foulkes like correction to forces

   POTIM  = 0.3500    time-step for ionic-motion
   TEIN   =    0.0    initial temperature
   TEBEG  =    0.0;   TEEND  =   0.0 temperature during run
   SMASS  =  -3.00    Nose mass-parameter (am)
   estimated Nose-frequenzy (Omega)   =  0.10E-29 period in steps =****** mass=  -0.277E-26a.u.
   SCALEE = 1.0000    scale energy and forces
   NPACO  =    256;   APACO  = 16.0  distance and # of slots for P.C.
   PSTRESS=    0.0 pullay stress

  Mass of Ions in am
   POMASS = 196.97 16.00106.42
  Ionic Valenz
   ZVAL   =  11.00  6.00 10.00
  Atomic Wigner-Seitz radii
   RWIGS  =  -1.00 -1.00 -1.00
  virtual crystal weights 
   VCA    =   1.00  1.00  1.00
   NELECT =     552.0000    total number of electrons
   NUPDOWN=      -1.0000    fix difference up-down

 DOS related values:
   EMIN   =  10.00;   EMAX   =-10.00  energy-range for DOS
   EFERMI =   0.00
   ISMEAR =     0;   SIGMA  =   0.10  broadening in eV -4-tet -1-fermi 0-gaus

 Electronic relaxation 2 (details)
   IALGO  =     68    algorithm
   LDIAG  =      T    sub-space diagonalisation (order eigenvalues)
   LSUBROT=      F    optimize rotation matrix (better conditioning)
   TURBO    =      0    0=normal 1=particle mesh
   IRESTART =      0    0=no restart 2=restart with 2 vectors
   NREBOOT  =      0    no. of reboots
   NMIN     =      0    reboot dimension
   EREF     =   0.00    reference energy to select bands
   IMIX   =      4    mixing-type and parameters
     AMIX     =   0.40;   BMIX     =  1.00
     AMIX_MAG =   1.60;   BMIX_MAG =  1.00
     AMIN     =   0.10
     WC   =   100.;   INIMIX=   1;  MIXPRE=   1;  MAXMIX= -45

 Intra band minimization:
   WEIMIN = 0.0010     energy-eigenvalue tresh-hold
   EBREAK =  0.74E-09  absolut break condition
   DEPER  =   0.30     relativ break condition  

   TIME   =   0.40     timestep for ELM

  volume/ion in A,a.u.               =      49.03       330.90
  Fermi-wavevector in a.u.,A,eV,Ry     =   0.959017  1.812279 12.513458  0.919713
  Thomas-Fermi vector in A             =   2.088176
 
 Write flags
   LWAVE  =      F    write WAVECAR
   LCHARG =      F    write CHGCAR
   LVTOT  =      F    write LOCPOT, total local potential
   LVHAR  =      F    write LOCPOT, Hartree potential only
   LELF   =      F    write electronic localiz. function (ELF)
   LORBIT =      0    0 simple, 1 ext, 2 COOP (PROOUT)


 Dipole corrections
   LMONO  =      F    monopole corrections only (constant potential shift)
   LDIPOL =      T    correct potential (dipole corrections)
   IDIPOL =      3    1-x, 2-y, 3-z, 4-all directions 
   EPSILON=  1.0000000 bulk dielectric constant

 Exchange correlation treatment:
   GGA     =    PE    GGA type
   LEXCH   =     8    internal setting for exchange type
   VOSKOWN=      1    Vosko Wilk Nusair interpolation
   LHFCALC =     F    Hartree Fock is set to
   LHFONE  =     F    Hartree Fock one center treatment
   AEXX    =    0.0000 exact exchange contribution

 Linear response parameters
   LEPSILON=     F    determine dielectric tensor
   LRPA    =     F    only Hartree local field effects (RPA)
   LNABLA  =     F    use nabla operator in PAW spheres
   LVEL    =     F    velocity operator in full k-point grid
   LINTERFAST=   F  fast interpolation
   KINTER  =     0    interpolate to denser k-point grid
   CSHIFT  =0.1000    complex shift for real part using Kramers Kronig
   OMEGAMAX=  -1.0    maximum frequency
   DEG_THRESHOLD= 0.2000000E-02 threshold for treating states as degnerate
   RTIME   =    0.100 relaxation time in fs

 Orbital magnetization related:
   ORBITALMAG=     F  switch on orbital magnetization
   LCHIMAG   =     F  perturbation theory with respect to B field
   DQ        =  0.001000  dq finite difference perturbation B field



--------------------------------------------------------------------------------------------------------


 conjugate gradient relaxation of ions
   using selective dynamics as specified on POSCAR
 charge density and potential will be updated during run
 non-spin polarized calculation
 RMM-DIIS sequential band-by-band and
  variant of blocked Davidson during initial phase
 perform sub-space diagonalisation
    before iterative eigenvector-optimisation
 modified Broyden-mixing scheme, WC =      100.0
 initial mixing is a Kerker type mixing with AMIX =  0.4000 and BMIX =      1.0000
 Hartree-type preconditioning will be used
 using additional bands           60
 real space projection scheme for non local part
 use partial core corrections
 calculate Harris-corrections to forces 
   (improved forces if not selfconsistent)
 use gradient corrections 
 use of overlap-Matrix (Vanderbilt PP)
 Gauss-broadening in eV      SIGMA  =   0.10


--------------------------------------------------------------------------------------------------------


  energy-cutoff  :      400.00
  volume of cell :     2745.90
      direct lattice vectors                 reciprocal lattice vectors
    11.002581515  0.000000000  0.000000000     0.090887761 -0.052474073  0.000000000
     5.501290758  9.528515099  0.000000000     0.000000000  0.104948147  0.000000000
     0.000000000  0.000000000 26.191785094     0.000000000  0.000000000  0.038179910

  length of vectors
    11.002581515 11.002581515 26.191785094     0.104948147  0.104948147  0.038179910


 
 k-points in units of 2pi/SCALE and weight: Automatic mesh                          
   0.02272194  0.01311852  0.00000000       0.167
   0.00000000  0.02623704  0.00000000       0.167
  -0.02272194  0.01311852  0.00000000       0.167
  -0.02272194  0.03935555  0.00000000       0.167
   0.04544388 -0.05247407  0.00000000       0.167
  -0.02272194  0.06559259  0.00000000       0.167
 
 k-points in reciprocal lattice and weights: Automatic mesh                          
   0.25000000  0.25000000  0.00000000       0.167
   0.00000000  0.25000000  0.00000000       0.167
  -0.25000000  0.00000000  0.00000000       0.167
  -0.25000000  0.25000000  0.00000000       0.167
   0.50000000 -0.25000000  0.00000000       0.167
  -0.25000000  0.50000000  0.00000000       0.167
 
 position of ions in fractional coordinates (direct lattice) 
   0.91084029  0.91828137  0.47344832
   0.08333333  0.83333333  0.38179910
   0.91385422  0.16757092  0.47541138
   0.01177170  0.00013175  0.56918711
   0.58333333  0.33333333  0.38179910
   0.91201015  0.41794589  0.47840160
   0.03505703  0.22299250  0.60377474
   0.49806247  0.00374297  0.56253555
   0.83333333  0.58333333  0.38179910
   0.99990147  0.49353236  0.56770752
   0.58333333  0.83333333  0.38179910
   0.16796929  0.66468147  0.47391936
   0.45614929  0.77779126  0.61116602
   0.66147968  0.41978503  0.48102956
   0.83333333  0.33333333  0.38179910
   0.16762732  0.16702101  0.47210063
   0.75655077  0.74226991  0.56598203
   0.41967630  0.66523433  0.47657266
   0.33333333  0.33333333  0.38179910
   0.16700452  0.41711077  0.47232690
   0.24327931  0.24326918  0.56220949
   0.42205511  0.91476632  0.47343854
   0.16916402  0.91524084  0.47364748
   0.75820252  0.24870706  0.57018300
   0.32088771  0.34218195  0.61129621
   0.25080840  0.62084586  0.62233355
   0.83226134  0.34278076  0.62569324
   0.58928746  0.85269389  0.62179542
   0.57002273  0.34216595  0.62411375
   0.86057810  0.83093732  0.61390055
   0.59482089  0.09591362  0.61136477
   0.60887283  0.57960921  0.63268158
   0.42397512  0.16687448  0.47517309
   0.58333333  0.08333333  0.38179910
   0.25426887  0.75154786  0.56791304
   0.33333333  0.83333333  0.38179910
   0.24094301  0.50633509  0.56311009
   0.33333333  0.08333333  0.38179910
   0.25890211  0.99288289  0.56363706
   0.58333333  0.58333333  0.38179910
   0.00894888  0.75062844  0.56191224
   0.91321047  0.66675128  0.47408873
   0.08333333  0.58333333  0.38179910
   0.08333333  0.33333333  0.38179910
   0.49814388  0.26698423  0.56816153
   0.08333333  0.08333333  0.38179910
   0.66589912  0.16809197  0.47884285
   0.45255625  0.54458325  0.62623209
   0.66810991  0.91681109  0.47142619
   0.83333333  0.83333333  0.38179910
   0.75240250  0.50385256  0.57497386
   0.66643928  0.66621428  0.48067997
   0.76519199  0.00095661  0.57089953
   0.83333333  0.08333333  0.38179910
   0.41847258  0.41635765  0.47543577
   0.33333333  0.58333333  0.38179910
 
 position of ions in cartesian coordinates  (Angst):
  15.07332731  8.74985790 12.40045674
   5.50129076  7.94042925 10.00000000
  10.97661189  1.59670201 12.45187270
   0.13024386  0.00125534 14.90802643
   8.25193614  3.17617170 10.00000000
  12.33370793  3.98240376 12.53019179
   1.61246441  2.12478737 15.81393824
   5.50056411  0.03566494 14.73381020
  12.37790420  5.55830047 10.00000000
  13.71656244  4.70263051 14.86927341
  11.00258152  7.94042925 10.00000000
   5.50470178  6.33342741 12.41279400
   9.29767563  7.41119574 16.00752918
   9.58734362  3.99992804 12.59902274
  11.00258152  3.17617170 10.00000000
   2.76316443  1.59146222 12.36515833
  12.40745411  7.07273007 14.82407973
   8.27717018  6.33869539 12.48228870
   5.50129076  3.17617170 10.00000000
   4.13212848  3.97444628 12.37108478
   4.01499493  2.31799409 14.72527001
   9.67609122  8.71636471 12.40020055
   6.89624696  8.72088620 12.40567300
   9.71039484  2.36980895 14.93411072
   5.41303559  3.26048588 16.01093884
   6.17499350  5.91573917 16.30002667
  11.04275985  3.26619168 16.38802277
  11.17460026  8.12490658 16.28593197
   8.15407596  3.26033341 16.34665319
  14.03980844  7.91759877 16.07915121
   7.07221400  0.91391438 16.01273468
   9.88777176  5.52281507 16.57105998
   5.58284592  1.59006605 12.44563136
   6.87661345  0.79404292 10.00000000
   6.93209728  7.16113512 14.87465620
   8.25193614  7.94042925 10.00000000
   5.43649173  4.82462159 14.74885844
   4.12596807  0.79404292 10.00000000
   8.31072899  9.46069956 14.76266063
   9.62725883  5.55830047 10.00000000
   4.22788613  7.15237444 14.71748461
  13.71566532  6.35314964 12.41723023
   4.12596807  5.55830047 10.00000000
   2.75064538  3.17617170 10.00000000
   6.94962650  2.54396331 14.88116461
   1.37532269  0.79404292 10.00000000
   8.25133214  1.60166690 12.54174909
   7.97519788  5.18906971 16.40213628
  12.39457815  8.73584829 12.34749334
  13.75322689  7.94042925 10.00000000
  11.05020923  4.80096670 15.05959174
  10.99759093  6.34803280 12.58986659
   8.42434978  0.00911504 14.95287768
   9.62725883  0.79404292 10.00000000
   6.89478319  3.96727019 12.45251160
   6.87661345  5.55830047 10.00000000
 


--------------------------------------------------------------------------------------------------------


 k-point  1 :   0.2500 0.2500 0.0000  plane waves:   49913
 k-point  2 :   0.0000 0.2500 0.0000  plane waves:   49913
 k-point  3 :  -0.2500 0.0000 0.0000  plane waves:   49913
 k-point  4 :  -0.2500 0.2500 0.0000  plane waves:   49888
 k-point  5 :   0.5000-0.2500 0.0000  plane waves:   49888
 k-point  6 :  -0.2500 0.5000 0.0000  plane waves:   49888

 maximum and minimum number of plane-waves per node :      8356     8289

 maximum number of plane-waves:     49913
 maximum index in each direction: 
   IXMAX=   18   IYMAX=   18   IZMAX=   42
   IXMIN=  -18   IYMIN=  -18   IZMIN=  -42

 WARNING: aliasing errors must be expected set NGX to  74 to avoid them
 WARNING: aliasing errors must be expected set NGY to  74 to avoid them
 WARNING: aliasing errors must be expected set NGZ to 170 to avoid them
 aliasing errors are usually negligible using standard VASP settings
 and one can safely disregard these warnings

 real space projection operators:
  total allocation   :      13522.66 KBytes
  max/ min on nodes  :       2277.02       2231.06


 parallel 3D FFT for wavefunctions:
    minimum data exchange during FFTs selected (reduces bandwidth)
 parallel 3D FFT for charge:
    minimum data exchange during FFTs selected (reduces bandwidth)


 total amount of memory used by VASP on root node    93023. kBytes
========================================================================

   base      :      30000. kBytes
   nonlr-proj:       4680. kBytes
   fftplans  :       4744. kBytes
   grid      :       7835. kBytes
   one-center:        155. kBytes
   wavefun   :      45609. kBytes
 
     INWAV:  cpu time    0.0000: real time    0.0000
 Broyden mixing: mesh for mixing (old mesh)
   NGX = 35   NGY = 35   NGZ = 85
  (NGX  =108   NGY  =108   NGZ  =256)
  gives a total of 104125 points

 initial charge density was supplied:
 charge density of overlapping atoms calculated
 number of electron     552.0000000 magnetization 
 keeping initial charge density in first step


--------------------------------------------------------------------------------------------------------


 Maximum index for non-local projection operator          347
 Maximum index for augmentation-charges          444 (set IRDMAX)


--------------------------------------------------------------------------------------------------------


 First call to EWALD:  gamma=   0.127
 Maximum number of real-space cells 4x 4x 2
 Maximum number of reciprocal cells 2x 2x 5

 FEWALD executed in parallel
    FEWALD:  cpu time    0.0024: real time    0.0024


----------------------------------------- Iteration    1(   1)  ---------------------------------------


    POTLOK:  cpu time    0.0500: real time    0.0502
    SETDIJ:  cpu time    0.0067: real time    0.0068
     EDDAV:  cpu time    8.2181: real time    8.2403
       DOS:  cpu time    0.0014: real time    0.0014
    --------------------------------------------
      LOOP:  cpu time    8.2790: real time    8.3052

 eigenvalue-minimisations  :  4080
 total energy-change (2. order) : 0.3628971E+04  (-0.2099899E+05)
 number of electron     552.0000000 magnetization 
 augmentation part      552.0000000 magnetization 

 DIPCOR: dipole corrections for dipol
 direction  3 min pos     1,
 dipolmoment           0.000000      0.000000      0.000090 electrons x Angstroem
 Tr[quadrupol]    -11210.849491

 energy correction for charged system         0.000000 eV
 dipol+quadrupol energy correction           -0.000000 eV
 added-field ion interaction          0.000828 eV  (added to PSCEN)


 Free energy of the ion-electron system (eV)
  ---------------------------------------------------
  alpha Z        PSCENC =       862.57730964
  Ewald energy   TEWEN  =    237368.79971032
  -Hartree energ DENC   =   -282984.21591736
  -exchange      EXHF   =         0.00000000
  -V(xc)+E(xc)   XCENC  =      -115.30156054
  PAW double counting   =     43112.45544455   -41079.41300390
  entropy T*S    EENTRO =        -0.13942958
  eigenvalues    EBANDS =      1346.31690106
  atomic energy  EATOM  =     45117.89144060
  Solvation  Ediel_sol  =         0.00000000
  ---------------------------------------------------
  free energy    TOTEN  =      3628.97089480 eV

  energy without entropy =     3629.11032438  energy(sigma->0) =     3629.04060959


--------------------------------------------------------------------------------------------------------




----------------------------------------- Iteration    1(   2)  ---------------------------------------


     EDDAV:  cpu time    9.7890: real time    9.8181
       DOS:  cpu time    0.0014: real time    0.0014
    --------------------------------------------
      LOOP:  cpu time    9.7910: real time    9.8237

 eigenvalue-minimisations  :  4836
 total energy-change (2. order) :-0.3574132E+04  (-0.3317967E+04)
 number of electron     552.0000000 magnetization 
 augmentation part      552.0000000 magnetization 

 DIPCOR: dipole corrections for dipol
 direction  3 min pos     1,
 dipolmoment           0.000000      0.000000      0.000090 electrons x Angstroem
 Tr[quadrupol]    -11210.849491

 energy correction for charged system         0.000000 eV
 dipol+quadrupol energy correction           -0.000000 eV
 added-field ion interaction          0.000828 eV  (added to PSCEN)


 Free energy of the ion-electron system (eV)
  ---------------------------------------------------
  alpha Z        PSCENC =       862.57730964
  Ewald energy   TEWEN  =    237368.79971032
  -Hartree energ DENC   =   -282984.21591736
  -exchange      EXHF   =         0.00000000
  -V(xc)+E(xc)   XCENC  =      -115.30156054
  PAW double counting   =     43112.45544455   -41079.41300390
  entropy T*S    EENTRO =        -0.16050458
  eigenvalues    EBANDS =     -2227.79377003
  atomic energy  EATOM  =     45117.89144060
  Solvation  Ediel_sol  =         0.00000000
  ---------------------------------------------------
  free energy    TOTEN  =        54.83914871 eV

  energy without entropy =       54.99965329  energy(sigma->0) =       54.91940100


--------------------------------------------------------------------------------------------------------




----------------------------------------- Iteration    1(   3)  ---------------------------------------


     EDDAV:  cpu time    9.6912: real time    9.7905
       DOS:  cpu time    0.0014: real time    0.0014
    --------------------------------------------
      LOOP:  cpu time    9.6933: real time    9.7943

 eigenvalue-minimisations  :  4632
 total energy-change (2. order) :-0.3064151E+03  (-0.2853201E+03)
 number of electron     552.0000000 magnetization 
 augmentation part      552.0000000 magnetization 

 DIPCOR: dipole corrections for dipol
 direction  3 min pos     1,
 dipolmoment           0.000000      0.000000      0.000090 electrons x Angstroem
 Tr[quadrupol]    -11210.849491

 energy correction for charged system         0.000000 eV
 dipol+quadrupol energy correction           -0.000000 eV
 added-field ion interaction          0.000828 eV  (added to PSCEN)


 Free energy of the ion-electron system (eV)
  ---------------------------------------------------
  alpha Z        PSCENC =       862.57730964
  Ewald energy   TEWEN  =    237368.79971032
  -Hartree energ DENC   =   -282984.21591736
  -exchange      EXHF   =         0.00000000
  -V(xc)+E(xc)   XCENC  =      -115.30156054
  PAW double counting   =     43112.45544455   -41079.41300390
  entropy T*S    EENTRO =        -0.24355051
  eigenvalues    EBANDS =     -2534.12587132
  atomic energy  EATOM  =     45117.89144060
  Solvation  Ediel_sol  =         0.00000000
  ---------------------------------------------------
  free energy    TOTEN  =      -251.57599851 eV

  energy without entropy =     -251.33244800  energy(sigma->0) =     -251.45422326


--------------------------------------------------------------------------------------------------------




----------------------------------------- Iteration    1(   4)  ---------------------------------------


     EDDAV:  cpu time    9.4816: real time    9.5081
       DOS:  cpu time    0.0014: real time    0.0014
    --------------------------------------------
      LOOP:  cpu time    9.4837: real time    9.5129

 eigenvalue-minimisations  :  4500
 total energy-change (2. order) :-0.1093227E+02  (-0.1072022E+02)
 number of electron     552.0000000 magnetization 
 augmentation part      552.0000000 magnetization 

 DIPCOR: dipole corrections for dipol
 direction  3 min pos     1,
 dipolmoment           0.000000      0.000000      0.000090 electrons x Angstroem
 Tr[quadrupol]    -11210.849491

 energy correction for charged system         0.000000 eV
 dipol+quadrupol energy correction           -0.000000 eV
 added-field ion interaction          0.000828 eV  (added to PSCEN)


 Free energy of the ion-electron system (eV)
  ---------------------------------------------------
  alpha Z        PSCENC =       862.57730964
  Ewald energy   TEWEN  =    237368.79971032
  -Hartree energ DENC   =   -282984.21591736
  -exchange      EXHF   =         0.00000000
  -V(xc)+E(xc)   XCENC  =      -115.30156054
  PAW double counting   =     43112.45544455   -41079.41300390
  entropy T*S    EENTRO =        -0.27122707
  eigenvalues    EBANDS =     -2545.03046355
  atomic energy  EATOM  =     45117.89144060
  Solvation  Ediel_sol  =         0.00000000
  ---------------------------------------------------
  free energy    TOTEN  =      -262.50826730 eV

  energy without entropy =     -262.23704023  energy(sigma->0) =     -262.37265377


--------------------------------------------------------------------------------------------------------




----------------------------------------- Iteration    1(   5)  ---------------------------------------


     EDDAV:  cpu time    9.6840: real time    9.7121
       DOS:  cpu time    0.0014: real time    0.0014
    CHARGE:  cpu time    0.2732: real time    0.2740
    MIXING:  cpu time    0.0024: real time    0.0025
    --------------------------------------------
      LOOP:  cpu time    9.9619: real time    9.9929

 eigenvalue-minimisations  :  4620
 total energy-change (2. order) :-0.3150981E+00  (-0.3142177E+00)
 number of electron     551.9999478 magnetization 
 augmentation part      194.0488220 magnetization 

 DIPCOR: dipole corrections for dipol
 direction  3 min pos     1,
 dipolmoment           0.000000      0.000000      0.000090 electrons x Angstroem
 Tr[quadrupol]    -11210.849491

 energy correction for charged system         0.000000 eV
 dipol+quadrupol energy correction           -0.000000 eV
 added-field ion interaction          0.000828 eV  (added to PSCEN)


 Broyden mixing:
  rms(total) = 0.67820E+01    rms(broyden)= 0.67812E+01
  rms(prec ) = 0.69507E+01
  weight for this iteration     100.00

 Free energy of the ion-electron system (eV)
  ---------------------------------------------------
  alpha Z        PSCENC =       862.57730964
  Ewald energy   TEWEN  =    237368.79971032
  -Hartree energ DENC   =   -282984.21591736
  -exchange      EXHF   =         0.00000000
  -V(xc)+E(xc)   XCENC  =      -115.30156054
  PAW double counting   =     43112.45544455   -41079.41300390
  entropy T*S    EENTRO =        -0.27182067
  eigenvalues    EBANDS =     -2545.34496806
  atomic energy  EATOM  =     45117.89144060
  Solvation  Ediel_sol  =         0.00000000
  ---------------------------------------------------
  free energy    TOTEN  =      -262.82336541 eV

  energy without entropy =     -262.55154474  energy(sigma->0) =     -262.68745508


--------------------------------------------------------------------------------------------------------




----------------------------------------- Iteration    1(   6)  ---------------------------------------


    POTLOK:  cpu time    0.0461: real time    0.0474
    SETDIJ:  cpu time    0.0060: real time    0.0061
    EDDIAG:  cpu time    1.4772: real time    1.4872
  RMM-DIIS:  cpu time    4.0405: real time    4.0505
    ORTHCH:  cpu time    0.3501: real time    0.3568
       DOS:  cpu time    0.0014: real time    0.0014
    CHARGE:  cpu time    0.2755: real time    0.2762
    MIXING:  cpu time    0.0030: real time    0.0030
    --------------------------------------------
      LOOP:  cpu time    6.2004: real time    6.2328

 eigenvalue-minimisations  :  4038
 total energy-change (2. order) : 0.1361978E+02  (-0.1762473E+02)
 number of electron     551.9999510 magnetization 
 augmentation part      198.5736732 magnetization 

 DIPCOR: dipole corrections for dipol
 direction  3 min pos     1,
 dipolmoment           0.000000      0.000000     -0.068810 electrons x Angstroem
 Tr[quadrupol]    -11205.227152

 energy correction for charged system         0.000000 eV
 dipol+quadrupol energy correction           -0.000156 eV
 added-field ion interaction         -0.632318 eV  (added to PSCEN)


 Broyden mixing:
  rms(total) = 0.59890E+01    rms(broyden)= 0.59879E+01
  rms(prec ) = 0.61877E+01
  weight for this iteration     100.00

 eigenvalues of (default mixing * dielectric matrix)
  average eigenvalue GAMMA=   0.6357
  0.6357

 Free energy of the ion-electron system (eV)
  ---------------------------------------------------
  alpha Z        PSCENC =       861.94400712
  Ewald energy   TEWEN  =    237368.79971032
  -Hartree energ DENC   =   -282531.67898758
  -exchange      EXHF   =         0.00000000
  -V(xc)+E(xc)   XCENC  =      -120.84544281
  PAW double counting   =     46502.74291038   -44533.59731097
  entropy T*S    EENTRO =        -0.25711457
  eigenvalues    EBANDS =     -2914.20279372
  atomic energy  EATOM  =     45117.89144060
  Solvation  Ediel_sol  =         0.00000000
  ---------------------------------------------------
  free energy    TOTEN  =      -249.20358122 eV

  energy without entropy =     -248.94646665  energy(sigma->0) =     -249.07502394


--------------------------------------------------------------------------------------------------------




----------------------------------------- Iteration    1(   7)  ---------------------------------------


    POTLOK:  cpu time    0.0449: real time    0.0451
    SETDIJ:  cpu time    0.0065: real time    0.0065
    EDDIAG:  cpu time    1.4680: real time    1.4726
  RMM-DIIS:  cpu time    4.1001: real time    4.1104
    ORTHCH:  cpu time    0.3509: real time    0.3517
       DOS:  cpu time    0.0013: real time    0.0013
    CHARGE:  cpu time    0.2707: real time    0.2714
    MIXING:  cpu time    0.0021: real time    0.0021
    --------------------------------------------
      LOOP:  cpu time    6.2452: real time    6.2641

 eigenvalue-minimisations  :  4039
 total energy-change (2. order) : 0.6424225E+01  (-0.5237044E+01)
 number of electron     551.9999422 magnetization 
 augmentation part      200.1547212 magnetization 

 DIPCOR: dipole corrections for dipol
 direction  3 min pos     1,
 dipolmoment           0.000000      0.000000      1.001826 electrons x Angstroem
 Tr[quadrupol]    -11210.845308

 energy correction for charged system         0.000000 eV
 dipol+quadrupol energy correction           -0.033070 eV
 added-field ion interaction          9.206055 eV  (added to PSCEN)


 Broyden mixing:
  rms(total) = 0.37557E+01    rms(broyden)= 0.37551E+01
  rms(prec ) = 0.41422E+01
  weight for this iteration     100.00

 eigenvalues of (default mixing * dielectric matrix)
  average eigenvalue GAMMA=   0.9102
  1.3459  0.4745

 Free energy of the ion-electron system (eV)
  ---------------------------------------------------
  alpha Z        PSCENC =       871.74946642
  Ewald energy   TEWEN  =    237368.79971032
  -Hartree energ DENC   =   -282588.11093341
  -exchange      EXHF   =         0.00000000
  -V(xc)+E(xc)   XCENC  =      -126.58589363
  PAW double counting   =     47959.14771537   -46009.67913421
  entropy T*S    EENTRO =        -0.17395079
  eigenvalues    EBANDS =     -2835.81777679
  atomic energy  EATOM  =     45117.89144060
  Solvation  Ediel_sol  =         0.00000000
  ---------------------------------------------------
  free energy    TOTEN  =      -242.77935610 eV

  energy without entropy =     -242.60540531  energy(sigma->0) =     -242.69238071


--------------------------------------------------------------------------------------------------------




----------------------------------------- Iteration    1(   8)  ---------------------------------------


    POTLOK:  cpu time    0.0450: real time    0.0452
    SETDIJ:  cpu time    0.0059: real time    0.0060
    EDDIAG:  cpu time    1.4585: real time    1.4644
  RMM-DIIS:  cpu time    3.9744: real time    4.0713
    ORTHCH:  cpu time    0.3505: real time    0.3514
       DOS:  cpu time    0.0013: real time    0.0013
    CHARGE:  cpu time    0.2797: real time    0.2804
    MIXING:  cpu time    0.0022: real time    0.0022
    --------------------------------------------
      LOOP:  cpu time    6.1181: real time    6.2250

 eigenvalue-minimisations  :  4032
 total energy-change (2. order) :-0.7557695E+02  (-0.7803674E+01)
 number of electron     551.9999541 magnetization 
 augmentation part      196.5467557 magnetization 

 DIPCOR: dipole corrections for dipol
 direction  3 min pos     1,
 dipolmoment           0.000000      0.000000     -2.437874 electrons x Angstroem
 Tr[quadrupol]    -11207.035550

 energy correction for charged system         0.000000 eV
 dipol+quadrupol energy correction           -0.195826 eV
 added-field ion interaction        -22.402292 eV  (added to PSCEN)


 Broyden mixing:
  rms(total) = 0.83537E+01    rms(broyden)= 0.83529E+01
  rms(prec ) = 0.10372E+02
  weight for this iteration     100.00

 eigenvalues of (default mixing * dielectric matrix)
  average eigenvalue GAMMA=   0.9275
  2.0940  0.5141  0.1744

 Free energy of the ion-electron system (eV)
  ---------------------------------------------------
  alpha Z        PSCENC =       839.97836250
  Ewald energy   TEWEN  =    237368.79971032
  -Hartree energ DENC   =   -282454.55457503
  -exchange      EXHF   =         0.00000000
  -V(xc)+E(xc)   XCENC  =      -129.20913430
  PAW double counting   =     49751.71498155   -47825.44867313
  entropy T*S    EENTRO =        -0.27632890
  eigenvalues    EBANDS =     -2987.25209432
  atomic energy  EATOM  =     45117.89144060
  Solvation  Ediel_sol  =         0.00000000
  ---------------------------------------------------
  free energy    TOTEN  =      -318.35631071 eV

  energy without entropy =     -318.07998181  energy(sigma->0) =     -318.21814626


--------------------------------------------------------------------------------------------------------




----------------------------------------- Iteration    1(   9)  ---------------------------------------


    POTLOK:  cpu time    0.0446: real time    0.0447
    SETDIJ:  cpu time    0.0060: real time    0.0060
    EDDIAG:  cpu time    1.4628: real time    1.4676
  RMM-DIIS:  cpu time    4.0891: real time    4.0990
    ORTHCH:  cpu time    0.3500: real time    0.3509
       DOS:  cpu time    0.0014: real time    0.0014
    CHARGE:  cpu time    0.2739: real time    0.2746
    MIXING:  cpu time    0.0023: real time    0.0023
    --------------------------------------------
      LOOP:  cpu time    6.2309: real time    6.2501

 eigenvalue-minimisations  :  4037
 total energy-change (2. order) : 0.5988294E+02  (-0.4779314E+01)
 number of electron     551.9999436 magnetization 
 augmentation part      202.8601314 magnetization 

 DIPCOR: dipole corrections for dipol
 direction  3 min pos     1,
 dipolmoment           0.000000      0.000000      0.874821 electrons x Angstroem
 Tr[quadrupol]    -11209.900686

 energy correction for charged system         0.000000 eV
 dipol+quadrupol energy correction           -0.025217 eV
 added-field ion interaction          8.038968 eV  (added to PSCEN)


 Broyden mixing:
  rms(total) = 0.45915E+01    rms(broyden)= 0.45903E+01
  rms(prec ) = 0.51228E+01
  weight for this iteration     100.00

 eigenvalues of (default mixing * dielectric matrix)
  average eigenvalue GAMMA=   0.8320
  2.3391  0.5355  0.2884  0.1648

 Free energy of the ion-electron system (eV)
  ---------------------------------------------------
  alpha Z        PSCENC =       870.59023241
  Ewald energy   TEWEN  =    237368.79971032
  -Hartree energ DENC   =   -282453.46693334
  -exchange      EXHF   =         0.00000000
  -V(xc)+E(xc)   XCENC  =      -129.17089711
  PAW double counting   =     51285.05551305   -49382.92576573
  entropy T*S    EENTRO =        -0.20581052
  eigenvalues    EBANDS =     -2935.04086350
  atomic energy  EATOM  =     45117.89144060
  Solvation  Ediel_sol  =         0.00000000
  ---------------------------------------------------
  free energy    TOTEN  =      -258.47337381 eV

  energy without entropy =     -258.26756329  energy(sigma->0) =     -258.37046855


--------------------------------------------------------------------------------------------------------




----------------------------------------- Iteration    1(  10)  ---------------------------------------


    POTLOK:  cpu time    0.0449: real time    0.0450
    SETDIJ:  cpu time    0.0059: real time    0.0059
    EDDIAG:  cpu time    1.4676: real time    1.4737
  RMM-DIIS:  cpu time    3.9963: real time    4.0138
    ORTHCH:  cpu time    0.3469: real time    0.3477
       DOS:  cpu time    0.0014: real time    0.0014
    CHARGE:  cpu time    0.2688: real time    0.2695
    MIXING:  cpu time    0.0025: real time    0.0025
    --------------------------------------------
      LOOP:  cpu time    6.1350: real time    6.1638

 eigenvalue-minimisations  :  4038
 total energy-change (2. order) : 0.2128117E+02  (-0.2359432E+01)
 number of electron     551.9999447 magnetization 
 augmentation part      203.6470612 magnetization 

 DIPCOR: dipole corrections for dipol
 direction  3 min pos     1,
 dipolmoment           0.000000      0.000000      0.226149 electrons x Angstroem
 Tr[quadrupol]    -11209.651222

 energy correction for charged system         0.000000 eV
 dipol+quadrupol energy correction           -0.001685 eV
 added-field ion interaction          2.078147 eV  (added to PSCEN)


 Broyden mixing:
  rms(total) = 0.19821E+01    rms(broyden)= 0.19806E+01
  rms(prec ) = 0.21417E+01
  weight for this iteration     100.00

 eigenvalues of (default mixing * dielectric matrix)
  average eigenvalue GAMMA=   0.7565
  2.3107  0.4850  0.4850  0.3447  0.1570

 Free energy of the ion-electron system (eV)
  ---------------------------------------------------
  alpha Z        PSCENC =       864.65294298
  Ewald energy   TEWEN  =    237368.79971032
  -Hartree energ DENC   =   -282448.62001217
  -exchange      EXHF   =         0.00000000
  -V(xc)+E(xc)   XCENC  =      -129.67934983
  PAW double counting   =     52021.41723438   -50127.84738603
  entropy T*S    EENTRO =        -0.19954351
  eigenvalues    EBANDS =     -2903.60723766
  atomic energy  EATOM  =     45117.89144060
  Solvation  Ediel_sol  =         0.00000000
  ---------------------------------------------------
  free energy    TOTEN  =      -237.19220090 eV

  energy without entropy =     -236.99265740  energy(sigma->0) =     -237.09242915


--------------------------------------------------------------------------------------------------------




----------------------------------------- Iteration    1(  11)  ---------------------------------------


    POTLOK:  cpu time    0.0462: real time    0.0463
    SETDIJ:  cpu time    0.0063: real time    0.0063
    EDDIAG:  cpu time    1.4737: real time    1.4783
  RMM-DIIS:  cpu time    4.0676: real time    4.0778
    ORTHCH:  cpu time    0.3440: real time    0.3449
       DOS:  cpu time    0.0014: real time    0.0014
    CHARGE:  cpu time    0.2734: real time    0.2741
    MIXING:  cpu time    0.0027: real time    0.0027
    --------------------------------------------
      LOOP:  cpu time    6.2160: real time    6.2357

 eigenvalue-minimisations  :  4038
 total energy-change (2. order) : 0.5604748E+01  (-0.1299085E+01)
 number of electron     551.9999453 magnetization 
 augmentation part      202.5504384 magnetization 

 DIPCOR: dipole corrections for dipol
 direction  3 min pos     1,
 dipolmoment           0.000000      0.000000      0.396769 electrons x Angstroem
 Tr[quadrupol]    -11209.957492

 energy correction for charged system         0.000000 eV
 dipol+quadrupol energy correction           -0.005187 eV
 added-field ion interaction          3.646020 eV  (added to PSCEN)


 Broyden mixing:
  rms(total) = 0.10634E+01    rms(broyden)= 0.10630E+01
  rms(prec ) = 0.11707E+01
  weight for this iteration     100.00

 eigenvalues of (default mixing * dielectric matrix)
  average eigenvalue GAMMA=   0.7245
  2.2716  0.6260  0.4940  0.4940  0.3054  0.1563

 Free energy of the ion-electron system (eV)
  ---------------------------------------------------
  alpha Z        PSCENC =       866.21731474
  Ewald energy   TEWEN  =    237368.79971032
  -Hartree energ DENC   =   -282489.03148413
  -exchange      EXHF   =         0.00000000
  -V(xc)+E(xc)   XCENC  =      -129.19181482
  PAW double counting   =     52083.14367757   -50186.27767828
  entropy T*S    EENTRO =        -0.18970636
  eigenvalues    EBANDS =     -2862.94891302
  atomic energy  EATOM  =     45117.89144060
  Solvation  Ediel_sol  =         0.00000000
  ---------------------------------------------------
  free energy    TOTEN  =      -231.58745336 eV

  energy without entropy =     -231.39774701  energy(sigma->0) =     -231.49260019


--------------------------------------------------------------------------------------------------------




----------------------------------------- Iteration    1(  12)  ---------------------------------------


    POTLOK:  cpu time    0.0452: real time    0.0453
    SETDIJ:  cpu time    0.0060: real time    0.0060
    EDDIAG:  cpu time    1.4457: real time    1.4493
  RMM-DIIS:  cpu time    4.1061: real time    4.1168
    ORTHCH:  cpu time    0.3371: real time    0.3379
       DOS:  cpu time    0.0013: real time    0.0013
    CHARGE:  cpu time    0.2722: real time    0.2728
    MIXING:  cpu time    0.0026: real time    0.0026
    --------------------------------------------
      LOOP:  cpu time    6.2168: real time    6.2346

 eigenvalue-minimisations  :  4038
 total energy-change (2. order) : 0.6149404E+00  (-0.3323368E+00)
 number of electron     551.9999458 magnetization 
 augmentation part      201.4484577 magnetization 

 DIPCOR: dipole corrections for dipol
 direction  3 min pos     1,
 dipolmoment           0.000000      0.000000      0.387197 electrons x Angstroem
 Tr[quadrupol]    -11210.584602

 energy correction for charged system         0.000000 eV
 dipol+quadrupol energy correction           -0.004940 eV
 added-field ion interaction          3.558056 eV  (added to PSCEN)


 Broyden mixing:
  rms(total) = 0.10217E+01    rms(broyden)= 0.10212E+01
  rms(prec ) = 0.11191E+01
  weight for this iteration     100.00

 eigenvalues of (default mixing * dielectric matrix)
  average eigenvalue GAMMA=   0.6754
  2.3147  0.6618  0.5007  0.5007  0.1571  0.3204  0.2725

 Free energy of the ion-electron system (eV)
  ---------------------------------------------------
  alpha Z        PSCENC =       866.12959766
  Ewald energy   TEWEN  =    237368.79971032
  -Hartree energ DENC   =   -282532.91806117
  -exchange      EXHF   =         0.00000000
  -V(xc)+E(xc)   XCENC  =      -128.47835223
  PAW double counting   =     52079.71524332   -50179.27161674
  entropy T*S    EENTRO =        -0.22864126
  eigenvalues    EBANDS =     -2822.61183345
  atomic energy  EATOM  =     45117.89144060
  Solvation  Ediel_sol  =         0.00000000
  ---------------------------------------------------
  free energy    TOTEN  =      -230.97251295 eV

  energy without entropy =     -230.74387169  energy(sigma->0) =     -230.85819232


--------------------------------------------------------------------------------------------------------




----------------------------------------- Iteration    1(  13)  ---------------------------------------


    POTLOK:  cpu time    0.0448: real time    0.0449
    SETDIJ:  cpu time    0.0058: real time    0.0058
    EDDIAG:  cpu time    1.4564: real time    1.4599
  RMM-DIIS:  cpu time    4.0986: real time    4.1111
    ORTHCH:  cpu time    0.3369: real time    0.3377
       DOS:  cpu time    0.0013: real time    0.0013
    CHARGE:  cpu time    0.2707: real time    0.2714
    MIXING:  cpu time    0.0027: real time    0.0027
    --------------------------------------------
      LOOP:  cpu time    6.2180: real time    6.2373

 eigenvalue-minimisations  :  4038
 total energy-change (2. order) : 0.3586366E+00  (-0.1153589E+00)
 number of electron     551.9999453 magnetization 
 augmentation part      201.8225647 magnetization 

 DIPCOR: dipole corrections for dipol
 direction  3 min pos     1,
 dipolmoment           0.000000      0.000000      0.492545 electrons x Angstroem
 Tr[quadrupol]    -11210.229114

 energy correction for charged system         0.000000 eV
 dipol+quadrupol energy correction           -0.007994 eV
 added-field ion interaction          4.526133 eV  (added to PSCEN)


 Broyden mixing:
  rms(total) = 0.72962E+00    rms(broyden)= 0.72927E+00
  rms(prec ) = 0.83614E+00
  weight for this iteration     100.00

 eigenvalues of (default mixing * dielectric matrix)
  average eigenvalue GAMMA=   0.6844
  2.3445  0.7012  0.7012  0.6824  0.3519  0.1562  0.2782  0.2594

 Free energy of the ion-electron system (eV)
  ---------------------------------------------------
  alpha Z        PSCENC =       867.09462082
  Ewald energy   TEWEN  =    237368.79971032
  -Hartree energ DENC   =   -282523.64671788
  -exchange      EXHF   =         0.00000000
  -V(xc)+E(xc)   XCENC  =      -128.12389358
  PAW double counting   =     52125.96335153   -50225.47029349
  entropy T*S    EENTRO =        -0.19587906
  eigenvalues    EBANDS =     -2832.92621560
  atomic energy  EATOM  =     45117.89144060
  Solvation  Ediel_sol  =         0.00000000
  ---------------------------------------------------
  free energy    TOTEN  =      -230.61387633 eV

  energy without entropy =     -230.41799728  energy(sigma->0) =     -230.51593681


--------------------------------------------------------------------------------------------------------




----------------------------------------- Iteration    1(  14)  ---------------------------------------


    POTLOK:  cpu time    0.0448: real time    0.0450
    SETDIJ:  cpu time    0.0056: real time    0.0057
    EDDIAG:  cpu time    1.4656: real time    1.4692
  RMM-DIIS:  cpu time    4.1130: real time    4.1233
    ORTHCH:  cpu time    0.3368: real time    0.3376
       DOS:  cpu time    0.0014: real time    0.0014
    CHARGE:  cpu time    0.2677: real time    0.2683
    MIXING:  cpu time    0.0028: real time    0.0029
    --------------------------------------------
      LOOP:  cpu time    6.2384: real time    6.2558

 eigenvalue-minimisations  :  4038
 total energy-change (2. order) : 0.1723976E+00  (-0.3643549E-01)
 number of electron     551.9999458 magnetization 
 augmentation part      201.7390762 magnetization 

 DIPCOR: dipole corrections for dipol
 direction  3 min pos     1,
 dipolmoment           0.000000      0.000000      0.385943 electrons x Angstroem
 Tr[quadrupol]    -11210.630508

 energy correction for charged system         0.000000 eV
 dipol+quadrupol energy correction           -0.004908 eV
 added-field ion interaction          3.546541 eV  (added to PSCEN)


 Broyden mixing:
  rms(total) = 0.50580E+00    rms(broyden)= 0.50564E+00
  rms(prec ) = 0.53964E+00
  weight for this iteration     100.00

 eigenvalues of (default mixing * dielectric matrix)
  average eigenvalue GAMMA=   0.6992
  2.3584  0.9450  0.9450  0.6488  0.3636  0.3636  0.1562  0.2873  0.2252

 Free energy of the ion-electron system (eV)
  ---------------------------------------------------
  alpha Z        PSCENC =       866.11811409
  Ewald energy   TEWEN  =    237368.79971032
  -Hartree energ DENC   =   -282536.56628539
  -exchange      EXHF   =         0.00000000
  -V(xc)+E(xc)   XCENC  =      -128.17390927
  PAW double counting   =     52171.20662014   -50270.44841477
  entropy T*S    EENTRO =        -0.21499124
  eigenvalues    EBANDS =     -2819.05376326
  atomic energy  EATOM  =     45117.89144060
  Solvation  Ediel_sol  =         0.00000000
  ---------------------------------------------------
  free energy    TOTEN  =      -230.44147878 eV

  energy without entropy =     -230.22648754  energy(sigma->0) =     -230.33398316


--------------------------------------------------------------------------------------------------------




----------------------------------------- Iteration    1(  15)  ---------------------------------------


    POTLOK:  cpu time    0.0448: real time    0.0449
    SETDIJ:  cpu time    0.0060: real time    0.0060
    EDDIAG:  cpu time    1.4378: real time    1.5200
  RMM-DIIS:  cpu time    4.0918: real time    4.1040
    ORTHCH:  cpu time    0.3373: real time    0.3390
       DOS:  cpu time    0.0014: real time    0.0014
    CHARGE:  cpu time    0.2714: real time    0.2722
    MIXING:  cpu time    0.0031: real time    0.0031
    --------------------------------------------
      LOOP:  cpu time    6.1942: real time    6.2936

 eigenvalue-minimisations  :  4036
 total energy-change (2. order) : 0.9656991E-01  (-0.1717372E-01)
 number of electron     551.9999458 magnetization 
 augmentation part      201.8375213 magnetization 

 DIPCOR: dipole corrections for dipol
 direction  3 min pos     1,
 dipolmoment           0.000000      0.000000      0.412144 electrons x Angstroem
 Tr[quadrupol]    -11210.746214

 energy correction for charged system         0.000000 eV
 dipol+quadrupol energy correction           -0.005597 eV
 added-field ion interaction          3.787301 eV  (added to PSCEN)


 Broyden mixing:
  rms(total) = 0.41144E+00    rms(broyden)= 0.41138E+00
  rms(prec ) = 0.44857E+00
  weight for this iteration     100.00

 eigenvalues of (default mixing * dielectric matrix)
  average eigenvalue GAMMA=   0.7477
  2.1979  1.3965  1.3965  0.5594  0.4886  0.4886  0.1562  0.2742  0.2742  0.2453

 Free energy of the ion-electron system (eV)
  ---------------------------------------------------
  alpha Z        PSCENC =       866.35818514
  Ewald energy   TEWEN  =    237368.79971032
  -Hartree energ DENC   =   -282541.71905289
  -exchange      EXHF   =         0.00000000
  -V(xc)+E(xc)   XCENC  =      -127.98310616
  PAW double counting   =     52186.50080955   -50284.82084090
  entropy T*S    EENTRO =        -0.21033365
  eigenvalues    EBANDS =     -2815.16172088
  atomic energy  EATOM  =     45117.89144060
  Solvation  Ediel_sol  =         0.00000000
  ---------------------------------------------------
  free energy    TOTEN  =      -230.34490887 eV

  energy without entropy =     -230.13457522  energy(sigma->0) =     -230.23974205


--------------------------------------------------------------------------------------------------------




----------------------------------------- Iteration    1(  16)  ---------------------------------------


    POTLOK:  cpu time    0.0460: real time    0.0463
    SETDIJ:  cpu time    0.0059: real time    0.0059
    EDDIAG:  cpu time    1.4521: real time    1.4574
  RMM-DIIS:  cpu time    4.1180: real time    4.1283
    ORTHCH:  cpu time    0.3371: real time    0.3379
       DOS:  cpu time    0.0013: real time    0.0013
    CHARGE:  cpu time    0.2718: real time    0.2731
    MIXING:  cpu time    0.0031: real time    0.0031
    --------------------------------------------
      LOOP:  cpu time    6.2360: real time    6.2578

 eigenvalue-minimisations  :  4036
 total energy-change (2. order) : 0.2513866E-01  (-0.1493667E-01)
 number of electron     551.9999461 magnetization 
 augmentation part      201.4870382 magnetization 

 DIPCOR: dipole corrections for dipol
 direction  3 min pos     1,
 dipolmoment           0.000000      0.000000      0.392094 electrons x Angstroem
 Tr[quadrupol]    -11211.268436

 energy correction for charged system         0.000000 eV
 dipol+quadrupol energy correction           -0.005066 eV
 added-field ion interaction          3.603064 eV  (added to PSCEN)


 Broyden mixing:
  rms(total) = 0.34918E+00    rms(broyden)= 0.34905E+00
  rms(prec ) = 0.39512E+00
  weight for this iteration     100.00

 eigenvalues of (default mixing * dielectric matrix)
  average eigenvalue GAMMA=   0.7323
  2.0047  1.6139  1.6139  0.5222  0.5222  0.5419  0.3042  0.3042  0.1562  0.2627
  0.2097

 Free energy of the ion-electron system (eV)
  ---------------------------------------------------
  alpha Z        PSCENC =       866.17447972
  Ewald energy   TEWEN  =    237368.79971032
  -Hartree energ DENC   =   -282565.33622940
  -exchange      EXHF   =         0.00000000
  -V(xc)+E(xc)   XCENC  =      -127.78718772
  PAW double counting   =     52172.54389025   -50268.36810307
  entropy T*S    EENTRO =        -0.22182338
  eigenvalues    EBANDS =     -2794.01594756
  atomic energy  EATOM  =     45117.89144060
  Solvation  Ediel_sol  =         0.00000000
  ---------------------------------------------------
  free energy    TOTEN  =      -230.31977022 eV

  energy without entropy =     -230.09794684  energy(sigma->0) =     -230.20885853


--------------------------------------------------------------------------------------------------------




----------------------------------------- Iteration    1(  17)  ---------------------------------------


    POTLOK:  cpu time    0.0449: real time    0.0450
    SETDIJ:  cpu time    0.0058: real time    0.0058
    EDDIAG:  cpu time    1.4573: real time    1.4619
  RMM-DIIS:  cpu time    4.1085: real time    4.1185
    ORTHCH:  cpu time    0.3371: real time    0.3379
       DOS:  cpu time    0.0013: real time    0.0013
    CHARGE:  cpu time    0.2707: real time    0.2715
    MIXING:  cpu time    0.0033: real time    0.0034
    --------------------------------------------
      LOOP:  cpu time    6.2296: real time    6.2475

 eigenvalue-minimisations  :  4038
 total energy-change (2. order) : 0.8353533E-01  (-0.5826443E-02)
 number of electron     551.9999462 magnetization 
 augmentation part      201.4544298 magnetization 

 DIPCOR: dipole corrections for dipol
 direction  3 min pos     1,
 dipolmoment           0.000000      0.000000      0.410553 electrons x Angstroem
 Tr[quadrupol]    -11211.377666

 energy correction for charged system         0.000000 eV
 dipol+quadrupol energy correction           -0.005554 eV
 added-field ion interaction          3.772689 eV  (added to PSCEN)


 Broyden mixing:
  rms(total) = 0.23445E+00    rms(broyden)= 0.23436E+00
  rms(prec ) = 0.26239E+00
  weight for this iteration     100.00

 eigenvalues of (default mixing * dielectric matrix)
  average eigenvalue GAMMA=   0.7525
  2.1551  2.1551  1.3828  0.5915  0.5915  0.5620  0.3938  0.1562  0.3156  0.2875
  0.2216  0.2178

 Free energy of the ion-electron system (eV)
  ---------------------------------------------------
  alpha Z        PSCENC =       866.34361612
  Ewald energy   TEWEN  =    237368.79971032
  -Hartree energ DENC   =   -282571.01270334
  -exchange      EXHF   =         0.00000000
  -V(xc)+E(xc)   XCENC  =      -127.67245225
  PAW double counting   =     52175.85065366   -50270.92099132
  entropy T*S    EENTRO =        -0.21829166
  eigenvalues    EBANDS =     -2789.29721703
  atomic energy  EATOM  =     45117.89144060
  Solvation  Ediel_sol  =         0.00000000
  ---------------------------------------------------
  free energy    TOTEN  =      -230.23623488 eV

  energy without entropy =     -230.01794323  energy(sigma->0) =     -230.12708906


--------------------------------------------------------------------------------------------------------




----------------------------------------- Iteration    1(  18)  ---------------------------------------


    POTLOK:  cpu time    0.0448: real time    0.0449
    SETDIJ:  cpu time    0.0057: real time    0.0057
    EDDIAG:  cpu time    1.4693: real time    1.4738
  RMM-DIIS:  cpu time    4.0565: real time    4.0664
    ORTHCH:  cpu time    0.3387: real time    0.3396
       DOS:  cpu time    0.0013: real time    0.0013
    CHARGE:  cpu time    0.2686: real time    0.2692
    MIXING:  cpu time    0.0035: real time    0.0035
    --------------------------------------------
      LOOP:  cpu time    6.1890: real time    6.2078

 eigenvalue-minimisations  :  4038
 total energy-change (2. order) : 0.4677866E-01  (-0.3335757E-02)
 number of electron     551.9999461 magnetization 
 augmentation part      201.4244560 magnetization 

 DIPCOR: dipole corrections for dipol
 direction  3 min pos     1,
 dipolmoment           0.000000      0.000000      0.430831 electrons x Angstroem
 Tr[quadrupol]    -11211.541444

 energy correction for charged system         0.000000 eV
 dipol+quadrupol energy correction           -0.006116 eV
 added-field ion interaction          3.959021 eV  (added to PSCEN)


 Broyden mixing:
  rms(total) = 0.12481E+00    rms(broyden)= 0.12477E+00
  rms(prec ) = 0.14367E+00
  weight for this iteration     100.00

 eigenvalues of (default mixing * dielectric matrix)
  average eigenvalue GAMMA=   0.7382
  2.1964  2.1964  1.3614  0.6356  0.6356  0.5886  0.3977  0.3977  0.1562  0.2950
  0.2950  0.2355  0.2055

 Free energy of the ion-electron system (eV)
  ---------------------------------------------------
  alpha Z        PSCENC =       866.52938623
  Ewald energy   TEWEN  =    237368.79971032
  -Hartree energ DENC   =   -282577.79340343
  -exchange      EXHF   =         0.00000000
  -V(xc)+E(xc)   XCENC  =      -127.54377296
  PAW double counting   =     52190.34634075   -50284.81810061
  entropy T*S    EENTRO =        -0.21467820
  eigenvalues    EBANDS =     -2783.38637893
  atomic energy  EATOM  =     45117.89144060
  Solvation  Ediel_sol  =         0.00000000
  ---------------------------------------------------
  free energy    TOTEN  =      -230.18945623 eV

  energy without entropy =     -229.97477803  energy(sigma->0) =     -230.08211713


--------------------------------------------------------------------------------------------------------




----------------------------------------- Iteration    1(  19)  ---------------------------------------


    POTLOK:  cpu time    0.0450: real time    0.0451
    SETDIJ:  cpu time    0.0058: real time    0.0058
    EDDIAG:  cpu time    1.4612: real time    1.4649
  RMM-DIIS:  cpu time    4.1087: real time    4.1187
    ORTHCH:  cpu time    0.3370: real time    0.3378
       DOS:  cpu time    0.0013: real time    0.0013
    CHARGE:  cpu time    0.2665: real time    0.2672
    MIXING:  cpu time    0.0037: real time    0.0037
    --------------------------------------------
      LOOP:  cpu time    6.2299: real time    6.2482

 eigenvalue-minimisations  :  4038
 total energy-change (2. order) : 0.1220530E-01  (-0.1119331E-02)
 number of electron     551.9999462 magnetization 
 augmentation part      201.3996695 magnetization 

 DIPCOR: dipole corrections for dipol
 direction  3 min pos     1,
 dipolmoment           0.000000      0.000000      0.425703 electrons x Angstroem
 Tr[quadrupol]    -11211.607012

 energy correction for charged system         0.000000 eV
 dipol+quadrupol energy correction           -0.005971 eV
 added-field ion interaction          3.911898 eV  (added to PSCEN)


 Broyden mixing:
  rms(total) = 0.84192E-01    rms(broyden)= 0.84168E-01
  rms(prec ) = 0.92483E-01
  weight for this iteration     100.00

 eigenvalues of (default mixing * dielectric matrix)
  average eigenvalue GAMMA=   0.7166
  2.1490  2.1490  1.4482  0.6955  0.6955  0.5945  0.4401  0.4401  0.1562  0.2959
  0.2959  0.2538  0.2093  0.2093

 Free energy of the ion-electron system (eV)
  ---------------------------------------------------
  alpha Z        PSCENC =       866.48240861
  Ewald energy   TEWEN  =    237368.79971032
  -Hartree energ DENC   =   -282580.27042046
  -exchange      EXHF   =         0.00000000
  -V(xc)+E(xc)   XCENC  =      -127.51571362
  PAW double counting   =     52200.06187525   -50294.42482795
  entropy T*S    EENTRO =        -0.21352476
  eigenvalues    EBANDS =     -2780.98819893
  atomic energy  EATOM  =     45117.89144060
  Solvation  Ediel_sol  =         0.00000000
  ---------------------------------------------------
  free energy    TOTEN  =      -230.17725093 eV

  energy without entropy =     -229.96372616  energy(sigma->0) =     -230.07048855


--------------------------------------------------------------------------------------------------------




----------------------------------------- Iteration    1(  20)  ---------------------------------------


    POTLOK:  cpu time    0.0467: real time    0.0469
    SETDIJ:  cpu time    0.0061: real time    0.0061
    EDDIAG:  cpu time    1.4526: real time    1.4578
  RMM-DIIS:  cpu time    4.0397: real time    4.0498
    ORTHCH:  cpu time    0.3370: real time    0.3378
       DOS:  cpu time    0.0013: real time    0.0013
    CHARGE:  cpu time    0.2736: real time    0.2744
    MIXING:  cpu time    0.0040: real time    0.0040
    --------------------------------------------
      LOOP:  cpu time    6.1618: real time    6.1827

 eigenvalue-minimisations  :  4040
 total energy-change (2. order) : 0.2881916E-02  (-0.2305004E-03)
 number of electron     551.9999463 magnetization 
 augmentation part      201.3998137 magnetization 

 DIPCOR: dipole corrections for dipol
 direction  3 min pos     1,
 dipolmoment           0.000000      0.000000      0.426676 electrons x Angstroem
 Tr[quadrupol]    -11211.655513

 energy correction for charged system         0.000000 eV
 dipol+quadrupol energy correction           -0.005999 eV
 added-field ion interaction          3.920844 eV  (added to PSCEN)


 Broyden mixing:
  rms(total) = 0.67896E-01    rms(broyden)= 0.67889E-01
  rms(prec ) = 0.74462E-01
  weight for this iteration     100.00

 eigenvalues of (default mixing * dielectric matrix)
  average eigenvalue GAMMA=   0.7304
  2.1557  2.1557  1.4734  0.8762  0.8762  0.5755  0.5273  0.5273  0.1562  0.3277
  0.3277  0.2849  0.2551  0.2336  0.2040

 Free energy of the ion-electron system (eV)
  ---------------------------------------------------
  alpha Z        PSCENC =       866.49132665
  Ewald energy   TEWEN  =    237368.79971032
  -Hartree energ DENC   =   -282581.68107716
  -exchange      EXHF   =         0.00000000
  -V(xc)+E(xc)   XCENC  =      -127.49975733
  PAW double counting   =     52206.48558388   -50300.84795475
  entropy T*S    EENTRO =        -0.21271576
  eigenvalues    EBANDS =     -2779.60092548
  atomic energy  EATOM  =     45117.89144060
  Solvation  Ediel_sol  =         0.00000000
  ---------------------------------------------------
  free energy    TOTEN  =      -230.17436901 eV

  energy without entropy =     -229.96165325  energy(sigma->0) =     -230.06801113


--------------------------------------------------------------------------------------------------------




----------------------------------------- Iteration    1(  21)  ---------------------------------------


    POTLOK:  cpu time    0.0447: real time    0.0448
    SETDIJ:  cpu time    0.0059: real time    0.0059
    EDDIAG:  cpu time    1.4518: real time    1.4565
  RMM-DIIS:  cpu time    3.9665: real time    4.0659
    ORTHCH:  cpu time    0.3369: real time    0.3377
       DOS:  cpu time    0.0013: real time    0.0013
    CHARGE:  cpu time    0.2701: real time    0.2707
    MIXING:  cpu time    0.0041: real time    0.0041
    --------------------------------------------
      LOOP:  cpu time    6.0820: real time    6.1903

 eigenvalue-minimisations  :  4038
 total energy-change (2. order) : 0.2250098E-02  (-0.1531403E-03)
 number of electron     551.9999463 magnetization 
 augmentation part      201.3845198 magnetization 

 DIPCOR: dipole corrections for dipol
 direction  3 min pos     1,
 dipolmoment           0.000000      0.000000      0.431607 electrons x Angstroem
 Tr[quadrupol]    -11211.752227

 energy correction for charged system         0.000000 eV
 dipol+quadrupol energy correction           -0.006138 eV
 added-field ion interaction          3.966152 eV  (added to PSCEN)


 Broyden mixing:
  rms(total) = 0.53651E-01    rms(broyden)= 0.53647E-01
  rms(prec ) = 0.58692E-01
  weight for this iteration     100.00

 eigenvalues of (default mixing * dielectric matrix)
  average eigenvalue GAMMA=   0.8351
  2.4681  2.4681  2.3431  1.0343  1.0343  0.6146  0.6146  0.6021  0.4296  0.1562
  0.3214  0.3214  0.2817  0.2423  0.2250  0.2043

 Free energy of the ion-electron system (eV)
  ---------------------------------------------------
  alpha Z        PSCENC =       866.53649532
  Ewald energy   TEWEN  =    237368.79971032
  -Hartree energ DENC   =   -282584.79390957
  -exchange      EXHF   =         0.00000000
  -V(xc)+E(xc)   XCENC  =      -127.47174135
  PAW double counting   =     52211.79891287   -50306.04496002
  entropy T*S    EENTRO =        -0.21324148
  eigenvalues    EBANDS =     -2776.67482561
  atomic energy  EATOM  =     45117.89144060
  Solvation  Ediel_sol  =         0.00000000
  ---------------------------------------------------
  free energy    TOTEN  =      -230.17211891 eV

  energy without entropy =     -229.95887743  energy(sigma->0) =     -230.06549817


--------------------------------------------------------------------------------------------------------




----------------------------------------- Iteration    1(  22)  ---------------------------------------


    POTLOK:  cpu time    0.0450: real time    0.0452
    SETDIJ:  cpu time    0.0060: real time    0.0060
    EDDIAG:  cpu time    1.4650: real time    1.4686
  RMM-DIIS:  cpu time    4.0614: real time    4.0714
    ORTHCH:  cpu time    0.3370: real time    0.3378
       DOS:  cpu time    0.0014: real time    0.0014
[...]
  0.000  -0.002   0.004  -0.000  -8.292   0.000  -0.002   0.004
 -8.431   0.002   0.004  -0.004   0.000  -8.556   0.002   0.004
  0.002  -8.396   0.001  -0.000  -0.002   0.002  -8.522   0.001
  0.004   0.001  -8.421   0.003   0.004   0.004   0.001  -8.546
 -0.004  -0.000   0.003  -8.398  -0.000  -0.004  -0.000   0.003
  0.000  -0.002   0.004  -0.000  -8.433   0.000  -0.002   0.004
  0.001  -0.001  -0.006  -0.000   0.000   0.001  -0.001  -0.006
  0.001  -0.001  -0.008  -0.000   0.000   0.001  -0.001  -0.008
  0.010   0.002  -0.000   0.000   0.000   0.010   0.002  -0.000
  0.000  -0.001   0.002   0.010  -0.000   0.000  -0.001   0.002
 -0.000   0.000  -0.005   0.002   0.009  -0.001   0.000  -0.005
  0.012   0.003  -0.000   0.000   0.000   0.012   0.003  -0.000
  0.000  -0.001   0.003   0.011  -0.000   0.000  -0.001   0.003
 -0.001   0.000  -0.006   0.002   0.011  -0.001   0.000  -0.006
 total augmentation occupancy for first ion, spin component:           1
  5.099   0.025   0.082   0.087  -0.013  -3.147  -0.012  -0.042  -0.141   0.017  -0.010   0.001  -0.045   0.006   0.018   0.014
  0.025   5.222   0.074  -0.012   0.166  -0.012  -2.965  -0.043   0.031  -0.206   0.023   0.037  -0.017   0.049   0.020   0.002
  0.082   0.074   4.581   0.044   0.137  -0.042  -0.044  -2.751  -0.009  -0.098   0.286  -0.077   0.019   0.018   0.014   0.000
  0.087  -0.012   0.044   5.268  -0.037  -0.141   0.031  -0.009  -2.967   0.020   0.024  -0.022   0.026  -0.002   0.037   0.000
 -0.013   0.166   0.137  -0.037   4.965   0.017  -0.207  -0.098   0.019  -3.052   0.013   0.013   0.018   0.023   0.028   0.001
 -3.147  -0.012  -0.042  -0.141   0.017   3.106   0.001   0.012   0.184  -0.020   0.005   0.002   0.030  -0.010  -0.013  -0.005
 -0.012  -2.965  -0.044   0.031  -0.207   0.001   2.678   0.017  -0.046   0.238  -0.024  -0.027   0.018  -0.042  -0.021  -0.001
 -0.042  -0.043  -2.751  -0.009  -0.098   0.012   0.017   2.795  -0.018   0.066  -0.299   0.082  -0.021  -0.015  -0.007   0.000
 -0.141   0.031  -0.009  -2.967   0.019   0.184  -0.046  -0.018   2.642  -0.007  -0.027   0.020  -0.025  -0.013  -0.033   0.000
  0.017  -0.206  -0.098   0.020  -3.052  -0.020   0.238   0.066  -0.007   3.043  -0.017  -0.005  -0.018  -0.023  -0.037   0.000
 -0.010   0.023   0.286   0.024   0.013   0.005  -0.024  -0.299  -0.027  -0.017   2.705  -0.662  -0.000  -0.000  -0.007  -0.000
  0.001   0.037  -0.077  -0.022   0.013   0.002  -0.027   0.082   0.020  -0.005  -0.662   0.192   0.004  -0.000  -0.027  -0.000
 -0.045  -0.017   0.019   0.026   0.018   0.030   0.018  -0.021  -0.025  -0.018  -0.000   0.004   0.214  -0.005   0.001  -0.007
  0.006   0.049   0.018  -0.002   0.023  -0.010  -0.042  -0.015  -0.013  -0.023  -0.000  -0.000  -0.005   0.185   0.000   0.000
  0.018   0.020   0.014   0.037   0.028  -0.013  -0.021  -0.007  -0.033  -0.037  -0.007  -0.027   0.001   0.000   0.208   0.000
  0.014   0.002   0.000   0.000   0.001  -0.005  -0.001   0.000   0.000   0.000  -0.000  -0.000  -0.007   0.000   0.000   0.000
  0.000  -0.003   0.001   0.013  -0.001  -0.000   0.001  -0.000  -0.004   0.001   0.000  -0.000   0.000  -0.006   0.000   0.000
 -0.002   0.001  -0.006   0.000   0.010   0.001  -0.000   0.001   0.001  -0.001   0.001   0.001   0.000   0.000  -0.007  -0.000


------------------------ aborting loop because EDIFF is reached ----------------------------------------


    CHARGE:  cpu time    0.2711: real time    0.2718
    FORLOC:  cpu time    0.0211: real time    0.0211
    FORNL :  cpu time    1.5360: real time    1.5412
    FORCOR:  cpu time    0.0637: real time    0.0658
    FORHAR:  cpu time    0.0299: real time    0.0299
    MIXING:  cpu time    0.0029: real time    0.0029
    OFIELD:  cpu time    0.0000: real time    0.0000

 VOLUME and BASIS-vectors are now :
 -----------------------------------------------------------------------------
  energy-cutoff  :      400.00
  volume of cell :     2745.90
      direct lattice vectors                 reciprocal lattice vectors
    11.002581515  0.000000000  0.000000000     0.090887761 -0.052474073  0.000000000
     5.501290758  9.528515099  0.000000000     0.000000000  0.104948147  0.000000000
     0.000000000  0.000000000 26.191785094     0.000000000  0.000000000  0.038179910

  length of vectors
    11.002581515 11.002581515 26.191785094     0.104948147  0.104948147  0.038179910


 FORCES acting on ions
    electron-ion (+dipol)            ewald-force                    non-local-force                 convergence-correction
 -----------------------------------------------------------------------------------------------
   -.102E+02 -.185E+02 0.375E+03   0.842E+01 0.188E+02 -.375E+03   0.178E+01 -.318E+00 -.146E-01   0.521E-03 -.394E-02 0.725E-02
   -.600E+01 -.374E+01 0.254E+04   0.596E+01 0.349E+01 -.254E+04   -.193E-01 0.171E+00 0.137E+00   0.121E-02 -.362E-02 0.211E-02
   -.373E+02 -.286E+02 0.287E+03   0.368E+02 0.288E+02 -.287E+03   0.518E+00 -.153E+00 0.374E+00   0.110E-02 -.222E-04 -.118E-02
   -.374E+02 -.827E+01 -.199E+04   0.382E+02 0.772E+01 0.199E+04   -.816E+00 0.545E+00 0.108E+00   -.184E-02 -.601E-02 -.554E-02
   -.140E+02 -.373E+01 0.249E+04   0.139E+02 0.349E+01 -.249E+04   0.978E-01 0.105E+00 0.514E-01   0.578E-04 0.435E-02 0.195E-02
   0.276E+02 0.346E+02 0.209E+03   -.283E+02 -.336E+02 -.209E+03   0.683E+00 -.951E+00 -.864E+00   -.352E-03 0.432E-02 -.627E-02
   -.109E+03 0.766E+02 -.257E+04   0.109E+03 -.775E+02 0.257E+04   -.564E+00 0.952E+00 0.624E+00   0.191E-02 -.101E-01 0.519E-02
   0.937E+02 0.303E+01 -.165E+04   -.959E+02 -.264E+01 0.165E+04   0.222E+01 -.372E+00 0.229E+01   0.502E-02 -.765E-02 0.135E-02
   0.137E+02 0.395E+01 0.250E+04   -.130E+02 -.383E+01 -.250E+04   -.523E+00 -.734E-01 0.572E-01   -.118E-02 -.359E-03 0.359E-02
   0.915E+01 0.182E+02 -.197E+04   -.995E+01 -.176E+02 0.197E+04   0.785E+00 -.589E+00 0.105E+01   0.760E-02 0.465E-02 -.811E-02
   0.119E+02 0.149E+02 0.252E+04   -.121E+02 -.147E+02 -.251E+04   0.139E+00 -.243E+00 -.434E+00   -.132E-02 -.353E-02 0.289E-02
   -.328E+02 -.436E+01 0.380E+03   0.323E+02 0.355E+01 -.378E+03   0.413E+00 0.814E+00 -.197E+01   -.331E-02 0.103E-03 0.144E-03
   0.824E+02 -.160E+03 -.254E+04   -.848E+02 0.161E+03 0.254E+04   0.243E+01 -.109E+01 0.545E+00   0.298E-02 -.787E-02 -.461E-02
   0.158E+02 -.526E+02 0.155E+03   -.164E+02 0.533E+02 -.154E+03   0.597E+00 -.785E+00 -.507E+00   0.253E-04 0.249E-02 -.553E-02
   0.632E+01 -.529E+01 0.249E+04   -.606E+01 0.489E+01 -.249E+04   -.214E+00 0.304E+00 0.591E+00   -.739E-04 0.328E-02 0.187E-02
   0.530E+02 -.767E+01 0.370E+03   -.528E+02 0.786E+01 -.370E+03   -.163E+00 -.189E+00 -.644E-02   0.195E-02 0.528E-03 0.410E-02
   0.235E+02 0.828E+02 -.174E+04   -.246E+02 -.858E+02 0.173E+04   0.115E+01 0.305E+01 0.295E+01   0.798E-02 0.214E-02 -.582E-03
   -.577E+02 0.313E+02 0.218E+03   0.582E+02 -.320E+02 -.219E+03   -.533E+00 0.723E+00 0.311E+00   0.128E-02 -.389E-02 0.252E-03
   -.719E+01 0.609E+01 0.253E+04   0.685E+01 -.650E+01 -.253E+04   0.291E+00 0.252E+00 -.356E+00   -.805E-04 0.342E-02 0.126E-02
   0.249E+02 0.458E+01 0.413E+03   -.241E+02 -.418E+01 -.413E+03   -.747E+00 -.410E+00 0.524E-01   0.534E-02 0.449E-02 0.222E-02
   0.110E+03 0.371E+02 -.174E+04   -.113E+03 -.389E+02 0.174E+04   0.283E+01 0.181E+01 0.261E-01   0.380E-02 0.240E-03 0.445E-02
   0.149E+02 0.620E+02 0.341E+03   -.140E+02 -.622E+02 -.341E+03   -.843E+00 0.289E+00 -.286E+00   0.355E-02 -.609E-02 0.490E-02
   -.121E+02 -.914E+01 0.342E+03   0.127E+02 0.892E+01 -.342E+03   -.679E+00 0.226E+00 -.134E+00   0.234E-02 -.590E-02 -.279E-02
   -.627E+02 0.422E+02 -.178E+04   0.624E+02 -.439E+02 0.177E+04   0.355E+00 0.174E+01 0.264E+01   -.111E-02 -.427E-02 -.274E-02
   0.112E+03 0.256E+02 -.163E+04   -.113E+03 -.262E+02 0.166E+04   0.837E+00 0.636E+00 -.275E+02   -.450E-02 0.349E-03 0.153E-02
   0.161E+03 -.873E+02 -.165E+04   -.177E+03 0.921E+02 0.167E+04   0.164E+02 -.480E+01 -.217E+02   0.211E-02 -.803E-03 -.471E-04
   -.442E+02 0.394E+02 -.167E+04   0.361E+02 -.349E+02 0.169E+04   0.811E+01 -.452E+01 -.256E+02   -.509E-02 -.281E-02 0.350E-02
   -.488E+02 -.253E+02 -.164E+04   0.613E+02 0.286E+02 0.167E+04   -.124E+02 -.330E+01 -.222E+02   0.405E-02 0.188E-02 -.383E-02
   -.356E+02 0.840E+02 -.161E+04   0.411E+02 -.959E+02 0.163E+04   -.541E+01 0.119E+02 -.177E+02   -.221E-03 0.360E-02 0.604E-02
   -.421E+02 0.514E+02 -.168E+04   0.396E+02 -.548E+02 0.171E+04   0.258E+01 0.338E+01 -.277E+02   0.107E-02 -.325E-02 -.224E-02
   0.233E+02 0.278E+02 -.162E+04   -.280E+02 -.290E+02 0.165E+04   0.462E+01 0.119E+01 -.271E+02   0.490E-03 -.267E-02 0.219E-02
   -.125E+03 0.106E+02 -.164E+04   0.139E+03 -.170E+02 0.166E+04   -.141E+02 0.642E+01 -.193E+02   -.488E-02 0.426E-02 0.805E-02
   -.361E+01 -.330E+01 0.348E+03   0.469E+01 0.289E+01 -.347E+03   -.109E+01 0.409E+00 -.786E+00   0.463E-02 -.942E-03 0.297E-02
   -.137E+02 -.343E+01 0.229E+04   0.139E+02 0.322E+01 -.229E+04   0.191E-01 0.175E+00 -.195E+01   -.990E-03 0.636E-03 0.173E-02
   -.398E+02 -.990E+02 -.157E+04   0.404E+02 0.996E+02 0.158E+04   -.603E+00 -.628E+00 -.129E+01   -.516E-02 -.186E-02 -.542E-02
   -.703E+01 0.133E+02 0.230E+04   0.720E+01 -.131E+02 -.230E+04   -.103E+00 -.172E+00 -.134E+01   0.658E-04 -.280E-02 0.152E-02
   0.467E+02 -.320E+02 -.146E+04   -.470E+02 0.320E+02 0.146E+04   0.382E+00 0.558E-01 -.146E+01   -.401E-02 0.768E-02 -.356E-02
   0.527E+01 0.321E+01 0.231E+04   -.537E+01 -.306E+01 -.230E+04   0.883E-01 -.741E-01 -.142E+01   -.361E-03 -.727E-04 0.366E-03
   0.378E+02 -.221E+02 -.164E+04   -.378E+02 0.215E+02 0.164E+04   0.832E-02 0.514E+00 -.104E+01   -.186E-03 -.330E-02 -.588E-02
   0.747E+01 -.218E+01 0.226E+04   -.765E+01 0.258E+01 -.226E+04   0.466E-01 -.276E+00 -.126E+01   -.289E-03 0.217E-04 0.250E-02
   -.459E+02 0.352E+02 -.158E+04   0.450E+02 -.338E+02 0.158E+04   0.924E+00 -.133E+01 -.904E-02   -.840E-02 -.159E-02 -.805E-03
   0.198E+02 0.107E+02 0.336E+03   -.204E+02 -.102E+02 -.336E+03   0.619E+00 -.522E+00 -.130E+00   0.728E-03 -.273E-03 0.855E-02
   0.669E+01 -.459E+01 0.231E+04   -.690E+01 0.476E+01 -.231E+04   0.117E+00 -.448E-01 -.165E+01   0.105E-02 -.422E-03 0.229E-02
   0.147E+02 0.446E+01 0.230E+04   -.145E+02 -.464E+01 -.230E+04   -.229E+00 0.132E+00 -.159E+01   0.244E-04 0.213E-02 0.672E-03
   -.120E+02 -.368E+02 -.148E+04   0.125E+02 0.366E+02 0.148E+04   -.439E+00 0.253E+00 -.241E+01   -.171E-05 -.532E-02 -.398E-02
   -.236E+01 -.451E+01 0.230E+04   0.276E+01 0.459E+01 -.230E+04   -.284E+00 -.203E-01 -.192E+01   0.420E-03 0.256E-04 0.609E-03
   -.932E+01 -.159E+02 0.255E+03   0.887E+01 0.160E+02 -.254E+03   0.434E+00 -.637E-01 -.113E+01   0.499E-02 -.349E-02 -.527E-03
   0.392E+02 -.171E+02 -.252E+04   -.387E+02 0.151E+02 0.252E+04   -.527E+00 0.197E+01 0.606E+00   -.356E-03 -.172E-02 -.521E-03
   0.561E+01 0.118E+02 0.389E+03   -.540E+01 -.115E+02 -.390E+03   -.213E+00 -.270E+00 0.101E+01   -.131E-02 -.588E-02 0.580E-02
   0.116E+01 -.450E+01 0.231E+04   -.115E+01 0.464E+01 -.231E+04   0.349E-01 -.745E-01 -.200E+01   -.640E-04 -.326E-02 0.247E-02
   -.452E+02 -.427E+02 -.163E+04   0.452E+02 0.425E+02 0.163E+04   -.395E-01 0.138E+00 -.217E+01   0.244E-03 0.146E-02 -.122E-01
   0.652E+02 0.814E+01 0.174E+03   -.647E+02 -.845E+01 -.173E+03   -.439E+00 0.312E+00 -.129E+01   0.541E-02 -.501E-03 0.525E-02
   -.104E+03 -.176E+02 -.166E+04   0.103E+03 0.176E+02 0.166E+04   0.600E+00 0.700E-02 -.254E+01   -.341E-02 -.828E-02 -.217E-02
   0.104E+02 -.103E+02 0.229E+04   -.108E+02 0.102E+02 -.229E+04   0.194E+00 0.916E-01 -.139E+01   0.805E-03 0.823E-03 0.171E-02
   -.613E+02 -.273E+02 0.280E+03   0.615E+02 0.267E+02 -.279E+03   -.232E+00 0.532E+00 -.759E+00   0.395E-02 -.165E-02 0.283E-02
   -.265E+02 -.317E+01 0.229E+04   0.263E+02 0.327E+01 -.229E+04   0.193E+00 0.334E-01 -.146E+01   0.328E-03 -.887E-04 0.147E-02
 -----------------------------------------------------------------------------------------------
   -.931E+01 -.178E+02 0.211E+03   -.284E-12 -.632E-12 -.546E-11   0.927E+01 0.179E+02 -.211E+03   0.285E-01 -.614E-01 0.271E-01
 
 
 POSITION                                       TOTAL-FORCE (eV/Angst)
 -----------------------------------------------------------------------------------
     15.07183      8.75023     12.40366        -0.001829      0.003224      0.000922
      5.50129      7.94043     10.00000        -0.063084     -0.088740     -0.523161
     10.96863      1.59915     12.45470        -0.001895     -0.001031      0.004166
      0.14260      0.00948     14.92261        -0.002266     -0.006925     -0.003691
      8.25194      3.17617     10.00000         0.027292     -0.135178      0.014890
     12.32847      3.98927     12.54477        -0.000609     -0.001047      0.007287
      1.61751      2.14720     15.80856         0.001440      0.006600     -0.007868
      5.50215      0.04531     14.72884        -0.000791      0.009367      0.002372
     12.37790      5.55830     10.00000         0.150903      0.047955     -0.139029
     13.71377      4.71664     14.87905        -0.004335     -0.000603      0.001816
     11.00258      7.94043     10.00000        -0.056611     -0.072597     -0.260125
      5.50096      6.33346     12.41434        -0.003112      0.002545      0.005124
      9.29619      7.41570     16.02026         0.001531     -0.000805      0.003128
      9.58491      4.00565     12.60408        -0.002442      0.001986      0.005496
     11.00258      3.17617     10.00000         0.046206     -0.089258     -0.292358
      2.75139      1.59484     12.36418        -0.000517     -0.001834     -0.003863
     12.40204      7.08444     14.81637        -0.003953      0.001438     -0.000969
      8.27137      6.34065     12.47302         0.002428     -0.000945      0.006775
      5.50129      3.17617     10.00000        -0.053073     -0.156997     -0.310754
      4.12325      3.97832     12.36581         0.003320      0.000692     -0.000069
      4.00999      2.32141     14.71022        -0.002752     -0.002842      0.005106
      9.66951      8.72287     12.40085         0.000186      0.002563     -0.006741
      6.88965      8.72318     12.41219        -0.002162      0.007650      0.006620
      9.70115      2.37607     14.93195         0.004945      0.006434      0.005162
      5.38430      3.25955     16.01651         0.005381      0.009148     -0.011288
      6.17874      5.89531     16.29440        -0.001647     -0.003343      0.004152
     11.02717      3.26127     16.39388         0.003650     -0.006403     -0.001716
     11.17274      8.13910     16.28184         0.003325      0.002686     -0.003514
      8.14222      3.26208     16.35524        -0.003573      0.012392      0.009815
     14.05561      7.91731     16.09169        -0.003297     -0.001775     -0.002368
      7.07993      0.90320     16.00612        -0.000479      0.004903      0.000614
      9.89823      5.53254     16.59821        -0.007762      0.006264      0.005242
      5.57500      1.59139     12.43702        -0.005391     -0.001795     -0.002426
      6.87661      0.79404     10.00000         0.186215     -0.037918      0.329654
      6.93506      7.15321     14.87871        -0.002315      0.010779     -0.000462
      8.25194      7.94043     10.00000         0.069984     -0.009488      0.094642
      5.42972      4.81668     14.74165         0.003202      0.006231      0.006630
      4.12597      0.79404     10.00000        -0.012776      0.070887      0.045648
      8.31341      9.45918     14.76877        -0.007086     -0.006110      0.006896
      9.62726      5.55830     10.00000        -0.136987      0.118412      0.441064
      4.23555      7.15173     14.72368         0.001500      0.000171      0.000962
     13.71151      6.35807     12.42349        -0.007319     -0.000145     -0.005481
      4.12597      5.55830     10.00000        -0.092327      0.121876     -0.008729
      2.75065      3.17617     10.00000        -0.049295     -0.046722      0.031505
      6.93918      2.54780     14.89641         0.000266     -0.002583      0.006319
      1.37532      0.79404     10.00000         0.111287      0.059071      0.162026
      8.24297      1.60418     12.55673        -0.004715      0.005075     -0.005022
      7.98119      5.19271     16.41785         0.016097     -0.000216      0.002329
     12.39174      8.74309     12.33967        -0.001268     -0.001281     -0.003885
     13.75323      7.94043     10.00000         0.046419      0.062061      0.015944
     11.04809      4.81242     15.08211        -0.007074     -0.004948      0.004664
     10.99236      6.35622     12.57031        -0.004462      0.002164      0.001621
      8.44235      0.00124     14.95617        -0.009659      0.006034      0.009626
      9.62726      0.79404     10.00000        -0.193035     -0.040290      0.188884
      6.89154      3.96696     12.45609        -0.001295      0.005989     -0.000308
      6.87661      5.55830     10.00000         0.065615      0.127221      0.156724
 -----------------------------------------------------------------------------------
    total drift:                               -0.013553     -0.003239     -0.088104


--------------------------------------------------------------------------------------------------------



  FREE ENERGIE OF THE ION-ELECTRON SYSTEM (eV)
  ---------------------------------------------------
  free  energy   TOTEN  =      -230.17896389 eV

  energy  without entropy=     -229.96733186  energy(sigma->0) =     -230.07314787
 
 d Force = 0.2833123E-03[ 0.126E-03, 0.440E-03]  d Energy = 0.2674127E-03 0.159E-04
 d Force = 0.2151338E+02[ 0.215E+02, 0.215E+02]  d Ewald  = 0.2151338E+02-0.626E-06


--------------------------------------------------------------------------------------------------------


    POTLOK:  cpu time    0.0519: real time    0.0520


--------------------------------------------------------------------------------------------------------


 stress matrix after NEB project (eV)
      0.00000      0.00000      0.00000
      0.00000      0.00000      0.00000
      0.00000      0.00000      0.00000
  FORCES: max atom, RMS     0.016266    0.007228
  FORCE total and by dimension    0.054093    0.016097
  Stress total and by dimension    0.000000    0.000000
 Conjugate gradient step on ions:
 trial-energy change:   -0.000267  1 .order   -0.000283   -0.000440   -0.000126
  (g-gl).g = 0.234E-03      g.g   = 0.249E-03  gl.gl    = 0.420E-03
 g(Force)  = 0.249E-03   g(Stress)= 0.000E+00 ortho     = 0.837E-05
 gamma     =   0.55805
 trial     =   1.73641
 opt step  =   2.43435  (harmonic =   2.43435) maximal distance =0.00477035
 next E    =  -230.179005   (d E  =  -0.00031)


--------------------------------------------------------------------------------------------------------


  
 reached required accuracy - stopping structural energy minimisation
     LOOP+:  cpu time   58.1434: real time   58.4381
    4ORBIT:  cpu time    0.0000: real time    0.0000

 total amount of memory used by VASP on root node    93023. kBytes
========================================================================

   base      :      30000. kBytes
   nonlr-proj:       4680. kBytes
   fftplans  :       4744. kBytes
   grid      :       7835. kBytes
   one-center:        155. kBytes
   wavefun   :      45609. kBytes
 
  
  
 General timing and accounting informations for this job:
 ========================================================
  
                  Total CPU time used (sec):     1173.424
                            User time (sec):     1114.942
                          System time (sec):       58.482
                         Elapsed time (sec):     1180.512
  
                   Maximum memory used (kb):      635672.
                   Average memory used (kb):           0.
  
                          Minor page faults:       459269
                          Major page faults:            0
                 Voluntary context switches:         6908
