       N       E                     dE             d eps       ncg     rms          rms(c)
DAV:   1     0.319907781086E+04    0.31991E+04   -0.18980E+05  3672   0.112E+03
DAV:   2     0.141247514048E+02   -0.31850E+04   -0.29315E+04  4392   0.263E+02
DAV:   3    -0.201889795051E+03   -0.21601E+03   -0.20058E+03  4128   0.651E+01
DAV:   4    -0.207732320310E+03   -0.58425E+01   -0.57705E+01  4212   0.109E+01
DAV:   5    -0.207933614496E+03   -0.20129E+00   -0.20060E+00  4404   0.203E+00    0.625E+01
RMM:   6    -0.226959434090E+03   -0.19026E+02   -0.12687E+02  3677   0.167E+01    0.706E+01
RMM:   7    -0.205353922523E+03    0.21606E+02   -0.50778E+01  3680   0.108E+01    0.491E+01
RMM:   8    -0.216079609726E+03   -0.10726E+02   -0.94393E+01  3673   0.143E+01    0.449E+01
RMM:   9    -0.227277610586E+03   -0.11198E+02   -0.52095E+01  3680   0.112E+01    0.518E+01
RMM:  10    -0.204511892466E+03    0.22766E+02   -0.33412E+01  3681   0.919E+00    0.241E+01
RMM:  11    -0.196383995815E+03    0.81279E+01   -0.19682E+01  3680   0.711E+00    0.198E+01
RMM:  12    -0.190021274852E+03    0.63627E+01   -0.76672E+00  3680   0.433E+00    0.121E+01
RMM:  13    -0.189482446775E+03    0.53883E+00   -0.17452E+00  3681   0.202E+00    0.867E+00
RMM:  14    -0.188971600420E+03    0.51085E+00   -0.44076E-01  3681   0.100E+00    0.678E+00
RMM:  15    -0.188908326220E+03    0.63274E-01   -0.46752E-01  3680   0.105E+00    0.575E+00
RMM:  16    -0.188686543793E+03    0.22178E+00   -0.46183E-01  3681   0.992E-01    0.438E+00
RMM:  17    -0.188562025359E+03    0.12452E+00   -0.36848E-01  3679   0.903E-01    0.352E+00
RMM:  18    -0.188444434717E+03    0.11759E+00   -0.13138E-01  3679   0.544E-01    0.156E+00
RMM:  19    -0.188418045059E+03    0.26390E-01   -0.36518E-02  3681   0.288E-01    0.850E-01
RMM:  20    -0.188415303709E+03    0.27413E-02   -0.76705E-03  3681   0.135E-01    0.664E-01
RMM:  21    -0.188414248504E+03    0.10552E-02   -0.51366E-03  3681   0.112E-01    0.583E-01
RMM:  22    -0.188412686967E+03    0.15615E-02   -0.56127E-03  3682   0.115E-01    0.461E-01
RMM:  23    -0.188410808600E+03    0.18784E-02   -0.34524E-03  3680   0.896E-02    0.248E-01
RMM:  24    -0.188410317024E+03    0.49158E-03   -0.75986E-04  3681   0.436E-02    0.129E-01
RMM:  25    -0.188410324132E+03   -0.71081E-05   -0.40841E-04  3681   0.313E-02    0.104E-01
RMM:  26    -0.188410518726E+03   -0.19459E-03   -0.21289E-04  3679   0.217E-02    0.689E-02
RMM:  27    -0.188410699861E+03   -0.18113E-03   -0.10823E-04  3679   0.151E-02    0.460E-02
RMM:  28    -0.188411010553E+03   -0.31069E-03   -0.57332E-05  3672   0.104E-02    0.317E-02
RMM:  29    -0.188411413614E+03   -0.40306E-03   -0.35100E-05  3667   0.825E-03    0.275E-02
RMM:  30    -0.188411957301E+03   -0.54369E-03   -0.35587E-05  3667   0.801E-03    0.190E-02
RMM:  31    -0.188412535720E+03   -0.57842E-03   -0.35884E-05  3659   0.785E-03    0.231E-02
RMM:  32    -0.188412994492E+03   -0.45877E-03   -0.33031E-05  3557   0.729E-03    0.171E-02
RMM:  33    -0.188413189165E+03   -0.19467E-03   -0.12164E-05  2918   0.425E-03    0.103E-02
RMM:  34    -0.188413319543E+03   -0.13038E-03   -0.63687E-06  2675   0.321E-03    0.538E-03
RMM:  35    -0.188413403703E+03   -0.84160E-04   -0.25288E-06  2392   0.200E-03    0.388E-03
RMM:  36    -0.188413450846E+03   -0.47144E-04   -0.94700E-07  2166   0.136E-03    0.310E-03
RMM:  37    -0.188413520362E+03   -0.69516E-04   -0.12775E-06  2229   0.139E-03    0.379E-03
RMM:  38    -0.188413539640E+03   -0.19278E-04   -0.50487E-07  2070   0.926E-04    0.275E-03
RMM:  39    -0.188413557434E+03   -0.17794E-04   -0.44785E-07  1870   0.828E-04    0.134E-03
RMM:  40    -0.188413562559E+03   -0.51247E-05   -0.17543E-07  1435   0.537E-04    0.944E-04
RMM:  41    -0.188413567168E+03   -0.46090E-05   -0.11624E-07  1204   0.464E-04    0.744E-04
RMM:  42    -0.188413569734E+03   -0.25658E-05   -0.71566E-08  1144   0.420E-04    0.787E-04
RMM:  43    -0.188413571662E+03   -0.19280E-05   -0.30123E-08   759   0.346E-04    0.462E-04
RMM:  44    -0.188413573881E+03   -0.22190E-05   -0.55638E-08   880   0.371E-04    0.324E-04
RMM:  45    -0.188413574941E+03   -0.10604E-05   -0.18666E-08   570   0.350E-04    0.193E-04
RMM:  46    -0.188413575332E+03   -0.39089E-06   -0.14386E-08   519   0.350E-04
   1 F= -.18841358E+03 E0= -.18828971E+03  d E =-.188414E+03
       N       E                     dE             d eps       ncg     rms          rms(c)
DAV:   1    -0.188943130626E+03   -0.52956E+00   -0.16305E+02  3696   0.196E+01    0.207E+00
RMM:   2    -0.189129651819E+03   -0.18652E+00   -0.17890E+00  3681   0.286E+00    0.177E+00
RMM:   3    -0.189200015300E+03   -0.70363E-01   -0.18260E-01  3698   0.722E-01    0.313E+00
RMM:   4    -0.189120338972E+03    0.79676E-01   -0.62829E-02  3687   0.403E-01    0.154E+00
RMM:   5    -0.189103771486E+03    0.16567E-01   -0.30687E-02  3682   0.279E-01    0.848E-01
RMM:   6    -0.189111779310E+03   -0.80078E-02   -0.27315E-02  3682   0.259E-01    0.114E+00
RMM:   7    -0.189099148683E+03    0.12631E-01   -0.12902E-02  3681   0.182E-01    0.293E-01
RMM:   8    -0.189098274870E+03    0.87381E-03   -0.21501E-03  3682   0.719E-02    0.207E-01
RMM:   9    -0.189097800400E+03    0.47447E-03   -0.82065E-04  3682   0.450E-02    0.984E-02
RMM:  10    -0.189097729099E+03    0.71301E-04   -0.28192E-04  3681   0.262E-02    0.665E-02
RMM:  11    -0.189097690545E+03    0.38554E-04   -0.11161E-04  3683   0.164E-02    0.398E-02
RMM:  12    -0.189097685926E+03    0.46188E-05   -0.35270E-05  3679   0.948E-03    0.282E-02
RMM:  13    -0.189097682358E+03    0.35683E-05   -0.13871E-05  3660   0.599E-03    0.168E-02
RMM:  14    -0.189097681058E+03    0.12998E-05   -0.47154E-06  2849   0.354E-03    0.840E-03
RMM:  15    -0.189097681083E+03   -0.24367E-07   -0.12890E-06  2049   0.198E-03
   2 F= -.18909768E+03 E0= -.18897385E+03  d E =-.684106E+00
       N       E                     dE             d eps       ncg     rms          rms(c)
DAV:   1    -0.188844632484E+03    0.25305E+00   -0.15101E+03  3672   0.606E+01    0.556E+00
RMM:   2    -0.190494539355E+03   -0.16499E+01   -0.16052E+01  3681   0.858E+00    0.475E+00
RMM:   3    -0.190910577616E+03   -0.41604E+00   -0.13957E+00  3694   0.200E+00    0.779E+00
RMM:   4    -0.190384543938E+03    0.52603E+00   -0.41873E-01  3687   0.105E+00    0.371E+00
RMM:   5    -0.190274659785E+03    0.10988E+00   -0.20088E-01  3681   0.709E-01    0.222E+00
RMM:   6    -0.190324411784E+03   -0.49752E-01   -0.22021E-01  3683   0.734E-01    0.286E+00
RMM:   7    -0.190243899792E+03    0.80512E-01   -0.99634E-02  3681   0.505E-01    0.960E-01
RMM:   8    -0.190234597477E+03    0.93023E-02   -0.25316E-02  3681   0.245E-01    0.693E-01
RMM:   9    -0.190228776124E+03    0.58214E-02   -0.84492E-03  3680   0.144E-01    0.277E-01
RMM:  10    -0.190228267858E+03    0.50827E-03   -0.23655E-03  3680   0.751E-02    0.226E-01
RMM:  11    -0.190227986022E+03    0.28184E-03   -0.92668E-04  3683   0.475E-02    0.152E-01
RMM:  12    -0.190227880367E+03    0.10565E-03   -0.44528E-04  3681   0.338E-02    0.963E-02
RMM:  13    -0.190227842143E+03    0.38224E-04   -0.16226E-04  3683   0.203E-02    0.613E-02
RMM:  14    -0.190227821004E+03    0.21140E-04   -0.53756E-05  3676   0.118E-02    0.290E-02
RMM:  15    -0.190227819414E+03    0.15901E-05   -0.16012E-05  3583   0.632E-03    0.148E-02
RMM:  16    -0.190227822464E+03   -0.30507E-05   -0.61370E-06  3369   0.388E-03    0.764E-03
RMM:  17    -0.190227825473E+03   -0.30087E-05   -0.19307E-06  2149   0.240E-03    0.586E-03
RMM:  18    -0.190227830607E+03   -0.51341E-05   -0.10840E-06  2083   0.188E-03    0.387E-03
RMM:  19    -0.190227833372E+03   -0.27647E-05   -0.42879E-07  2015   0.121E-03    0.168E-03
RMM:  20    -0.190227836296E+03   -0.29239E-05   -0.10701E-07  1511   0.566E-04    0.127E-03
RMM:  21    -0.190227838805E+03   -0.25092E-05   -0.52359E-08  1018   0.447E-04    0.102E-03
RMM:  22    -0.190227844255E+03   -0.54503E-05   -0.18303E-07  1728   0.566E-04    0.105E-03
RMM:  23    -0.190227848326E+03   -0.40709E-05   -0.16451E-07  1377   0.514E-04    0.113E-03
RMM:  24    -0.190227850934E+03   -0.26078E-05   -0.15809E-07  1381   0.483E-04    0.732E-04
RMM:  25    -0.190227851639E+03   -0.70543E-06   -0.35422E-08   715   0.348E-04
   3 F= -.19022785E+03 E0= -.19010513E+03  d E =-.181428E+01
       N       E                     dE             d eps       ncg     rms          rms(c)
DAV:   1    -0.190112201751E+03    0.11565E+00   -0.25143E+02  3672   0.243E+01    0.202E+00
RMM:   2    -0.190416956138E+03   -0.30475E+00   -0.27834E+00  3682   0.355E+00    0.246E+00
RMM:   3    -0.190432579565E+03   -0.15623E-01   -0.22154E-01  3702   0.807E-01    0.269E+00
RMM:   4    -0.190379331114E+03    0.53248E-01   -0.60576E-02  3686   0.403E-01    0.156E+00
RMM:   5    -0.190356910154E+03    0.22421E-01   -0.29304E-02  3681   0.276E-01    0.772E-01
RMM:   6    -0.190365173956E+03   -0.82638E-02   -0.38856E-02  3683   0.309E-01    0.111E+00
RMM:   7    -0.190353412491E+03    0.11761E-01   -0.17290E-02  3681   0.209E-01    0.366E-01
RMM:   8    -0.190351954137E+03    0.14584E-02   -0.30432E-03  3682   0.855E-02    0.236E-01
RMM:   9    -0.190351229548E+03    0.72459E-03   -0.10650E-03  3680   0.514E-02    0.109E-01
RMM:  10    -0.190351131366E+03    0.98182E-04   -0.39306E-04  3681   0.307E-02    0.861E-02
RMM:  11    -0.190351056501E+03    0.74866E-04   -0.17253E-04  3683   0.200E-02    0.458E-02
RMM:  12    -0.190351050163E+03    0.63380E-05   -0.79273E-05  3681   0.138E-02    0.339E-02
RMM:  13    -0.190351043573E+03    0.65898E-05   -0.27694E-05  3672   0.827E-03    0.179E-02
RMM:  14    -0.190351043066E+03    0.50681E-06   -0.63458E-06  3077   0.411E-03
   4 F= -.19035104E+03 E0= -.19022936E+03  d E =-.193747E+01
       N       E                     dE             d eps       ncg     rms          rms(c)
DAV:   1    -0.190637519111E+03   -0.28648E+00   -0.41649E+02  3672   0.315E+01    0.239E+00
RMM:   2    -0.191119269824E+03   -0.48175E+00   -0.45964E+00  3681   0.454E+00    0.247E+00
RMM:   3    -0.191216590033E+03   -0.97320E-01   -0.35202E-01  3698   0.996E-01    0.422E+00
RMM:   4    -0.191064785236E+03    0.15180E+00   -0.68263E-02  3686   0.449E-01    0.149E+00
RMM:   5    -0.191053650375E+03    0.11135E-01   -0.31733E-02  3680   0.290E-01    0.115E+00
RMM:   6    -0.191051974298E+03    0.16761E-02   -0.56919E-02  3682   0.371E-01    0.101E+00
RMM:   7    -0.191043163135E+03    0.88112E-02   -0.23058E-02  3682   0.238E-01    0.518E-01
RMM:   8    -0.191040836793E+03    0.23263E-02   -0.47443E-03  3684   0.107E-01    0.328E-01
RMM:   9    -0.191039451705E+03    0.13851E-02   -0.15899E-03  3679   0.643E-02    0.134E-01
RMM:  10    -0.191039298842E+03    0.15286E-03   -0.49298E-04  3679   0.344E-02    0.987E-02
RMM:  11    -0.191039213629E+03    0.85213E-04   -0.25399E-04  3681   0.243E-02    0.640E-02
RMM:  12    -0.191039195333E+03    0.18297E-04   -0.15575E-04  3680   0.191E-02    0.437E-02
RMM:  13    -0.191039187838E+03    0.74952E-05   -0.55884E-05  3681   0.117E-02    0.284E-02
RMM:  14    -0.191039186075E+03    0.17627E-05   -0.11516E-05  3620   0.546E-03    0.148E-02
RMM:  15    -0.191039186418E+03   -0.34280E-06   -0.25936E-06  2367   0.271E-03
   5 F= -.19103919E+03 E0= -.19091779E+03  d E =-.688143E+00
       N       E                     dE             d eps       ncg     rms          rms(c)
DAV:   1    -0.189648837605E+03    0.13903E+01   -0.21090E+03  3672   0.720E+01    0.457E+00
RMM:   2    -0.191919896651E+03   -0.22711E+01   -0.22293E+01  3681   0.101E+01    0.479E+00
RMM:   3    -0.192218259738E+03   -0.29836E+00   -0.14420E+00  3698   0.203E+00    0.749E+00
RMM:   4    -0.191729077449E+03    0.48918E+00   -0.25740E-01  3685   0.862E-01    0.310E+00
RMM:   5    -0.191666267964E+03    0.62809E-01   -0.10368E-01  3680   0.520E-01    0.241E+00
RMM:   6    -0.191646991895E+03    0.19276E-01   -0.26283E-01  3681   0.793E-01    0.208E+00
RMM:   7    -0.191617232654E+03    0.29759E-01   -0.13585E-01  3681   0.574E-01    0.124E+00
RMM:   8    -0.191603201226E+03    0.14031E-01   -0.29114E-02  3684   0.263E-01    0.734E-01
RMM:   9    -0.191596583547E+03    0.66177E-02   -0.75066E-03  3679   0.140E-01    0.369E-01
RMM:  10    -0.191595387225E+03    0.11963E-02   -0.27473E-03  3680   0.821E-02    0.270E-01
RMM:  11    -0.191594823921E+03    0.56330E-03   -0.27555E-03  3680   0.797E-02    0.223E-01
RMM:  12    -0.191594416989E+03    0.40693E-03   -0.14211E-03  3680   0.577E-02    0.108E-01
RMM:  13    -0.191594389992E+03    0.26997E-04   -0.38037E-04  3682   0.305E-02    0.749E-02
RMM:  14    -0.191594344414E+03    0.45578E-04   -0.74124E-05  3680   0.139E-02    0.323E-02
RMM:  15    -0.191594345846E+03   -0.14320E-05   -0.23555E-05  3671   0.770E-03    0.211E-02
RMM:  16    -0.191594348456E+03   -0.26100E-05   -0.99405E-06  3624   0.489E-03    0.732E-03
RMM:  17    -0.191594358062E+03   -0.96061E-05   -0.22483E-06  2273   0.246E-03    0.708E-03
RMM:  18    -0.191594370236E+03   -0.12174E-04   -0.13044E-06  2128   0.201E-03    0.313E-03
RMM:  19    -0.191594378857E+03   -0.86213E-05   -0.62559E-07  2085   0.129E-03    0.217E-03
RMM:  20    -0.191594387558E+03   -0.87006E-05   -0.35757E-07  2075   0.872E-04    0.151E-03
RMM:  21    -0.191594398925E+03   -0.11367E-04   -0.40800E-07  1955   0.768E-04    0.230E-03
RMM:  22    -0.191594407048E+03   -0.81231E-05   -0.32566E-07  1672   0.672E-04    0.202E-03
RMM:  23    -0.191594415926E+03   -0.88776E-05   -0.49438E-07  1957   0.751E-04    0.160E-03
RMM:  24    -0.191594420145E+03   -0.42191E-05   -0.28382E-07  1351   0.577E-04    0.948E-04
RMM:  25    -0.191594421793E+03   -0.16481E-05   -0.12045E-07  1141   0.453E-04    0.738E-04
RMM:  26    -0.191594423087E+03   -0.12939E-05   -0.66329E-08   959   0.413E-04    0.525E-04
RMM:  27    -0.191594424052E+03   -0.96486E-06   -0.52907E-08   947   0.403E-04
   6 F= -.19159442E+03 E0= -.19147440E+03  d E =-.124338E+01
       N       E                     dE             d eps       ncg     rms          rms(c)
DAV:   1    -0.191338126959E+03    0.25630E+00   -0.56825E+02  3672   0.369E+01    0.252E+00
RMM:   2    -0.192000697482E+03   -0.66257E+00   -0.62733E+00  3681   0.534E+00    0.287E+00
RMM:   3    -0.192090267213E+03   -0.89570E-01   -0.44159E-01  3697   0.112E+00    0.438E+00
RMM:   4    -0.191927426695E+03    0.16284E+00   -0.78775E-02  3684   0.482E-01    0.168E+00
RMM:   5    -0.191910726964E+03    0.16700E-01   -0.31836E-02  3680   0.290E-01    0.125E+00
RMM:   6    -0.191903880806E+03    0.68462E-02   -0.73679E-02  3681   0.424E-01    0.101E+00
RMM:   7    -0.191897015984E+03    0.68648E-02   -0.32489E-02  3680   0.280E-01    0.572E-01
RMM:   8    -0.191894341493E+03    0.26745E-02   -0.62078E-03  3682   0.120E-01    0.374E-01
RMM:   9    -0.191892500184E+03    0.18413E-02   -0.18709E-03  3679   0.698E-02    0.166E-01
RMM:  10    -0.191892233936E+03    0.26625E-03   -0.60783E-04  3679   0.383E-02    0.117E-01
RMM:  11    -0.191892093872E+03    0.14006E-03   -0.48380E-04  3679   0.334E-02    0.810E-02
RMM:  12    -0.191892042039E+03    0.51833E-04   -0.27663E-04  3679   0.253E-02    0.473E-02
RMM:  13    -0.191892039525E+03    0.25138E-05   -0.72678E-05  3682   0.133E-02    0.324E-02
RMM:  14    -0.191892033276E+03    0.62486E-05   -0.14539E-05  3655   0.621E-03    0.153E-02
RMM:  15    -0.191892033446E+03   -0.16971E-06   -0.39229E-06  2651   0.326E-03
   7 F= -.19189203E+03 E0= -.19177190E+03  d E =-.297609E+00
       N       E                     dE             d eps       ncg     rms          rms(c)
DAV:   1    -0.191885364544E+03    0.66687E-02   -0.10678E+01  3744   0.503E+00    0.330E-01
RMM:   2    -0.191898586450E+03   -0.13222E-01   -0.12121E-01  3681   0.739E-01    0.480E-01
RMM:   3    -0.191898761960E+03   -0.17551E-03   -0.86632E-03  3700   0.158E-01    0.510E-01
RMM:   4    -0.191896368643E+03    0.23933E-02   -0.12358E-03  3683   0.620E-02    0.203E-01
RMM:   5    -0.191896300644E+03    0.67999E-04   -0.58269E-04  3680   0.394E-02    0.181E-01
RMM:   6    -0.191896197563E+03    0.10308E-03   -0.15449E-03  3681   0.616E-02    0.136E-01
RMM:   7    -0.191896079525E+03    0.11804E-03   -0.52140E-04  3681   0.355E-02    0.726E-02
RMM:   8    -0.191896039725E+03    0.39800E-04   -0.92228E-05  3683   0.147E-02    0.469E-02
RMM:   9    -0.191896014102E+03    0.25623E-04   -0.31735E-05  3672   0.909E-03    0.221E-02
RMM:  10    -0.191896010181E+03    0.39211E-05   -0.11993E-05  3656   0.530E-03    0.156E-02
RMM:  11    -0.191896008500E+03    0.16807E-05   -0.68265E-06  3407   0.400E-03    0.977E-03
RMM:  12    -0.191896009193E+03   -0.69295E-06   -0.44639E-06  2769   0.335E-03
   8 F= -.19189601E+03 E0= -.19177585E+03  d E =-.301585E+00
       N       E                     dE             d eps       ncg     rms          rms(c)
DAV:   1    -0.191887853021E+03    0.81555E-02   -0.52822E+01  3684   0.112E+01    0.804E-01
RMM:   2    -0.191949201365E+03   -0.61348E-01   -0.61201E-01  3681   0.165E+00    0.826E-01
RMM:   3    -0.191960531655E+03   -0.11330E-01   -0.43690E-02  3696   0.351E-01    0.133E+00
RMM:   4    -0.191944943786E+03    0.15588E-01   -0.94532E-03  3683   0.163E-01    0.518E-01
RMM:   5    -0.191943364848E+03    0.15789E-02   -0.36545E-03  3681   0.972E-02    0.366E-01
RMM:   6    -0.191943551514E+03   -0.18667E-03   -0.71724E-03  3679   0.131E-01    0.355E-01
RMM:   7    -0.191942433289E+03    0.11182E-02   -0.30724E-03  3679   0.867E-02    0.161E-01
RMM:   8    -0.191942212308E+03    0.22098E-03   -0.57383E-04  3683   0.367E-02    0.114E-01
RMM:   9    -0.191942041982E+03    0.17033E-03   -0.20537E-04  3680   0.227E-02    0.477E-02
RMM:  10    -0.191942018993E+03    0.22989E-04   -0.55871E-05  3677   0.115E-02    0.321E-02
RMM:  11    -0.191942005989E+03    0.13003E-04   -0.37586E-05  3674   0.912E-03    0.188E-02
RMM:  12    -0.191942003992E+03    0.19972E-05   -0.22199E-05  3677   0.703E-03    0.122E-02
RMM:  13    -0.191942004264E+03   -0.27152E-06   -0.59215E-06  3091   0.385E-03
   9 F= -.19194200E+03 E0= -.19182180E+03  d E =-.459951E-01
       N       E                     dE             d eps       ncg     rms          rms(c)
DAV:   1    -0.191941751324E+03    0.25267E-03   -0.75615E-01  3744   0.134E+00    0.928E-02
RMM:   2    -0.191942644591E+03   -0.89327E-03   -0.87942E-03  3681   0.197E-01    0.112E-01
RMM:   3    -0.191942729523E+03   -0.84931E-04   -0.62594E-04  3695   0.420E-02    0.142E-01
RMM:   4    -0.191942543613E+03    0.18591E-03   -0.12135E-04  3682   0.186E-02    0.596E-02
RMM:   5    -0.191942534165E+03    0.94482E-05   -0.51201E-05  3678   0.116E-02    0.446E-02
RMM:   6    -0.191942547428E+03   -0.13263E-04   -0.10743E-04  3681   0.161E-02    0.459E-02
RMM:   7    -0.191942528421E+03    0.19007E-04   -0.49140E-05  3673   0.110E-02    0.183E-02
RMM:   8    -0.191942526741E+03    0.16794E-05   -0.82498E-06  3355   0.445E-03    0.148E-02
RMM:   9    -0.191942524107E+03    0.26340E-05   -0.31260E-06  2388   0.293E-03    0.594E-03
RMM:  10    -0.191942523912E+03    0.19515E-06   -0.10710E-06  1953   0.181E-03
  10 F= -.19194252E+03 E0= -.19182234E+03  d E =-.465147E-01
       N       E                     dE             d eps       ncg     rms          rms(c)
DAV:   1    -0.191942277880E+03    0.24623E-03   -0.12068E+01  3684   0.534E+00    0.392E-01
RMM:   2    -0.191957470901E+03   -0.15193E-01   -0.14271E-01  3681   0.791E-01    0.519E-01
RMM:   3    -0.191958072276E+03   -0.60138E-03   -0.10624E-02  3697   0.172E-01    0.551E-01
RMM:   4    -0.191955544863E+03    0.25274E-02   -0.22009E-03  3684   0.780E-02    0.275E-01
RMM:   5    -0.191955022181E+03    0.52268E-03   -0.10160E-03  3680   0.515E-02    0.177E-01
RMM:   6    -0.191955317313E+03   -0.29513E-03   -0.18159E-03  3679   0.659E-02    0.216E-01
RMM:   7    -0.191954853095E+03    0.46422E-03   -0.93350E-04  3679   0.478E-02    0.733E-02
RMM:   8    -0.191954815254E+03    0.37841E-04   -0.14079E-04  3682   0.183E-02    0.551E-02
RMM:   9    -0.191954771493E+03    0.43761E-04   -0.54851E-05  3677   0.116E-02    0.247E-02
RMM:  10    -0.191954766115E+03    0.53788E-05   -0.13819E-05  3645   0.570E-03    0.167E-02
RMM:  11    -0.191954762632E+03    0.34829E-05   -0.11186E-05  3661   0.491E-03    0.968E-03
RMM:  12    -0.191954762030E+03    0.60217E-06   -0.55519E-06  3135   0.358E-03
  11 F= -.19195476E+03 E0= -.19183459E+03  d E =-.122381E-01
       N       E                     dE             d eps       ncg     rms          rms(c)
DAV:   1    -0.191953980034E+03    0.78260E-03   -0.15314E+00  3720   0.190E+00    0.138E-01
RMM:   2    -0.191955944097E+03   -0.19641E-02   -0.18180E-02  3681   0.282E-01    0.198E-01
RMM:   3    -0.191955914998E+03    0.29098E-04   -0.13519E-03  3696   0.613E-02    0.185E-01
RMM:   4    -0.191955636891E+03    0.27811E-03   -0.26814E-04  3683   0.274E-02    0.961E-02
RMM:   5    -0.191955582655E+03    0.54236E-04   -0.12635E-04  3680   0.182E-02    0.634E-02
RMM:   6    -0.191955632097E+03   -0.49441E-04   -0.23386E-04  3679   0.236E-02    0.786E-02
RMM:   7    -0.191955570575E+03    0.61521E-04   -0.12344E-04  3679   0.174E-02    0.263E-02
RMM:   8    -0.191955566096E+03    0.44796E-05   -0.17472E-05  3652   0.648E-03    0.190E-02
RMM:   9    -0.191955561047E+03    0.50489E-05   -0.69037E-06  3446   0.414E-03    0.925E-03
RMM:  10    -0.191955560353E+03    0.69427E-06   -0.17266E-06  2035   0.218E-03
  12 F= -.19195556E+03 E0= -.19183540E+03  d E =-.130364E-01
       N       E                     dE             d eps       ncg     rms          rms(c)
DAV:   1    -0.191955651836E+03   -0.90789E-04   -0.22923E+00  3672   0.232E+00    0.159E-01
RMM:   2    -0.191958871398E+03   -0.32196E-02   -0.27905E-02  3681   0.346E-01    0.280E-01
RMM:   3    -0.191958525468E+03    0.34593E-03   -0.21810E-03  3696   0.772E-02    0.215E-01
RMM:   4    -0.191958177006E+03    0.34846E-03   -0.35339E-04  3683   0.314E-02    0.120E-01
RMM:   5    -0.191958073299E+03    0.10371E-03   -0.12897E-04  3680   0.188E-02    0.734E-02
RMM:   6    -0.191958120760E+03   -0.47461E-04   -0.31514E-04  3675   0.274E-02    0.922E-02
RMM:   7    -0.191958050093E+03    0.70668E-04   -0.20645E-04  3677   0.222E-02    0.329E-02
RMM:   8    -0.191958044351E+03    0.57417E-05   -0.28418E-05  3664   0.835E-03    0.235E-02
RMM:   9    -0.191958037289E+03    0.70626E-05   -0.72572E-06  3383   0.431E-03    0.113E-02
RMM:  10    -0.191958036148E+03    0.11400E-05   -0.24188E-06  2178   0.255E-03    0.847E-03
RMM:  11    -0.191958035248E+03    0.90049E-06   -0.36642E-06  2508   0.310E-03
  13 F= -.19195804E+03 E0= -.19183794E+03  d E =-.247490E-02
       N       E                     dE             d eps       ncg     rms          rms(c)
DAV:   1    -0.191957582631E+03    0.45352E-03   -0.75330E-01  3696   0.133E+00    0.915E-02
RMM:   2    -0.191958660562E+03   -0.10779E-02   -0.92069E-03  3681   0.199E-01    0.167E-01
RMM:   3    -0.191958511866E+03    0.14870E-03   -0.72577E-04  3696   0.445E-02    0.122E-01
RMM:   4    -0.191958403770E+03    0.10810E-03   -0.11681E-04  3684   0.181E-02    0.690E-02
RMM:   5    -0.191958371361E+03    0.32409E-04   -0.42863E-05  3679   0.109E-02    0.424E-02
RMM:   6    -0.191958390693E+03   -0.19332E-04   -0.10497E-04  3673   0.158E-02    0.537E-02
RMM:   7    -0.191958367292E+03    0.23402E-04   -0.69370E-05  3673   0.129E-02    0.192E-02
RMM:   8    -0.191958365160E+03    0.21320E-05   -0.93937E-06  3275   0.483E-03    0.131E-02
RMM:   9    -0.191958362980E+03    0.21800E-05   -0.22560E-06  2200   0.252E-03    0.670E-03
RMM:  10    -0.191958362627E+03    0.35302E-06   -0.97137E-07  1946   0.173E-03
  14 F= -.19195836E+03 E0= -.19183830E+03  d E =-.280227E-02
       N       E                     dE             d eps       ncg     rms          rms(c)
DAV:   1    -0.191957296015E+03    0.10670E-02   -0.26219E+00  3672   0.248E+00    0.167E-01
RMM:   2    -0.191960756206E+03   -0.34602E-02   -0.31734E-02  3681   0.369E-01    0.260E-01
RMM:   3    -0.191960606228E+03    0.14998E-03   -0.24073E-03  3696   0.813E-02    0.237E-01
RMM:   4    -0.191960172675E+03    0.43355E-03   -0.38149E-04  3684   0.327E-02    0.125E-01
RMM:   5    -0.191960067206E+03    0.10547E-03   -0.15720E-04  3680   0.206E-02    0.840E-02
RMM:   6    -0.191960106944E+03   -0.39738E-04   -0.37003E-04  3680   0.296E-02    0.965E-02
RMM:   7    -0.191960036480E+03    0.70464E-04   -0.23785E-04  3681   0.238E-02    0.371E-02
RMM:   8    -0.191960029442E+03    0.70380E-05   -0.33937E-05  3667   0.913E-03    0.264E-02
RMM:   9    -0.191960020931E+03    0.85106E-05   -0.89764E-06  3532   0.482E-03    0.132E-02
RMM:  10    -0.191960019404E+03    0.15273E-05   -0.28501E-06  2371   0.273E-03    0.928E-03
RMM:  11    -0.191960018319E+03    0.10854E-05   -0.48679E-06  2896   0.346E-03    0.432E-03
RMM:  12    -0.191960018278E+03    0.40418E-07   -0.15481E-06  1959   0.216E-03
  15 F= -.19196002E+03 E0= -.19184015E+03  d E =-.165565E-02
       N       E                     dE             d eps       ncg     rms          rms(c)
DAV:   1    -0.191959846855E+03    0.17146E-03   -0.24899E-01  3720   0.764E-01    0.515E-02
RMM:   2    -0.191960180526E+03   -0.33367E-03   -0.30206E-03  3681   0.114E-01    0.859E-02
RMM:   3    -0.191960149708E+03    0.30818E-04   -0.23084E-04  3696   0.252E-02    0.716E-02
RMM:   4    -0.191960110692E+03    0.39016E-04   -0.35752E-05  3680   0.100E-02    0.382E-02
RMM:   5    -0.191960103024E+03    0.76676E-05   -0.14717E-05  3635   0.632E-03    0.263E-02
RMM:   6    -0.191960110153E+03   -0.71286E-05   -0.36982E-05  3678   0.936E-03    0.306E-02
RMM:   7    -0.191960103200E+03    0.69528E-05   -0.23242E-05  3659   0.744E-03    0.114E-02
RMM:   8    -0.191960102445E+03    0.75487E-06   -0.29360E-06  2475   0.278E-03
  16 F= -.19196010E+03 E0= -.19184031E+03  d E =-.173982E-02
       N       E                     dE             d eps       ncg     rms          rms(c)
DAV:   1    -0.191958880618E+03    0.12226E-02   -0.19935E+00  3672   0.217E+00    0.146E-01
RMM:   2    -0.191961344849E+03   -0.24642E-02   -0.23764E-02  3681   0.321E-01    0.195E-01
RMM:   3    -0.191961444308E+03   -0.99459E-04   -0.17478E-03  3696   0.692E-02    0.223E-01
RMM:   4    -0.191961031169E+03    0.41314E-03   -0.28980E-04  3683   0.286E-02    0.104E-01
RMM:   5    -0.191960971301E+03    0.59867E-04   -0.12068E-04  3681   0.180E-02    0.718E-02
RMM:   6    -0.191961000670E+03   -0.29369E-04   -0.27044E-04  3679   0.254E-02    0.774E-02
RMM:   7    -0.191960956051E+03    0.44619E-04   -0.15321E-04  3680   0.192E-02    0.306E-02
RMM:   8    -0.191960951499E+03    0.45515E-05   -0.22596E-05  3653   0.747E-03    0.229E-02
RMM:   9    -0.191960945076E+03    0.64229E-05   -0.70744E-06  3263   0.431E-03    0.105E-02
RMM:  10    -0.191960944263E+03    0.81369E-06   -0.18127E-06  1992   0.225E-03
  17 F= -.19196094E+03 E0= -.19184132E+03  d E =-.841817E-03
       N       E                     dE             d eps       ncg     rms          rms(c)
DAV:   1    -0.191960942469E+03    0.26075E-05   -0.21008E-03  3852   0.700E-02    0.668E-03
RMM:   2    -0.191960946209E+03   -0.37401E-05   -0.31112E-05  3666   0.113E-02    0.126E-02
RMM:   3    -0.191960945399E+03    0.80973E-06   -0.29772E-06  2449   0.293E-03
  18 F= -.19196095E+03 E0= -.19184128E+03  d E =-.842954E-03
       N       E                     dE             d eps       ncg     rms          rms(c)
DAV:   1    -0.191960770499E+03    0.17571E-03   -0.51167E-01  3672   0.110E+00    0.734E-02
RMM:   2    -0.191961356955E+03   -0.58646E-03   -0.58730E-03  3681   0.162E-01    0.870E-02
RMM:   3    -0.191961408303E+03   -0.51348E-04   -0.41358E-04  3696   0.341E-02    0.113E-01
RMM:   4    -0.191961298598E+03    0.10970E-03   -0.73362E-05  3682   0.144E-02    0.508E-02
RMM:   5    -0.191961289028E+03    0.95703E-05   -0.30983E-05  3674   0.908E-03    0.357E-02
RMM:   6    -0.191961301160E+03   -0.12132E-04   -0.67950E-05  3675   0.128E-02    0.410E-02
RMM:   7    -0.191961287318E+03    0.13842E-04   -0.41206E-05  3675   0.100E-02    0.145E-02
RMM:   8    -0.191961286601E+03    0.71762E-06   -0.58207E-06  2901   0.382E-03
  19 F= -.19196129E+03 E0= -.19184170E+03  d E =-.341201E-03
