 vasp.5.4.1 24Jun15 (build Mar 14 2019 10:18:33) complex                        
  
 executed on INTEL-19.0.2+OPENMPI date 2023.01.30  16:27:01
 running on   36 total cores
 distrk:  each k-point on   36 cores,    1 groups
 distr:  one band on NCORES_PER_BAND=   6 cores,    6 groups


--------------------------------------------------------------------------------------------------------


 INCAR:
 POTCAR:    PAW_PBE Au 04Oct2007                  
 POTCAR:    PAW_PBE Pd 04Jan2005                  
 POTCAR:    PAW_PBE Au 04Oct2007                  
  local pseudopotential read in
  partial core-charges read in
  partial kinetic energy density read in
  atomic valenz-charges read in
  non local Contribution for L=           2  read in
    real space projection operators read in
  non local Contribution for L=           2  read in
    real space projection operators read in
  non local Contribution for L=           0  read in
    real space projection operators read in
  non local Contribution for L=           0  read in
    real space projection operators read in
  non local Contribution for L=           1  read in
    real space projection operators read in
  non local Contribution for L=           1  read in
    real space projection operators read in
    PAW grid and wavefunctions read in
 
   number of l-projection  operators is LMAX  =           6
   number of lm-projection operators is LMMAX =          18
 
 POTCAR:    PAW_PBE Pd 04Jan2005                  
  local pseudopotential read in
  partial core-charges read in
  partial kinetic energy density read in
  atomic valenz-charges read in
  non local Contribution for L=           2  read in
    real space projection operators read in
  non local Contribution for L=           2  read in
    real space projection operators read in
  non local Contribution for L=           0  read in
    real space projection operators read in
  non local Contribution for L=           0  read in
    real space projection operators read in
  non local Contribution for L=           1  read in
    real space projection operators read in
  non local Contribution for L=           1  read in
    real space projection operators read in
    PAW grid and wavefunctions read in
 
   number of l-projection  operators is LMAX  =           6
   number of lm-projection operators is LMMAX =          18
 
 Optimization of the real space projectors (new method)

 maximal supplied QI-value         = 15.12
 optimisation between [QCUT,QGAM] = [ 10.13, 20.41] = [ 28.73,116.64] Ry 
 Optimized for a Real-space Cutoff    1.51 Angstroem

   l    n(q)    QCUT    max X(q) W(low)/X(q) W(high)/X(q)  e(spline) 
   2      8    10.129    60.898    0.46E-03    0.46E-03    0.14E-06
   2      8    10.129    58.894    0.47E-03    0.47E-03    0.14E-06
   0      9    10.129   109.617    0.16E-03    0.11E-03    0.54E-07
   0      9    10.129    75.026    0.15E-03    0.11E-03    0.52E-07
   1      9    10.129    16.344    0.96E-04    0.15E-03    0.14E-06
   1      9    10.129    10.160    0.81E-04    0.12E-03    0.11E-06
 Optimization of the real space projectors (new method)

 maximal supplied QI-value         = 14.36
 optimisation between [QCUT,QGAM] = [ 10.20, 20.39] = [ 29.12,116.47] Ry 
 Optimized for a Real-space Cutoff    1.51 Angstroem

   l    n(q)    QCUT    max X(q) W(low)/X(q) W(high)/X(q)  e(spline) 
   2      8    10.197    59.108    0.26E-03    0.14E-03    0.96E-07
   2      8    10.197    58.101    0.27E-03    0.14E-03    0.98E-07
   0      9    10.197   102.235    0.54E-04    0.60E-05    0.72E-07
   0      9    10.197    58.388    0.52E-04    0.60E-05    0.68E-07
   1      9    10.197    22.191    0.18E-03    0.25E-03    0.79E-07
   1      9    10.197    15.590    0.15E-03    0.21E-03    0.69E-07
  PAW_PBE Au 04Oct2007                  :
 energy of atom  1       EATOM= -926.0867
 kinetic energy error for atom=    0.0062 (will be added to EATOM!!)
  PAW_PBE Pd 04Jan2005                  :
 energy of atom  2       EATOM= -809.7530
 kinetic energy error for atom=    0.0091 (will be added to EATOM!!)
 
 
 POSCAR: Au Pd                                   
  positions in cartesian coordinates
  No initial velocities read in
 exchange correlation table for  LEXCH =        8
   RHO(1)=    0.500       N(1)  =     2000
   RHO(2)=  100.500       N(2)  =     4000

 VTST: version 3.2, (02/03/18)

 CHAIN: initializing optimizer
 
 OPT: Using VASP Conjugate-Gradient optimizer
 CHAIN: Read ICHAIN            0
 
 POSCAR: Au Pd                                   
  positions in cartesian coordinates
  No initial velocities read in
 


--------------------------------------------------------------------------------------------------------


 ion  position               nearest neighbor table
   1  0.083  0.083  0.408-  12 2.75   8 2.75   3 2.75  19 2.75  24 2.75  21 2.75   7 2.75  20 2.75
                             9 2.75
   2  0.750  0.250  0.592-  39 2.75   9 2.75  29 2.75  36 2.75  10 2.75  45 2.75  31 2.75  46 2.75
                            43 2.75
   3  0.083  0.833  0.408-  20 2.75  17 2.75   1 2.75  21 2.75  30 2.75  19 2.75  42 2.75  18 2.75
                            34 2.75
   4  0.000  0.500  0.592-  13 2.75  15 2.75  16 2.75  28 2.75  31 2.75  48 2.75  26 2.75  10 2.75
                            32 2.75
   5  0.417  0.667  0.500-  17 2.75  36 2.75  38 2.75  37 2.75  20 2.75  39 2.75  41 2.75  18 2.75
                            44 2.75  19 2.75  14 2.75  22 2.75
   6  0.833  0.583  0.408-  13 2.75   8 2.75  24 2.75  40 2.75  42 2.75  14 2.75  30 2.75  32 2.75
                            44 2.75
   7  0.333  0.083  0.408-  35 2.75  11 2.75  19 2.75   8 2.75  40 2.75   1 2.75  33 2.75  41 2.75
                            12 2.75
   8  0.083  0.333  0.408-  15 2.75   6 2.75   7 2.75   1 2.75  30 2.75  24 2.75  11 2.75  12 2.75
                            32 2.75
   9  0.917  0.167  0.500-  21 2.75  29 2.75   2 2.75  20 2.75  32 2.75  34 2.75  39 2.75  12 2.75
                            43 2.75  24 2.75   1 2.75  31 2.75
  10  0.750  0.500  0.592-  44 2.75  32 2.75  31 2.75   2 2.75  22 2.75  48 2.75   4 2.75  36 2.75
                            39 2.75
  11  0.333  0.333  0.408-  37 2.75  17 2.75  30 2.75  33 2.75   7 2.75  23 2.75   8 2.75  35 2.75
                            15 2.75
  12  0.167  0.167  0.500-   1 2.75  27 2.75  31 2.75  15 2.75  20 2.75  32 2.75  41 2.75  35 2.75
                             9 2.75   8 2.75   7 2.75  16 2.75
  13  0.917  0.667  0.500-   6 2.75   4 2.75  48 2.75  25 2.75  32 2.75  34 2.75  15 2.75  44 2.75
                            18 2.75  42 2.75  30 2.75  28 2.75
  14  0.583  0.583  0.408-  44 2.75  23 2.75  24 2.75  40 2.75  19 2.75  17 2.75   6 2.75  39 2.75
                             5 2.75
  15  0.167  0.417  0.500-   8 2.75  16 2.75   4 2.75  13 2.75  12 2.75  18 2.75  35 2.75  32 2.75
                            37 2.75  30 2.75  11 2.75  26 2.75
  16  0.250  0.250  0.592-  15 2.75  35 2.75  26 2.75  27 2.75   4 2.75  47 2.75  46 2.75  31 2.75
                            12 2.75
  17  0.333  0.583  0.408-   5 2.75   3 2.75  11 2.75  19 2.75  23 2.75  14 2.75  30 2.75  37 2.75
                            18 2.75
  18  0.167  0.667  0.500-  30 2.75  26 2.75  28 2.75  20 2.75  15 2.75  34 2.75  37 2.75  13 2.75
                             5 2.75   3 2.75  17 2.75  38 2.75
  19  0.333  0.833  0.408-  41 2.75   7 2.75  14 2.75  17 2.75   1 2.75  40 2.75   3 2.75   5 2.75
                            20 2.75
  20  0.167  0.917  0.500-   3 2.75  38 2.75  29 2.75  12 2.75  18 2.75   5 2.75   9 2.75  34 2.75
                            41 2.75   1 2.75  19 2.75  27 2.75
  21  0.833  0.083  0.408-   9 2.75   3 2.75  23 2.75  24 2.75  42 2.75  33 2.75   1 2.75  34 2.75
                            43 2.75
  22  0.500  0.750  0.592-  41 2.75  44 2.75  36 2.75  10 2.75  27 2.75  47 2.75  38 2.75  48 2.75
                             5 2.75
  23  0.583  0.333  0.408-  39 2.75  17 2.75  21 2.75  33 2.75  14 2.75  11 2.75  24 2.75  43 2.75
                            37 2.75
  24  0.833  0.333  0.408-  32 2.75   6 2.75  14 2.75  21 2.75   1 2.75  23 2.75   8 2.75   9 2.75
                            39 2.75
  25  0.667  0.917  0.500-  40 2.75  48 2.75  47 2.75  43 2.75  44 2.75  35 2.75  13 2.75  34 2.75
                            41 2.75  33 2.75  42 2.75  45 2.75
  26  0.250  0.500  0.592-  18 2.75  37 2.75  28 2.75  16 2.75  38 2.75  46 2.75  36 2.75   4 2.75
                            15 2.75
  27  0.250  0.000  0.592-  12 2.75  41 2.75  22 2.75  31 2.75  38 2.75  16 2.75  29 2.75  47 2.75
                            20 2.75
  28  0.000  0.750  0.592-  34 2.75  18 2.75  26 2.75  29 2.75   4 2.75  45 2.75  38 2.75  48 2.75
                            13 2.75
  29  0.000  0.000  0.592-   9 2.75  20 2.75   2 2.75  28 2.75  31 2.75  38 2.75  27 2.75  45 2.75
                            34 2.75
  30  0.083  0.583  0.408-  18 2.75   8 2.75  11 2.75   3 2.75  42 2.75   6 2.75  17 2.75  15 2.75
                            13 2.75
  31  0.000  0.250  0.592-  32 2.75  12 2.75   4 2.75  27 2.75  29 2.75  10 2.75  16 2.75   2 2.75
                             9 2.75
  32  0.917  0.417  0.500-  24 2.75  31 2.75  10 2.75  13 2.75   9 2.75  12 2.75  44 2.75  39 2.75
                            15 2.75   6 2.75   8 2.75   4 2.75
  33  0.583  0.083  0.408-  43 2.75  23 2.75  40 2.75  42 2.75  11 2.75   7 2.75  21 2.75  25 2.75
                            35 2.75
  34  0.917  0.917  0.500-  42 2.75  28 2.75  45 2.75   9 2.75  13 2.75  43 2.75  18 2.75  20 2.75
                            25 2.75  21 2.75  29 2.75   3 2.75
  35  0.417  0.167  0.500-   7 2.75  47 2.75  16 2.75  25 2.75  37 2.75  41 2.75  15 2.75  43 2.75
                            12 2.75  11 2.75  46 2.75  33 2.75
  36  0.500  0.500  0.592-   5 2.75  39 2.75  22 2.75  38 2.75   2 2.75  46 2.75  26 2.75  10 2.75
                            37 2.75
  37  0.417  0.417  0.500-  11 2.75  46 2.75  26 2.75   5 2.75  35 2.75  43 2.75  18 2.75  15 2.75
                            39 2.75  17 2.75  36 2.75  23 2.75
  38  0.250  0.750  0.592-  20 2.75   5 2.75  26 2.75  27 2.75  29 2.75  36 2.75  22 2.75  28 2.75
                            18 2.75
  39  0.667  0.417  0.500-  23 2.75   2 2.75  36 2.75   5 2.75   9 2.75  43 2.75  44 2.75  32 2.75
                            37 2.75  14 2.75  24 2.75  10 2.75
  40  0.583  0.833  0.408-  25 2.75   7 2.75  14 2.75   6 2.75  33 2.75  19 2.75  42 2.75  44 2.75
                            41 2.75
  41  0.417  0.917  0.500-  19 2.75  22 2.75  27 2.75  12 2.75   5 2.75  35 2.75  44 2.75  25 2.75
                            20 2.75   7 2.75  40 2.75  47 2.75
  42  0.833  0.833  0.408-  34 2.75  21 2.75  30 2.75  33 2.75   6 2.75   3 2.75  40 2.75  13 2.75
                            25 2.75
  43  0.667  0.167  0.500-  33 2.75  45 2.75  46 2.75  37 2.75  39 2.75  25 2.75  34 2.75   9 2.75
                            35 2.75  23 2.75  21 2.75   2 2.75
  44  0.667  0.667  0.500-  14 2.75  10 2.75  22 2.75  25 2.75  32 2.75  39 2.75  41 2.75   5 2.75
                            13 2.75  40 2.75   6 2.75  48 2.75
  45  0.750  0.000  0.592-  43 2.75  34 2.75   2 2.75  28 2.75  46 2.75  48 2.75  47 2.75  29 2.75
                            25 2.75
  46  0.500  0.250  0.592-  37 2.75  43 2.75  26 2.75  36 2.75  45 2.75  47 2.75   2 2.75  16 2.75
                            35 2.75
  47  0.500  0.000  0.592-  35 2.75  25 2.75  16 2.75  22 2.75  46 2.75  48 2.75  27 2.75  45 2.75
                            41 2.75
  48  0.750  0.750  0.592-  25 2.75  13 2.75   4 2.75  10 2.75  45 2.75  47 2.75  22 2.75  28 2.75
                            44 2.75
 
  LATTYP: Found a hexagonal cell.
 ALAT       =    11.0025815153
 C/A-ratio  =     2.2260035120
  
  Lattice vectors:
  
 A1 = (   5.5012907576,  -9.5285150994,   0.0000000000)
 A2 = ( -11.0025815153,   0.0000000000,   0.0000000000)
 A3 = (   0.0000000000,   0.0000000000, -24.4917850943)


Analysis of symmetry for initial positions (statically):
=====================================================================
 Subroutine PRICEL returns:
 Original cell was already a primitive cell.
 

 Routine SETGRP: Setting up the symmetry group for a 
 hexagonal supercell.


 Subroutine GETGRP returns: Found  1 space group operations
 (whereof  1 operations were pure point group operations)
 out of a pool of 24 trial point group operations.


The static configuration has the point symmetry C_1 .


Analysis of symmetry for dynamics (positions and initial velocities):
=====================================================================
 Subroutine PRICEL returns:
 Original cell was already a primitive cell.
 

 Routine SETGRP: Setting up the symmetry group for a 
 hexagonal supercell.


 Subroutine GETGRP returns: Found  1 space group operations
 (whereof  1 operations were pure point group operations)
 out of a pool of 24 trial point group operations.


The dynamic configuration has the point symmetry C_1 .


Analysis of constrained symmetry for selective dynamics:
=====================================================================
 Subroutine PRICEL returns:
 Original cell was already a primitive cell.
 

 Routine SETGRP: Setting up the symmetry group for a 
 hexagonal supercell.


 Subroutine GETGRP returns: Found  1 space group operations
 (whereof  1 operations were pure point group operations)
 out of a pool of 24 trial point group operations.


The constrained configuration has the point symmetry C_1 .
 
 
 KPOINTS: Automatic mesh                          

Automatic generation of k-mesh.
Space group operators:
 irot       det(A)        alpha          n_x          n_y          n_z        tau_x        tau_y        tau_z
    1     1.000000     0.000000     1.000000     0.000000     0.000000     0.000000     0.000000     0.000000
 
 Subroutine IBZKPT returns following result:
 ===========================================
 
 Found      6 irreducible k-points:
 
 Following reciprocal coordinates:
            Coordinates               Weight
  0.250000  0.250000  0.000000     16.000000
  0.000000  0.250000  0.000000     16.000000
 -0.250000  0.000000  0.000000     16.000000
 -0.250000  0.250000  0.000000     16.000000
  0.500000 -0.250000  0.000000     16.000000
 -0.250000  0.500000  0.000000     16.000000
 
 Following cartesian coordinates:
            Coordinates               Weight
  0.022722  0.013119  0.000000     16.000000
  0.000000  0.026237  0.000000     16.000000
 -0.022722  0.013119  0.000000     16.000000
 -0.022722  0.039356  0.000000     16.000000
  0.045444 -0.052474  0.000000     16.000000
 -0.022722  0.065593  0.000000     16.000000
 


--------------------------------------------------------------------------------------------------------




 Dimension of arrays:
   k-points           NKPTS =      6   k-points in BZ     NKDIM =      6   number of bands    NBANDS=    306
   number of dos      NEDOS =    301   number of ions     NIONS =     48
   non local maximal  LDIM  =      6   non local SUM 2l+1 LMDIM =     18
   total plane-waves  NPLWV = 349920
   max r-space proj   IRMAX =   2009   max aug-charges    IRDMAX=   8532
   dimension x,y,z NGX =    54 NGY =   54 NGZ =  120
   dimension x,y,z NGXF=   108 NGYF=  108 NGZF=  240
   support grid    NGXF=   108 NGYF=  108 NGZF=  240
   ions per type =              24  24
 NGX,Y,Z   is equivalent  to a cutoff of   8.16,  8.16,  8.15 a.u.
 NGXF,Y,Z  is equivalent  to a cutoff of  16.32, 16.32, 16.29 a.u.


 I would recommend the setting:
   dimension x,y,z NGX =    54 NGY =   54 NGZ =  120
 SYSTEM =  unknown system                          
 POSCAR =  Au Pd                                   

 Startparameter for this run:
   NWRITE =      1    write-flag & timer
   PREC   = normal    normal or accurate (medium, high low for compatibility)
   ISTART =      0    job   : 0-new  1-cont  2-samecut
   ICHARG =      2    charge: 1-file 2-atom 10-const
   ISPIN  =      1    spin polarized calculation?
   LNONCOLLINEAR =      F non collinear calculations
   LSORBIT =      F    spin-orbit coupling
   INIWAV =      1    electr: 0-lowe 1-rand  2-diag
   LASPH  =      F    aspherical Exc in radial PAW
   METAGGA=      F    non-selfconsistent MetaGGA calc.

 Electronic Relaxation 1
   ENCUT  =  400.0 eV  29.40 Ry    5.42 a.u.  17.94 17.94 39.94*2*pi/ulx,y,z
   ENINI  =  400.0     initial cutoff
   ENAUG  =  416.2 eV  augmentation charge cutoff
   NELM   =    500;   NELMIN=  2; NELMDL= -5     # of ELM steps 
   EDIFF  = 0.1E-05   stopping-criterion for ELM
   LREAL  =      T    real-space projection
   NLSPLINE    = F    spline interpolate recip. space projectors
   LCOMPAT=      F    compatible to vasp.4.4
   GGA_COMPAT  = T    GGA compatible to vasp.4.4-vasp.4.6
   LMAXPAW     = -100 max onsite density
   LMAXMIX     =    2 max onsite mixed and CHGCAR
   VOSKOWN=      1    Vosko Wilk Nusair interpolation
   ROPT   =   -0.00050  -0.00050
 Ionic relaxation
   EDIFFG = -.2E-01   stopping-criterion for IOM
   NSW    =    500    number of steps for IOM
   NBLOCK =      1;   KBLOCK =    500    inner block; outer block 
   IBRION =      2    ionic relax: 0-MD 1-quasi-New 2-CG
   NFREE  =      2    steps in history (QN), initial steepest desc. (CG)
   ISIF   =      0    stress and relaxation
   IWAVPR =     11    prediction:  0-non 1-charg 2-wave 3-comb
   ISYM   =      2    0-nonsym 1-usesym 2-fastsym
   LCORR  =      T    Harris-Foulkes like correction to forces

   POTIM  = 0.3500    time-step for ionic-motion
   TEIN   =    0.0    initial temperature
   TEBEG  =    0.0;   TEEND  =   0.0 temperature during run
   SMASS  =  -3.00    Nose mass-parameter (am)
   estimated Nose-frequenzy (Omega)   =  0.10E-29 period in steps =****** mass=  -0.277E-26a.u.
   SCALEE = 1.0000    scale energy and forces
   NPACO  =    256;   APACO  = 16.0  distance and # of slots for P.C.
   PSTRESS=    0.0 pullay stress

  Mass of Ions in am
   POMASS = 196.97106.42
  Ionic Valenz
   ZVAL   =  11.00 10.00
  Atomic Wigner-Seitz radii
   RWIGS  =  -1.00 -1.00
  virtual crystal weights 
   VCA    =   1.00  1.00
   NELECT =     504.0000    total number of electrons
   NUPDOWN=      -1.0000    fix difference up-down

 DOS related values:
   EMIN   =  10.00;   EMAX   =-10.00  energy-range for DOS
   EFERMI =   0.00
   ISMEAR =     0;   SIGMA  =   0.10  broadening in eV -4-tet -1-fermi 0-gaus

 Electronic relaxation 2 (details)
   IALGO  =     68    algorithm
   LDIAG  =      T    sub-space diagonalisation (order eigenvalues)
   LSUBROT=      F    optimize rotation matrix (better conditioning)
   TURBO    =      0    0=normal 1=particle mesh
   IRESTART =      0    0=no restart 2=restart with 2 vectors
   NREBOOT  =      0    no. of reboots
   NMIN     =      0    reboot dimension
   EREF     =   0.00    reference energy to select bands
   IMIX   =      4    mixing-type and parameters
     AMIX     =   0.40;   BMIX     =  1.00
     AMIX_MAG =   1.60;   BMIX_MAG =  1.00
     AMIN     =   0.10
     WC   =   100.;   INIMIX=   1;  MIXPRE=   1;  MAXMIX= -45

 Intra band minimization:
   WEIMIN = 0.0010     energy-eigenvalue tresh-hold
   EBREAK =  0.82E-09  absolut break condition
   DEPER  =   0.30     relativ break condition  

   TIME   =   0.40     timestep for ELM

  volume/ion in A,a.u.               =      53.49       360.99
  Fermi-wavevector in a.u.,A,eV,Ry     =   0.951418  1.797920 12.315955  0.905197
  Thomas-Fermi vector in A             =   2.079887
 
 Write flags
   LWAVE  =      F    write WAVECAR
   LCHARG =      F    write CHGCAR
   LVTOT  =      F    write LOCPOT, total local potential
   LVHAR  =      F    write LOCPOT, Hartree potential only
   LELF   =      F    write electronic localiz. function (ELF)
   LORBIT =      0    0 simple, 1 ext, 2 COOP (PROOUT)


 Dipole corrections
   LMONO  =      F    monopole corrections only (constant potential shift)
   LDIPOL =      T    correct potential (dipole corrections)
   IDIPOL =      3    1-x, 2-y, 3-z, 4-all directions 
   EPSILON=  1.0000000 bulk dielectric constant

 Exchange correlation treatment:
   GGA     =    PE    GGA type
   LEXCH   =     8    internal setting for exchange type
   VOSKOWN=      1    Vosko Wilk Nusair interpolation
   LHFCALC =     F    Hartree Fock is set to
   LHFONE  =     F    Hartree Fock one center treatment
   AEXX    =    0.0000 exact exchange contribution

 Linear response parameters
   LEPSILON=     F    determine dielectric tensor
   LRPA    =     F    only Hartree local field effects (RPA)
   LNABLA  =     F    use nabla operator in PAW spheres
   LVEL    =     F    velocity operator in full k-point grid
   LINTERFAST=   F  fast interpolation
   KINTER  =     0    interpolate to denser k-point grid
   CSHIFT  =0.1000    complex shift for real part using Kramers Kronig
   OMEGAMAX=  -1.0    maximum frequency
   DEG_THRESHOLD= 0.2000000E-02 threshold for treating states as degnerate
   RTIME   =    0.100 relaxation time in fs

 Orbital magnetization related:
   ORBITALMAG=     F  switch on orbital magnetization
   LCHIMAG   =     F  perturbation theory with respect to B field
   DQ        =  0.001000  dq finite difference perturbation B field



--------------------------------------------------------------------------------------------------------


 conjugate gradient relaxation of ions
   using selective dynamics as specified on POSCAR
   WARNING: If single coordinates had been selected the selection of coordinates
            is made according to the corresponding   d i r e c t   coordinates!
            Don't support selection of single cartesian coordinates -- sorry ...
  !
 charge density and potential will be updated during run
 non-spin polarized calculation
 RMM-DIIS sequential band-by-band and
  variant of blocked Davidson during initial phase
 perform sub-space diagonalisation
    before iterative eigenvector-optimisation
 modified Broyden-mixing scheme, WC =      100.0
 initial mixing is a Kerker type mixing with AMIX =  0.4000 and BMIX =      1.0000
 Hartree-type preconditioning will be used
 using additional bands           54
 real space projection scheme for non local part
 use partial core corrections
 calculate Harris-corrections to forces 
   (improved forces if not selfconsistent)
 use gradient corrections 
 use of overlap-Matrix (Vanderbilt PP)
 Gauss-broadening in eV      SIGMA  =   0.10


--------------------------------------------------------------------------------------------------------


  energy-cutoff  :      400.00
  volume of cell :     2567.68
      direct lattice vectors                 reciprocal lattice vectors
    11.002581515  0.000000000  0.000000000     0.090887761 -0.052474073  0.000000000
     5.501290758  9.528515099  0.000000000     0.000000000  0.104948147  0.000000000
     0.000000000  0.000000000 24.491785094     0.000000000  0.000000000  0.040830017

  length of vectors
    11.002581515 11.002581515 24.491785094     0.104948147  0.104948147  0.040830017


 
 k-points in units of 2pi/SCALE and weight: Automatic mesh                          
   0.02272194  0.01311852  0.00000000       0.167
   0.00000000  0.02623704  0.00000000       0.167
  -0.02272194  0.01311852  0.00000000       0.167
  -0.02272194  0.03935555  0.00000000       0.167
   0.04544388 -0.05247407  0.00000000       0.167
  -0.02272194  0.06559259  0.00000000       0.167
 
 k-points in reciprocal lattice and weights: Automatic mesh                          
   0.25000000  0.25000000  0.00000000       0.167
   0.00000000  0.25000000  0.00000000       0.167
  -0.25000000  0.00000000  0.00000000       0.167
  -0.25000000  0.25000000  0.00000000       0.167
   0.50000000 -0.25000000  0.00000000       0.167
  -0.25000000  0.50000000  0.00000000       0.167
 
 position of ions in fractional coordinates (direct lattice) 
   0.08333333  0.08333333  0.40830017
   0.75000000  0.25000000  0.59169983
   0.08333333  0.83333333  0.40830017
   0.00000000  0.50000000  0.59169983
   0.41666667  0.66666667  0.50000000
   0.83333333  0.58333333  0.40830017
   0.33333333  0.08333333  0.40830017
   0.08333333  0.33333333  0.40830017
   0.91666667  0.16666667  0.50000000
   0.75000000  0.50000000  0.59169983
   0.33333333  0.33333333  0.40830017
   0.16666667  0.16666667  0.50000000
   0.91666667  0.66666667  0.50000000
   0.58333333  0.58333333  0.40830017
   0.16666667  0.41666667  0.50000000
   0.25000000  0.25000000  0.59169983
   0.33333333  0.58333333  0.40830017
   0.16666667  0.66666667  0.50000000
   0.33333333  0.83333333  0.40830017
   0.16666667  0.91666667  0.50000000
   0.83333333  0.08333333  0.40830017
   0.50000000  0.75000000  0.59169983
   0.58333333  0.33333333  0.40830017
   0.83333333  0.33333333  0.40830017
   0.66666667  0.91666667  0.50000000
   0.25000000  0.50000000  0.59169983
   0.25000000  0.00000000  0.59169983
   0.00000000  0.75000000  0.59169983
   0.00000000  0.00000000  0.59169983
   0.08333333  0.58333333  0.40830017
   0.00000000  0.25000000  0.59169983
   0.91666667  0.41666667  0.50000000
   0.58333333  0.08333333  0.40830017
   0.91666667  0.91666667  0.50000000
   0.41666667  0.16666667  0.50000000
   0.50000000  0.50000000  0.59169983
   0.41666667  0.41666667  0.50000000
   0.25000000  0.75000000  0.59169983
   0.66666667  0.41666667  0.50000000
   0.58333333  0.83333333  0.40830017
   0.41666667  0.91666667  0.50000000
   0.83333333  0.83333333  0.40830017
   0.66666667  0.16666667  0.50000000
   0.66666667  0.66666667  0.50000000
   0.75000000  0.00000000  0.59169983
   0.50000000  0.25000000  0.59169983
   0.50000000  0.00000000  0.59169983
   0.75000000  0.75000000  0.59169983
 
 position of ions in cartesian coordinates  (Angst):
   1.37532269  0.79404292 10.00000000
   9.62725883  2.38212877 14.49178509
   5.50129076  7.94042925 10.00000000
   2.75064538  4.76425755 14.49178509
   8.25193614  6.35234340 12.24589255
  12.37790420  5.55830047 10.00000000
   4.12596807  0.79404292 10.00000000
   2.75064538  3.17617170 10.00000000
  11.00258152  1.58808585 12.24589255
  11.00258152  4.76425755 14.49178509
   5.50129076  3.17617170 10.00000000
   2.75064538  1.58808585 12.24589255
  13.75322689  6.35234340 12.24589255
   9.62725883  5.55830047 10.00000000
   4.12596807  3.97021462 12.24589255
   4.12596807  2.38212877 14.49178509
   6.87661345  5.55830047 10.00000000
   5.50129076  6.35234340 12.24589255
   8.25193614  7.94042925 10.00000000
   6.87661345  8.73447217 12.24589255
   9.62725883  0.79404292 10.00000000
   9.62725883  7.14638632 14.49178509
   8.25193614  3.17617170 10.00000000
  11.00258152  3.17617170 10.00000000
  12.37790420  8.73447217 12.24589255
   5.50129076  4.76425755 14.49178509
   2.75064538  0.00000000 14.49178509
   4.12596807  7.14638632 14.49178509
   0.00000000  0.00000000 14.49178509
   4.12596807  5.55830047 10.00000000
   1.37532269  2.38212877 14.49178509
  12.37790420  3.97021462 12.24589255
   6.87661345  0.79404292 10.00000000
  15.12854958  8.73447217 12.24589255
   5.50129076  1.58808585 12.24589255
   8.25193614  4.76425755 14.49178509
   6.87661345  3.97021462 12.24589255
   6.87661345  7.14638632 14.49178509
   9.62725883  3.97021462 12.24589255
  11.00258152  7.94042925 10.00000000
   9.62725883  8.73447217 12.24589255
  13.75322689  7.94042925 10.00000000
   8.25193614  1.58808585 12.24589255
  11.00258152  6.35234340 12.24589255
   8.25193614  0.00000000 14.49178509
   6.87661345  2.38212877 14.49178509
   5.50129076  0.00000000 14.49178509
  12.37790420  7.14638632 14.49178509
 


--------------------------------------------------------------------------------------------------------


 k-point  1 :   0.2500 0.2500 0.0000  plane waves:   46635
 k-point  2 :   0.0000 0.2500 0.0000  plane waves:   46635
 k-point  3 :  -0.2500 0.0000 0.0000  plane waves:   46635
 k-point  4 :  -0.2500 0.2500 0.0000  plane waves:   46644
 k-point  5 :   0.5000-0.2500 0.0000  plane waves:   46644
 k-point  6 :  -0.2500 0.5000 0.0000  plane waves:   46644

 maximum and minimum number of plane-waves per node :      7818     7732

 maximum number of plane-waves:     46644
 maximum index in each direction: 
   IXMAX=   18   IYMAX=   18   IZMAX=   39
   IXMIN=  -18   IYMIN=  -18   IZMIN=  -39

 WARNING: aliasing errors must be expected set NGX to  74 to avoid them
 WARNING: aliasing errors must be expected set NGY to  74 to avoid them
 WARNING: aliasing errors must be expected set NGZ to 158 to avoid them
 aliasing errors are usually negligible using standard VASP settings
 and one can safely disregard these warnings

 real space projection operators:
  total allocation   :      12803.06 KBytes
  max/ min on nodes  :       2145.66       2127.94


 parallel 3D FFT for wavefunctions:
    minimum data exchange during FFTs selected (reduces bandwidth)
 parallel 3D FFT for charge:
    minimum data exchange during FFTs selected (reduces bandwidth)


 total amount of memory used by VASP on root node    84353. kBytes
========================================================================

   base      :      30000. kBytes
   nonlr-proj:       4285. kBytes
   fftplans  :       4447. kBytes
   grid      :       6721. kBytes
   one-center:        124. kBytes
   wavefun   :      38776. kBytes
 
     INWAV:  cpu time    0.0000: real time    0.0001
 Broyden mixing: mesh for mixing (old mesh)
   NGX = 35   NGY = 35   NGZ = 79
  (NGX  =108   NGY  =108   NGZ  =240)
  gives a total of  96775 points

 initial charge density was supplied:
 charge density of overlapping atoms calculated
 number of electron     504.0000000 magnetization 
 keeping initial charge density in first step


--------------------------------------------------------------------------------------------------------


 Maximum index for non-local projection operator          355
 Maximum index for augmentation-charges          437 (set IRDMAX)


--------------------------------------------------------------------------------------------------------


 First call to EWALD:  gamma=   0.129
 Maximum number of real-space cells 4x 4x 2
 Maximum number of reciprocal cells 2x 2x 5

 FEWALD executed in parallel
    FEWALD:  cpu time    0.0025: real time    0.0025


----------------------------------------- Iteration    1(   1)  ---------------------------------------


    POTLOK:  cpu time    0.0470: real time    0.0473
    SETDIJ:  cpu time    0.0060: real time    0.0061
     EDDAV:  cpu time    7.4282: real time    7.4659
       DOS:  cpu time    0.0015: real time    0.0015
    --------------------------------------------
      LOOP:  cpu time    7.4854: real time    7.5275

 eigenvalue-minimisations  :  3672
 total energy-change (2. order) : 0.3199078E+04  (-0.1898013E+05)
 number of electron     504.0000000 magnetization 
 augmentation part      504.0000000 magnetization 

 DIPCOR: dipole corrections for dipol
 direction  3 min pos     1,
 dipolmoment           0.000000      0.000000      0.000005 electrons x Angstroem
 Tr[quadrupol]    -10256.305316

 energy correction for charged system         0.000000 eV
 dipol+quadrupol energy correction           -0.000000 eV
 added-field ion interaction          0.000006 eV  (added to PSCEN)


 Free energy of the ion-electron system (eV)
  ---------------------------------------------------
  alpha Z        PSCENC =       805.86937003
  Ewald energy   TEWEN  =    199962.38153804
  -Hartree energ DENC   =   -242376.62286151
  -exchange      EXHF   =         0.00000000
  -V(xc)+E(xc)   XCENC  =      -327.68972328
  PAW double counting   =     40340.05962942   -38292.62782345
  entropy T*S    EENTRO =        -0.13568468
  eigenvalues    EBANDS =      1428.05749398
  atomic energy  EATOM  =     41659.78587232
  Solvation  Ediel_sol  =         0.00000000
  ---------------------------------------------------
  free energy    TOTEN  =      3199.07781086 eV

  energy without entropy =     3199.21349555  energy(sigma->0) =     3199.14565320


--------------------------------------------------------------------------------------------------------




----------------------------------------- Iteration    1(   2)  ---------------------------------------


     EDDAV:  cpu time    8.8141: real time    8.9326
       DOS:  cpu time    0.0015: real time    0.0015
    --------------------------------------------
      LOOP:  cpu time    8.8164: real time    8.9370

 eigenvalue-minimisations  :  4392
 total energy-change (2. order) :-0.3184953E+04  (-0.2931517E+04)
 number of electron     504.0000000 magnetization 
 augmentation part      504.0000000 magnetization 

 DIPCOR: dipole corrections for dipol
 direction  3 min pos     1,
 dipolmoment           0.000000      0.000000      0.000005 electrons x Angstroem
 Tr[quadrupol]    -10256.305316

 energy correction for charged system         0.000000 eV
 dipol+quadrupol energy correction           -0.000000 eV
 added-field ion interaction          0.000006 eV  (added to PSCEN)


 Free energy of the ion-electron system (eV)
  ---------------------------------------------------
  alpha Z        PSCENC =       805.86937003
  Ewald energy   TEWEN  =    199962.38153804
  -Hartree energ DENC   =   -242376.62286151
  -exchange      EXHF   =         0.00000000
  -V(xc)+E(xc)   XCENC  =      -327.68972328
  PAW double counting   =     40340.05962942   -38292.62782345
  entropy T*S    EENTRO =        -0.13691063
  eigenvalues    EBANDS =     -1756.89433953
  atomic energy  EATOM  =     41659.78587232
  Solvation  Ediel_sol  =         0.00000000
  ---------------------------------------------------
  free energy    TOTEN  =        14.12475140 eV

  energy without entropy =       14.26166203  energy(sigma->0) =       14.19320672


--------------------------------------------------------------------------------------------------------




----------------------------------------- Iteration    1(   3)  ---------------------------------------


     EDDAV:  cpu time    8.4907: real time    8.5355
       DOS:  cpu time    0.0015: real time    0.0015
    --------------------------------------------
      LOOP:  cpu time    8.4931: real time    8.5414

 eigenvalue-minimisations  :  4128
 total energy-change (2. order) :-0.2160145E+03  (-0.2005755E+03)
 number of electron     504.0000000 magnetization 
 augmentation part      504.0000000 magnetization 

 DIPCOR: dipole corrections for dipol
 direction  3 min pos     1,
 dipolmoment           0.000000      0.000000      0.000005 electrons x Angstroem
 Tr[quadrupol]    -10256.305316

 energy correction for charged system         0.000000 eV
 dipol+quadrupol energy correction           -0.000000 eV
 added-field ion interaction          0.000006 eV  (added to PSCEN)


 Free energy of the ion-electron system (eV)
  ---------------------------------------------------
  alpha Z        PSCENC =       805.86937003
  Ewald energy   TEWEN  =    199962.38153804
  -Hartree energ DENC   =   -242376.62286151
  -exchange      EXHF   =         0.00000000
  -V(xc)+E(xc)   XCENC  =      -327.68972328
  PAW double counting   =     40340.05962942   -38292.62782345
  entropy T*S    EENTRO =        -0.17295539
  eigenvalues    EBANDS =     -1972.87284122
  atomic energy  EATOM  =     41659.78587232
  Solvation  Ediel_sol  =         0.00000000
  ---------------------------------------------------
  free energy    TOTEN  =      -201.88979505 eV

  energy without entropy =     -201.71683966  energy(sigma->0) =     -201.80331735


--------------------------------------------------------------------------------------------------------




----------------------------------------- Iteration    1(   4)  ---------------------------------------


     EDDAV:  cpu time    8.6272: real time    8.6712
       DOS:  cpu time    0.0016: real time    0.0016
    --------------------------------------------
      LOOP:  cpu time    8.6298: real time    8.6785

 eigenvalue-minimisations  :  4212
 total energy-change (2. order) :-0.5842525E+01  (-0.5770469E+01)
 number of electron     504.0000000 magnetization 
 augmentation part      504.0000000 magnetization 

 DIPCOR: dipole corrections for dipol
 direction  3 min pos     1,
 dipolmoment           0.000000      0.000000      0.000005 electrons x Angstroem
 Tr[quadrupol]    -10256.305316

 energy correction for charged system         0.000000 eV
 dipol+quadrupol energy correction           -0.000000 eV
 added-field ion interaction          0.000006 eV  (added to PSCEN)


 Free energy of the ion-electron system (eV)
  ---------------------------------------------------
  alpha Z        PSCENC =       805.86937003
  Ewald energy   TEWEN  =    199962.38153804
  -Hartree energ DENC   =   -242376.62286151
  -exchange      EXHF   =         0.00000000
  -V(xc)+E(xc)   XCENC  =      -327.68972328
  PAW double counting   =     40340.05962942   -38292.62782345
  entropy T*S    EENTRO =        -0.18351054
  eigenvalues    EBANDS =     -1978.70481134
  atomic energy  EATOM  =     41659.78587232
  Solvation  Ediel_sol  =         0.00000000
  ---------------------------------------------------
  free energy    TOTEN  =      -207.73232031 eV

  energy without entropy =     -207.54880977  energy(sigma->0) =     -207.64056504


--------------------------------------------------------------------------------------------------------




----------------------------------------- Iteration    1(   5)  ---------------------------------------


     EDDAV:  cpu time    8.9084: real time    8.9568
       DOS:  cpu time    0.0015: real time    0.0015
    CHARGE:  cpu time    0.2395: real time    0.2405
    MIXING:  cpu time    0.0022: real time    0.0024
    --------------------------------------------
      LOOP:  cpu time    9.1525: real time    9.2045

 eigenvalue-minimisations  :  4404
 total energy-change (2. order) :-0.2012942E+00  (-0.2005987E+00)
 number of electron     503.9998402 magnetization 
 augmentation part      191.3124752 magnetization 

 DIPCOR: dipole corrections for dipol
 direction  3 min pos     1,
 dipolmoment           0.000000      0.000000      0.000005 electrons x Angstroem
 Tr[quadrupol]    -10256.305316

 energy correction for charged system         0.000000 eV
 dipol+quadrupol energy correction           -0.000000 eV
 added-field ion interaction          0.000006 eV  (added to PSCEN)


 Broyden mixing:
  rms(total) = 0.62505E+01    rms(broyden)= 0.62504E+01
  rms(prec ) = 0.64480E+01
  weight for this iteration     100.00

 Free energy of the ion-electron system (eV)
  ---------------------------------------------------
  alpha Z        PSCENC =       805.86937003
  Ewald energy   TEWEN  =    199962.38153804
  -Hartree energ DENC   =   -242376.62286151
  -exchange      EXHF   =         0.00000000
  -V(xc)+E(xc)   XCENC  =      -327.68972328
  PAW double counting   =     40340.05962942   -38292.62782345
  entropy T*S    EENTRO =        -0.18341089
  eigenvalues    EBANDS =     -1978.90620518
  atomic energy  EATOM  =     41659.78587232
  Solvation  Ediel_sol  =         0.00000000
  ---------------------------------------------------
  free energy    TOTEN  =      -207.93361450 eV

  energy without entropy =     -207.75020361  energy(sigma->0) =     -207.84190905


--------------------------------------------------------------------------------------------------------




----------------------------------------- Iteration    1(   6)  ---------------------------------------


    POTLOK:  cpu time    0.0434: real time    0.0437
    SETDIJ:  cpu time    0.0054: real time    0.0054
    EDDIAG:  cpu time    1.3519: real time    1.3581
  RMM-DIIS:  cpu time    3.5690: real time    3.5858
    ORTHCH:  cpu time    0.3836: real time    0.3854
       DOS:  cpu time    0.0014: real time    0.0014
    CHARGE:  cpu time    0.2448: real time    0.2460
    MIXING:  cpu time    0.0020: real time    0.0020
    --------------------------------------------
      LOOP:  cpu time    5.6022: real time    5.6303

 eigenvalue-minimisations  :  3677
 total energy-change (2. order) :-0.1902582E+02  (-0.1268689E+02)
 number of electron     503.9998457 magnetization 
 augmentation part      188.3077601 magnetization 

 DIPCOR: dipole corrections for dipol
 direction  3 min pos     1,
 dipolmoment           0.000000      0.000000      2.330653 electrons x Angstroem
 Tr[quadrupol]    -10258.370153

 energy correction for charged system         0.000000 eV
 dipol+quadrupol energy correction           -0.191407 eV
 added-field ion interaction          2.582246 eV  (added to PSCEN)


 Broyden mixing:
  rms(total) = 0.70564E+01    rms(broyden)= 0.70563E+01
  rms(prec ) = 0.79551E+01
  weight for this iteration     100.00

 eigenvalues of (default mixing * dielectric matrix)
  average eigenvalue GAMMA=   0.3654
  0.3654

 Free energy of the ion-electron system (eV)
  ---------------------------------------------------
  alpha Z        PSCENC =       808.26020314
  Ewald energy   TEWEN  =    199962.38153804
  -Hartree energ DENC   =   -242142.37431380
  -exchange      EXHF   =         0.00000000
  -V(xc)+E(xc)   XCENC  =      -340.40862776
  PAW double counting   =     43908.89879584   -41920.87946689
  entropy T*S    EENTRO =        -0.22375261
  eigenvalues    EBANDS =     -2162.39968236
  atomic energy  EATOM  =     41659.78587232
  Solvation  Ediel_sol  =         0.00000000
  ---------------------------------------------------
  free energy    TOTEN  =      -226.95943409 eV

  energy without entropy =     -226.73568148  energy(sigma->0) =     -226.84755779


--------------------------------------------------------------------------------------------------------




----------------------------------------- Iteration    1(   7)  ---------------------------------------


    POTLOK:  cpu time    0.0427: real time    0.0430
    SETDIJ:  cpu time    0.0055: real time    0.0056
    EDDIAG:  cpu time    1.3511: real time    1.3797
  RMM-DIIS:  cpu time    3.5185: real time    3.5973
    ORTHCH:  cpu time    0.3868: real time    0.3887
       DOS:  cpu time    0.0016: real time    0.0016
    CHARGE:  cpu time    0.2403: real time    0.2415
    MIXING:  cpu time    0.0021: real time    0.0021
    --------------------------------------------
      LOOP:  cpu time    5.5493: real time    5.6620

 eigenvalue-minimisations  :  3680
 total energy-change (2. order) : 0.2160551E+02  (-0.5077786E+01)
 number of electron     503.9998382 magnetization 
 augmentation part      194.4472267 magnetization 

 DIPCOR: dipole corrections for dipol
 direction  3 min pos     1,
 dipolmoment           0.000000      0.000000     -0.548683 electrons x Angstroem
 Tr[quadrupol]    -10257.730182

 energy correction for charged system         0.000000 eV
 dipol+quadrupol energy correction           -0.010608 eV
 added-field ion interaction         -0.607913 eV  (added to PSCEN)


 Broyden mixing:
  rms(total) = 0.49144E+01    rms(broyden)= 0.49141E+01
  rms(prec ) = 0.54613E+01
  weight for this iteration     100.00

 eigenvalues of (default mixing * dielectric matrix)
  average eigenvalue GAMMA=   0.6128
  0.9496  0.2760

 Free energy of the ion-electron system (eV)
  ---------------------------------------------------
  alpha Z        PSCENC =       805.25084327
  Ewald energy   TEWEN  =    199962.38153804
  -Hartree energ DENC   =   -242049.10646090
  -exchange      EXHF   =         0.00000000
  -V(xc)+E(xc)   XCENC  =      -342.29765322
  PAW double counting   =     44614.85517924   -42643.47938425
  entropy T*S    EENTRO =        -0.21343979
  eigenvalues    EBANDS =     -2212.53041722
  atomic energy  EATOM  =     41659.78587232
  Solvation  Ediel_sol  =         0.00000000
  ---------------------------------------------------
  free energy    TOTEN  =      -205.35392252 eV

  energy without entropy =     -205.14048273  energy(sigma->0) =     -205.24720263


--------------------------------------------------------------------------------------------------------




----------------------------------------- Iteration    1(   8)  ---------------------------------------


    POTLOK:  cpu time    0.0418: real time    0.0420
    SETDIJ:  cpu time    0.0063: real time    0.0063
    EDDIAG:  cpu time    1.3512: real time    1.3579
  RMM-DIIS:  cpu time    3.5077: real time    3.5290
    ORTHCH:  cpu time    0.3816: real time    0.3835
       DOS:  cpu time    0.0016: real time    0.0016
    CHARGE:  cpu time    0.2474: real time    0.2488
    MIXING:  cpu time    0.0019: real time    0.0019
    --------------------------------------------
      LOOP:  cpu time    5.5401: real time    5.5753

 eigenvalue-minimisations  :  3673
 total energy-change (2. order) :-0.1072569E+02  (-0.9439311E+01)
 number of electron     503.9998366 magnetization 
 augmentation part      195.9603374 magnetization 

 DIPCOR: dipole corrections for dipol
 direction  3 min pos     1,
 dipolmoment           0.000000      0.000000      1.436500 electrons x Angstroem
 Tr[quadrupol]    -10256.921983

 energy correction for charged system         0.000000 eV
 dipol+quadrupol energy correction           -0.072713 eV
 added-field ion interaction          1.591569 eV  (added to PSCEN)


 Broyden mixing:
  rms(total) = 0.44928E+01    rms(broyden)= 0.44925E+01
  rms(prec ) = 0.51472E+01
  weight for this iteration     100.00

 eigenvalues of (default mixing * dielectric matrix)
  average eigenvalue GAMMA=   0.7676
  1.6700  0.4235  0.2092

 Free energy of the ion-electron system (eV)
  ---------------------------------------------------
  alpha Z        PSCENC =       807.38822021
  Ewald energy   TEWEN  =    199962.38153804
  -Hartree energ DENC   =   -241949.62362656
  -exchange      EXHF   =         0.00000000
  -V(xc)+E(xc)   XCENC  =      -343.95300506
  PAW double counting   =     46073.55766578   -44126.14513357
  entropy T*S    EENTRO =        -0.31489403
  eigenvalues    EBANDS =     -2299.15624686
  atomic energy  EATOM  =     41659.78587232
  Solvation  Ediel_sol  =         0.00000000
  ---------------------------------------------------
  free energy    TOTEN  =      -216.07960973 eV

  energy without entropy =     -215.76471570  energy(sigma->0) =     -215.92216271


--------------------------------------------------------------------------------------------------------




----------------------------------------- Iteration    1(   9)  ---------------------------------------


    POTLOK:  cpu time    0.0423: real time    0.0429
    SETDIJ:  cpu time    0.0053: real time    0.0053
    EDDIAG:  cpu time    1.3506: real time    1.3591
  RMM-DIIS:  cpu time    3.6009: real time    3.6199
    ORTHCH:  cpu time    0.3816: real time    0.3834
       DOS:  cpu time    0.0016: real time    0.0016
    CHARGE:  cpu time    0.2421: real time    0.2433
    MIXING:  cpu time    0.0022: real time    0.0022
    --------------------------------------------
      LOOP:  cpu time    5.6271: real time    5.6609

 eigenvalue-minimisations  :  3680
 total energy-change (2. order) :-0.1119800E+02  (-0.5209479E+01)
 number of electron     503.9998351 magnetization 
 augmentation part      196.2058245 magnetization 

 DIPCOR: dipole corrections for dipol
 direction  3 min pos     1,
 dipolmoment           0.000000      0.000000     -0.175881 electrons x Angstroem
 Tr[quadrupol]    -10258.477386

 energy correction for charged system         0.000000 eV
 dipol+quadrupol energy correction           -0.001090 eV
 added-field ion interaction         -0.194868 eV  (added to PSCEN)


 Broyden mixing:
  rms(total) = 0.51808E+01    rms(broyden)= 0.51805E+01
  rms(prec ) = 0.59188E+01
  weight for this iteration     100.00

 eigenvalues of (default mixing * dielectric matrix)
  average eigenvalue GAMMA=   0.7431
  2.0410  0.4281  0.2517  0.2517

 Free energy of the ion-electron system (eV)
  ---------------------------------------------------
  alpha Z        PSCENC =       805.67340675
  Ewald energy   TEWEN  =    199962.38153804
  -Hartree energ DENC   =   -241966.96231636
  -exchange      EXHF   =         0.00000000
  -V(xc)+E(xc)   XCENC  =      -345.32473614
  PAW double counting   =     47754.96792591   -45831.04991646
  entropy T*S    EENTRO =        -0.13798242
  eigenvalues    EBANDS =     -2266.61140223
  atomic energy  EATOM  =     41659.78587232
  Solvation  Ediel_sol  =         0.00000000
  ---------------------------------------------------
  free energy    TOTEN  =      -227.27761059 eV

  energy without entropy =     -227.13962817  energy(sigma->0) =     -227.20861938


--------------------------------------------------------------------------------------------------------




----------------------------------------- Iteration    1(  10)  ---------------------------------------


    POTLOK:  cpu time    0.0423: real time    0.0425
    SETDIJ:  cpu time    0.0053: real time    0.0053
    EDDIAG:  cpu time    1.3514: real time    1.3599
  RMM-DIIS:  cpu time    3.5878: real time    3.6070
    ORTHCH:  cpu time    0.3817: real time    0.3835
       DOS:  cpu time    0.0016: real time    0.0016
    CHARGE:  cpu time    0.2397: real time    0.2408
    MIXING:  cpu time    0.0022: real time    0.0022
    --------------------------------------------
      LOOP:  cpu time    5.6127: real time    5.6454

 eigenvalue-minimisations  :  3681
 total energy-change (2. order) : 0.2276572E+02  (-0.3341175E+01)
 number of electron     503.9998339 magnetization 
 augmentation part      198.6797432 magnetization 

 DIPCOR: dipole corrections for dipol
 direction  3 min pos     1,
 dipolmoment           0.000000      0.000000      0.464793 electrons x Angstroem
 Tr[quadrupol]    -10258.472134

 energy correction for charged system         0.000000 eV
 dipol+quadrupol energy correction           -0.007612 eV
 added-field ion interaction          0.514968 eV  (added to PSCEN)


 Broyden mixing:
  rms(total) = 0.24091E+01    rms(broyden)= 0.24088E+01
  rms(prec ) = 0.27280E+01
  weight for this iteration     100.00

 eigenvalues of (default mixing * dielectric matrix)
  average eigenvalue GAMMA=   0.7295
  2.1094  0.5406  0.5406  0.2285  0.2285

 Free energy of the ion-electron system (eV)
  ---------------------------------------------------
  alpha Z        PSCENC =       806.37671955
  Ewald energy   TEWEN  =    199962.38153804
  -Hartree energ DENC   =   -241955.81260072
  -exchange      EXHF   =         0.00000000
  -V(xc)+E(xc)   XCENC  =      -345.90734469
  PAW double counting   =     48721.91146849   -46811.11263301
  entropy T*S    EENTRO =        -0.18302538
  eigenvalues    EBANDS =     -2241.95188707
  atomic energy  EATOM  =     41659.78587232
  Solvation  Ediel_sol  =         0.00000000
  ---------------------------------------------------
  free energy    TOTEN  =      -204.51189247 eV

  energy without entropy =     -204.32886708  energy(sigma->0) =     -204.42037977


--------------------------------------------------------------------------------------------------------




----------------------------------------- Iteration    1(  11)  ---------------------------------------


    POTLOK:  cpu time    0.0411: real time    0.0413
    SETDIJ:  cpu time    0.0054: real time    0.0055
    EDDIAG:  cpu time    1.3547: real time    1.3610
  RMM-DIIS:  cpu time    3.5696: real time    3.5862
    ORTHCH:  cpu time    0.3827: real time    0.3845
       DOS:  cpu time    0.0016: real time    0.0016
    CHARGE:  cpu time    0.2371: real time    0.2382
    MIXING:  cpu time    0.0023: real time    0.0023
    --------------------------------------------
      LOOP:  cpu time    5.5953: real time    5.6234

 eigenvalue-minimisations  :  3680
 total energy-change (2. order) : 0.8127897E+01  (-0.1968205E+01)
 number of electron     503.9998348 magnetization 
 augmentation part      198.3181082 magnetization 

 DIPCOR: dipole corrections for dipol
 direction  3 min pos     1,
 dipolmoment           0.000000      0.000000      0.397123 electrons x Angstroem
 Tr[quadrupol]    -10258.212650

 energy correction for charged system         0.000000 eV
 dipol+quadrupol energy correction           -0.005557 eV
 added-field ion interaction          0.439992 eV  (added to PSCEN)


 Broyden mixing:
  rms(total) = 0.19767E+01    rms(broyden)= 0.19764E+01
  rms(prec ) = 0.23337E+01
  weight for this iteration     100.00

 eigenvalues of (default mixing * dielectric matrix)
  average eigenvalue GAMMA=   0.7139
  2.2387  0.6422  0.6422  0.2803  0.2400  0.2400

 Free energy of the ion-electron system (eV)
  ---------------------------------------------------
  alpha Z        PSCENC =       806.30379961
  Ewald energy   TEWEN  =    199962.38153804
  -Hartree energ DENC   =   -241962.92232232
  -exchange      EXHF   =         0.00000000
  -V(xc)+E(xc)   XCENC  =      -345.52587575
  PAW double counting   =     48954.70045359   -47043.87036097
  entropy T*S    EENTRO =        -0.16843334
  eigenvalues    EBANDS =     -2227.06866700
  atomic energy  EATOM  =     41659.78587232
  Solvation  Ediel_sol  =         0.00000000
  ---------------------------------------------------
  free energy    TOTEN  =      -196.38399582 eV

  energy without entropy =     -196.21556247  energy(sigma->0) =     -196.29977914


--------------------------------------------------------------------------------------------------------




----------------------------------------- Iteration    1(  12)  ---------------------------------------


    POTLOK:  cpu time    0.0426: real time    0.0428
    SETDIJ:  cpu time    0.0055: real time    0.0055
    EDDIAG:  cpu time    1.3501: real time    1.3581
  RMM-DIIS:  cpu time    3.5251: real time    3.5741
    ORTHCH:  cpu time    0.3817: real time    0.3834
       DOS:  cpu time    0.0015: real time    0.0015
    CHARGE:  cpu time    0.2421: real time    0.2432
    MIXING:  cpu time    0.0025: real time    0.0025
    --------------------------------------------
      LOOP:  cpu time    5.5517: real time    5.6142

 eigenvalue-minimisations  :  3680
 total energy-change (2. order) : 0.6362721E+01  (-0.7667169E+00)
 number of electron     503.9998354 magnetization 
 augmentation part      198.0500113 magnetization 

 DIPCOR: dipole corrections for dipol
 direction  3 min pos     1,
 dipolmoment           0.000000      0.000000      0.263805 electrons x Angstroem
 Tr[quadrupol]    -10258.751074

 energy correction for charged system         0.000000 eV
 dipol+quadrupol energy correction           -0.002452 eV
 added-field ion interaction          0.292283 eV  (added to PSCEN)


 Broyden mixing:
  rms(total) = 0.12058E+01    rms(broyden)= 0.12056E+01
  rms(prec ) = 0.13618E+01
  weight for this iteration     100.00

 eigenvalues of (default mixing * dielectric matrix)
  average eigenvalue GAMMA=   0.6630
  2.2463  0.6100  0.6100  0.4325  0.2430  0.2430  0.2561

 Free energy of the ion-electron system (eV)
  ---------------------------------------------------
  alpha Z        PSCENC =       806.15919477
  Ewald energy   TEWEN  =    199962.38153804
  -Hartree energ DENC   =   -241999.64814881
  -exchange      EXHF   =         0.00000000
  -V(xc)+E(xc)   XCENC  =      -345.11865692
  PAW double counting   =     49222.73982527   -47311.59177942
  entropy T*S    EENTRO =        -0.18510416
  eigenvalues    EBANDS =     -2184.54401594
  atomic energy  EATOM  =     41659.78587232
  Solvation  Ediel_sol  =         0.00000000
  ---------------------------------------------------
  free energy    TOTEN  =      -190.02127485 eV

  energy without entropy =     -189.83617069  energy(sigma->0) =     -189.92872277


--------------------------------------------------------------------------------------------------------




----------------------------------------- Iteration    1(  13)  ---------------------------------------


    POTLOK:  cpu time    0.0415: real time    0.0416
    SETDIJ:  cpu time    0.0055: real time    0.0055
    EDDIAG:  cpu time    1.3501: real time    1.3570
  RMM-DIIS:  cpu time    3.5388: real time    3.5564
    ORTHCH:  cpu time    0.3785: real time    0.3803
       DOS:  cpu time    0.0016: real time    0.0016
    CHARGE:  cpu time    0.2389: real time    0.2400
    MIXING:  cpu time    0.0028: real time    0.0028
    --------------------------------------------
      LOOP:  cpu time    5.5583: real time    5.5880

 eigenvalue-minimisations  :  3681
 total energy-change (2. order) : 0.5388281E+00  (-0.1745155E+00)
 number of electron     503.9998356 magnetization 
 augmentation part      197.8566209 magnetization 

 DIPCOR: dipole corrections for dipol
 direction  3 min pos     1,
 dipolmoment           0.000000      0.000000      0.228625 electrons x Angstroem
 Tr[quadrupol]    -10259.078855

 energy correction for charged system         0.000000 eV
 dipol+quadrupol energy correction           -0.001842 eV
 added-field ion interaction          0.253305 eV  (added to PSCEN)


 Broyden mixing:
  rms(total) = 0.86696E+00    rms(broyden)= 0.86678E+00
  rms(prec ) = 0.95561E+00
  weight for this iteration     100.00

 eigenvalues of (default mixing * dielectric matrix)
  average eigenvalue GAMMA=   0.6666
  2.2063  0.7819  0.7819  0.5793  0.2505  0.2505  0.2413  0.2413

 Free energy of the ion-electron system (eV)
  ---------------------------------------------------
  alpha Z        PSCENC =       806.12082716
  Ewald energy   TEWEN  =    199962.38153804
  -Hartree energ DENC   =   -242018.08188039
  -exchange      EXHF   =         0.00000000
  -V(xc)+E(xc)   XCENC  =      -344.94733703
  PAW double counting   =     49254.40367077   -47342.21614889
  entropy T*S    EENTRO =        -0.23178037
  eigenvalues    EBANDS =     -2166.69720839
  atomic energy  EATOM  =     41659.78587232
  Solvation  Ediel_sol  =         0.00000000
  ---------------------------------------------------
  free energy    TOTEN  =      -189.48244678 eV

  energy without entropy =     -189.25066641  energy(sigma->0) =     -189.36655659


--------------------------------------------------------------------------------------------------------




----------------------------------------- Iteration    1(  14)  ---------------------------------------


    POTLOK:  cpu time    0.0425: real time    0.0433
    SETDIJ:  cpu time    0.0058: real time    0.0058
    EDDIAG:  cpu time    1.3494: real time    1.3577
  RMM-DIIS:  cpu time    3.5255: real time    3.6330
    ORTHCH:  cpu time    0.3782: real time    0.3800
       DOS:  cpu time    0.0017: real time    0.0017
    CHARGE:  cpu time    0.2411: real time    0.2422
    MIXING:  cpu time    0.0030: real time    0.0030
    --------------------------------------------
      LOOP:  cpu time    5.5481: real time    5.6714

 eigenvalue-minimisations  :  3681
 total energy-change (2. order) : 0.5108464E+00  (-0.4407643E-01)
 number of electron     503.9998357 magnetization 
 augmentation part      197.6739677 magnetization 

 DIPCOR: dipole corrections for dipol
 direction  3 min pos     1,
 dipolmoment           0.000000      0.000000      0.198293 electrons x Angstroem
 Tr[quadrupol]    -10259.197809

 energy correction for charged system         0.000000 eV
 dipol+quadrupol energy correction           -0.001386 eV
 added-field ion interaction          0.219699 eV  (added to PSCEN)


 Broyden mixing:
  rms(total) = 0.67765E+00    rms(broyden)= 0.67762E+00
  rms(prec ) = 0.72924E+00
  weight for this iteration     100.00

 eigenvalues of (default mixing * dielectric matrix)
  average eigenvalue GAMMA=   0.6762
  2.1952  0.9677  0.9677  0.4808  0.3839  0.3839  0.2406  0.2406  0.2252

 Free energy of the ion-electron system (eV)
  ---------------------------------------------------
  alpha Z        PSCENC =       806.08767764
  Ewald energy   TEWEN  =    199962.38153804
  -Hartree energ DENC   =   -242032.94308394
  -exchange      EXHF   =         0.00000000
  -V(xc)+E(xc)   XCENC  =      -344.60135987
  PAW double counting   =     49241.24875692   -47326.67180874
  entropy T*S    EENTRO =        -0.23272920
  eigenvalues    EBANDS =     -2154.02646360
  atomic energy  EATOM  =     41659.78587232
  Solvation  Ediel_sol  =         0.00000000
  ---------------------------------------------------
  free energy    TOTEN  =      -188.97160042 eV

  energy without entropy =     -188.73887122  energy(sigma->0) =     -188.85523582


--------------------------------------------------------------------------------------------------------




----------------------------------------- Iteration    1(  15)  ---------------------------------------


    POTLOK:  cpu time    0.0419: real time    0.0421
    SETDIJ:  cpu time    0.0056: real time    0.0056
    EDDIAG:  cpu time    1.3636: real time    1.3699
  RMM-DIIS:  cpu time    3.5746: real time    3.5917
    ORTHCH:  cpu time    0.3786: real time    0.3805
       DOS:  cpu time    0.0016: real time    0.0016
    CHARGE:  cpu time    0.2367: real time    0.2377
    MIXING:  cpu time    0.0027: real time    0.0027
    --------------------------------------------
      LOOP:  cpu time    5.6061: real time    5.6344

 eigenvalue-minimisations  :  3680
 total energy-change (2. order) : 0.6327420E-01  (-0.4675222E-01)
 number of electron     503.9998360 magnetization 
 augmentation part      197.4758766 magnetization 

 DIPCOR: dipole corrections for dipol
 direction  3 min pos     1,
 dipolmoment           0.000000      0.000000      0.233891 electrons x Angstroem
 Tr[quadrupol]    -10259.491823

 energy correction for charged system         0.000000 eV
 dipol+quadrupol energy correction           -0.001928 eV
 added-field ion interaction          0.259140 eV  (added to PSCEN)


 Broyden mixing:
  rms(total) = 0.57465E+00    rms(broyden)= 0.57461E+00
  rms(prec ) = 0.64590E+00
  weight for this iteration     100.00

 eigenvalues of (default mixing * dielectric matrix)
  average eigenvalue GAMMA=   0.7597
  2.1601  1.4161  1.4161  0.6606  0.6606  0.3121  0.2458  0.2458  0.2401  0.2401

 Free energy of the ion-electron system (eV)
  ---------------------------------------------------
  alpha Z        PSCENC =       806.12657620
  Ewald energy   TEWEN  =    199962.38153804
  -Hartree energ DENC   =   -242049.32048084
  -exchange      EXHF   =         0.00000000
  -V(xc)+E(xc)   XCENC  =      -344.38626268
  PAW double counting   =     49250.99711264   -47334.71249930
  entropy T*S    EENTRO =        -0.23103112
  eigenvalues    EBANDS =     -2139.54915149
  atomic energy  EATOM  =     41659.78587232
  Solvation  Ediel_sol  =         0.00000000
  ---------------------------------------------------
  free energy    TOTEN  =      -188.90832622 eV

  energy without entropy =     -188.67729510  energy(sigma->0) =     -188.79281066


--------------------------------------------------------------------------------------------------------




----------------------------------------- Iteration    1(  16)  ---------------------------------------


    POTLOK:  cpu time    0.0411: real time    0.0413
    SETDIJ:  cpu time    0.0054: real time    0.0054
    EDDIAG:  cpu time    1.3515: real time    1.3597
  RMM-DIIS:  cpu time    3.5917: real time    3.6084
    ORTHCH:  cpu time    0.3784: real time    0.3801
       DOS:  cpu time    0.0016: real time    0.0016
    CHARGE:  cpu time    0.2438: real time    0.2449
    MIXING:  cpu time    0.0030: real time    0.0030
    --------------------------------------------
      LOOP:  cpu time    5.6172: real time    5.6467

 eigenvalue-minimisations  :  3681
 total energy-change (2. order) : 0.2217824E+00  (-0.4618304E-01)
 number of electron     503.9998363 magnetization 
 augmentation part      197.1269048 magnetization 

 DIPCOR: dipole corrections for dipol
 direction  3 min pos     1,
 dipolmoment           0.000000      0.000000      0.247022 electrons x Angstroem
 Tr[quadrupol]    -10259.992527

 energy correction for charged system         0.000000 eV
 dipol+quadrupol energy correction           -0.002150 eV
 added-field ion interaction          0.273687 eV  (added to PSCEN)


 Broyden mixing:
  rms(total) = 0.43755E+00    rms(broyden)= 0.43749E+00
  rms(prec ) = 0.51045E+00
  weight for this iteration     100.00

 eigenvalues of (default mixing * dielectric matrix)
  average eigenvalue GAMMA=   0.7493
  2.1057  1.5278  1.5278  0.6527  0.6527  0.4928  0.2420  0.2420  0.2870  0.2870
  0.2249

 Free energy of the ion-electron system (eV)
  ---------------------------------------------------
  alpha Z        PSCENC =       806.14090158
  Ewald energy   TEWEN  =    199962.38153804
  -Hartree energ DENC   =   -242078.74164332
  -exchange      EXHF   =         0.00000000
  -V(xc)+E(xc)   XCENC  =      -343.94642265
  PAW double counting   =     49283.38046255   -47363.65779624
  entropy T*S    EENTRO =        -0.24035650
  eigenvalues    EBANDS =     -2113.78909957
  atomic energy  EATOM  =     41659.78587232
  Solvation  Ediel_sol  =         0.00000000
  ---------------------------------------------------
  free energy    TOTEN  =      -188.68654379 eV

  energy without entropy =     -188.44618729  energy(sigma->0) =     -188.56636554


--------------------------------------------------------------------------------------------------------




----------------------------------------- Iteration    1(  17)  ---------------------------------------


    POTLOK:  cpu time    0.0413: real time    0.0416
    SETDIJ:  cpu time    0.0059: real time    0.0060
    EDDIAG:  cpu time    1.3509: real time    1.3573
  RMM-DIIS:  cpu time    3.5456: real time    3.5641
    ORTHCH:  cpu time    0.3776: real time    0.3793
       DOS:  cpu time    0.0016: real time    0.0016
    CHARGE:  cpu time    0.2390: real time    0.2400
    MIXING:  cpu time    0.0031: real time    0.0032
    --------------------------------------------
      LOOP:  cpu time    5.5658: real time    5.5971

 eigenvalue-minimisations  :  3679
 total energy-change (2. order) : 0.1245184E+00  (-0.3684753E-01)
 number of electron     503.9998365 magnetization 
 augmentation part      196.9916576 magnetization 

 DIPCOR: dipole corrections for dipol
 direction  3 min pos     1,
 dipolmoment           0.000000      0.000000      0.234470 electrons x Angstroem
 Tr[quadrupol]    -10260.214504

 energy correction for charged system         0.000000 eV
 dipol+quadrupol energy correction           -0.001937 eV
 added-field ion interaction          0.259781 eV  (added to PSCEN)


 Broyden mixing:
  rms(total) = 0.35191E+00    rms(broyden)= 0.35184E+00
  rms(prec ) = 0.42280E+00
  weight for this iteration     100.00

 eigenvalues of (default mixing * dielectric matrix)
  average eigenvalue GAMMA=   0.7532
  2.2295  1.5245  1.5245  0.7447  0.7447  0.7321  0.2432  0.2432  0.2942  0.2942
  0.2320  0.2320

 Free energy of the ion-electron system (eV)
  ---------------------------------------------------
  alpha Z        PSCENC =       806.12720815
  Ewald energy   TEWEN  =    199962.38153804
  -Hartree energ DENC   =   -242092.25577964
  -exchange      EXHF   =         0.00000000
  -V(xc)+E(xc)   XCENC  =      -343.71838088
  PAW double counting   =     49301.82669419   -47380.58757331
  entropy T*S    EENTRO =        -0.22758961
  eigenvalues    EBANDS =     -2101.89401463
  atomic energy  EATOM  =     41659.78587232
  Solvation  Ediel_sol  =         0.00000000
  ---------------------------------------------------
  free energy    TOTEN  =      -188.56202536 eV

  energy without entropy =     -188.33443575  energy(sigma->0) =     -188.44823056


--------------------------------------------------------------------------------------------------------




----------------------------------------- Iteration    1(  18)  ---------------------------------------


    POTLOK:  cpu time    0.0418: real time    0.0420
    SETDIJ:  cpu time    0.0053: real time    0.0053
    EDDIAG:  cpu time    1.3556: real time    1.3629
  RMM-DIIS:  cpu time    3.6253: real time    3.6425
    ORTHCH:  cpu time    0.3779: real time    0.3797
       DOS:  cpu time    0.0016: real time    0.0016
    CHARGE:  cpu time    0.2391: real time    0.2401
    MIXING:  cpu time    0.0033: real time    0.0033
    --------------------------------------------
      LOOP:  cpu time    5.6505: real time    5.6809

 eigenvalue-minimisations  :  3679
 total energy-change (2. order) : 0.1175906E+00  (-0.1313785E-01)
 number of electron     503.9998364 magnetization 
 augmentation part      196.9999246 magnetization 

 DIPCOR: dipole corrections for dipol
 direction  3 min pos     1,
 dipolmoment           0.000000      0.000000      0.172288 electrons x Angstroem
 Tr[quadrupol]    -10260.475794

 energy correction for charged system         0.000000 eV
 dipol+quadrupol energy correction           -0.001046 eV
 added-field ion interaction          0.190886 eV  (added to PSCEN)


 Broyden mixing:
  rms(total) = 0.15636E+00    rms(broyden)= 0.15625E+00
  rms(prec ) = 0.17830E+00
  weight for this iteration     100.00

 eigenvalues of (default mixing * dielectric matrix)
  average eigenvalue GAMMA=   0.7294
  2.2950  1.5017  1.5017  0.7780  0.7780  0.7712  0.3228  0.3228  0.2432  0.2432
  0.2705  0.2305  0.2239

 Free energy of the ion-electron system (eV)
  ---------------------------------------------------
  alpha Z        PSCENC =       806.05920455
  Ewald energy   TEWEN  =    199962.38153804
  -Hartree energ DENC   =   -242102.44562417
  -exchange      EXHF   =         0.00000000
  -V(xc)+E(xc)   XCENC  =      -343.68885300
  PAW double counting   =     49336.53260077   -47415.19587276
  entropy T*S    EENTRO =        -0.24734007
  eigenvalues    EBANDS =     -2091.62596039
  atomic energy  EATOM  =     41659.78587232
  Solvation  Ediel_sol  =         0.00000000
  ---------------------------------------------------
  free energy    TOTEN  =      -188.44443472 eV

  energy without entropy =     -188.19709465  energy(sigma->0) =     -188.32076468


--------------------------------------------------------------------------------------------------------




----------------------------------------- Iteration    1(  19)  ---------------------------------------


    POTLOK:  cpu time    0.0418: real time    0.0420
    SETDIJ:  cpu time    0.0052: real time    0.0053
    EDDIAG:  cpu time    1.3491: real time    1.3555
  RMM-DIIS:  cpu time    3.5668: real time    3.5838
    ORTHCH:  cpu time    0.3776: real time    0.3797
       DOS:  cpu time    0.0013: real time    0.0013
    CHARGE:  cpu time    0.2364: real time    0.2374
    MIXING:  cpu time    0.0035: real time    0.0035
    --------------------------------------------
      LOOP:  cpu time    5.5825: real time    5.6112

 eigenvalue-minimisations  :  3681
 total energy-change (2. order) : 0.2638966E-01  (-0.3651775E-02)
 number of electron     503.9998363 magnetization 
 augmentation part      197.0189671 magnetization 

 DIPCOR: dipole corrections for dipol
 direction  3 min pos     1,
 dipolmoment           0.000000      0.000000      0.150609 electrons x Angstroem
 Tr[quadrupol]    -10260.525776

 energy correction for charged system         0.000000 eV
 dipol+quadrupol energy correction           -0.000799 eV
 added-field ion interaction          0.166867 eV  (added to PSCEN)


 Broyden mixing:
  rms(total) = 0.85017E-01    rms(broyden)= 0.84976E-01
  rms(prec ) = 0.91477E-01
  weight for this iteration     100.00

 eigenvalues of (default mixing * dielectric matrix)
  average eigenvalue GAMMA=   0.7175
  2.3505  1.4942  1.4942  0.8316  0.8316  0.7084  0.4547  0.4157  0.2441  0.2441
  0.2610  0.2610  0.2368  0.2167

 Free energy of the ion-electron system (eV)
  ---------------------------------------------------
  alpha Z        PSCENC =       806.03543220
  Ewald energy   TEWEN  =    199962.38153804
  -Hartree energ DENC   =   -242104.66835944
  -exchange      EXHF   =         0.00000000
  -V(xc)+E(xc)   XCENC  =      -343.68503779
  PAW double counting   =     49350.04014978   -47428.77162612
  entropy T*S    EENTRO =        -0.25133040
  eigenvalues    EBANDS =     -2089.28468365
  atomic energy  EATOM  =     41659.78587232
  Solvation  Ediel_sol  =         0.00000000
  ---------------------------------------------------
  free energy    TOTEN  =      -188.41804506 eV

  energy without entropy =     -188.16671466  energy(sigma->0) =     -188.29237986


--------------------------------------------------------------------------------------------------------




----------------------------------------- Iteration    1(  20)  ---------------------------------------


    POTLOK:  cpu time    0.0419: real time    0.0421
    SETDIJ:  cpu time    0.0053: real time    0.0053
    EDDIAG:  cpu time    1.3467: real time    1.3530
  RMM-DIIS:  cpu time    3.5844: real time    3.6019
    ORTHCH:  cpu time    0.3781: real time    0.3799
       DOS:  cpu time    0.0016: real time    0.0016
    CHARGE:  cpu time    0.2440: real time    0.2451
    MIXING:  cpu time    0.0036: real time    0.0036
    --------------------------------------------
      LOOP:  cpu time    5.6063: real time    5.6356

 eigenvalue-minimisations  :  3681
 total energy-change (2. order) : 0.2741349E-02  (-0.7670470E-03)
 number of electron     503.9998364 magnetization 
 augmentation part      197.0316647 magnetization 

 DIPCOR: dipole corrections for dipol
 direction  3 min pos     1,
 dipolmoment           0.000000      0.000000      0.143079 electrons x Angstroem
 Tr[quadrupol]    -10260.591054

 energy correction for charged system         0.000000 eV
 dipol+quadrupol energy correction           -0.000721 eV
 added-field ion interaction          0.158524 eV  (added to PSCEN)


 Broyden mixing:
  rms(total) = 0.66433E-01    rms(broyden)= 0.66425E-01
  rms(prec ) = 0.72235E-01
  weight for this iteration     100.00

 eigenvalues of (default mixing * dielectric matrix)
  average eigenvalue GAMMA=   0.7127
  2.3870  1.5006  1.5006  0.9274  0.9274  0.6267  0.5341  0.5341  0.2431  0.2431
  0.2859  0.2859  0.2256  0.2344  0.2344

 Free energy of the ion-electron system (eV)
  ---------------------------------------------------
  alpha Z        PSCENC =       806.02716733
  Ewald energy   TEWEN  =    199962.38153804
  -Hartree energ DENC   =   -242106.81819144
  -exchange      EXHF   =         0.00000000
  -V(xc)+E(xc)   XCENC  =      -343.68988784
  PAW double counting   =     49359.70403915   -47438.54284088
  entropy T*S    EENTRO =        -0.24816183
  eigenvalues    EBANDS =     -2087.01483856
  atomic energy  EATOM  =     41659.78587232
  Solvation  Ediel_sol  =         0.00000000
  ---------------------------------------------------
  free energy    TOTEN  =      -188.41530371 eV

  energy without entropy =     -188.16714188  energy(sigma->0) =     -188.29122279


--------------------------------------------------------------------------------------------------------




----------------------------------------- Iteration    1(  21)  ---------------------------------------


    POTLOK:  cpu time    0.0413: real time    0.0415
    SETDIJ:  cpu time    0.0054: real time    0.0054
    EDDIAG:  cpu time    1.3474: real time    1.3559
  RMM-DIIS:  cpu time    3.5266: real time    3.6314
    ORTHCH:  cpu time    0.3762: real time    0.3788
       DOS:  cpu time    0.0016: real time    0.0016
    CHARGE:  cpu time    0.2384: real time    0.2396
    MIXING:  cpu time    0.0039: real time    0.0039
    --------------------------------------------
      LOOP:  cpu time    5.5415: real time    5.6622

 eigenvalue-minimisations  :  3681
 total energy-change (2. order) : 0.1055206E-02  (-0.5136620E-03)
 number of electron     503.9998363 magnetization 
 augmentation part      197.0366647 magnetization 

 DIPCOR: dipole corrections for dipol
 direction  3 min pos     1,
 dipolmoment           0.000000      0.000000      0.133486 electrons x Angstroem
 Tr[quadrupol]    -10260.670206

 energy correction for charged system         0.000000 eV
 dipol+quadrupol energy correction           -0.000628 eV
 added-field ion interaction          0.147896 eV  (added to PSCEN)


 Broyden mixing:
  rms(total) = 0.58344E-01    rms(broyden)= 0.58332E-01
  rms(prec ) = 0.66609E-01
  weight for this iteration     100.00

 eigenvalues of (default mixing * dielectric matrix)
  average eigenvalue GAMMA=   0.7542
  2.4344  1.6111  1.6111  1.1269  1.1269  0.7167  0.7167  0.6830  0.3163  0.3163
  0.2437  0.2437  0.2473  0.2473  0.2226  0.2032

 Free energy of the ion-electron system (eV)
  ---------------------------------------------------
  alpha Z        PSCENC =       806.01663217
  Ewald energy   TEWEN  =    199962.38153804
  -Hartree energ DENC   =   -242109.64278500
  -exchange      EXHF   =         0.00000000
  -V(xc)+E(xc)   XCENC  =      -343.68969541
  PAW double counting   =     49366.19142853   -47445.07874406
  entropy T*S    EENTRO =        -0.25015395
  eigenvalues    EBANDS =     -2084.12834114
  atomic energy  EATOM  =     41659.78587232
  Solvation  Ediel_sol  =         0.00000000
  ---------------------------------------------------
  free energy    TOTEN  =      -188.41424850 eV

  energy without entropy =     -188.16409455  energy(sigma->0) =     -188.28917153


--------------------------------------------------------------------------------------------------------




----------------------------------------- Iteration    1(  22)  ---------------------------------------


    POTLOK:  cpu time    0.0429: real time    0.0433
    SETDIJ:  cpu time    0.0057: real time    0.0057
    EDDIAG:  cpu time    1.3486: real time    1.3550
  RMM-DIIS:  cpu time    3.5327: real time    3.5502
    ORTHCH:  cpu time    0.3767: real time    0.3785
       DOS:  cpu time    0.0016: real time    0.0016
    CHARGE:  cpu time    0.2392: real time    0.2404
    MIXING:  cpu time    0.0040: real time    0.0040
    --------------------------------------------
      LOOP:  cpu time    5.5521: real time    5.5832

 eigenvalue-minimisations  :  3682
 total energy-change (2. order) : 0.1561537E-02  (-0.5612710E-03)
 number of electron     503.9998364 magnetization 
 augmentation part      197.0306068 magnetization 

 DIPCOR: dipole corrections for dipol
 direction  3 min pos     1,
 dipolmoment           0.000000      0.000000      0.122592 electrons x Angstroem
 Tr[quadrupol]    -10260.839666

 energy correction for charged system         0.000000 eV
 dipol+quadrupol energy correction           -0.000530 eV
 added-field ion interaction          0.135826 eV  (added to PSCEN)


 Broyden mixing:
  rms(total) = 0.46118E-01    rms(broyden)= 0.46098E-01
  rms(prec ) = 0.52569E-01
  weight for this iteration     100.00

 eigenvalues of (default mixing * dielectric matrix)
  average eigenvalue GAMMA=   0.7478
  2.3787  1.6918  1.5199  1.5199  0.8476  0.8476  0.7519  0.7519  0.3624  0.3624
  0.2435  0.2435  0.2812  0.2574  0.2412  0.2163  0.1959

 Free energy of the ion-electron system (eV)
  ---------------------------------------------------
  alpha Z        PSCENC =       806.00466066
  Ewald energy   TEWEN  =    199962.38153804
  -Hartree energ DENC   =   -242115.92142340
  -exchange      EXHF   =         0.00000000
  -V(xc)+E(xc)   XCENC  =      -343.68177171
  PAW double counting   =     49372.80335661   -47451.72230303
  entropy T*S    EENTRO =        -0.24549085
  eigenvalues    EBANDS =     -2077.81712561
  atomic energy  EATOM  =     41659.78587232
  Solvation  Ediel_sol  =         0.00000000
  ---------------------------------------------------
  free energy    TOTEN  =      -188.41268697 eV

  energy without entropy =     -188.16719612  energy(sigma->0) =     -188.28994154


--------------------------------------------------------------------------------------------------------




----------------------------------------- Iteration    1(  23)  ---------------------------------------


    POTLOK:  cpu time    0.0414: real time    0.0416
    SETDIJ:  cpu time    0.0056: real time    0.0057
    EDDIAG:  cpu time    1.3430: real time    1.3589
  RMM-DIIS:  cpu time    3.5481: real time    3.5865
[...]
    275       1.7765      0.00000
    276       1.8004      0.00000
    277       2.1522      0.00000
    278       2.2003      0.00000
    279       2.2935      0.00000
    280       2.3539      0.00000
    281       2.5562      0.00000
    282       2.6039      0.00000
    283       2.6806      0.00000
    284       3.0132      0.00000
    285       3.1484      0.00000
    286       3.2091      0.00000
    287       3.5592      0.00000
    288       3.6100      0.00000
    289       3.6475      0.00000
    290       3.8780      0.00000
    291       4.1394      0.00000
    292       4.2004      0.00000
    293       4.4785      0.00000
    294       4.5587      0.00000
    295       4.5707      0.00000
    296       4.6226      0.00000
    297       4.6530      0.00000
    298       4.7246      0.00000
    299       4.8298      0.00000
    300       4.9007      0.00000
    301       4.9790      0.00000
    302       5.0309      0.00000
    303       5.0521      0.00000
    304       5.0690      0.00000
    305       5.1038      0.00000
    306       5.2261      0.00000


--------------------------------------------------------------------------------------------------------


 soft charge-density along one line, spin component           1
         0         1         2         3         4         5         6         7         8         9
 total charge-density along one line
 
 pseudopotential strength for first ion, spin component:           1
 -8.118   0.000  -0.001  -0.000  -0.000  -8.264   0.000  -0.001
  0.000  -8.040   0.001   0.001  -0.002   0.000  -8.187   0.001
 -0.001   0.001  -8.032   0.000  -0.000  -0.001   0.001  -8.180
 -0.000   0.001   0.000  -8.039   0.000  -0.000   0.001   0.000
 -0.000  -0.002  -0.000   0.000  -8.118  -0.000  -0.002  -0.000
 -8.264   0.000  -0.001  -0.000  -0.000  -8.393   0.000  -0.001
  0.000  -8.187   0.001   0.001  -0.002   0.000  -8.318   0.001
 -0.001   0.001  -8.180   0.000  -0.000  -0.001   0.001  -8.310
 -0.000   0.001   0.000  -8.186   0.000  -0.000   0.001   0.000
 -0.000  -0.002  -0.000   0.000  -8.263  -0.000  -0.002  -0.000
 -0.000  -0.001  -0.028  -0.000  -0.000  -0.000  -0.001  -0.028
 -0.001  -0.001  -0.040  -0.000  -0.001  -0.001  -0.001  -0.040
 -0.000   0.001   0.000   0.000   0.000  -0.000   0.002   0.000
  0.000  -0.000   0.000  -0.000   0.000  -0.000  -0.000   0.000
 -0.000   0.000   0.000   0.001  -0.000  -0.000  -0.000   0.000
 -0.000   0.002   0.000  -0.000   0.000  -0.000   0.003   0.000
 -0.000  -0.000   0.001  -0.000   0.000  -0.000  -0.000   0.001
 -0.000  -0.000   0.000   0.002  -0.000  -0.000  -0.000   0.000
 total augmentation occupancy for first ion, spin component:           1
  4.913  -0.007   0.006   0.114  -0.002  -3.085   0.006  -0.006  -0.121  -0.002   0.012  -0.004   0.003   0.002  -0.008  -0.000
 -0.007   4.064   0.015   0.014   0.104   0.006  -1.821  -0.006  -0.009  -0.115   0.017  -0.001  -0.116  -0.000   0.004   0.009
  0.006   0.015   4.661  -0.001   0.009  -0.006  -0.006  -2.541   0.002  -0.007   1.261  -0.197   0.002  -0.237   0.000   0.000
  0.114   0.014  -0.001   4.100   0.009  -0.121  -0.009   0.002  -1.846  -0.007   0.005  -0.001   0.003  -0.001  -0.120  -0.000
 -0.002   0.104   0.009   0.009   4.892  -0.002  -0.116  -0.007  -0.007  -3.063   0.014   0.003  -0.023  -0.004   0.003   0.001
 -3.085   0.006  -0.006  -0.121  -0.002   3.147  -0.005   0.006   0.125   0.005  -0.009   0.003  -0.002  -0.002   0.009   0.000
  0.006  -1.821  -0.006  -0.009  -0.116  -0.005   1.548  -0.000   0.004   0.124  -0.014   0.001   0.103  -0.001  -0.003  -0.006
 -0.006  -0.006  -2.541   0.002  -0.007   0.006  -0.000   2.367  -0.003   0.005  -1.183   0.225  -0.002   0.231  -0.000   0.000
 -0.121  -0.009   0.002  -1.846  -0.007   0.125   0.004  -0.003   1.565   0.005  -0.004   0.001  -0.002   0.000   0.105   0.000
 -0.002  -0.115  -0.007  -0.007  -3.063   0.005   0.124   0.005   0.005   3.126  -0.012  -0.002   0.020   0.002  -0.002  -0.001
  0.012   0.017   1.261   0.005   0.014  -0.009  -0.014  -1.183  -0.004  -0.012   2.552  -0.596  -0.000   0.090  -0.000  -0.000
 -0.004  -0.001  -0.197  -0.001   0.003   0.003   0.001   0.225   0.001  -0.002  -0.596   0.193   0.001  -0.053   0.001   0.000
  0.003  -0.116   0.002   0.003  -0.023  -0.002   0.103  -0.002  -0.002   0.020  -0.000   0.001   0.201  -0.001  -0.001  -0.007
  0.002  -0.000  -0.237  -0.001  -0.004  -0.002  -0.001   0.231   0.000   0.002   0.090  -0.053  -0.001   0.090  -0.001   0.000
 -0.008   0.004   0.000  -0.120   0.003   0.009  -0.003  -0.000   0.105  -0.002  -0.000   0.001  -0.001  -0.001   0.201   0.000
 -0.000   0.009   0.000  -0.000   0.001   0.000  -0.006   0.000   0.000  -0.001  -0.000   0.000  -0.007   0.000   0.000   0.000
 -0.000  -0.000   0.009  -0.000   0.000   0.000   0.000  -0.008   0.000  -0.000  -0.005   0.002   0.000  -0.003   0.000  -0.000
  0.001  -0.000   0.000   0.009  -0.000  -0.001   0.000   0.000  -0.006   0.000  -0.000  -0.000   0.000   0.000  -0.007  -0.000


------------------------ aborting loop because EDIFF is reached ----------------------------------------


    CHARGE:  cpu time    0.2356: real time    0.2366
    FORLOC:  cpu time    0.0169: real time    0.0170
    FORNL :  cpu time    1.3731: real time    1.3792
    FORCOR:  cpu time    0.0580: real time    0.0583
    FORHAR:  cpu time    0.0247: real time    0.0248
    MIXING:  cpu time    0.0025: real time    0.0026
    OFIELD:  cpu time    0.0000: real time    0.0000

 VOLUME and BASIS-vectors are now :
 -----------------------------------------------------------------------------
  energy-cutoff  :      400.00
  volume of cell :     2567.68
      direct lattice vectors                 reciprocal lattice vectors
    11.002581515  0.000000000  0.000000000     0.090887761 -0.052474073  0.000000000
     5.501290758  9.528515099  0.000000000     0.000000000  0.104948147  0.000000000
     0.000000000  0.000000000 24.491785094     0.000000000  0.000000000  0.040830017

  length of vectors
    11.002581515 11.002581515 24.491785094     0.104948147  0.104948147  0.040830017


 FORCES acting on ions
    electron-ion (+dipol)            ewald-force                    non-local-force                 convergence-correction
 -----------------------------------------------------------------------------------------------
   -.134E+01 -.197E+01 0.218E+04   0.139E+01 0.205E+01 -.218E+04   -.408E-01 -.873E-01 0.635E+00   -.344E-02 0.423E-02 0.318E-02
   0.141E+02 0.144E+02 -.230E+04   -.147E+02 -.146E+02 0.230E+04   0.622E+00 0.252E+00 0.384E+00   -.649E-02 0.103E-02 -.696E-02
   0.199E+02 0.733E+01 0.220E+04   -.208E+02 -.771E+01 -.220E+04   0.556E+00 0.236E+00 0.900E-01   -.223E-02 -.103E-02 0.512E-03
   -.918E+00 -.173E+02 -.231E+04   0.101E+01 0.177E+02 0.231E+04   -.946E-01 -.352E+00 0.758E-01   -.117E-03 -.180E-01 -.165E-02
   -.110E+02 -.235E+01 -.939E+02   0.116E+02 0.162E+01 0.949E+02   -.512E+00 0.742E+00 -.101E+01   -.159E-01 -.232E-01 -.555E-02
   -.802E+01 -.161E+02 0.220E+04   0.842E+01 0.168E+02 -.220E+04   -.279E+00 -.426E+00 -.169E+00   0.554E-02 -.897E-02 -.226E-02
   -.164E+02 0.101E+02 0.219E+04   0.174E+02 -.107E+02 -.219E+04   -.708E+00 0.409E+00 -.117E+00   -.492E-02 0.113E-01 -.131E-02
   -.176E+01 -.120E+02 0.218E+04   0.170E+01 0.125E+02 -.218E+04   0.821E-01 -.345E+00 0.241E+00   -.207E-03 0.184E-02 0.560E-02
   0.475E+01 -.785E+01 -.959E+02   -.520E+01 0.821E+01 0.970E+02   0.457E+00 -.363E+00 -.104E+01   -.381E-02 0.629E-02 -.387E-02
   0.701E+00 -.902E+01 -.225E+04   -.679E+00 0.901E+01 0.225E+04   -.332E-01 0.272E-01 0.651E+00   0.113E-01 -.210E-01 -.974E-02
   0.177E+01 0.116E+01 0.220E+04   -.151E+01 -.128E+01 -.220E+04   -.201E+00 0.762E-01 -.159E+00   -.131E-03 0.555E-02 0.757E-02
   -.581E+01 -.695E+01 -.108E+03   0.608E+01 0.687E+01 0.109E+03   -.266E+00 0.710E-01 -.107E+01   0.345E-04 0.123E-01 -.914E-02
   0.559E+01 0.829E+01 -.580E+01   -.622E+01 -.742E+01 0.586E+01   0.609E+00 -.834E+00 -.569E-01   0.176E-01 -.277E-01 -.805E-02
   -.112E+02 -.972E+01 0.219E+04   0.116E+02 0.101E+02 -.219E+04   -.318E+00 -.234E+00 -.203E+00   -.393E-02 -.101E-01 -.127E-02
   0.111E+02 0.484E+01 -.727E+02   -.106E+02 -.500E+01 0.726E+02   -.475E+00 0.159E+00 0.955E-01   0.219E-02 -.515E-02 0.341E-02
   -.157E+02 0.113E+02 -.233E+04   0.163E+02 -.118E+02 0.233E+04   -.563E+00 0.488E+00 0.138E+00   0.142E-01 0.667E-02 -.923E-02
   0.983E+01 0.752E+00 0.219E+04   -.106E+02 -.973E+00 -.219E+04   0.541E+00 0.193E+00 0.287E+00   -.292E-02 -.523E-02 0.403E-02
   0.361E+01 0.320E+00 -.488E+02   -.381E+01 -.477E+00 0.499E+02   0.207E+00 0.173E+00 -.113E+01   -.159E-02 -.713E-02 0.509E-02
   -.142E+02 -.801E+00 0.219E+04   0.150E+02 0.950E+00 -.219E+04   -.515E+00 -.138E+00 0.496E-01   -.896E-02 -.181E-02 -.708E-02
   -.243E+01 -.139E+01 -.952E+02   0.246E+01 0.144E+01 0.969E+02   -.560E-02 -.585E-01 -.162E+01   -.221E-01 0.596E-02 -.941E-02
   0.175E+02 0.114E+02 0.220E+04   -.186E+02 -.120E+02 -.220E+04   0.697E+00 0.443E+00 -.287E+00   0.278E-02 0.386E-02 0.575E-02
   -.100E+02 -.101E+02 -.230E+04   0.100E+02 0.108E+02 0.230E+04   -.319E-01 -.704E+00 0.256E+00   -.166E-02 0.205E-02 0.148E-01
   0.327E+01 0.946E+01 0.219E+04   -.350E+01 -.995E+01 -.219E+04   0.140E+00 0.312E+00 -.461E+00   0.359E-03 0.125E-02 0.105E-01
   -.371E+01 -.497E+01 0.218E+04   0.369E+01 0.509E+01 -.218E+04   0.376E-01 -.493E-01 -.152E+00   0.711E-04 -.185E-02 0.686E-02
   -.809E-03 0.167E+01 0.600E+02   -.214E+00 -.139E+01 -.600E+02   0.212E+00 -.295E+00 -.187E-01   0.602E-02 0.132E-01 0.420E-02
   -.746E+01 -.391E+01 -.203E+04   0.809E+01 0.401E+01 0.203E+04   -.629E+00 -.828E-01 0.154E+01   0.306E-03 -.171E-01 -.186E-02
   -.445E+01 0.665E+01 -.205E+04   0.448E+01 -.677E+01 0.205E+04   -.308E-01 0.103E+00 0.166E+01   0.697E-02 0.148E-01 -.834E-02
   0.811E+01 -.145E+02 -.202E+04   -.798E+01 0.149E+02 0.201E+04   -.136E+00 -.467E+00 0.148E+01   0.119E-01 -.155E-04 -.341E-02
   0.135E+02 0.832E+01 -.205E+04   -.137E+02 -.877E+01 0.205E+04   0.153E+00 0.443E+00 0.178E+01   -.575E-02 0.896E-02 -.419E-02
   0.856E+01 -.777E+01 0.201E+04   -.868E+01 0.805E+01 -.201E+04   0.519E-01 -.155E+00 -.120E+01   0.115E-02 -.218E-02 0.146E-02
   0.429E+01 0.698E+01 -.205E+04   -.425E+01 -.720E+01 0.204E+04   -.464E-01 0.218E+00 0.168E+01   0.338E-02 0.476E-02 -.132E-01
   -.572E+00 -.561E+01 -.698E+02   0.771E-01 0.561E+01 0.703E+02   0.499E+00 0.184E-01 -.470E+00   -.438E-02 -.966E-02 -.125E-01
   0.116E+00 0.189E+02 0.201E+04   -.144E+00 -.194E+02 -.201E+04   0.348E-01 0.264E+00 -.189E+01   0.510E-02 0.110E-01 -.254E-02
   0.320E+01 -.655E+00 -.768E+01   -.393E+01 0.859E+00 0.843E+01   0.720E+00 -.214E+00 -.746E+00   0.110E-01 0.884E-02 -.354E-02
   0.434E+01 -.352E+00 -.717E+01   -.343E+01 -.249E+00 0.762E+01   -.894E+00 0.577E+00 -.456E+00   -.132E-01 0.222E-01 0.388E-02
   0.664E+01 0.344E+01 -.203E+04   -.730E+01 -.375E+01 0.203E+04   0.665E+00 0.329E+00 0.196E+01   -.683E-02 -.196E-01 -.644E-02
   -.163E+01 0.188E+01 -.307E+02   0.196E+01 -.244E+01 0.320E+02   -.317E+00 0.556E+00 -.127E+01   0.819E-03 -.162E-02 0.638E-03
   0.685E+01 -.174E+01 -.207E+04   -.723E+01 0.170E+01 0.207E+04   0.389E+00 0.623E-01 0.158E+01   -.614E-02 -.121E-01 -.600E-02
   -.695E+01 0.164E+01 -.585E+02   0.676E+01 -.148E+01 0.589E+02   0.202E+00 -.158E+00 -.457E+00   -.939E-02 -.965E-02 -.457E-02
   -.154E+02 -.570E+01 0.201E+04   0.157E+02 0.601E+01 -.201E+04   -.171E+00 -.206E+00 -.188E+01   -.396E-03 -.381E-02 -.159E-01
   -.786E+00 0.359E+01 -.158E+02   0.173E+01 -.348E+01 0.161E+02   -.935E+00 -.125E+00 -.268E+00   -.608E-02 0.215E-01 -.182E-02
   0.102E+02 -.661E+00 0.202E+04   -.104E+02 0.933E+00 -.202E+04   0.136E+00 -.197E+00 -.175E+01   0.106E-01 -.411E-02 -.927E-02
   -.399E+01 -.626E+00 -.568E+01   0.322E+01 0.364E+00 0.608E+01   0.767E+00 0.246E+00 -.402E+00   0.976E-02 0.166E-01 0.144E-02
   0.859E+00 0.348E+01 -.210E+02   -.629E+00 -.310E+01 0.210E+02   -.219E+00 -.350E+00 -.148E-01   -.787E-03 -.298E-01 -.688E-02
   0.765E+01 0.610E+01 -.197E+04   -.777E+01 -.641E+01 0.196E+04   0.126E+00 0.294E+00 0.190E+01   0.691E-02 0.171E-01 -.601E-02
   -.307E+01 0.157E+02 -.198E+04   0.307E+01 -.155E+02 0.198E+04   -.611E-03 -.148E+00 0.187E+01   -.267E-02 0.687E-02 -.105E-01
   -.150E+02 0.430E+01 -.195E+04   0.153E+02 -.435E+01 0.195E+04   -.291E+00 0.299E-01 0.181E+01   -.494E-02 0.169E-01 0.630E-02
   -.448E+01 -.199E+02 -.197E+04   0.467E+01 0.205E+02 0.197E+04   -.189E+00 -.617E+00 0.176E+01   -.866E-04 -.342E-02 0.123E-01
 -----------------------------------------------------------------------------------------------
   0.304E-01 -.944E-01 -.355E+01   -.519E-12 -.139E-12 -.273E-11   -.177E-03 0.115E+00 0.363E+01   -.111E-01 -.193E-01 -.949E-01
 
 
 POSITION                                       TOTAL-FORCE (eV/Angst)
 -----------------------------------------------------------------------------------
      1.37532      0.79404     10.00000         0.011965      0.005695     -0.233587
      9.59016      2.36131     14.99636         0.002203     -0.004109      0.009850
      5.50129      7.94043     10.00000        -0.348331     -0.140380     -0.167539
      2.76128      4.78693     15.03934        -0.001573     -0.001731      0.002135
      8.27982      6.33205     12.55013        -0.004221     -0.005445      0.002580
     12.37790      5.55830     10.00000         0.130713      0.260680     -0.047958
      4.12597      0.79404     10.00000         0.325468     -0.189286     -0.070602
      2.75065      3.17617     10.00000         0.025651      0.181408     -0.052693
     10.97875      1.60360     12.55553         0.002902      0.003141     -0.000023
     10.99137      4.77235     14.94662         0.000444     -0.001949      0.005560
      5.50129      3.17617     10.00000         0.057261     -0.040420     -0.098382
      2.77978      1.58556     12.57084         0.002440      0.003744      0.001059
     13.73665      6.38113     12.43967        -0.006804      0.005658     -0.000933
      9.62726      5.55830     10.00000         0.157303      0.185460     -0.016542
      4.14348      3.96615     12.51499        -0.002560     -0.005993      0.003916
      4.15571      2.36245     15.05790        -0.006432     -0.001628      0.008757
      6.87661      5.55830     10.00000        -0.195765     -0.032497     -0.169695
      5.49956      6.34824     12.50007         0.006200      0.008442     -0.002272
      8.25194      7.94043     10.00000         0.261822      0.009373     -0.108055
      6.88374      8.73372     12.55909         0.001469     -0.003750      0.000854
      9.62726      0.79404     10.00000        -0.330401     -0.199520     -0.088707
      9.62936      7.17736     14.99109        -0.006351      0.007647      0.007308
      8.25194      3.17617     10.00000        -0.090611     -0.178558      0.017292
     11.00258      3.17617     10.00000         0.024128      0.061707      0.030547
     12.36527      8.74925     12.35923         0.002734      0.000660     -0.006072
      5.52160      4.76861     14.88949         0.000366      0.000018     -0.000635
      2.75034     -0.00526     14.91049        -0.001877      0.000754      0.011586
      4.12489      7.16828     14.84577         0.003352      0.000114      0.005318
     -0.01428     -0.02016     14.89276        -0.005570      0.002514      0.004720
      4.12597      5.55830     10.00000        -0.064125      0.124493      0.224994
      1.37437      2.37249     14.92298        -0.004389      0.002368      0.006559
     12.36749      3.98649     12.52776        -0.000206      0.002655      0.000959
      6.87661      0.79404     10.00000         0.011247     -0.249805      0.242049
     15.09630      8.75677     12.44465         0.002312     -0.001451      0.001434
      5.53046      1.57201     12.43886         0.001474     -0.001833      0.002135
      8.21950      4.75143     14.88433        -0.004375      0.002486      0.000447
      6.89694      3.93686     12.47477         0.007735     -0.000202     -0.004663
      6.85551      7.13833     14.92052         0.000459      0.002609      0.006037
      9.62544      3.96599     12.51014         0.000186     -0.002502      0.001579
     11.00258      7.94043     10.00000         0.114054      0.105492      0.276089
      9.67379      8.72408     12.45378        -0.000322      0.005959      0.007148
     13.75323      7.94043     10.00000        -0.097454      0.069628      0.181814
      8.22730      1.58390     12.43594         0.003834      0.000038      0.006784
     11.00591      6.36469     12.45834         0.010669      0.000044      0.001445
      8.22956     -0.01346     14.76834         0.008489      0.002256     -0.000605
      6.87152      2.38545     14.80390        -0.000322      0.004725      0.000791
      5.52836      0.00521     14.76689        -0.005701     -0.001775     -0.002486
     12.38593      7.17815     14.79880         0.000511      0.003065     -0.000294
 -----------------------------------------------------------------------------------
    total drift:                                0.019187      0.001591     -0.013307


--------------------------------------------------------------------------------------------------------



  FREE ENERGIE OF THE ION-ELECTRON SYSTEM (eV)
  ---------------------------------------------------
  free  energy   TOTEN  =      -191.96128660 eV

  energy  without entropy=     -191.72211472  energy(sigma->0) =     -191.84170066
 
 d Force = 0.3458339E-03[ 0.115E-03, 0.576E-03]  d Energy = 0.3412015E-03 0.463E-05
 d Force = 0.3719323E+02[ 0.372E+02, 0.372E+02]  d Ewald  = 0.3719323E+02 0.752E-06


--------------------------------------------------------------------------------------------------------


    POTLOK:  cpu time    0.0487: real time    0.0489


--------------------------------------------------------------------------------------------------------


 stress matrix after NEB project (eV)
      0.00000      0.00000      0.00000
      0.00000      0.00000      0.00000
      0.00000      0.00000      0.00000
  FORCES: max atom, RMS     0.012337    0.006042
  FORCE total and by dimension    0.041858    0.011586
  Stress total and by dimension    0.000000    0.000000
 Conjugate gradient step on ions:
 trial-energy change:   -0.000341  1 .order   -0.000346   -0.000576   -0.000115
  (g-gl).g = 0.193E-03      g.g   = 0.213E-03  gl.gl    = 0.630E-03
 g(Force)  = 0.213E-03   g(Stress)= 0.000E+00 ortho     =-0.122E-05
 gamma     =   0.30586
 trial     =   2.70578
 opt step  =   3.43988  (harmonic =   3.38359) maximal distance =0.00289075
 next E    =  -191.961302   (d E  =  -0.00036)


--------------------------------------------------------------------------------------------------------


  
 reached required accuracy - stopping structural energy minimisation
     LOOP+:  cpu time   47.7658: real time   48.1393
    4ORBIT:  cpu time    0.0000: real time    0.0000

 total amount of memory used by VASP on root node    84353. kBytes
========================================================================

   base      :      30000. kBytes
   nonlr-proj:       4285. kBytes
   fftplans  :       4447. kBytes
   grid      :       6721. kBytes
   one-center:        124. kBytes
   wavefun   :      38776. kBytes
 
  
  
 General timing and accounting informations for this job:
 ========================================================
  
                  Total CPU time used (sec):     1567.110
                            User time (sec):     1491.222
                          System time (sec):       75.888
                         Elapsed time (sec):     1580.304
  
                   Maximum memory used (kb):      818532.
                   Average memory used (kb):           0.
  
                          Minor page faults:       694790
                          Major page faults:            2
                 Voluntary context switches:        10135
