  48  48   0   0
  0.5349325E+02  0.1100258E-08  0.1100258E-08  0.2449179E-08  0.3500000E-15
  1.000000000000000E-004
  CAR 
 unknown system                          
      6.34202175     -9.64991458  301     -1.09743849      1.00000000
     -9.650  0.0000E+00  0.0000E+00
     -9.597  0.0000E+00  0.0000E+00
     -9.543  0.0000E+00  0.0000E+00
     -9.490  0.0000E+00  0.0000E+00
     -9.437  0.0000E+00  0.0000E+00
     -9.383  0.0000E+00  0.0000E+00
     -9.330  0.0000E+00  0.0000E+00
     -9.277  0.0000E+00  0.0000E+00
     -9.223  0.8331E-17  0.4441E-18
     -9.170  0.3085E-14  0.1649E-15
     -9.117  0.6674E-12  0.3574E-13
     -9.064  0.8261E-10  0.4439E-11
     -9.010  0.5861E-08  0.3169E-09
     -8.957  0.2388E-06  0.1305E-07
     -8.904  0.5599E-05  0.3115E-06
     -8.850  0.7572E-04  0.4348E-05
     -8.797  0.5921E-03  0.3591E-04
     -8.744  0.2683E-02  0.1789E-03
     -8.690  0.7058E-02  0.5552E-03
     -8.637  0.1084E-01  0.1133E-02
     -8.584  0.1004E-01  0.1668E-02
     -8.530  0.7171E-02  0.2050E-02
     -8.477  0.7800E-02  0.2466E-02
     -8.424  0.1073E-01  0.3038E-02
     -8.371  0.1013E-01  0.3578E-02
     -8.317  0.5681E-02  0.3881E-02
     -8.264  0.1922E-02  0.3983E-02
     -8.211  0.8951E-03  0.4031E-02
     -8.157  0.2561E-02  0.4167E-02
     -8.104  0.6913E-02  0.4536E-02
     -8.051  0.1171E-01  0.5160E-02
     -7.997  0.1449E-01  0.5932E-02
     -7.944  0.1775E-01  0.6878E-02
     -7.891  0.2196E-01  0.8049E-02
     -7.837  0.2153E-01  0.9197E-02
     -7.784  0.1692E-01  0.1010E-01
     -7.731  0.1394E-01  0.1084E-01
     -7.678  0.1206E-01  0.1148E-01
     -7.624  0.9814E-02  0.1201E-01
     -7.571  0.1124E-01  0.1261E-01
     -7.518  0.1727E-01  0.1353E-01
     -7.464  0.2220E-01  0.1471E-01
     -7.411  0.2276E-01  0.1592E-01
     -7.358  0.2104E-01  0.1705E-01
     -7.304  0.1873E-01  0.1804E-01
     -7.251  0.1683E-01  0.1894E-01
     -7.198  0.1727E-01  0.1986E-01
     -7.145  0.2125E-01  0.2099E-01
     -7.091  0.2678E-01  0.2242E-01
     -7.038  0.3193E-01  0.2412E-01
     -6.985  0.3883E-01  0.2619E-01
     -6.931  0.4690E-01  0.2869E-01
     -6.878  0.5236E-01  0.3148E-01
     -6.825  0.5821E-01  0.3459E-01
     -6.771  0.6960E-01  0.3830E-01
     -6.718  0.8269E-01  0.4271E-01
     -6.665  0.9186E-01  0.4760E-01
     -6.611  0.9990E-01  0.5293E-01
     -6.558  0.1093E+00  0.5875E-01
     -6.505  0.1162E+00  0.6495E-01
     -6.452  0.1188E+00  0.7128E-01
     -6.398  0.1199E+00  0.7767E-01
     -6.345  0.1222E+00  0.8418E-01
     -6.292  0.1267E+00  0.9093E-01
     -6.238  0.1318E+00  0.9796E-01
     -6.185  0.1365E+00  0.1052E+00
     -6.132  0.1429E+00  0.1129E+00
     -6.078  0.1525E+00  0.1210E+00
     -6.025  0.1629E+00  0.1297E+00
     -5.972  0.1701E+00  0.1387E+00
     -5.918  0.1709E+00  0.1478E+00
     -5.865  0.1672E+00  0.1567E+00
     -5.812  0.1626E+00  0.1654E+00
     -5.759  0.1561E+00  0.1737E+00
     -5.705  0.1472E+00  0.1816E+00
     -5.652  0.1396E+00  0.1890E+00
     -5.599  0.1355E+00  0.1962E+00
     -5.545  0.1324E+00  0.2033E+00
     -5.492  0.1302E+00  0.2102E+00
     -5.439  0.1321E+00  0.2173E+00
     -5.385  0.1349E+00  0.2245E+00
     -5.332  0.1356E+00  0.2317E+00
     -5.279  0.1395E+00  0.2391E+00
     -5.225  0.1520E+00  0.2472E+00
     -5.172  0.1698E+00  0.2563E+00
     -5.119  0.1847E+00  0.2661E+00
     -5.066  0.1897E+00  0.2762E+00
     -5.012  0.1850E+00  0.2861E+00
     -4.959  0.1802E+00  0.2957E+00
     -4.906  0.1811E+00  0.3054E+00
     -4.852  0.1820E+00  0.3151E+00
     -4.799  0.1778E+00  0.3245E+00
     -4.746  0.1731E+00  0.3338E+00
     -4.692  0.1747E+00  0.3431E+00
     -4.639  0.1797E+00  0.3527E+00
     -4.586  0.1801E+00  0.3623E+00
     -4.532  0.1748E+00  0.3716E+00
     -4.479  0.1683E+00  0.3806E+00
     -4.426  0.1645E+00  0.3893E+00
     -4.373  0.1658E+00  0.3982E+00
     -4.319  0.1717E+00  0.4073E+00
     -4.266  0.1789E+00  0.4169E+00
     -4.213  0.1848E+00  0.4267E+00
     -4.159  0.1876E+00  0.4367E+00
     -4.106  0.1858E+00  0.4466E+00
     -4.053  0.1817E+00  0.4563E+00
     -3.999  0.1799E+00  0.4659E+00
     -3.946  0.1824E+00  0.4756E+00
     -3.893  0.1889E+00  0.4857E+00
     -3.840  0.1949E+00  0.4961E+00
     -3.786  0.1959E+00  0.5065E+00
     -3.733  0.1941E+00  0.5169E+00
     -3.680  0.1950E+00  0.5272E+00
     -3.626  0.1995E+00  0.5379E+00
     -3.573  0.2032E+00  0.5487E+00
     -3.520  0.2024E+00  0.5595E+00
     -3.466  0.1985E+00  0.5701E+00
     -3.413  0.1960E+00  0.5805E+00
     -3.360  0.1969E+00  0.5910E+00
     -3.306  0.1974E+00  0.6016E+00
     -3.253  0.1938E+00  0.6119E+00
     -3.200  0.1888E+00  0.6220E+00
     -3.147  0.1854E+00  0.6318E+00
     -3.093  0.1801E+00  0.6414E+00
     -3.040  0.1742E+00  0.6507E+00
     -2.987  0.1744E+00  0.6600E+00
     -2.933  0.1799E+00  0.6696E+00
     -2.880  0.1843E+00  0.6794E+00
     -2.827  0.1854E+00  0.6893E+00
     -2.773  0.1857E+00  0.6992E+00
     -2.720  0.1887E+00  0.7093E+00
     -2.667  0.1944E+00  0.7196E+00
     -2.613  0.1991E+00  0.7302E+00
     -2.560  0.1997E+00  0.7409E+00
     -2.507  0.1952E+00  0.7513E+00
     -2.454  0.1882E+00  0.7613E+00
     -2.400  0.1822E+00  0.7710E+00
     -2.347  0.1779E+00  0.7805E+00
     -2.294  0.1737E+00  0.7898E+00
     -2.240  0.1698E+00  0.7988E+00
     -2.187  0.1695E+00  0.8079E+00
     -2.134  0.1741E+00  0.8171E+00
     -2.080  0.1799E+00  0.8267E+00
     -2.027  0.1848E+00  0.8366E+00
     -1.974  0.1891E+00  0.8467E+00
     -1.920  0.1925E+00  0.8569E+00
     -1.867  0.1973E+00  0.8674E+00
     -1.814  0.2043E+00  0.8783E+00
     -1.761  0.2066E+00  0.8893E+00
     -1.707  0.2019E+00  0.9001E+00
     -1.654  0.1978E+00  0.9107E+00
     -1.601  0.1981E+00  0.9212E+00
     -1.547  0.1990E+00  0.9318E+00
     -1.494  0.1968E+00  0.9423E+00
     -1.441  0.1917E+00  0.9525E+00
     -1.387  0.1859E+00  0.9624E+00
     -1.334  0.1810E+00  0.9721E+00
     -1.281  0.1767E+00  0.9815E+00
     -1.227  0.1683E+00  0.9905E+00
     -1.174  0.1515E+00  0.9986E+00
     -1.121  0.1284E+00  0.1005E+01
     -1.068  0.1031E+00  0.1011E+01
     -1.014  0.7544E-01  0.1015E+01
     -0.961  0.4814E-01  0.1017E+01
     -0.908  0.2863E-01  0.1019E+01
     -0.854  0.1976E-01  0.1020E+01
     -0.801  0.1816E-01  0.1021E+01
     -0.748  0.1879E-01  0.1022E+01
     -0.694  0.1836E-01  0.1023E+01
     -0.641  0.1730E-01  0.1024E+01
     -0.588  0.1879E-01  0.1025E+01
     -0.535  0.2511E-01  0.1026E+01
     -0.481  0.3492E-01  0.1028E+01
     -0.428  0.4399E-01  0.1030E+01
     -0.375  0.4714E-01  0.1033E+01
     -0.321  0.4375E-01  0.1035E+01
     -0.268  0.4126E-01  0.1038E+01
     -0.215  0.4310E-01  0.1040E+01
     -0.161  0.4258E-01  0.1042E+01
     -0.108  0.3595E-01  0.1044E+01
     -0.055  0.2704E-01  0.1045E+01
     -0.001  0.2250E-01  0.1047E+01
      0.052  0.2534E-01  0.1048E+01
      0.105  0.3048E-01  0.1050E+01
      0.158  0.3189E-01  0.1051E+01
      0.212  0.3019E-01  0.1053E+01
      0.265  0.3055E-01  0.1055E+01
      0.318  0.3492E-01  0.1056E+01
      0.372  0.3997E-01  0.1059E+01
      0.425  0.4210E-01  0.1061E+01
      0.478  0.4110E-01  0.1063E+01
      0.532  0.4022E-01  0.1065E+01
      0.585  0.4077E-01  0.1067E+01
      0.638  0.4135E-01  0.1070E+01
      0.692  0.4153E-01  0.1072E+01
      0.745  0.4038E-01  0.1074E+01
      0.798  0.3620E-01  0.1076E+01
      0.851  0.2983E-01  0.1077E+01
      0.905  0.2487E-01  0.1079E+01
      0.958  0.2217E-01  0.1080E+01
      1.011  0.1969E-01  0.1081E+01
      1.065  0.1793E-01  0.1082E+01
      1.118  0.1781E-01  0.1083E+01
      1.171  0.1821E-01  0.1084E+01
      1.225  0.1807E-01  0.1085E+01
      1.278  0.1764E-01  0.1086E+01
      1.331  0.1706E-01  0.1087E+01
      1.385  0.1603E-01  0.1088E+01
      1.438  0.1730E-01  0.1088E+01
      1.491  0.2472E-01  0.1090E+01
      1.544  0.3421E-01  0.1092E+01
      1.598  0.3718E-01  0.1094E+01
      1.651  0.3400E-01  0.1095E+01
      1.704  0.3155E-01  0.1097E+01
      1.758  0.3255E-01  0.1099E+01
      1.811  0.3459E-01  0.1101E+01
      1.864  0.3314E-01  0.1102E+01
      1.918  0.2664E-01  0.1104E+01
      1.971  0.1943E-01  0.1105E+01
      2.024  0.1440E-01  0.1106E+01
      2.078  0.1253E-01  0.1106E+01
      2.131  0.1607E-01  0.1107E+01
      2.184  0.2362E-01  0.1108E+01
      2.237  0.3249E-01  0.1110E+01
      2.291  0.4218E-01  0.1112E+01
      2.344  0.4917E-01  0.1115E+01
      2.397  0.5093E-01  0.1118E+01
      2.451  0.5169E-01  0.1120E+01
      2.504  0.5303E-01  0.1123E+01
      2.557  0.5187E-01  0.1126E+01
      2.611  0.4821E-01  0.1129E+01
      2.664  0.4468E-01  0.1131E+01
      2.717  0.4130E-01  0.1133E+01
      2.770  0.3579E-01  0.1135E+01
      2.824  0.2767E-01  0.1137E+01
      2.877  0.1901E-01  0.1138E+01
      2.930  0.1388E-01  0.1138E+01
      2.984  0.1318E-01  0.1139E+01
      3.037  0.1294E-01  0.1140E+01
      3.090  0.1287E-01  0.1140E+01
      3.144  0.1566E-01  0.1141E+01
      3.197  0.2001E-01  0.1142E+01
      3.250  0.2322E-01  0.1144E+01
      3.304  0.2407E-01  0.1145E+01
      3.357  0.2275E-01  0.1146E+01
      3.410  0.2103E-01  0.1147E+01
      3.463  0.2164E-01  0.1148E+01
      3.517  0.2604E-01  0.1150E+01
      3.570  0.3130E-01  0.1151E+01
      3.623  0.3267E-01  0.1153E+01
      3.677  0.2996E-01  0.1155E+01
      3.730  0.2835E-01  0.1156E+01
      3.783  0.3075E-01  0.1158E+01
      3.837  0.3156E-01  0.1160E+01
      3.890  0.2642E-01  0.1161E+01
      3.943  0.2178E-01  0.1162E+01
      3.997  0.2412E-01  0.1163E+01
      4.050  0.2919E-01  0.1165E+01
      4.103  0.2999E-01  0.1167E+01
      4.156  0.2781E-01  0.1168E+01
      4.210  0.2692E-01  0.1169E+01
      4.263  0.2458E-01  0.1171E+01
      4.316  0.1884E-01  0.1172E+01
      4.370  0.1700E-01  0.1173E+01
      4.423  0.2259E-01  0.1174E+01
      4.476  0.2920E-01  0.1175E+01
      4.530  0.3406E-01  0.1177E+01
      4.583  0.4223E-01  0.1180E+01
      4.636  0.5322E-01  0.1182E+01
      4.690  0.5817E-01  0.1185E+01
      4.743  0.5455E-01  0.1188E+01
      4.796  0.4976E-01  0.1191E+01
      4.849  0.4852E-01  0.1194E+01
      4.903  0.5024E-01  0.1196E+01
      4.956  0.5571E-01  0.1199E+01
      5.009  0.6338E-01  0.1203E+01
      5.063  0.6759E-01  0.1206E+01
      5.116  0.6648E-01  0.1210E+01
      5.169  0.6465E-01  0.1213E+01
      5.223  0.6379E-01  0.1217E+01
      5.276  0.5777E-01  0.1220E+01
      5.329  0.4294E-01  0.1222E+01
      5.383  0.2428E-01  0.1223E+01
      5.436  0.9771E-02  0.1224E+01
      5.489  0.2641E-02  0.1224E+01
      5.542  0.4578E-03  0.1224E+01
      5.596  0.4927E-04  0.1224E+01
      5.649  0.3216E-05  0.1224E+01
      5.702  0.1253E-06  0.1224E+01
      5.756  0.2878E-08  0.1224E+01
      5.809  0.3865E-10  0.1224E+01
      5.862  0.3016E-12  0.1224E+01
      5.916  0.1361E-14  0.1224E+01
      5.969  0.2777E-17  0.1224E+01
      6.022  0.0000E+00  0.1224E+01
      6.075  0.0000E+00  0.1224E+01
      6.129  0.0000E+00  0.1224E+01
      6.182  0.0000E+00  0.1224E+01
      6.235  0.0000E+00  0.1224E+01
      6.289  0.0000E+00  0.1224E+01
      6.342  0.0000E+00  0.1224E+01
