unknown system                          
           1
    11.002582    0.000000    0.000000
     5.501291    9.528515    0.000000
     0.000000    0.000000   24.491785
   Au   Pd
  24  24
Direct configuration=     1
   0.25000000  0.75000000  0.59169983
   0.41666667  0.41666667  0.50000000
   0.50000000  0.75000000  0.59169983
   0.58333333  0.08333333  0.40830017
   0.83333333  0.08333333  0.40830017
   0.66666667  0.16666667  0.50000000
   0.33333333  0.83333333  0.40830017
   0.25000000  0.50000000  0.59169983
   0.25000000  0.25000000  0.59169983
   0.66666667  0.41666667  0.50000000
   0.50000000  0.50000000  0.59169983
   0.25000000  0.00000000  0.59169983
   0.16666667  0.16666667  0.50000000
   0.33333333  0.33333333  0.40830017
   0.00000000  0.75000000  0.59169983
   0.83333333  0.83333333  0.40830017
   0.91666667  0.41666667  0.50000000
   0.33333333  0.08333333  0.40830017
   0.08333333  0.58333333  0.40830017
   0.91666667  0.66666667  0.50000000
   0.00000000  0.25000000  0.59169983
   0.83333333  0.58333333  0.40830017
   0.75000000  0.25000000  0.59169983
   0.91666667  0.91666667  0.50000000
   0.83333333  0.33333333  0.40830017
   0.66666667  0.66666667  0.50000000
   0.75000000  0.50000000  0.59169983
   0.41666667  0.91666667  0.50000000
   0.58333333  0.83333333  0.40830017
   0.75000000  0.00000000  0.59169983
   0.41666667  0.66666667  0.50000000
   0.08333333  0.08333333  0.40830017
   0.50000000  0.25000000  0.59169983
   0.58333333  0.33333333  0.40830017
   0.50000000  0.00000000  0.59169983
   0.41666667  0.16666667  0.50000000
   0.66666667  0.91666667  0.50000000
   0.16666667  0.91666667  0.50000000
   0.16666667  0.66666667  0.50000000
   0.33333333  0.58333333  0.40830017
   0.16666667  0.41666667  0.50000000
   0.08333333  0.83333333  0.40830017
   0.00000000  0.50000000  0.59169983
   0.08333333  0.33333333  0.40830017
   0.00000000  0.00000000  0.59169983
   0.91666667  0.16666667  0.50000000
   0.58333333  0.58333333  0.40830017
   0.75000000  0.75000000  0.59169983
Direct configuration=     2
   0.24931616  0.75075728  0.59328880
   0.41572679  0.41719699  0.49955651
   0.50147813  0.75006361  0.59322762
   0.58300637  0.08306885  0.40640263
   0.83443599  0.08433887  0.40612516
   0.66600094  0.16610496  0.50041944
   0.33332632  0.83250946  0.40692581
   0.24952119  0.49940086  0.59359839
   0.25111267  0.25019199  0.59356831
   0.66696157  0.41795702  0.49921440
   0.50054214  0.49985949  0.59391174
   0.25039058 -0.00061488  0.59355574
   0.16671852  0.16616899  0.49925751
   0.33294677  0.33390805  0.40645078
  -0.00095747  0.75044897  0.59377611
   0.83286497  0.83351031  0.40606126
   0.91655232  0.41676636  0.49996038
   0.33309842  0.08306227  0.40650077
   0.08467933  0.58303351  0.40638560
   0.91617789  0.66635373  0.50076085
  -0.00103295  0.25049201  0.59390751
   0.83207492  0.58286822  0.40610913
   0.75058519  0.24898654  0.59392712
   0.91797390  0.91700630  0.50041140
   0.83350176  0.33301598  0.40712332
   0.66530649  0.66800916  0.50004272
   0.75023648  0.50081911  0.59295763
   0.41819287  0.91595408  0.49998425
   0.58337373  0.83272173  0.40753004
   0.74916703 -0.00004936  0.59280055
   0.41626503  0.66758123  0.49936738
   0.08269994  0.08370634  0.40729694
   0.50021448  0.24891518  0.59292586
   0.58342705  0.33448335  0.40692584
   0.50116731 -0.00016719  0.59239485
   0.41729061  0.16554858  0.50044040
   0.66506466  0.91647213  0.50062201
   0.16637370  0.91646841  0.49966376
   0.16744647  0.66700564  0.49957313
   0.33345528  0.58374049  0.40735564
   0.16655896  0.41664215  0.49997990
   0.08430311  0.83323595  0.40731048
  -0.00072635  0.50046127  0.59290114
   0.08304248  0.33282625  0.40705419
  -0.00048643  0.00023470  0.59270585
   0.91777642  0.16570244  0.49973126
   0.58335495  0.58312354  0.40742722
   0.74949334  0.75010910  0.59258268
Direct configuration=     3
   0.24726466  0.75302913  0.59805572
   0.41290716  0.41878795  0.49822602
   0.50591252  0.75025445  0.59781099
   0.58202546  0.08227540  0.40071003
   0.83774396  0.08735550  0.39960015
   0.66400375  0.16441985  0.50167775
   0.33330528  0.83003785  0.40280272
   0.24808477  0.49760344  0.59929407
   0.25445068  0.25076797  0.59917374
   0.66784626  0.42182807  0.49685758
   0.50216855  0.49943796  0.60054746
   0.25156231 -0.00245954  0.59912347
   0.16687410  0.16467598  0.49703003
   0.33178709  0.33563219  0.40090260
  -0.00382988  0.75179589  0.60000496
   0.83145986  0.83404124  0.39934452
   0.91620930  0.41706545  0.49984152
   0.33239368  0.08224906  0.40110259
   0.08871731  0.58213402  0.40064189
   0.91471156  0.66541492  0.50304339
  -0.00413179  0.25196802  0.60053056
   0.82829966  0.58147286  0.39953600
   0.75234076  0.24594616  0.60060898
   0.92189560  0.91802519  0.50164559
   0.83400703  0.33206390  0.40359276
   0.66122595  0.67203665  0.50017090
   0.75094593  0.50327643  0.59673101
   0.42277148  0.91381632  0.49993701
   0.58349493  0.83088694  0.40521966
   0.74666811 -0.00019745  0.59610270
   0.41506012  0.67032491  0.49746953
   0.08079975  0.08482536  0.40428726
   0.50085790  0.24566074  0.59660396
   0.58370819  0.33793339  0.40280285
   0.50466923 -0.00066875  0.59447989
   0.41916243  0.16219432  0.50176161
   0.66025866  0.91588851  0.50248805
   0.16549480  0.91587365  0.49865504
   0.16978587  0.66802258  0.49829251
   0.33382114  0.58496194  0.40452204
   0.16623583  0.41656860  0.49991960
   0.08721242  0.83294379  0.40434140
  -0.00290540  0.50184507  0.59650507
   0.08216991  0.33130499  0.40331626
  -0.00194574  0.00093878  0.59572392
   0.92110568  0.16280975  0.49892506
   0.58341981  0.58249414  0.40480835
   0.74797337  0.75043640  0.59523122
Direct configuration=     4
   0.24819469  0.75143031  0.59899214
   0.41417986  0.41812850  0.49880424
   0.50423984  0.75017688  0.59914735
   0.58278378  0.08308808  0.39955654
   0.83597115  0.08633944  0.39817006
   0.66536925  0.16525261  0.50108171
   0.33345721  0.83143937  0.40124215
   0.24841371  0.49929317  0.60043916
   0.25261209  0.24909814  0.60036574
   0.66710137  0.41982981  0.49796531
   0.50222057  0.49901807  0.60161207
   0.25135294 -0.00061379  0.60007020
   0.16862169  0.16392855  0.49796078
   0.33303234  0.33391944  0.39952130
  -0.00379257  0.75183966  0.60171424
   0.83285255  0.83351573  0.39845100
   0.91666056  0.41672859  0.49989834
   0.33261147  0.08172701  0.39959630
   0.08561334  0.58350131  0.39948585
   0.91515594  0.66736668  0.50202615
  -0.00233532  0.25171915  0.60191801
   0.83000079  0.58140083  0.39804085
   0.75081505  0.24722075  0.60185186
   0.91932221  0.91644209  0.50104648
   0.83435860  0.33250470  0.40235084
   0.66254387  0.67071063  0.50003951
   0.75088891  0.50222005  0.59745183
   0.41919512  0.91520003  0.49991464
   0.58322412  0.83100173  0.40440383
   0.74745484 -0.00074562  0.59717310
   0.41481578  0.67071723  0.49841591
   0.08224615  0.08414865  0.40287031
   0.50142190  0.24729160  0.59762571
   0.58384510  0.33687073  0.40192648
   0.50347822 -0.00042319  0.59586013
   0.41680382  0.16350250  0.50113658
   0.66372675  0.91531218  0.50158570
   0.16855235  0.91575195  0.49904126
   0.16843854  0.66758766  0.49892454
   0.33478143  0.58421774  0.40319801
   0.16656268  0.41619877  0.49985148
   0.08536721  0.83355031  0.40330691
  -0.00255834  0.50082679  0.59768008
   0.08146323  0.33254388  0.40221580
  -0.00186600  0.00112800  0.59674990
   0.91891417  0.16479973  0.49938823
   0.58281393  0.58294307  0.40330104
   0.74907311  0.75035051  0.59663036
Direct configuration=     5
   0.24862724  0.75068670  0.59942767
   0.41477178  0.41782180  0.49907316
   0.50346189  0.75014081  0.59976889
   0.58313647  0.08346605  0.39902007
   0.83514663  0.08586688  0.39750493
   0.66600433  0.16563992  0.50080449
   0.33352787  0.83209120  0.40051635
   0.24856669  0.50007905  0.60097173
   0.25175697  0.24832151  0.60092013
   0.66675493  0.41890044  0.49848050
   0.50224476  0.49882279  0.60210721
   0.25125556  0.00024465  0.60051051
   0.16943448  0.16358093  0.49839366
   0.33361150  0.33312285  0.39887886
  -0.00377521  0.75186001  0.60250922
   0.83350028  0.83327132  0.39803543
   0.91687044  0.41657192  0.49992476
   0.33271277  0.08148420  0.39889573
   0.08416971  0.58413723  0.39894818
   0.91536262  0.66827443  0.50155304
  -0.00149980  0.25160340  0.60256330
   0.83079197  0.58136732  0.39734547
   0.75010546  0.24781355  0.60242991
   0.91812534  0.91570580  0.50076784
   0.83452212  0.33270972  0.40177324
   0.66315683  0.67009391  0.49997840
   0.75086239  0.50172873  0.59778707
   0.41753178  0.91584359  0.49990423
   0.58309817  0.83105511  0.40402440
   0.74782074 -0.00100057  0.59767094
   0.41470213  0.67089970  0.49885607
   0.08291885  0.08383392  0.40221130
   0.50168421  0.24805010  0.59810092
   0.58390878  0.33637649  0.40151889
   0.50292429 -0.00030898  0.59650207
   0.41570685  0.16411093  0.50084589
   0.66533973  0.91504414  0.50116602
   0.16997439  0.91569535  0.49922088
   0.16781191  0.66738538  0.49921849
   0.33522806  0.58387162  0.40258222
   0.16671469  0.41602677  0.49981979
   0.08450902  0.83383240  0.40282578
  -0.00239692  0.50035319  0.59822657
   0.08113457  0.33312007  0.40170398
  -0.00182892  0.00121600  0.59722707
   0.91789491  0.16572526  0.49960364
   0.58253213  0.58315186  0.40260000
   0.74958459  0.75031056  0.59728109
Direct configuration=     6
   0.24870736  0.75103436  0.59964409
   0.41460388  0.41781275  0.49932182
   0.50299714  0.75015552  0.60008837
   0.58358058  0.08317226  0.39874250
   0.83503617  0.08565503  0.39715936
   0.66609531  0.16554197  0.50054351
   0.33325318  0.83193746  0.39995921
   0.24867660  0.49939814  0.60119764
   0.25173979  0.24934296  0.60122715
   0.66629437  0.41890542  0.49890396
   0.50209193  0.49898522  0.60241778
   0.25097766 -0.00029055  0.60089602
   0.16816335  0.16464469  0.49863458
   0.33311935  0.33350752  0.39857029
  -0.00339164  0.75166238  0.60313615
   0.83309919  0.83346004  0.39772855
   0.91700962  0.41682070  0.49990513
   0.33290804  0.08196266  0.39833544
   0.08437693  0.58360072  0.39871818
   0.91602433  0.66711051  0.50116470
  -0.00174380  0.25138863  0.60299583
   0.83096197  0.58182098  0.39690171
   0.75045194  0.24804360  0.60281205
   0.91844329  0.91641282  0.50050165
   0.83427488  0.33273360  0.40157918
   0.66395271  0.66939258  0.49995656
   0.75086737  0.50109408  0.59783152
   0.41809329  0.91566412  0.49999297
   0.58356224  0.83133741  0.40389665
   0.74784691 -0.00060953  0.59786396
   0.41498424  0.67031354  0.49921575
   0.08263963  0.08392556  0.40199308
   0.50081873  0.24855452  0.59813043
   0.58410353  0.33604686  0.40141448
   0.50305273 -0.00027034  0.59664074
   0.41625770  0.16438017  0.50054150
   0.66484907  0.91588951  0.50070650
   0.16902229  0.91577713  0.49942744
   0.16748510  0.66712050  0.49945741
   0.33475661  0.58363697  0.40244977
   0.16686123  0.41628159  0.49979412
   0.08439261  0.83401211  0.40279091
  -0.00187668  0.50034865  0.59832571
   0.08161854  0.33310236  0.40155932
  -0.00155493  0.00111861  0.59722729
   0.91804236  0.16529685  0.49978341
   0.58278311  0.58275186  0.40234562
   0.74969019  0.75001556  0.59757004
Direct configuration=     7
   0.24874271  0.75118779  0.59973960
   0.41452978  0.41780875  0.49943156
   0.50279203  0.75016201  0.60022936
   0.58377657  0.08304260  0.39862000
   0.83498742  0.08556154  0.39700685
   0.66613546  0.16549874  0.50042833
   0.33313196  0.83186961  0.39971333
   0.24872511  0.49909763  0.60129734
   0.25173221  0.24979374  0.60136265
   0.66609111  0.41890761  0.49909084
   0.50202448  0.49905690  0.60255484
   0.25085502 -0.00052675  0.60106615
   0.16760237  0.16511416  0.49874090
   0.33290215  0.33367729  0.39843411
  -0.00322237  0.75157515  0.60341283
   0.83292217  0.83354332  0.39759311
   0.91707105  0.41693050  0.49989647
   0.33299422  0.08217382  0.39808817
   0.08446839  0.58336395  0.39861668
   0.91631637  0.66659684  0.50099331
  -0.00185149  0.25129385  0.60318672
   0.83103699  0.58202119  0.39670587
   0.75060484  0.24814512  0.60298070
   0.91858361  0.91672485  0.50038417
   0.83416577  0.33274413  0.40149354
   0.66430395  0.66908306  0.49994691
   0.75086957  0.50081399  0.59785113
   0.41834110  0.91558491  0.50003213
   0.58376704  0.83146200  0.40384027
   0.74785845 -0.00043695  0.59794915
   0.41510875  0.67005485  0.49937448
   0.08251640  0.08396600  0.40189677
   0.50043677  0.24877714  0.59814345
   0.58418948  0.33590138  0.40136840
   0.50310941 -0.00025328  0.59670194
   0.41650080  0.16449898  0.50040716
   0.66463253  0.91626259  0.50050370
   0.16860211  0.91581322  0.49951860
   0.16734087  0.66700360  0.49956286
   0.33454855  0.58353341  0.40239131
   0.16692590  0.41639405  0.49978279
   0.08434123  0.83409142  0.40277552
  -0.00164708  0.50034664  0.59836946
   0.08183213  0.33309454  0.40149548
  -0.00143401  0.00107563  0.59722738
   0.91810744  0.16510778  0.49986275
   0.58289388  0.58257534  0.40223335
   0.74973680  0.74988537  0.59769756
Direct configuration=     8
   0.24855166  0.75105640  0.59988424
   0.41425644  0.41794980  0.49948188
   0.50316928  0.75011986  0.60034162
   0.58360132  0.08320702  0.39835644
   0.83524649  0.08563521  0.39675117
   0.66610011  0.16551197  0.50037063
   0.33320021  0.83162765  0.39955292
   0.24868185  0.49926934  0.60146919
   0.25180224  0.24967383  0.60148044
   0.66625955  0.41889879  0.49920475
   0.50174851  0.49914264  0.60284690
   0.25076919 -0.00026033  0.60128866
   0.16748412  0.16522095  0.49882410
   0.33298923  0.33386698  0.39830703
  -0.00321038  0.75160145  0.60371947
   0.83308087  0.83344149  0.39737761
   0.91675743  0.41679737  0.49981377
   0.33293631  0.08225916  0.39785354
   0.08472318  0.58331879  0.39846572
   0.91619833  0.66689580  0.50090697
  -0.00170475  0.25121995  0.60350768
   0.83092758  0.58204146  0.39636738
   0.75061855  0.24796009  0.60323159
   0.91872721  0.91651314  0.50032244
   0.83399208  0.33285583  0.40161078
   0.66449564  0.66908189  0.49995295
   0.75097443  0.50072515  0.59783547
   0.41854745  0.91557551  0.50002683
   0.58363072  0.83153399  0.40383738
   0.74785920 -0.00013834  0.59784328
   0.41506507  0.67003057  0.49943388
   0.08232827  0.08421921  0.40195939
   0.50043843  0.24864774  0.59800523
   0.58411650  0.33593050  0.40145117
   0.50316902 -0.00020077  0.59654321
   0.41656821  0.16451970  0.50016313
   0.66464230  0.91622782  0.50036163
   0.16843560  0.91575036  0.49954528
   0.16726041  0.66704071  0.49973074
   0.33420960  0.58350377  0.40256831
   0.16727057  0.41626662  0.49974992
   0.08445497  0.83389602  0.40286887
  -0.00171716  0.50050915  0.59829991
   0.08199546  0.33280919  0.40150956
  -0.00152021  0.00089935  0.59716884
   0.91806264  0.16527919  0.49990689
   0.58304859  0.58235614  0.40231557
   0.74975769  0.74971188  0.59758566
Direct configuration=     9
   0.24831742  0.75089530  0.60006156
   0.41392131  0.41812274  0.49954358
   0.50363181  0.75006819  0.60047925
   0.58338646  0.08340862  0.39803330
   0.83556413  0.08572554  0.39643768
   0.66605677  0.16552819  0.50029990
   0.33328388  0.83133098  0.39935624
   0.24862882  0.49947988  0.60167990
   0.25188809  0.24952680  0.60162485
   0.66646606  0.41888797  0.49934441
   0.50141016  0.49924777  0.60320500
   0.25066396  0.00006633  0.60156148
   0.16733914  0.16535188  0.49892612
   0.33309600  0.33409955  0.39815121
  -0.00319569  0.75163369  0.60409545
   0.83327543  0.83331663  0.39711339
   0.91637292  0.41663416  0.49971236
   0.33286531  0.08236379  0.39756587
   0.08503556  0.58326342  0.39828063
   0.91605360  0.66726236  0.50080110
  -0.00152484  0.25112934  0.60390120
   0.83079343  0.58206630  0.39595237
   0.75063535  0.24773323  0.60353921
   0.91890327  0.91625357  0.50024675
   0.83377911  0.33299278  0.40175453
   0.66473066  0.66908045  0.49996035
   0.75110300  0.50061622  0.59781627
   0.41880045  0.91556398  0.50002033
   0.58346357  0.83162225  0.40383383
   0.74786011  0.00022778  0.59771348
   0.41501151  0.67000080  0.49950671
   0.08209761  0.08452967  0.40203617
   0.50044048  0.24848909  0.59783575
   0.58402701  0.33596621  0.40155264
   0.50324210 -0.00013638  0.59634859
   0.41665087  0.16454510  0.49986392
   0.66465428  0.91618518  0.50018743
   0.16823146  0.91567330  0.49957799
   0.16716176  0.66708622  0.49993658
   0.33379403  0.58346741  0.40278532
   0.16769317  0.41611039  0.49970962
   0.08459442  0.83365645  0.40298333
  -0.00180310  0.50070840  0.59821464
   0.08219572  0.33245934  0.40152681
  -0.00162588  0.00068322  0.59709705
   0.91800771  0.16548936  0.49996100
   0.58323828  0.58208739  0.40241638
   0.74978331  0.74949916  0.59744845
Direct configuration=    10
   0.24836328  0.75105781  0.60021587
   0.41402410  0.41820097  0.49962065
   0.50362471  0.75010863  0.60054761
   0.58345384  0.08346835  0.39773698
   0.83562057  0.08572411  0.39618793
   0.66613991  0.16555710  0.50020332
   0.33334148  0.83125876  0.39931743
   0.24855008  0.49944354  0.60187292
   0.25193927  0.24948837  0.60168633
   0.66618137  0.41894091  0.49949463
   0.50146958  0.49919186  0.60349681
   0.25083348 -0.00008674  0.60173080
   0.16765981  0.16509013  0.49900090
   0.33321182  0.33405301  0.39800641
  -0.00354692  0.75174810  0.60437971
   0.83331513  0.83335717  0.39687905
   0.91648841  0.41678225  0.49964417
   0.33271758  0.08223072  0.39739040
   0.08492594  0.58323951  0.39815047
   0.91609511  0.66723680  0.50072054
  -0.00150034  0.25116935  0.60423114
   0.83090064  0.58193949  0.39560834
   0.75051780  0.24779620  0.60377967
   0.91871895  0.91625727  0.50020140
   0.83365502  0.33312937  0.40187647
   0.66468043  0.66921972  0.49992562
   0.75119241  0.50043283  0.59781809
   0.41858466  0.91563339  0.49998773
   0.58329600  0.83160882  0.40382784
   0.74792968  0.00015384  0.59751826
   0.41498965  0.67017856  0.49957374
   0.08223043  0.08450238  0.40218037
   0.50046183  0.24846381  0.59765391
   0.58398340  0.33600100  0.40169943
   0.50333531 -0.00012785  0.59609230
   0.41656035  0.16444916  0.49959883
   0.66479324  0.91616919  0.50005774
   0.16849869  0.91569603  0.49959397
   0.16712087  0.66714860  0.50014005
   0.33378560  0.58353971  0.40303523
   0.16751772  0.41608642  0.49969347
   0.08468270  0.83359602  0.40309552
  -0.00186580  0.50074543  0.59803859
   0.08217138  0.33244358  0.40157878
  -0.00166687  0.00061840  0.59703126
   0.91791660  0.16545584  0.50003251
   0.58315660  0.58206127  0.40259242
   0.74994451  0.74954080  0.59725437
Direct configuration=    11
   0.24844599  0.75135084  0.60049411
   0.41420945  0.41834202  0.49975961
   0.50361191  0.75018156  0.60067088
   0.58357534  0.08357605  0.39720269
   0.83572234  0.08572153  0.39573759
   0.66628981  0.16560923  0.50002917
   0.33344535  0.83112853  0.39924745
   0.24840809  0.49937802  0.60222096
   0.25203155  0.24941907  0.60179718
   0.66566804  0.41903638  0.49976550
   0.50157672  0.49909105  0.60402298
   0.25113913 -0.00036275  0.60203611
   0.16823803  0.16461817  0.49913575
   0.33342065  0.33396907  0.39774532
  -0.00418022  0.75195440  0.60489229
   0.83338671  0.83343026  0.39645652
   0.91669666  0.41704927  0.49952121
   0.33245120  0.08199079  0.39707399
   0.08472827  0.58319640  0.39791577
   0.91616997  0.66719072  0.50057530
  -0.00145618  0.25124150  0.60482607
   0.83109395  0.58171083  0.39498800
   0.75030584  0.24790974  0.60421325
   0.91838661  0.91626394  0.50011961
   0.83343125  0.33337567  0.40209635
   0.66458984  0.66947084  0.49986300
   0.75135365  0.50010215  0.59782137
   0.41819556  0.91575855  0.49992895
   0.58299384  0.83158460  0.40381703
   0.74805513  0.00002051  0.59716627
   0.41495024  0.67049909  0.49969460
   0.08246991  0.08445317  0.40244039
   0.50050034  0.24841822  0.59732604
   0.58390476  0.33606373  0.40196411
   0.50350337 -0.00011246  0.59563018
   0.41639713  0.16427615  0.49912083
   0.66504380  0.91614036  0.49982388
   0.16898054  0.91573701  0.49962279
   0.16704713  0.66726109  0.50050693
   0.33377040  0.58367006  0.40348585
   0.16720135  0.41604320  0.49966437
   0.08484188  0.83348705  0.40329782
  -0.00197885  0.50081220  0.59772116
   0.08212750  0.33241518  0.40167247
  -0.00174077  0.00050154  0.59691264
   0.91775232  0.16539540  0.50016144
   0.58300931  0.58201417  0.40290983
   0.75023518  0.74961588  0.59690443
Direct configuration=    12
   0.24846878  0.75143158  0.60057077
   0.41426052  0.41838088  0.49979791
   0.50360838  0.75020165  0.60070484
   0.58360882  0.08360572  0.39705547
   0.83575039  0.08572081  0.39561350
   0.66633111  0.16562360  0.49998118
   0.33347397  0.83109265  0.39922817
   0.24836897  0.49935997  0.60231686
   0.25205697  0.24939998  0.60182773
   0.66552659  0.41906269  0.49984013
   0.50160624  0.49906327  0.60416796
   0.25122335 -0.00043880  0.60212023
   0.16839735  0.16448813  0.49917290
   0.33347820  0.33394595  0.39767338
  -0.00435472  0.75201124  0.60503352
   0.83340644  0.83345040  0.39634010
   0.91675405  0.41712284  0.49948733
   0.33237780  0.08192468  0.39698680
   0.08467380  0.58318453  0.39785110
   0.91619059  0.66717802  0.50053527
  -0.00144401  0.25126138  0.60498999
   0.83114721  0.58164782  0.39481708
   0.75024743  0.24794103  0.60433272
   0.91829504  0.91626578  0.50009708
   0.83336959  0.33344353  0.40215693
   0.66456488  0.66954004  0.49984574
   0.75139807  0.50001104  0.59782227
   0.41808835  0.91579304  0.49991275
   0.58291059  0.83157793  0.40381405
   0.74808969 -0.00001622  0.59706928
   0.41493938  0.67058741  0.49972790
   0.08253589  0.08443961  0.40251203
   0.50051094  0.24840566  0.59723569
   0.58388310  0.33608102  0.40203704
   0.50354968 -0.00010822  0.59550284
   0.41635216  0.16422848  0.49898912
   0.66511283  0.91613241  0.49975944
   0.16911331  0.91574831  0.49963073
   0.16702682  0.66729208  0.50060802
   0.33376621  0.58370598  0.40361001
   0.16711418  0.41603129  0.49965635
   0.08488574  0.83345703  0.40335357
  -0.00201000  0.50083060  0.59763369
   0.08211540  0.33240736  0.40169829
  -0.00176113  0.00046933  0.59687995
   0.91770705  0.16537875  0.50019697
   0.58296873  0.58200120  0.40299729
   0.75031527  0.74963657  0.59680801
Direct configuration=    13
   0.24846957  0.75140935  0.60078454
   0.41396239  0.41838408  0.49999923
   0.50374937  0.75003375  0.60072634
   0.58378641  0.08338163  0.39663757
   0.83579605  0.08570111  0.39534535
   0.66631204  0.16555278  0.49977053
   0.33342154  0.83111042  0.39926298
   0.24821748  0.49949006  0.60252215
   0.25211312  0.24933182  0.60177798
   0.66559548  0.41921875  0.50016961
   0.50168884  0.49908525  0.60460475
   0.25132031 -0.00047939  0.60230282
   0.16826189  0.16454735  0.49934764
   0.33333267  0.33385290  0.39754497
  -0.00431341  0.75198290  0.60533465
   0.83322067  0.83353956  0.39600977
   0.91675633  0.41698510  0.49946794
   0.33243245  0.08189362  0.39676961
   0.08458075  0.58315442  0.39778621
   0.91641182  0.66708992  0.50030594
  -0.00146026  0.25114917  0.60531499
   0.83099435  0.58178135  0.39441028
   0.75034124  0.24792668  0.60459613
   0.91838730  0.91629510  0.49998981
   0.83338960  0.33333567  0.40233087
   0.66447340  0.66951835  0.49977581
   0.75134209  0.50003647  0.59780139
   0.41812048  0.91565879  0.49983974
   0.58313124  0.83146369  0.40376989
   0.74803456 -0.00008249  0.59679541
   0.41490351  0.67087549  0.49994281
   0.08252420  0.08427512  0.40275004
   0.50048261  0.24850453  0.59696509
   0.58397469  0.33606008  0.40221638
   0.50359691 -0.00014400  0.59507175
   0.41642685  0.16430930  0.49859751
   0.66506300  0.91624028  0.49942952
   0.16913993  0.91573967  0.49973071
   0.16689642  0.66730951  0.50097877
   0.33378578  0.58375825  0.40395321
   0.16720532  0.41605302  0.49961686
   0.08481000  0.83352628  0.40354702
  -0.00192412  0.50061323  0.59740538
   0.08210936  0.33252213  0.40176278
  -0.00175165  0.00069334  0.59680264
   0.91776707  0.16542941  0.50034815
   0.58293717  0.58212601  0.40326088
   0.75018319  0.74976020  0.59652558
Direct configuration=    14
   0.24847039  0.75138625  0.60100661
   0.41365266  0.41838740  0.50020839
   0.50389585  0.74985933  0.60074867
   0.58397091  0.08314883  0.39620342
   0.83584350  0.08568064  0.39506678
   0.66629222  0.16547922  0.49955169
   0.33336707  0.83112887  0.39929915
   0.24806009  0.49962521  0.60273543
   0.25217145  0.24926101  0.60172630
   0.66566705  0.41938088  0.50051190
   0.50177465  0.49910809  0.60505851
   0.25142105 -0.00052155  0.60249250
   0.16812116  0.16460887  0.49952917
   0.33318149  0.33375624  0.39741157
  -0.00427048  0.75195345  0.60564749
   0.83302767  0.83363218  0.39566661
   0.91675870  0.41684200  0.49944780
   0.33248922  0.08186137  0.39654398
   0.08448408  0.58312314  0.39771881
   0.91664165  0.66699840  0.50006769
  -0.00147716  0.25103260  0.60565262
   0.83083555  0.58192006  0.39398766
   0.75043870  0.24791177  0.60486979
   0.91848314  0.91632556  0.49987837
   0.83341039  0.33322361  0.40251157
   0.66437836  0.66949582  0.49970316
   0.75128393  0.50006290  0.59777969
   0.41815387  0.91551933  0.49976389
   0.58336048  0.83134501  0.40372401
   0.74797728 -0.00015133  0.59651090
   0.41486624  0.67117478  0.50016608
   0.08251204  0.08410424  0.40299731
   0.50045316  0.24860723  0.59668397
   0.58406985  0.33603832  0.40240269
   0.50364598 -0.00018118  0.59462389
   0.41650444  0.16439325  0.49819068
   0.66501124  0.91635235  0.49908676
   0.16916758  0.91573070  0.49983458
   0.16676096  0.66732762  0.50136395
   0.33380611  0.58381254  0.40430976
   0.16730000  0.41607560  0.49957583
   0.08473131  0.83359822  0.40374799
  -0.00183490  0.50038741  0.59716819
   0.08210307  0.33264136  0.40182978
  -0.00174179  0.00092606  0.59672233
   0.91782942  0.16548205  0.50050520
   0.58290438  0.58225568  0.40353472
   0.75004598  0.74988862  0.59623217
Direct configuration=    15
   0.24847068  0.75137834  0.60108262
   0.41354666  0.41838853  0.50027997
   0.50394598  0.74979963  0.60075631
   0.58403405  0.08306915  0.39605483
   0.83585974  0.08567364  0.39497144
   0.66628544  0.16545404  0.49947679
   0.33334842  0.83113519  0.39931153
   0.24800622  0.49967147  0.60280843
   0.25219141  0.24923678  0.60170861
   0.66569155  0.41943637  0.50062905
   0.50180402  0.49911591  0.60521382
   0.25145553 -0.00053598  0.60255743
   0.16807299  0.16462993  0.49959130
   0.33312974  0.33372315  0.39736591
  -0.00425579  0.75194337  0.60575457
   0.83296162  0.83366388  0.39554915
   0.91675951  0.41679302  0.49944090
   0.33250865  0.08185032  0.39646675
   0.08445099  0.58311244  0.39769574
   0.91672031  0.66696707  0.49998614
  -0.00148294  0.25099270  0.60576818
   0.83078120  0.58196754  0.39384301
   0.75047206  0.24790666  0.60496345
   0.91851594  0.91633599  0.49984023
   0.83341750  0.33318525  0.40257342
   0.66434583  0.66948810  0.49967829
   0.75126402  0.50007194  0.59777227
   0.41816529  0.91547160  0.49973793
   0.58343894  0.83130439  0.40370831
   0.74795768 -0.00017490  0.59641352
   0.41485349  0.67127721  0.50024249
   0.08250789  0.08404576  0.40308194
   0.50044309  0.24864239  0.59658776
   0.58410242  0.33603088  0.40246646
   0.50366277 -0.00019390  0.59447061
   0.41653100  0.16442198  0.49805143
   0.66499352  0.91639071  0.49896945
   0.16917704  0.91572763  0.49987013
   0.16671460  0.66733382  0.50149578
   0.33381306  0.58383112  0.40443180
   0.16733240  0.41608333  0.49956178
   0.08470438  0.83362285  0.40381677
  -0.00180436  0.50031012  0.59708701
   0.08210092  0.33268217  0.40185271
  -0.00173842  0.00100571  0.59669484
   0.91785076  0.16550007  0.50055896
   0.58289316  0.58230006  0.40362844
   0.74999902  0.74993258  0.59613175
Direct configuration=    16
   0.24842551  0.75128394  0.60129765
   0.41354312  0.41858434  0.50045677
   0.50391640  0.74978309  0.60073852
   0.58389416  0.08312846  0.39568987
   0.83582256  0.08568488  0.39485664
   0.66636198  0.16560685  0.49922057
   0.33330022  0.83126021  0.39945002
   0.24811171  0.49964301  0.60296028
   0.25230300  0.24919933  0.60150311
   0.66558869  0.41925433  0.50094459
   0.50163891  0.49909490  0.60564556
   0.25153536 -0.00054675  0.60262675
   0.16797793  0.16487227  0.49973765
   0.33313146  0.33386203  0.39734985
  -0.00407468  0.75196034  0.60580220
   0.83312117  0.83351088  0.39518865
   0.91664030  0.41680929  0.49947320
   0.33263885  0.08187829  0.39640502
   0.08455108  0.58338074  0.39778795
   0.91651318  0.66708750  0.49970349
  -0.00146412  0.25099164  0.60590963
   0.83060109  0.58188592  0.39366947
   0.75046609  0.24764651  0.60504757
   0.91866989  0.91635527  0.49977298
   0.83354159  0.33306262  0.40268999
   0.66477570  0.66935829  0.49960965
   0.75140217  0.50026062  0.59784596
   0.41823543  0.91565048  0.49960922
   0.58358735  0.83132456  0.40353220
   0.74807072 -0.00009806  0.59618445
   0.41465739  0.67098799  0.50060527
   0.08239057  0.08408339  0.40328437
   0.50046011  0.24878306  0.59642906
   0.58407964  0.33606825  0.40263746
   0.50341483 -0.00015099  0.59405271
   0.41650270  0.16444484  0.49773714
   0.66510789  0.91630256  0.49850316
   0.16891990  0.91565610  0.50009685
   0.16669269  0.66728774  0.50175792
   0.33368039  0.58363783  0.40472906
   0.16752849  0.41599836  0.49950754
   0.08449730  0.83344349  0.40395190
  -0.00184829  0.50025975  0.59697260
   0.08197807  0.33264793  0.40190029
  -0.00166166  0.00101679  0.59670630
   0.91768018  0.16565720  0.50073279
   0.58307904  0.58225884  0.40382331
   0.75001392  0.74984108  0.59586278
Direct configuration=    17
   0.24840177  0.75123433  0.60141067
   0.41354126  0.41868725  0.50054968
   0.50390086  0.74977440  0.60072917
   0.58382064  0.08315964  0.39549806