  56  56   0   0
  0.4903395E+02  0.1100258E-08  0.1100258E-08  0.2619179E-08  0.3500000E-15
  1.000000000000000E-004
  CAR 
 unknown system                          
      6.45634631    -21.73460110  301     -1.34242967      1.00000000
    -21.735  0.0000E+00  0.0000E+00
    -21.641  0.0000E+00  0.0000E+00
    -21.547  0.0000E+00  0.0000E+00
    -21.453  0.0000E+00  0.0000E+00
    -21.359  0.0000E+00  0.0000E+00
    -21.265  0.0000E+00  0.0000E+00
    -21.171  0.0000E+00  0.0000E+00
    -21.077  0.0000E+00  0.0000E+00
    -20.983  0.8369E-15  0.7864E-16
    -20.889  0.9566E-11  0.8990E-12
    -20.795  0.1953E-07  0.1836E-08
    -20.701  0.7264E-05  0.6844E-06
    -20.607  0.5083E-03  0.4845E-04
    -20.513  0.7066E-02  0.7124E-03
    -20.419  0.2194E-01  0.2774E-02
    -20.325  0.2532E-01  0.5154E-02
    -20.231  0.2776E-01  0.7762E-02
    -20.137  0.2759E-01  0.1035E-01
    -20.043  0.2275E-01  0.1249E-01
    -19.949  0.2632E-01  0.1497E-01
    -19.855  0.3172E-01  0.1795E-01
    -19.761  0.3467E-01  0.2120E-01
    -19.667  0.3080E-01  0.2410E-01
    -19.573  0.2672E-01  0.2661E-01
    -19.479  0.1962E-01  0.2845E-01
    -19.385  0.2175E-01  0.3050E-01
    -19.291  0.1388E-01  0.3180E-01
    -19.197  0.2050E-02  0.3199E-01
    -19.103  0.6148E-04  0.3200E-01
    -19.009  0.3526E-06  0.3200E-01
    -18.916  0.3715E-09  0.3200E-01
    -18.822  0.7019E-13  0.3200E-01
    -18.728  0.0000E+00  0.3200E-01
    -18.634  0.0000E+00  0.3200E-01
    -18.540  0.0000E+00  0.3200E-01
    -18.446  0.0000E+00  0.3200E-01
    -18.352  0.0000E+00  0.3200E-01
    -18.258  0.0000E+00  0.3200E-01
    -18.164  0.0000E+00  0.3200E-01
    -18.070  0.0000E+00  0.3200E-01
    -17.976  0.0000E+00  0.3200E-01
    -17.882  0.0000E+00  0.3200E-01
    -17.788  0.0000E+00  0.3200E-01
    -17.694  0.0000E+00  0.3200E-01
    -17.600  0.0000E+00  0.3200E-01
    -17.506  0.0000E+00  0.3200E-01
    -17.412  0.0000E+00  0.3200E-01
    -17.318  0.0000E+00  0.3200E-01
    -17.224  0.0000E+00  0.3200E-01
    -17.130  0.0000E+00  0.3200E-01
    -17.036  0.0000E+00  0.3200E-01
    -16.942  0.0000E+00  0.3200E-01
    -16.848  0.0000E+00  0.3200E-01
    -16.754  0.0000E+00  0.3200E-01
    -16.660  0.0000E+00  0.3200E-01
    -16.566  0.0000E+00  0.3200E-01
    -16.472  0.0000E+00  0.3200E-01
    -16.378  0.0000E+00  0.3200E-01
    -16.284  0.0000E+00  0.3200E-01
    -16.190  0.0000E+00  0.3200E-01
    -16.096  0.0000E+00  0.3200E-01
    -16.002  0.0000E+00  0.3200E-01
    -15.908  0.0000E+00  0.3200E-01
    -15.815  0.0000E+00  0.3200E-01
    -15.721  0.0000E+00  0.3200E-01
    -15.627  0.0000E+00  0.3200E-01
    -15.533  0.0000E+00  0.3200E-01
    -15.439  0.0000E+00  0.3200E-01
    -15.345  0.0000E+00  0.3200E-01
    -15.251  0.0000E+00  0.3200E-01
    -15.157  0.0000E+00  0.3200E-01
    -15.063  0.0000E+00  0.3200E-01
    -14.969  0.0000E+00  0.3200E-01
    -14.875  0.0000E+00  0.3200E-01
    -14.781  0.0000E+00  0.3200E-01
    -14.687  0.0000E+00  0.3200E-01
    -14.593  0.0000E+00  0.3200E-01
    -14.499  0.0000E+00  0.3200E-01
    -14.405  0.0000E+00  0.3200E-01
    -14.311  0.0000E+00  0.3200E-01
    -14.217  0.0000E+00  0.3200E-01
    -14.123  0.0000E+00  0.3200E-01
    -14.029  0.0000E+00  0.3200E-01
    -13.935  0.0000E+00  0.3200E-01
    -13.841  0.0000E+00  0.3200E-01
    -13.747  0.0000E+00  0.3200E-01
    -13.653  0.0000E+00  0.3200E-01
    -13.559  0.0000E+00  0.3200E-01
    -13.465  0.0000E+00  0.3200E-01
    -13.371  0.0000E+00  0.3200E-01
    -13.277  0.0000E+00  0.3200E-01
    -13.183  0.0000E+00  0.3200E-01
    -13.089  0.0000E+00  0.3200E-01
    -12.995  0.0000E+00  0.3200E-01
    -12.901  0.0000E+00  0.3200E-01
    -12.807  0.0000E+00  0.3200E-01
    -12.713  0.0000E+00  0.3200E-01
    -12.620  0.0000E+00  0.3200E-01
    -12.526  0.0000E+00  0.3200E-01
    -12.432  0.0000E+00  0.3200E-01
    -12.338  0.0000E+00  0.3200E-01
    -12.244  0.0000E+00  0.3200E-01
    -12.150  0.0000E+00  0.3200E-01
    -12.056  0.0000E+00  0.3200E-01
    -11.962  0.0000E+00  0.3200E-01
    -11.868  0.0000E+00  0.3200E-01
    -11.774  0.0000E+00  0.3200E-01
    -11.680  0.0000E+00  0.3200E-01
    -11.586  0.0000E+00  0.3200E-01
    -11.492  0.0000E+00  0.3200E-01
    -11.398  0.0000E+00  0.3200E-01
    -11.304  0.0000E+00  0.3200E-01
    -11.210  0.0000E+00  0.3200E-01
    -11.116  0.0000E+00  0.3200E-01
    -11.022  0.0000E+00  0.3200E-01
    -10.928  0.0000E+00  0.3200E-01
    -10.834  0.0000E+00  0.3200E-01
    -10.740  0.0000E+00  0.3200E-01
    -10.646  0.0000E+00  0.3200E-01
    -10.552  0.0000E+00  0.3200E-01
    -10.458  0.0000E+00  0.3200E-01
    -10.364  0.0000E+00  0.3200E-01
    -10.270  0.0000E+00  0.3200E-01
    -10.176  0.0000E+00  0.3200E-01
    -10.082  0.0000E+00  0.3200E-01
     -9.988  0.0000E+00  0.3200E-01
     -9.894  0.0000E+00  0.3200E-01
     -9.800  0.0000E+00  0.3200E-01
     -9.706  0.4017E-14  0.3200E-01
     -9.612  0.3044E-10  0.3200E-01
     -9.519  0.4172E-07  0.3200E-01
     -9.425  0.1057E-04  0.3200E-01
     -9.331  0.5124E-03  0.3205E-01
     -9.237  0.5015E-02  0.3252E-01
     -9.143  0.1063E-01  0.3352E-01
     -9.049  0.7390E-02  0.3421E-01
     -8.955  0.9733E-02  0.3513E-01
     -8.861  0.7709E-02  0.3585E-01
     -8.767  0.1674E-02  0.3601E-01
     -8.673  0.2874E-02  0.3628E-01
     -8.579  0.1114E-01  0.3733E-01
     -8.485  0.1841E-01  0.3906E-01
     -8.391  0.2131E-01  0.4106E-01
     -8.297  0.1766E-01  0.4272E-01
     -8.203  0.2313E-01  0.4489E-01
     -8.109  0.4649E-01  0.4926E-01
     -8.015  0.6034E-01  0.5493E-01
     -7.921  0.5506E-01  0.6011E-01
     -7.827  0.6318E-01  0.6604E-01
     -7.733  0.5928E-01  0.7161E-01
     -7.639  0.4823E-01  0.7615E-01
     -7.545  0.5661E-01  0.8146E-01
     -7.451  0.7534E-01  0.8854E-01
     -7.357  0.9462E-01  0.9744E-01
     -7.263  0.1289E+00  0.1095E+00
     -7.169  0.1449E+00  0.1232E+00
     -7.075  0.1434E+00  0.1366E+00
     -6.981  0.1326E+00  0.1491E+00
     -6.887  0.1206E+00  0.1604E+00
     -6.793  0.1244E+00  0.1721E+00
     -6.699  0.1266E+00  0.1840E+00
     -6.605  0.1392E+00  0.1971E+00
     -6.511  0.1600E+00  0.2121E+00
     -6.418  0.1714E+00  0.2282E+00
     -6.324  0.1739E+00  0.2446E+00
     -6.230  0.1733E+00  0.2609E+00
     -6.136  0.1633E+00  0.2762E+00
     -6.042  0.1470E+00  0.2900E+00
     -5.948  0.1468E+00  0.3038E+00
     -5.854  0.1517E+00  0.3181E+00
     -5.760  0.1624E+00  0.3333E+00
     -5.666  0.1718E+00  0.3495E+00
     -5.572  0.1707E+00  0.3655E+00
     -5.478  0.1663E+00  0.3811E+00
     -5.384  0.1684E+00  0.3970E+00
     -5.290  0.1736E+00  0.4133E+00
     -5.196  0.1782E+00  0.4300E+00
     -5.102  0.1754E+00  0.4465E+00
     -5.008  0.1699E+00  0.4625E+00
     -4.914  0.1717E+00  0.4786E+00
     -4.820  0.1760E+00  0.4951E+00
     -4.726  0.1795E+00  0.5120E+00
     -4.632  0.1756E+00  0.5285E+00
     -4.538  0.1746E+00  0.5449E+00
     -4.444  0.1770E+00  0.5615E+00
     -4.350  0.1818E+00  0.5786E+00
     -4.256  0.1927E+00  0.5967E+00
     -4.162  0.2054E+00  0.6160E+00
     -4.068  0.2083E+00  0.6356E+00
     -3.974  0.2071E+00  0.6551E+00
     -3.880  0.1989E+00  0.6738E+00
     -3.786  0.1971E+00  0.6923E+00
     -3.692  0.2009E+00  0.7112E+00
     -3.598  0.1966E+00  0.7296E+00
     -3.504  0.1808E+00  0.7466E+00
     -3.410  0.1697E+00  0.7626E+00
     -3.317  0.1702E+00  0.7786E+00
     -3.223  0.1718E+00  0.7947E+00
     -3.129  0.1756E+00  0.8112E+00
     -3.035  0.1743E+00  0.8276E+00
     -2.941  0.1710E+00  0.8436E+00
     -2.847  0.1742E+00  0.8600E+00
     -2.753  0.1801E+00  0.8769E+00
     -2.659  0.1768E+00  0.8936E+00
     -2.565  0.1784E+00  0.9103E+00
     -2.471  0.1823E+00  0.9275E+00
     -2.377  0.1861E+00  0.9449E+00
     -2.283  0.1971E+00  0.9635E+00
     -2.189  0.2012E+00  0.9824E+00
     -2.095  0.1967E+00  0.1001E+01
     -2.001  0.1821E+00  0.1018E+01
     -1.907  0.1626E+00  0.1033E+01
     -1.813  0.1550E+00  0.1048E+01
     -1.719  0.1504E+00  0.1062E+01
     -1.625  0.1441E+00  0.1075E+01
     -1.531  0.1280E+00  0.1088E+01
     -1.437  0.1008E+00  0.1097E+01
     -1.343  0.7413E-01  0.1104E+01
     -1.249  0.5412E-01  0.1109E+01
     -1.155  0.4320E-01  0.1113E+01
     -1.061  0.4147E-01  0.1117E+01
     -0.967  0.5013E-01  0.1122E+01
     -0.873  0.6309E-01  0.1128E+01
     -0.779  0.6371E-01  0.1134E+01
     -0.685  0.6763E-01  0.1140E+01
     -0.591  0.7329E-01  0.1147E+01
     -0.497  0.6606E-01  0.1153E+01
     -0.403  0.5572E-01  0.1158E+01
     -0.309  0.3856E-01  0.1162E+01
     -0.216  0.2189E-01  0.1164E+01
     -0.122  0.1938E-01  0.1166E+01
     -0.028  0.2648E-01  0.1168E+01
      0.066  0.2484E-01  0.1171E+01
      0.160  0.2489E-01  0.1173E+01
      0.254  0.2284E-01  0.1175E+01
      0.348  0.2925E-01  0.1178E+01
      0.442  0.3843E-01  0.1181E+01
      0.536  0.4081E-01  0.1185E+01
      0.630  0.4274E-01  0.1189E+01
      0.724  0.3394E-01  0.1193E+01
      0.818  0.3140E-01  0.1195E+01
      0.912  0.3313E-01  0.1199E+01
      1.006  0.2868E-01  0.1201E+01
      1.100  0.2243E-01  0.1203E+01
      1.194  0.1954E-01  0.1205E+01
      1.288  0.1585E-01  0.1207E+01
      1.382  0.1889E-01  0.1208E+01
      1.476  0.2315E-01  0.1211E+01
      1.570  0.2959E-01  0.1213E+01
      1.664  0.3422E-01  0.1217E+01
      1.758  0.3365E-01  0.1220E+01
      1.852  0.3294E-01  0.1223E+01
      1.946  0.3522E-01  0.1226E+01
      2.040  0.3478E-01  0.1229E+01
      2.134  0.3290E-01  0.1233E+01
      2.228  0.3380E-01  0.1236E+01
      2.322  0.3154E-01  0.1239E+01
      2.416  0.2379E-01  0.1241E+01
      2.510  0.2075E-01  0.1243E+01
      2.604  0.1888E-01  0.1245E+01
      2.698  0.1424E-01  0.1246E+01
      2.792  0.1867E-01  0.1248E+01
      2.885  0.2516E-01  0.1250E+01
      2.979  0.2067E-01  0.1252E+01
      3.073  0.2150E-01  0.1254E+01
      3.167  0.2712E-01  0.1257E+01
      3.261  0.3247E-01  0.1260E+01
      3.355  0.3592E-01  0.1263E+01
      3.449  0.3140E-01  0.1266E+01
      3.543  0.2791E-01  0.1269E+01
      3.637  0.3103E-01  0.1272E+01
      3.731  0.3636E-01  0.1275E+01
      3.825  0.4124E-01  0.1279E+01
      3.919  0.4227E-01  0.1283E+01
      4.013  0.3493E-01  0.1286E+01
      4.107  0.3319E-01  0.1289E+01
      4.201  0.4102E-01  0.1293E+01
      4.295  0.4450E-01  0.1297E+01
      4.389  0.4422E-01  0.1301E+01
      4.483  0.4894E-01  0.1306E+01
      4.577  0.5368E-01  0.1311E+01
      4.671  0.5111E-01  0.1316E+01
      4.765  0.4867E-01  0.1320E+01
      4.859  0.5361E-01  0.1325E+01
      4.953  0.5762E-01  0.1331E+01
      5.047  0.5718E-01  0.1336E+01
      5.141  0.5076E-01  0.1341E+01
      5.235  0.2637E-01  0.1344E+01
      5.329  0.4836E-02  0.1344E+01
      5.423  0.2447E-03  0.1344E+01
      5.517  0.2909E-05  0.1344E+01
      5.611  0.7210E-08  0.1344E+01
      5.705  0.3449E-11  0.1344E+01
      5.799  0.3056E-15  0.1344E+01
      5.893  0.0000E+00  0.1344E+01
      5.986  0.0000E+00  0.1344E+01
      6.080  0.0000E+00  0.1344E+01
      6.174  0.0000E+00  0.1344E+01
      6.268  0.0000E+00  0.1344E+01
      6.362  0.0000E+00  0.1344E+01
      6.456  0.0000E+00  0.1344E+01
