<?xml version="1.0" encoding="ISO-8859-1"?>
<modeling>
 <generator>
  <i name="program" type="string">vasp </i>
  <i name="version" type="string">5.4.1  </i>
  <i name="subversion" type="string">24Jun15 (build Mar 14 2019 10:18:33) complex                          parallel </i>
  <i name="platform" type="string">INTEL-19.0.2+OPENMPI-3.1.3 </i>
  <i name="date" type="string">2023 01 21 </i>
  <i name="time" type="string">19:22:28 </i>
 </generator>
 <incar>
  <i type="int" name="ISTART">     0</i>
  <i type="string" name="PREC">normal</i>
  <i type="string" name="ALGO"> Fast</i>
  <i type="int" name="NELM">   500</i>
  <i type="int" name="IBRION">     2</i>
  <i type="int" name="NFREE">     2</i>
  <i name="EDIFF">      0.00000100</i>
  <i name="EDIFFG">     -0.02000000</i>
  <i type="int" name="NSW">   500</i>
  <i type="int" name="ISIF">     0</i>
  <i type="int" name="ISYM">     2</i>
  <i name="ENCUT">    400.00000000</i>
  <i name="POTIM">      0.35000000</i>
  <i type="string" name="LREAL"> Auto</i>
  <i type="logical" name="LPLANE"> T  </i>
  <i type="int" name="ISMEAR">     0</i>
  <i name="SIGMA">      0.10000000</i>
  <i type="int" name="NWRITE">     1</i>
  <i type="logical" name="LWAVE"> F  </i>
  <i type="logical" name="LCHARG"> F  </i>
  <i type="logical" name="LVTOT"> F  </i>
  <i type="logical" name="LORBIT"> F  </i>
  <i type="logical" name="LAECHG"> F  </i>
  <v type="int" name="KPOINT_BSE">    -1     0     0     0</v>
  <i type="int" name="NELM">   500</i>
  <i type="string" name="GGA"> PE          ! optPBE-vdW XC-functional</i>
  <i type="int" name="VOSKOWN">     1</i>
  <i type="logical" name="LDIPOL"> T  </i>
  <i type="logical" name="LMONO"> F  </i>
  <i type="int" name="IDIPOL">     3</i>
  <v name="DIPOL">      0.00000000      0.00000000      0.50000000</v>
 </incar>
 <kpoints>
  <generation param="Monkhorst-Pack">
   <v type="int" name="divisions">       2        2        1 </v>
   <v name="usershift">      0.00000000       0.00000000       0.00000000 </v>
   <v name="genvec1">      0.50000000       0.00000000       0.00000000 </v>
   <v name="genvec2">      0.00000000       0.50000000       0.00000000 </v>
   <v name="genvec3">      0.00000000       0.00000000       1.00000000 </v>
   <v name="shift">      0.50000000       0.50000000       0.00000000 </v>
  </generation>
  <varray name="kpointlist" >
   <v>       0.25000000       0.25000000       0.00000000 </v>
   <v>       0.00000000       0.25000000       0.00000000 </v>
   <v>      -0.25000000       0.00000000       0.00000000 </v>
   <v>      -0.25000000       0.25000000       0.00000000 </v>
   <v>       0.50000000      -0.25000000       0.00000000 </v>
   <v>      -0.25000000       0.50000000       0.00000000 </v>
  </varray>
  <varray name="weights" >
   <v>       0.16666667 </v>
   <v>       0.16666667 </v>
   <v>       0.16666667 </v>
   <v>       0.16666667 </v>
   <v>       0.16666667 </v>
   <v>       0.16666667 </v>
  </varray>
 </kpoints>
 <parameters>
  <separator name="general" >
   <i type="string" name="SYSTEM">unknown system</i>
   <i type="logical" name="LCOMPAT"> F  </i>
  </separator>
  <separator name="electronic" >
   <i type="string" name="PREC">normal</i>
   <i name="ENMAX">    400.00000000</i>
   <i name="ENAUG">    605.39200000</i>
   <i name="EDIFF">      0.00000100</i>
   <i type="int" name="IALGO">    68</i>
   <i type="int" name="IWAVPR">    11</i>
   <i type="int" name="NBANDS">   336</i>
   <i name="NELECT">    552.00000000</i>
   <i type="int" name="TURBO">     0</i>
   <i type="int" name="IRESTART">     0</i>
   <i type="int" name="NREBOOT">     0</i>
   <i type="int" name="NMIN">     0</i>
   <i name="EREF">      0.00000000</i>
   <separator name="electronic smearing" >
    <i type="int" name="ISMEAR">     0</i>
    <i name="SIGMA">      0.10000000</i>
    <i name="KSPACING">      0.50000000</i>
    <i type="logical" name="KGAMMA"> T  </i>
   </separator>
   <separator name="electronic projectors" >
    <i type="logical" name="LREAL"> T  </i>
    <v name="ROPT">     -0.00050000     -0.00050000     -0.00050000</v>
    <i type="int" name="LMAXPAW">  -100</i>
    <i type="int" name="LMAXMIX">     2</i>
    <i type="logical" name="NLSPLINE"> F  </i>
   </separator>
   <separator name="electronic startup" >
    <i type="int" name="ISTART">     0</i>
    <i type="int" name="ICHARG">     2</i>
    <i type="int" name="INIWAV">     1</i>
   </separator>
   <separator name="electronic spin" >
    <i type="int" name="ISPIN">     1</i>
    <i type="logical" name="LNONCOLLINEAR"> F  </i>
    <v name="MAGMOM">      1.00000000      1.00000000      1.00000000      1.00000000      1.00000000      1.00000000      1.00000000      1.00000000      1.00000000      1.00000000      1.00000000      1.00000000      1.00000000      1.00000000      1.00000000      1.00000000      1.00000000      1.00000000      1.00000000      1.00000000
      1.00000000      1.00000000      1.00000000      1.00000000      1.00000000      1.00000000      1.00000000      1.00000000      1.00000000      1.00000000      1.00000000      1.00000000      1.00000000      1.00000000      1.00000000      1.00000000      1.00000000      1.00000000      1.00000000      1.00000000
      1.00000000      1.00000000      1.00000000      1.00000000      1.00000000      1.00000000      1.00000000      1.00000000      1.00000000      1.00000000      1.00000000      1.00000000      1.00000000      1.00000000      1.00000000      1.00000000</v>
    <i name="NUPDOWN">     -1.00000000</i>
    <i type="logical" name="LSORBIT"> F  </i>
    <v name="SAXIS">      0.00000000      0.00000000      1.00000000</v>
    <i type="logical" name="LSPIRAL"> F  </i>
    <v name="QSPIRAL">      0.00000000      0.00000000      0.00000000</v>
    <i type="logical" name="LZEROZ"> F  </i>
   </separator>
   <separator name="electronic exchange-correlation" >
    <i type="logical" name="LASPH"> F  </i>
    <i type="logical" name="LMETAGGA"> F  </i>
   </separator>
   <separator name="electronic convergence" >
    <i type="int" name="NELM">   500</i>
    <i type="int" name="NELMDL">    -5</i>
    <i type="int" name="NELMIN">     2</i>
    <i name="ENINI">    400.00000000</i>
    <separator name="electronic convergence detail" >
     <i type="logical" name="LDIAG"> T  </i>
     <i type="logical" name="LSUBROT"> F  </i>
     <i name="WEIMIN">      0.00100000</i>
     <i name="EBREAK">      0.00000000</i>
     <i name="DEPER">      0.30000000</i>
     <i type="int" name="NRMM">     4</i>
     <i name="TIME">      0.40000000</i>
    </separator>
   </separator>
   <separator name="electronic mixer" >
    <i name="AMIX">      0.40000000</i>
    <i name="BMIX">      1.00000000</i>
    <i name="AMIN">      0.10000000</i>
    <i name="AMIX_MAG">      1.60000000</i>
    <i name="BMIX_MAG">      1.00000000</i>
    <separator name="electronic mixer details" >
     <i type="int" name="IMIX">     4</i>
     <i type="logical" name="MIXFIRST"> F  </i>
     <i type="int" name="MAXMIX">   -45</i>
     <i name="WC">    100.00000000</i>
     <i type="int" name="INIMIX">     1</i>
     <i type="int" name="MIXPRE">     1</i>
     <i type="int" name="MREMOVE">     5</i>
    </separator>
   </separator>
   <separator name="electronic dipolcorrection" >
    <i type="logical" name="LDIPOL"> T  </i>
    <i type="logical" name="LMONO"> F  </i>
    <i type="int" name="IDIPOL">     3</i>
    <i name="EPSILON">      1.00000000</i>
    <v name="DIPOL">      0.00000000      0.00000000      0.50000000</v>
    <i name="EFIELD">      0.00000000</i>
   </separator>
  </separator>
  <separator name="grids" >
   <i type="int" name="NGX">    54</i>
   <i type="int" name="NGY">    54</i>
   <i type="int" name="NGZ">   128</i>
   <i type="int" name="NGXF">   108</i>
   <i type="int" name="NGYF">   108</i>
   <i type="int" name="NGZF">   256</i>
   <i type="logical" name="ADDGRID"> F  </i>
  </separator>
  <separator name="ionic" >
   <i type="int" name="NSW">   500</i>
   <i type="int" name="IBRION">     2</i>
   <i type="int" name="ISIF">     0</i>
   <i name="PSTRESS">      0.00000000</i>
   <i name="EDIFFG">     -0.02000000</i>
   <i type="int" name="NFREE">     2</i>
   <i name="POTIM">      0.35000000</i>
   <i name="SMASS">     -3.00000000</i>
   <i name="SCALEE">      1.00000000</i>
  </separator>
  <separator name="ionic md" >
   <i name="TEBEG">      0.00010000</i>
   <i name="TEEND">      0.00010000</i>
   <i type="int" name="NBLOCK">     1</i>
   <i type="int" name="KBLOCK">   500</i>
   <i type="int" name="NPACO">   256</i>
   <i name="APACO">     16.00000000</i>
  </separator>
  <separator name="symmetry" >
   <i type="int" name="ISYM">     2</i>
   <i name="SYMPREC">      0.00001000</i>
  </separator>
  <separator name="dos" >
   <i type="logical" name="LORBIT"> F  </i>
   <v name="RWIGS">     -1.00000000     -1.00000000     -1.00000000</v>
   <i type="int" name="NEDOS">   301</i>
   <i name="EMIN">     10.00000000</i>
   <i name="EMAX">    -10.00000000</i>
   <i name="EFERMI">      0.00000000</i>
  </separator>
  <separator name="writing" >
   <i type="int" name="NWRITE">     1</i>
   <i type="logical" name="LWAVE"> F  </i>
   <i type="logical" name="LCHARG"> F  </i>
   <i type="logical" name="LPARD"> F  </i>
   <i type="logical" name="LVTOT"> F  </i>
   <i type="logical" name="LVHAR"> F  </i>
   <i type="logical" name="LELF"> F  </i>
   <i type="logical" name="LOPTICS"> F  </i>
   <v name="STM">      0.00000000      0.00000000      0.00000000      0.00000000      0.00000000      0.00000000      0.00000000</v>
  </separator>
  <separator name="performance" >
   <i type="int" name="NPAR">     6</i>
   <i type="int" name="NSIM">     4</i>
   <i type="int" name="NBLK">    -1</i>
   <i type="logical" name="LPLANE"> T  </i>
   <i type="logical" name="LSCALAPACK"> T  </i>
   <i type="logical" name="LSCAAWARE"> F  </i>
   <i type="logical" name="LSCALU"> F  </i>
   <i type="logical" name="LASYNC"> F  </i>
   <i type="logical" name="LORBITALREAL"> F  </i>
  </separator>
  <separator name="miscellaneous" >
   <i type="int" name="IDIOT">     3</i>
   <i type="logical" name="LMUSIC"> F  </i>
   <v name="POMASS">    196.96600000     16.00000000    106.42000000</v>
   <v name="DARWINR">      0.00000000      0.00000000      0.00000000</v>
   <v name="DARWINV">      1.00000000      1.00000000      1.00000000</v>
   <i type="logical" name="LCORR"> T  </i>
  </separator>
  <i type="logical" name="GGA_COMPAT"> T  </i>
  <i type="logical" name="LBERRY"> F  </i>
  <i type="int" name="ICORELEVEL">     0</i>
  <i type="logical" name="LDAU"> F  </i>
  <i type="int" name="I_CONSTRAINED_M">     0</i>
  <separator name="electronic exchange-correlation" >
   <i type="string" name="GGA">PE</i>
   <i type="int" name="VOSKOWN">     1</i>
   <i type="logical" name="LHFCALC"> F  </i>
   <i type="string" name="PRECFOCK"></i>
   <i type="logical" name="LSYMGRAD"> F  </i>
   <i type="logical" name="LHFONE"> F  </i>
   <i type="logical" name="LRHFCALC"> F  </i>
   <i type="logical" name="LTHOMAS"> F  </i>
   <i type="logical" name="LMODELHF"> F  </i>
   <i name="ENCUT4O">     -1.00000000</i>
   <i type="int" name="EXXOEP">     0</i>
   <i type="int" name="FOURORBIT">     0</i>
   <i name="AEXX">      0.00000000</i>
   <i name="HFALPHA">      0.00000000</i>
   <i name="MCALPHA">      0.00000000</i>
   <i name="ALDAX">      1.00000000</i>
   <i name="AGGAX">      1.00000000</i>
   <i name="ALDAC">      1.00000000</i>
   <i name="AGGAC">      1.00000000</i>
   <i type="int" name="NKREDX">     1</i>
   <i type="int" name="NKREDY">     1</i>
   <i type="int" name="NKREDZ">     1</i>
   <i type="logical" name="SHIFTRED"> F  </i>
   <i type="logical" name="ODDONLY"> F  </i>
   <i type="logical" name="EVENONLY"> F  </i>
   <i type="int" name="LMAXFOCK">     0</i>
   <i type="int" name="NMAXFOCKAE">     0</i>
   <i type="logical" name="LFOCKAEDFT"> F  </i>
   <i name="HFSCREEN">      0.00000000</i>
   <i name="HFSCREENC">      0.00000000</i>
   <i type="int" name="NBANDSGWLOW">     0</i>
  </separator>
  <separator name="vdW DFT" >
   <i type="logical" name="LUSE_VDW"> F  </i>
   <i name="Zab_VDW">     -0.84910000</i>
   <i name="PARAM1">      0.12340000</i>
   <i name="PARAM2">      1.00000000</i>
   <i name="PARAM3">      0.00000000</i>
  </separator>
  <separator name="model GW" >
   <i type="int" name="MODEL_GW">     0</i>
   <i name="MODEL_EPS0">     29.42037089</i>
   <i name="MODEL_ALPHA">      1.00000000</i>
  </separator>
  <separator name="linear response parameters" >
   <i type="logical" name="LEPSILON"> F  </i>
   <i type="logical" name="LRPA"> F  </i>
   <i type="logical" name="LNABLA"> F  </i>
   <i type="logical" name="LVEL"> F  </i>
   <i type="int" name="KINTER">     0</i>
   <i name="CSHIFT">      0.10000000</i>
   <i name="OMEGAMAX">     -1.00000000</i>
   <i name="DEG_THRESHOLD">      0.00200000</i>
  </separator>
  <separator name="orbital magnetization" >
   <i type="logical" name="NUCIND"> F  </i>
   <v name="MAGPOS">      0.00000000      0.00000000      0.00000000</v>
   <i type="logical" name="LNICSALL"> T  </i>
   <i type="logical" name="ORBITALMAG"> F  </i>
   <i type="logical" name="LMAGBLOCH"> F  </i>
   <i type="logical" name="LCHIMAG"> F  </i>
   <i type="logical" name="LGAUGE"> T  </i>
   <i type="int" name="MAGATOM">     0</i>
   <v name="MAGDIPOL">      0.00000000      0.00000000      0.00000000</v>
   <v name="AVECCONST">      0.00000000      0.00000000      0.00000000</v>
  </separator>
  <separator name="response functions" >
   <i type="logical" name="LADDER"> F  </i>
   <i type="logical" name="LFXC"> F  </i>
   <i type="logical" name="LHARTREE"> T  </i>
   <i type="int" name="IBSE">     0</i>
   <v type="int" name="KPOINT">    -1     0     0     0</v>
   <i type="logical" name="LTCTE"> F  </i>
   <i type="logical" name="LTETE"> F  </i>
   <i type="logical" name="LTRIPLET"> F  </i>
   <i type="logical" name="LFXCEPS"> F  </i>
   <i type="logical" name="LFXHEG"> F  </i>
   <i type="int" name="NATURALO">     0</i>
   <i type="logical" name="L2ORDER"> F  </i>
   <i type="logical" name="LUSEW"> F  </i>
   <i name="ENCUTGW">     -2.00000000</i>
   <i name="ENCUTGWSOFT">     -2.00000000</i>
   <i name="ENCUTLF">     -1.00000000</i>
   <i type="int" name="LMAXMP2">    -1</i>
   <i name="SCISSOR">      0.00000000</i>
   <i type="int" name="NOMEGA">     0</i>
   <i type="int" name="NOMEGAR">     0</i>
   <i type="int" name="NBANDSGW">    -1</i>
   <i type="int" name="NBANDSO">    -1</i>
   <i type="int" name="NBANDSV">    -1</i>
   <i type="int" name="NELM">   500</i>
   <i type="int" name="NELMHF">     1</i>
   <i type="int" name="DIM">     3</i>
   <i type="int" name="ANTIRES">     0</i>
   <i name="OMEGAMAX">    -30.00000000</i>
   <i name="OMEGAMIN">    -30.00000000</i>
   <i name="OMEGATL">   -200.00000000</i>
   <i type="int" name="OMEGAGRID">     0</i>
   <i name="CSHIFT">     -0.10000000</i>
   <i type="logical" name="SELFENERGY"> F  </i>
   <i type="logical" name="LSPECTRAL"> F  </i>
   <i type="logical" name="LSPECTRALGW"> F  </i>
   <i type="logical" name="LSINGLES"> F  </i>
   <i type="logical" name="LFERMIGW"> F  </i>
   <i type="logical" name="ODDONLYGW"> F  </i>
   <i type="logical" name="EVENONLYGW"> F  </i>
   <i type="int" name="NKREDLFX">     1</i>
   <i type="int" name="NKREDLFY">     1</i>
   <i type="int" name="NKREDLFZ">     1</i>
   <i type="int" name="MAXMEM">  1800</i>
   <i type="int" name="TELESCOPE">     0</i>
   <i type="int" name="TAUPAR">     1</i>
   <i type="int" name="OMEGAPAR">    -1</i>
   <i name="LAMBDA">      1.00000000</i>
  </separator>
  <separator name="External order field" >
   <i name="OFIELD_KAPPA">      0.00000000</i>
   <v name="OFIELD_K">      0.00000000      0.00000000      0.00000000</v>
   <i name="OFIELD_Q6_NEAR">      0.00000000</i>
   <i name="OFIELD_Q6_FAR">      0.00000000</i>
   <i name="OFIELD_A">      0.00000000</i>
  </separator>
 </parameters>
 <atominfo>
  <atoms>      56 </atoms>
  <types>       3 </types>
  <array name="atoms" >
   <dimension dim="1">ion</dimension>
   <field type="string">element</field>
   <field type="int">atomtype</field>
   <set>
    <rc><c>Au</c><c>   1</c></rc>
    <rc><c>Au</c><c>   1</c></rc>
    <rc><c>Au</c><c>   1</c></rc>
    <rc><c>Au</c><c>   1</c></rc>
    <rc><c>Au</c><c>   1</c></rc>
    <rc><c>Au</c><c>   1</c></rc>
    <rc><c>Au</c><c>   1</c></rc>
    <rc><c>Au</c><c>   1</c></rc>
    <rc><c>Au</c><c>   1</c></rc>
    <rc><c>Au</c><c>   1</c></rc>
    <rc><c>Au</c><c>   1</c></rc>
    <rc><c>Au</c><c>   1</c></rc>
    <rc><c>Au</c><c>   1</c></rc>
    <rc><c>Au</c><c>   1</c></rc>
    <rc><c>Au</c><c>   1</c></rc>
    <rc><c>Au</c><c>   1</c></rc>
    <rc><c>Au</c><c>   1</c></rc>
    <rc><c>Au</c><c>   1</c></rc>
    <rc><c>Au</c><c>   1</c></rc>
    <rc><c>Au</c><c>   1</c></rc>
    <rc><c>Au</c><c>   1</c></rc>
    <rc><c>Au</c><c>   1</c></rc>
    <rc><c>Au</c><c>   1</c></rc>
    <rc><c>Au</c><c>   1</c></rc>
    <rc><c>O </c><c>   2</c></rc>
    <rc><c>O </c><c>   2</c></rc>
    <rc><c>O </c><c>   2</c></rc>
    <rc><c>O </c><c>   2</c></rc>
    <rc><c>O </c><c>   2</c></rc>
    <rc><c>O </c><c>   2</c></rc>
    <rc><c>O </c><c>   2</c></rc>
    <rc><c>O </c><c>   2</c></rc>
    <rc><c>Pd</c><c>   3</c></rc>
    <rc><c>Pd</c><c>   3</c></rc>
    <rc><c>Pd</c><c>   3</c></rc>
    <rc><c>Pd</c><c>   3</c></rc>
    <rc><c>Pd</c><c>   3</c></rc>
    <rc><c>Pd</c><c>   3</c></rc>
    <rc><c>Pd</c><c>   3</c></rc>
    <rc><c>Pd</c><c>   3</c></rc>
    <rc><c>Pd</c><c>   3</c></rc>
    <rc><c>Pd</c><c>   3</c></rc>
    <rc><c>Pd</c><c>   3</c></rc>
    <rc><c>Pd</c><c>   3</c></rc>
    <rc><c>Pd</c><c>   3</c></rc>
    <rc><c>Pd</c><c>   3</c></rc>
    <rc><c>Pd</c><c>   3</c></rc>
    <rc><c>Pd</c><c>   3</c></rc>
    <rc><c>Pd</c><c>   3</c></rc>
    <rc><c>Pd</c><c>   3</c></rc>
    <rc><c>Pd</c><c>   3</c></rc>
    <rc><c>Pd</c><c>   3</c></rc>
    <rc><c>Pd</c><c>   3</c></rc>
    <rc><c>Pd</c><c>   3</c></rc>
    <rc><c>Pd</c><c>   3</c></rc>
    <rc><c>Pd</c><c>   3</c></rc>
   </set>
  </array>
  <array name="atomtypes" >
   <dimension dim="1">type</dimension>
   <field type="int">atomspertype</field>
   <field type="string">element</field>
   <field>mass</field>
   <field>valence</field>
   <field type="string">pseudopotential</field>
   <set>
    <rc><c>  24</c><c>Au</c><c>    196.96600000</c><c>     11.00000000</c><c>  PAW_PBE Au 04Oct2007                  </c></rc>
    <rc><c>   8</c><c>O </c><c>     16.00000000</c><c>      6.00000000</c><c>  PAW_PBE O 08Apr2002                   </c></rc>
    <rc><c>  24</c><c>Pd</c><c>    106.42000000</c><c>     10.00000000</c><c>  PAW_PBE Pd 04Jan2005                  </c></rc>
   </set>
  </array>
 </atominfo>
 <structure name="initialpos" >
  <crystal>
   <varray name="basis" >
    <v>      11.00258152       0.00000000       0.00000000 </v>
    <v>       5.50129076       9.52851510       0.00000000 </v>
    <v>       0.00000000       0.00000000      26.19178509 </v>
   </varray>
   <i name="volume">   2745.90128299 </i>
   <varray name="rec_basis" >
    <v>       0.09088776      -0.05247407       0.00000000 </v>
    <v>       0.00000000       0.10494815       0.00000000 </v>
    <v>       0.00000000       0.00000000       0.03817991 </v>
   </varray>
  </crystal>
  <varray name="positions" >
   <v>       0.08333333       0.08333333       0.38179910 </v>
   <v>       0.25000000       0.50000000       0.55329505 </v>
   <v>       0.08333333       0.83333333       0.38179910 </v>
   <v>       0.91666667       0.16666667       0.46754708 </v>
   <v>       0.00000000       0.00000000       0.55329505 </v>
   <v>       0.66666667       0.91666667       0.46754708 </v>
   <v>       0.91666667       0.41666667       0.46754708 </v>
   <v>       0.66666667       0.66666667       0.46754708 </v>
   <v>       0.66666667       0.41666667       0.46754708 </v>
   <v>       0.08333333       0.58333333       0.38179910 </v>
   <v>       0.75000000       0.00000000       0.55329505 </v>
   <v>       0.91666667       0.91666667       0.46754708 </v>
   <v>       0.58333333       0.83333333       0.38179910 </v>
   <v>       0.58333333       0.58333333       0.38179910 </v>
   <v>       0.58333333       0.33333333       0.38179910 </v>
   <v>       0.33333333       0.08333333       0.38179910 </v>
   <v>       0.25000000       0.00000000       0.55329505 </v>
   <v>       0.41666667       0.16666667       0.46754708 </v>
   <v>       0.33333333       0.33333333       0.38179910 </v>
   <v>       0.16666667       0.41666667       0.46754708 </v>
   <v>       0.58333333       0.08333333       0.38179910 </v>
   <v>       0.33333333       0.83333333       0.38179910 </v>
   <v>       0.33333333       0.58333333       0.38179910 </v>
   <v>       0.16666667       0.66666667       0.46754708 </v>
   <v>       0.08333333       0.83333333       0.61820090 </v>
   <v>       0.08333333       0.58333333       0.61820090 </v>
   <v>       0.33333333       0.58333333       0.61820090 </v>
   <v>       0.08333333       0.08333333       0.61820090 </v>
   <v>       0.83333333       0.83333333       0.61820090 </v>
   <v>       0.83333333       0.58333333       0.61820090 </v>
   <v>       0.58333333       0.08333333       0.61820090 </v>
   <v>       0.58333333       0.58333333       0.61820090 </v>
   <v>       0.16666667       0.91666667       0.46754708 </v>
   <v>       0.25000000       0.75000000       0.55329505 </v>
   <v>       0.75000000       0.75000000       0.55329505 </v>
   <v>       0.25000000       0.25000000       0.55329505 </v>
   <v>       0.50000000       0.00000000       0.55329505 </v>
   <v>       0.16666667       0.16666667       0.46754708 </v>
   <v>       0.41666667       0.41666667       0.46754708 </v>
   <v>       0.50000000       0.25000000       0.55329505 </v>
   <v>       0.83333333       0.83333333       0.38179910 </v>
   <v>       0.00000000       0.75000000       0.55329505 </v>
   <v>       0.75000000       0.25000000       0.55329505 </v>
   <v>       0.41666667       0.66666667       0.46754708 </v>
   <v>       0.00000000       0.50000000       0.55329505 </v>
   <v>       0.50000000       0.75000000       0.55329505 </v>
   <v>       0.08333333       0.33333333       0.38179910 </v>
   <v>       0.83333333       0.08333333       0.38179910 </v>
   <v>       0.66666667       0.16666667       0.46754708 </v>
   <v>       0.91666667       0.66666667       0.46754708 </v>
   <v>       0.75000000       0.50000000       0.55329505 </v>
   <v>       0.83333333       0.33333333       0.38179910 </v>
   <v>       0.00000000       0.25000000       0.55329505 </v>
   <v>       0.41666667       0.91666667       0.46754708 </v>
   <v>       0.50000000       0.50000000       0.55329505 </v>
   <v>       0.83333333       0.58333333       0.38179910 </v>
  </varray>
  <varray name="selective"  type="logical" >
   <v type="logical" >  F  F  F </v>
   <v type="logical" >  T  T  T </v>
   <v type="logical" >  F  F  F </v>
   <v type="logical" >  T  T  T </v>
   <v type="logical" >  T  T  T </v>
   <v type="logical" >  T  T  T </v>
   <v type="logical" >  T  T  T </v>
   <v type="logical" >  T  T  T </v>
   <v type="logical" >  T  T  T </v>
   <v type="logical" >  F  F  F </v>
   <v type="logical" >  T  T  T </v>
   <v type="logical" >  T  T  T </v>
   <v type="logical" >  F  F  F </v>
   <v type="logical" >  F  F  F </v>
   <v type="logical" >  F  F  F </v>
   <v type="logical" >  F  F  F </v>
   <v type="logical" >  T  T  T </v>
   <v type="logical" >  T  T  T </v>
   <v type="logical" >  F  F  F </v>
   <v type="logical" >  T  T  T </v>
   <v type="logical" >  F  F  F </v>
   <v type="logical" >  F  F  F </v>
   <v type="logical" >  F  F  F </v>
   <v type="logical" >  T  T  T </v>
   <v type="logical" >  T  T  T </v>
   <v type="logical" >  T  T  T </v>
   <v type="logical" >  T  T  T </v>
   <v type="logical" >  T  T  T </v>
   <v type="logical" >  T  T  T </v>
   <v type="logical" >  T  T  T </v>
   <v type="logical" >  T  T  T </v>
   <v type="logical" >  T  T  T </v>
   <v type="logical" >  T  T  T </v>
   <v type="logical" >  T  T  T </v>
   <v type="logical" >  T  T  T </v>
   <v type="logical" >  T  T  T </v>
   <v type="logical" >  T  T  T </v>
   <v type="logical" >  T  T  T </v>
   <v type="logical" >  T  T  T </v>
   <v type="logical" >  T  T  T </v>
   <v type="logical" >  F  F  F </v>
   <v type="logical" >  T  T  T </v>
   <v type="logical" >  T  T  T </v>
   <v type="logical" >  T  T  T </v>
   <v type="logical" >  T  T  T </v>
   <v type="logical" >  T  T  T </v>
   <v type="logical" >  F  F  F </v>
   <v type="logical" >  F  F  F </v>
   <v type="logical" >  T  T  T </v>
   <v type="logical" >  T  T  T </v>
   <v type="logical" >  T  T  T </v>
   <v type="logical" >  F  F  F </v>
   <v type="logical" >  T  T  T </v>
   <v type="logical" >  T  T  T </v>
   <v type="logical" >  T  T  T </v>
   <v type="logical" >  F  F  F </v>
  </varray>
  <nose>
   <v>      -3.00000000       0.00000000       0.00010000       0.00010000 </v>
  </nose>
 </structure>
 <calculation>
  <scstep>
   <time name="dav">   11.65   11.73</time>
   <time name="total">   11.72   11.81</time>
   <dipole>
    <v name="dipole">      0.00000000       0.00000000       0.00010276 </v>
    <i name="Tr[quadrupol]"> -11186.01642258 </i>
    <i name="Echarged">      0.00000000 </i>
    <i name="Edipol_quadrupol">      0.00000000 </i>
    <i name="Eion">      0.00000000 </i>
   </dipole>
   <energy>
    <i name="alphaZ">    862.57848254 </i>
    <i name="ewald"> 255258.00480264 </i>
    <i name="hartreedc">-300831.66020180 </i>
    <i name="XCdc">   -109.77199009 </i>
    <i name="pawpsdc">  43112.45544455 </i>
    <i name="pawaedc"> -41079.41300390 </i>
    <i name="eentropy">     -0.13682458 </i>
    <i name="bandstr">   1328.43042806 </i>
    <i name="atom">  45117.89144060 </i>
    <i name="e_fr_energy">   3658.37857802 </i>
    <i name="e_wo_entrp">   3658.51540260 </i>
    <i name="e_0_energy">   3658.44699031 </i>
   </energy>
  </scstep>
  <scstep>
   <time name="dav">   13.99   14.02</time>
   <time name="total">   14.01   14.04</time>
   <dipole>
    <v name="dipole">      0.00000000       0.00000000       0.00010276 </v>
    <i name="Tr[quadrupol]"> -11186.01642258 </i>
    <i name="Echarged">      0.00000000 </i>
    <i name="Edipol_quadrupol">      0.00000000 </i>
    <i name="Eion">      0.00000000 </i>
   </dipole>
   <energy>
    <i name="e_fr_energy">     53.68494748 </i>
    <i name="e_wo_entrp">     53.84790155 </i>
    <i name="e_0_energy">     53.76642451 </i>
   </energy>
  </scstep>
  <scstep>
   <time name="dav">   13.18   13.19</time>
   <time name="total">   13.18   13.20</time>
   <dipole>
    <v name="dipole">      0.00000000       0.00000000       0.00010276 </v>
    <i name="Tr[quadrupol]"> -11186.01642258 </i>
    <i name="Echarged">      0.00000000 </i>
    <i name="Edipol_quadrupol">      0.00000000 </i>
    <i name="Eion">      0.00000000 </i>
   </dipole>
   <energy>
    <i name="e_fr_energy">   -252.38278797 </i>
    <i name="e_wo_entrp">   -251.92184856 </i>
    <i name="e_0_energy">   -252.15231827 </i>
   </energy>
  </scstep>
  <scstep>
   <time name="dav">   12.89   12.97</time>
   <time name="total">   12.90   12.97</time>
   <dipole>
    <v name="dipole">      0.00000000       0.00000000       0.00010276 </v>
    <i name="Tr[quadrupol]"> -11186.01642258 </i>
    <i name="Echarged">      0.00000000 </i>
    <i name="Edipol_quadrupol">      0.00000000 </i>
    <i name="Eion">      0.00000000 </i>
   </dipole>
   <energy>
    <i name="e_fr_energy">   -263.61713498 </i>
    <i name="e_wo_entrp">   -263.14031555 </i>
    <i name="e_0_energy">   -263.37872526 </i>
   </energy>
  </scstep>
  <scstep>
   <time name="dav">   13.46   13.47</time>
   <time name="total">   13.82   13.83</time>
   <dipole>
    <v name="dipole">      0.00000000       0.00000000       0.00010276 </v>
    <i name="Tr[quadrupol]"> -11186.01642258 </i>
    <i name="Echarged">      0.00000000 </i>
    <i name="Edipol_quadrupol">      0.00000000 </i>
    <i name="Eion">      0.00000000 </i>
   </dipole>
   <energy>
    <i name="e_fr_energy">   -263.95927123 </i>
    <i name="e_wo_entrp">   -263.48071201 </i>
    <i name="e_0_energy">   -263.71999162 </i>
   </energy>
  </scstep>
  <scstep>
   <time name="diag">    2.04    2.05</time>
   <time name="diis">    5.95    5.99</time>
   <time name="orth">    0.54    0.55</time>
   <time name="total">    8.96    9.00</time>
   <dipole>
    <v name="dipole">      0.00000000       0.00000000       6.52570138 </v>
    <i name="Tr[quadrupol]"> -11183.47804854 </i>
    <i name="Echarged">      0.00000000 </i>
    <i name="Edipol_quadrupol">      0.00000000 </i>
    <i name="Eion">      0.00000000 </i>
   </dipole>
   <energy>
    <i name="e_fr_energy">   -494.39154418 </i>
    <i name="e_wo_entrp">   -494.10732025 </i>
    <i name="e_0_energy">   -494.24943221 </i>
   </energy>
  </scstep>
  <scstep>
   <time name="diag">    2.06    2.06</time>
   <time name="diis">    5.27    5.32</time>
   <time name="orth">    0.53    0.55</time>
   <time name="total">    8.27    8.35</time>
   <dipole>
    <v name="dipole">      0.00000000       0.00000000       0.67061804 </v>
    <i name="Tr[quadrupol]"> -11178.67775722 </i>
    <i name="Echarged">      0.00000000 </i>
    <i name="Edipol_quadrupol">      0.00000000 </i>
    <i name="Eion">      0.00000000 </i>
   </dipole>
   <energy>
    <i name="e_fr_energy">   -228.04481052 </i>
    <i name="e_wo_entrp">   -227.78544302 </i>
    <i name="e_0_energy">   -227.91512677 </i>
   </energy>
  </scstep>
  <scstep>
   <time name="diag">    2.04    2.04</time>
   <time name="diis">    5.29    5.30</time>
   <time name="orth">    0.54    0.54</time>
   <time name="total">    8.29    8.30</time>
   <dipole>
    <v name="dipole">      0.00000000       0.00000000       3.23770307 </v>
    <i name="Tr[quadrupol]"> -11183.77423520 </i>
    <i name="Echarged">      0.00000000 </i>
    <i name="Edipol_quadrupol">      0.00000000 </i>
    <i name="Eion">      0.00000000 </i>
   </dipole>
   <energy>
    <i name="e_fr_energy">   -283.05872332 </i>
    <i name="e_wo_entrp">   -282.86889971 </i>
    <i name="e_0_energy">   -282.96381152 </i>
   </energy>
  </scstep>
  <scstep>
   <time name="diag">    2.05    2.06</time>
   <time name="diis">    5.31    5.31</time>
   <time name="orth">    0.54    0.54</time>
   <time name="total">    8.31    8.32</time>
   <dipole>
    <v name="dipole">      0.00000000       0.00000000       2.72723707 </v>
    <i name="Tr[quadrupol]"> -11185.35556583 </i>
    <i name="Echarged">      0.00000000 </i>
    <i name="Edipol_quadrupol">      0.00000000 </i>
    <i name="Eion">      0.00000000 </i>
   </dipole>
   <energy>
    <i name="e_fr_energy">   -277.59493244 </i>
    <i name="e_wo_entrp">   -277.40256938 </i>
    <i name="e_0_energy">   -277.49875091 </i>
   </energy>
  </scstep>
  <scstep>
   <time name="diag">    2.03    2.04</time>
   <time name="diis">    5.37    5.37</time>
   <time name="orth">    0.53    0.53</time>
   <time name="total">    8.35    8.36</time>
   <dipole>
    <v name="dipole">      0.00000000       0.00000000       1.98862812 </v>
    <i name="Tr[quadrupol]"> -11188.38002063 </i>
    <i name="Echarged">      0.00000000 </i>
    <i name="Edipol_quadrupol">      0.00000000 </i>
    <i name="Eion">      0.00000000 </i>
   </dipole>
   <energy>
    <i name="e_fr_energy">   -234.61642273 </i>
    <i name="e_wo_entrp">   -234.42190532 </i>
    <i name="e_0_energy">   -234.51916402 </i>
   </energy>
  </scstep>
  <scstep>
   <time name="diag">    2.04    2.04</time>
   <time name="diis">    5.36    5.36</time>
   <time name="orth">    0.54    0.54</time>
   <time name="total">    8.34    8.35</time>
   <dipole>
    <v name="dipole">      0.00000000       0.00000000       1.88293394 </v>
    <i name="Tr[quadrupol]"> -11189.06345598 </i>
    <i name="Echarged">      0.00000000 </i>
    <i name="Edipol_quadrupol">      0.00000000 </i>
    <i name="Eion">      0.00000000 </i>
   </dipole>
   <energy>
    <i name="e_fr_energy">   -225.73882575 </i>
    <i name="e_wo_entrp">   -225.55195393 </i>
    <i name="e_0_energy">   -225.64538984 </i>
   </energy>
  </scstep>
  <scstep>
   <time name="diag">    2.04    2.04</time>
   <time name="diis">    5.29    5.37</time>
   <time name="orth">    0.54    0.54</time>
   <time name="total">    8.28    8.36</time>
   <dipole>
    <v name="dipole">      0.00000000       0.00000000       1.73496799 </v>
    <i name="Tr[quadrupol]"> -11188.80649755 </i>
    <i name="Echarged">      0.00000000 </i>
    <i name="Edipol_quadrupol">      0.00000000 </i>
    <i name="Eion">      0.00000000 </i>
   </dipole>
   <energy>
    <i name="e_fr_energy">   -225.04385976 </i>
    <i name="e_wo_entrp">   -224.78906090 </i>
    <i name="e_0_energy">   -224.91646033 </i>
   </energy>
  </scstep>
  <scstep>
   <time name="diag">    2.07    2.07</time>
   <time name="diis">    5.37    5.39</time>
   <time name="orth">    0.65    0.65</time>
   <time name="total">    8.63    8.66</time>
   <dipole>
    <v name="dipole">      0.00000000       0.00000000       1.58769047 </v>
    <i name="Tr[quadrupol]"> -11188.18856392 </i>
    <i name="Echarged">      0.00000000 </i>
    <i name="Edipol_quadrupol">      0.00000000 </i>
    <i name="Eion">      0.00000000 </i>
   </dipole>
   <energy>
    <i name="e_fr_energy">   -223.42658846 </i>
    <i name="e_wo_entrp">   -223.16768764 </i>
    <i name="e_0_energy">   -223.29713805 </i>
   </energy>
  </scstep>
  <scstep>
   <time name="diag">    2.26    2.27</time>
   <time name="diis">    5.31    5.31</time>
   <time name="orth">    0.53    0.54</time>
   <time name="total">    8.54    8.57</time>
   <dipole>
    <v name="dipole">      0.00000000       0.00000000       1.57287739 </v>
    <i name="Tr[quadrupol]"> -11188.10605812 </i>
    <i name="Echarged">      0.00000000 </i>
    <i name="Edipol_quadrupol">      0.00000000 </i>
    <i name="Eion">      0.00000000 </i>
   </dipole>
   <energy>
    <i name="e_fr_energy">   -222.04565975 </i>
    <i name="e_wo_entrp">   -221.69578454 </i>
    <i name="e_0_energy">   -221.87072214 </i>
   </energy>
  </scstep>
  <scstep>
   <time name="diag">    2.04    2.04</time>
   <time name="diis">    5.38    5.38</time>
   <time name="orth">    0.53    0.53</time>
   <time name="total">    8.37    8.38</time>
   <dipole>
    <v name="dipole">      0.00000000       0.00000000       1.56741374 </v>
    <i name="Tr[quadrupol]"> -11187.88118388 </i>
    <i name="Echarged">      0.00000000 </i>
    <i name="Edipol_quadrupol">      0.00000000 </i>
    <i name="Eion">      0.00000000 </i>
   </dipole>
   <energy>
    <i name="e_fr_energy">   -221.78757511 </i>
    <i name="e_wo_entrp">   -221.46045416 </i>
    <i name="e_0_energy">   -221.62401463 </i>
   </energy>
  </scstep>
  <scstep>
   <time name="diag">    2.03    2.03</time>
   <time name="diis">    5.41    5.41</time>
   <time name="orth">    0.53    0.53</time>
   <time name="total">    8.39    8.40</time>
   <dipole>
    <v name="dipole">      0.00000000       0.00000000       1.58030322 </v>
    <i name="Tr[quadrupol]"> -11187.60184935 </i>
    <i name="Echarged">      0.00000000 </i>
    <i name="Edipol_quadrupol">      0.00000000 </i>
    <i name="Eion">      0.00000000 </i>
   </dipole>
   <energy>
    <i name="e_fr_energy">   -221.61519555 </i>
    <i name="e_wo_entrp">   -221.32964767 </i>
    <i name="e_0_energy">   -221.47242161 </i>
   </energy>
  </scstep>
  <scstep>
   <time name="diag">    2.04    2.05</time>
   <time name="diis">    5.31    5.39</time>
   <time name="orth">    0.53    0.53</time>
   <time name="total">    8.30    8.39</time>
   <dipole>
    <v name="dipole">      0.00000000       0.00000000       1.60807457 </v>
    <i name="Tr[quadrupol]"> -11187.46740477 </i>
    <i name="Echarged">      0.00000000 </i>
    <i name="Edipol_quadrupol">      0.00000000 </i>
    <i name="Eion">      0.00000000 </i>
   </dipole>
   <energy>
    <i name="e_fr_energy">   -221.46164833 </i>
    <i name="e_wo_entrp">   -221.15550610 </i>
    <i name="e_0_energy">   -221.30857722 </i>
   </energy>
  </scstep>
  <scstep>
   <time name="diag">    2.04    2.04</time>
   <time name="diis">    5.35    5.35</time>
   <time name="orth">    0.53    0.53</time>
   <time name="total">    8.34    8.34</time>
   <dipole>
    <v name="dipole">      0.00000000       0.00000000       1.62086196 </v>
    <i name="Tr[quadrupol]"> -11187.33730463 </i>
    <i name="Echarged">      0.00000000 </i>
    <i name="Edipol_quadrupol">      0.00000000 </i>
    <i name="Eion">      0.00000000 </i>
   </dipole>
   <energy>
    <i name="e_fr_energy">   -221.36351315 </i>
    <i name="e_wo_entrp">   -221.06361243 </i>
    <i name="e_0_energy">   -221.21356279 </i>
   </energy>
  </scstep>
  <scstep>
   <time name="diag">    2.02    2.02</time>
   <time name="diis">    5.40    5.40</time>
   <time name="orth">    0.52    0.52</time>
   <time name="total">    8.36    8.36</time>
   <dipole>
    <v name="dipole">      0.00000000       0.00000000       1.60278860 </v>
    <i name="Tr[quadrupol]"> -11187.20654672 </i>
    <i name="Echarged">      0.00000000 </i>
    <i name="Edipol_quadrupol">      0.00000000 </i>
    <i name="Eion">      0.00000000 </i>
   </dipole>
   <energy>
    <i name="e_fr_energy">   -221.37033847 </i>
    <i name="e_wo_entrp">   -221.05862657 </i>
    <i name="e_0_energy">   -221.21448252 </i>
   </energy>
  </scstep>
  <scstep>
   <time name="diag">    2.03    2.03</time>
   <time name="diis">    5.39    5.39</time>
   <time name="orth">    0.58    0.58</time>
   <time name="total">    8.54    8.55</time>
   <dipole>
    <v name="dipole">      0.00000000       0.00000000       1.56740776 </v>
    <i name="Tr[quadrupol]"> -11187.01552726 </i>
    <i name="Echarged">      0.00000000 </i>
    <i name="Edipol_quadrupol">      0.00000000 </i>
    <i name="Eion">      0.00000000 </i>
   </dipole>
   <energy>
    <i name="e_fr_energy">   -221.36766704 </i>
    <i name="e_wo_entrp">   -221.04551931 </i>
    <i name="e_0_energy">   -221.20659317 </i>
   </energy>
  </scstep>
  <scstep>
   <time name="diag">    1.80    2.39</time>
   <time name="diis">    5.32    5.33</time>
   <time name="orth">    0.52    0.52</time>
   <time name="total">    8.06    8.69</time>
   <dipole>
    <v name="dipole">      0.00000000       0.00000000       1.53527113 </v>
    <i name="Tr[quadrupol]"> -11186.68851309 </i>
    <i name="Echarged">      0.00000000 </i>
    <i name="Edipol_quadrupol">      0.00000000 </i>
    <i name="Eion">      0.00000000 </i>
   </dipole>
   <energy>
    <i name="e_fr_energy">   -221.31946125 </i>
    <i name="e_wo_entrp">   -221.00261087 </i>
    <i name="e_0_energy">   -221.16103606 </i>
   </energy>
  </scstep>
  <scstep>
   <time name="diag">    1.97    2.03</time>
   <time name="diis">    5.40    5.40</time>
   <time name="orth">    0.52    0.52</time>
   <time name="total">    8.30    8.37</time>
   <dipole>
    <v name="dipole">      0.00000000       0.00000000       1.52369009 </v>
    <i name="Tr[quadrupol]"> -11186.43573362 </i>
    <i name="Echarged">      0.00000000 </i>
    <i name="Edipol_quadrupol">      0.00000000 </i>
    <i name="Eion">      0.00000000 </i>
   </dipole>
   <energy>
    <i name="e_fr_energy">   -221.30449625 </i>
    <i name="e_wo_entrp">   -220.99770352 </i>
    <i name="e_0_energy">   -221.15109988 </i>
   </energy>
  </scstep>
  <scstep>
   <time name="diag">    2.01    2.01</time>
   <time name="diis">    5.42    5.42</time>
   <time name="orth">    0.52    0.52</time>
   <time name="total">    8.36    8.37</time>
   <dipole>
    <v name="dipole">      0.00000000       0.00000000       1.51713118 </v>
    <i name="Tr[quadrupol]"> -11186.26840304 </i>
    <i name="Echarged">      0.00000000 </i>
    <i name="Edipol_quadrupol">      0.00000000 </i>
    <i name="Eion">      0.00000000 </i>
   </dipole>
   <energy>
    <i name="e_fr_energy">   -221.29514136 </i>
    <i name="e_wo_entrp">   -220.98590452 </i>
    <i name="e_0_energy">   -221.14052294 </i>
   </energy>
  </scstep>
  <scstep>
   <time name="diag">    2.01    2.01</time>
   <time name="diis">    5.31    5.31</time>
   <time name="orth">    0.52    0.52</time>
   <time name="total">    8.26    8.27</time>
   <dipole>
    <v name="dipole">      0.00000000       0.00000000       1.50948644 </v>
    <i name="Tr[quadrupol]"> -11186.16628927 </i>
    <i name="Echarged">      0.00000000 </i>
    <i name="Edipol_quadrupol">      0.00000000 </i>
    <i name="Eion">      0.00000000 </i>
   </dipole>
   <energy>
    <i name="e_fr_energy">   -221.29377169 </i>
    <i name="e_wo_entrp">   -220.98374452 </i>
    <i name="e_0_energy">   -221.13875811 </i>
   </energy>
  </scstep>
  <scstep>
   <time name="diag">    2.04    2.04</time>
   <time name="diis">    5.34    5.35</time>
   <time name="orth">    0.52    0.52</time>
   <time name="total">    8.32    8.33</time>
   <dipole>
    <v name="dipole">      0.00000000       0.00000000       1.49719934 </v>
    <i name="Tr[quadrupol]"> -11185.97696927 </i>
    <i name="Echarged">      0.00000000 </i>
    <i name="Edipol_quadrupol">      0.00000000 </i>
    <i name="Eion">      0.00000000 </i>
   </dipole>
   <energy>
    <i name="e_fr_energy">   -221.29307271 </i>
    <i name="e_wo_entrp">   -220.98217743 </i>
    <i name="e_0_energy">   -221.13762507 </i>
   </energy>
  </scstep>
  <scstep>
   <time name="diag">    2.02    2.03</time>
   <time name="diis">    5.40    5.41</time>
   <time name="orth">    0.50    0.54</time>
   <time name="total">    8.34    8.42</time>
   <dipole>
    <v name="dipole">      0.00000000       0.00000000       1.48544631 </v>
    <i name="Tr[quadrupol]"> -11185.81400887 </i>
    <i name="Echarged">      0.00000000 </i>
    <i name="Edipol_quadrupol">      0.00000000 </i>
    <i name="Eion">      0.00000000 </i>
   </dipole>
   <energy>
    <i name="e_fr_energy">   -221.29241839 </i>
    <i name="e_wo_entrp">   -220.97985489 </i>
    <i name="e_0_energy">   -221.13613664 </i>
   </energy>
  </scstep>
  <scstep>
   <time name="diag">    2.01    2.01</time>
   <time name="diis">    5.32    5.32</time>
   <time name="orth">    0.52    0.52</time>
   <time name="total">    8.27    8.27</time>
   <dipole>
    <v name="dipole">      0.00000000       0.00000000       1.47044605 </v>
    <i name="Tr[quadrupol]"> -11185.62565888 </i>
    <i name="Echarged">      0.00000000 </i>
    <i name="Edipol_quadrupol">      0.00000000 </i>
    <i name="Eion">      0.00000000 </i>
   </dipole>
   <energy>
    <i name="e_fr_energy">   -221.29210815 </i>
    <i name="e_wo_entrp">   -220.97802101 </i>
    <i name="e_0_energy">   -221.13506458 </i>
   </energy>
  </scstep>
  <scstep>
   <time name="diag">    1.77    2.50</time>
   <time name="diis">    5.38    5.39</time>
   <time name="orth">    0.52    0.52</time>
   <time name="total">    8.10    8.83</time>
   <dipole>
    <v name="dipole">      0.00000000       0.00000000       1.45759413 </v>
    <i name="Tr[quadrupol]"> -11185.45232740 </i>
    <i name="Echarged">      0.00000000 </i>
    <i name="Edipol_quadrupol">      0.00000000 </i>
    <i name="Eion">      0.00000000 </i>
   </dipole>
   <energy>
    <i name="e_fr_energy">   -221.29204713 </i>
    <i name="e_wo_entrp">   -220.97687111 </i>
    <i name="e_0_energy">   -221.13445912 </i>
   </energy>
  </scstep>
  <scstep>
   <time name="diag">    2.03    2.03</time>
   <time name="diis">    5.32    5.32</time>
   <time name="orth">    0.52    0.52</time>
   <time name="total">    8.29    8.30</time>
   <dipole>
    <v name="dipole">      0.00000000       0.00000000       1.44481389 </v>
    <i name="Tr[quadrupol]"> -11185.24976211 </i>
    <i name="Echarged">      0.00000000 </i>
    <i name="Edipol_quadrupol">      0.00000000 </i>
    <i name="Eion">      0.00000000 </i>
   </dipole>
   <energy>
    <i name="e_fr_energy">   -221.29220932 </i>
    <i name="e_wo_entrp">   -220.97699072 </i>
    <i name="e_0_energy">   -221.13460002 </i>
   </energy>
  </scstep>
  <scstep>
   <time name="diag">    2.02    2.02</time>
   <time name="diis">    5.42    5.42</time>
   <time name="orth">    0.52    0.52</time>
   <time name="total">    8.38    8.39</time>
   <dipole>
    <v name="dipole">      0.00000000       0.00000000       1.43414399 </v>
    <i name="Tr[quadrupol]"> -11185.09237362 </i>
    <i name="Echarged">      0.00000000 </i>
    <i name="Edipol_quadrupol">      0.00000000 </i>
    <i name="Eion">      0.00000000 </i>
   </dipole>
   <energy>
    <i name="e_fr_energy">   -221.29232297 </i>
    <i name="e_wo_entrp">   -220.97759904 </i>
    <i name="e_0_energy">   -221.13496100 </i>
   </energy>
  </scstep>
  <scstep>
   <time name="diag">    2.01    2.02</time>
   <time name="diis">    5.29    5.37</time>
   <time name="orth">    0.52    0.52</time>
   <time name="total">    8.25    8.33</time>
   <dipole>
    <v name="dipole">      0.00000000       0.00000000       1.42442862 </v>
    <i name="Tr[quadrupol]"> -11184.94610894 </i>
    <i name="Echarged">      0.00000000 </i>
    <i name="Edipol_quadrupol">      0.00000000 </i>
    <i name="Eion">      0.00000000 </i>
   </dipole>
   <energy>
    <i name="e_fr_energy">   -221.29246387 </i>
    <i name="e_wo_entrp">   -220.97757981 </i>
    <i name="e_0_energy">   -221.13502184 </i>
   </energy>
  </scstep>
  <scstep>
   <time name="diag">    2.02    2.02</time>
   <time name="diis">    5.34    5.34</time>
   <time name="orth">    0.52    0.53</time>
   <time name="total">    8.31    8.32</time>
   <dipole>
    <v name="dipole">      0.00000000       0.00000000       1.41752427 </v>
    <i name="Tr[quadrupol]"> -11184.84580564 </i>
    <i name="Echarged">      0.00000000 </i>
    <i name="Edipol_quadrupol">      0.00000000 </i>
    <i name="Eion">      0.00000000 </i>
   </dipole>
   <energy>
    <i name="e_fr_energy">   -221.29255193 </i>
    <i name="e_wo_entrp">   -220.97761915 </i>
    <i name="e_0_energy">   -221.13508554 </i>
   </energy>
  </scstep>
  <scstep>
   <time name="diag">    2.03    2.03</time>
   <time name="diis">    5.38    5.39</time>
   <time name="orth">    0.52    0.52</time>
   <time name="total">    8.36    8.37</time>
   <dipole>
    <v name="dipole">      0.00000000       0.00000000       1.40876707 </v>
    <i name="Tr[quadrupol]"> -11184.71719416 </i>
    <i name="Echarged">      0.00000000 </i>
    <i name="Edipol_quadrupol">      0.00000000 </i>
    <i name="Eion">      0.00000000 </i>
   </dipole>
   <energy>
    <i name="e_fr_energy">   -221.29268135 </i>
    <i name="e_wo_entrp">   -220.97781292 </i>
    <i name="e_0_energy">   -221.13524713 </i>
   </energy>
  </scstep>
  <scstep>
   <time name="diag">    2.02    2.02</time>
   <time name="diis">    5.36    5.36</time>
   <time name="orth">    0.52    0.52</time>
   <time name="total">    8.32    8.33</time>
   <dipole>
    <v name="dipole">      0.00000000       0.00000000       1.39363095 </v>
    <i name="Tr[quadrupol]"> -11184.49841042 </i>
    <i name="Echarged">      0.00000000 </i>
    <i name="Edipol_quadrupol">      0.00000000 </i>
    <i name="Eion">      0.00000000 </i>
   </dipole>
   <energy>
    <i name="e_fr_energy">   -221.29292408 </i>
    <i name="e_wo_entrp">   -220.97837884 </i>
    <i name="e_0_energy">   -221.13565146 </i>
   </energy>
  </scstep>
  <scstep>
   <time name="diag">    1.94    2.19</time>
   <time name="diis">    4.63    5.39</time>
   <time name="orth">    0.52    0.52</time>
   <time name="total">    7.50    8.52</time>
   <dipole>
    <v name="dipole">      0.00000000       0.00000000       1.38650886 </v>
    <i name="Tr[quadrupol]"> -11184.39779043 </i>
    <i name="Echarged">      0.00000000 </i>
    <i name="Edipol_quadrupol">      0.00000000 </i>
    <i name="Eion">      0.00000000 </i>
   </dipole>
   <energy>
    <i name="e_fr_energy">   -221.29302708 </i>
    <i name="e_wo_entrp">   -220.97842947 </i>
    <i name="e_0_energy">   -221.13572828 </i>
   </energy>
  </scstep>
  <scstep>
   <time name="diag">    2.02    2.02</time>
   <time name="diis">    4.75    4.81</time>
   <time name="orth">    0.50    0.51</time>
   <time name="total">    7.71    7.78</time>
   <dipole>
    <v name="dipole">      0.00000000       0.00000000       1.37960792 </v>
    <i name="Tr[quadrupol]"> -11184.30433772 </i>
    <i name="Echarged">      0.00000000 </i>
    <i name="Edipol_quadrupol">      0.00000000 </i>
    <i name="Eion">      0.00000000 </i>
   </dipole>
   <energy>
    <i name="e_fr_energy">   -221.29310816 </i>
    <i name="e_wo_entrp">   -220.97859038 </i>
    <i name="e_0_energy">   -221.13584927 </i>
   </energy>
  </scstep>
  <scstep>
   <time name="diag">    2.03    2.03</time>
   <time name="diis">    4.59    4.60</time>
   <time name="orth">    0.51    0.51</time>
   <time name="total">    7.54    7.56</time>
   <dipole>
    <v name="dipole">      0.00000000       0.00000000       1.37370849 </v>
    <i name="Tr[quadrupol]"> -11184.22586196 </i>
    <i name="Echarged">      0.00000000 </i>
    <i name="Edipol_quadrupol">      0.00000000 </i>
    <i name="Eion">      0.00000000 </i>
   </dipole>
   <energy>
    <i name="e_fr_energy">   -221.29316049 </i>
    <i name="e_wo_entrp">   -220.97864045 </i>
    <i name="e_0_energy">   -221.13590047 </i>
   </energy>
  </scstep>
  <scstep>
   <time name="diag">    2.00    2.00</time>
   <time name="diis">    3.96    3.96</time>
   <time name="orth">    0.51    0.51</time>
   <time name="total">    6.90    6.91</time>
   <dipole>
    <v name="dipole">      0.00000000       0.00000000       1.37028187 </v>
    <i name="Tr[quadrupol]"> -11184.18209444 </i>
    <i name="Echarged">      0.00000000 </i>
    <i name="Edipol_quadrupol">      0.00000000 </i>
    <i name="Eion">      0.00000000 </i>
   </dipole>
   <energy>
    <i name="e_fr_energy">   -221.29317993 </i>
    <i name="e_wo_entrp">   -220.97870869 </i>
    <i name="e_0_energy">   -221.13594431 </i>
   </energy>
  </scstep>
  <scstep>
   <time name="diag">    2.00    2.00</time>
   <time name="diis">    3.30    3.30</time>
   <time name="orth">    0.51    0.51</time>
   <time name="total">    6.22    6.23</time>
   <dipole>
    <v name="dipole">      0.00000000       0.00000000       1.36885451 </v>
    <i name="Tr[quadrupol]"> -11184.16886792 </i>
    <i name="Echarged">      0.00000000 </i>
    <i name="Edipol_quadrupol">      0.00000000 </i>
    <i name="Eion">      0.00000000 </i>
   </dipole>
   <energy>
    <i name="e_fr_energy">   -221.29320036 </i>
    <i name="e_wo_entrp">   -220.97868956 </i>
    <i name="e_0_energy">   -221.13594496 </i>
   </energy>
  </scstep>
  <scstep>
   <time name="diag">    2.00    2.00</time>
   <time name="diis">    3.28    3.28</time>
   <time name="orth">    0.51    0.51</time>
   <time name="total">    6.21    6.22</time>
   <dipole>
    <v name="dipole">      0.00000000       0.00000000       1.36742245 </v>
    <i name="Tr[quadrupol]"> -11184.15503119 </i>
    <i name="Echarged">      0.00000000 </i>
    <i name="Edipol_quadrupol">      0.00000000 </i>
    <i name="Eion">      0.00000000 </i>
   </dipole>
   <energy>
    <i name="e_fr_energy">   -221.29321822 </i>
    <i name="e_wo_entrp">   -220.97868716 </i>
    <i name="e_0_energy">   -221.13595269 </i>
   </energy>
  </scstep>
  <scstep>
   <time name="diag">    2.01    2.01</time>
   <time name="diis">    3.29    3.29</time>
   <time name="orth">    0.51    0.51</time>
   <time name="total">    6.23    6.23</time>
   <dipole>
    <v name="dipole">      0.00000000       0.00000000       1.36590058 </v>
    <i name="Tr[quadrupol]"> -11184.13968587 </i>
    <i name="Echarged">      0.00000000 </i>
    <i name="Edipol_quadrupol">      0.00000000 </i>
    <i name="Eion">      0.00000000 </i>
   </dipole>
   <energy>
    <i name="e_fr_energy">   -221.29323253 </i>
    <i name="e_wo_entrp">   -220.97870773 </i>
    <i name="e_0_energy">   -221.13597013 </i>
   </energy>
  </scstep>
  <scstep>
   <time name="diag">    2.00    2.01</time>
   <time name="diis">    3.23    3.24</time>
   <time name="orth">    0.49    0.52</time>
   <time name="total">    6.15    6.22</time>
   <dipole>
    <v name="dipole">      0.00000000       0.00000000       1.36490361 </v>
    <i name="Tr[quadrupol]"> -11184.12959685 </i>
    <i name="Echarged">      0.00000000 </i>
    <i name="Edipol_quadrupol">      0.00000000 </i>
    <i name="Eion">      0.00000000 </i>
   </dipole>
   <energy>
    <i name="e_fr_energy">   -221.29324053 </i>
    <i name="e_wo_entrp">   -220.97871405 </i>
    <i name="e_0_energy">   -221.13597729 </i>
   </energy>
  </scstep>
  <scstep>
   <time name="diag">    1.99    1.99</time>
   <time name="diis">    3.25    3.25</time>
   <time name="orth">    0.50    0.51</time>
   <time name="total">    6.16    6.17</time>
   <dipole>
    <v name="dipole">      0.00000000       0.00000000       1.36388811 </v>
    <i name="Tr[quadrupol]"> -11184.11941660 </i>
    <i name="Echarged">      0.00000000 </i>
    <i name="Edipol_quadrupol">      0.00000000 </i>
    <i name="Eion">      0.00000000 </i>
   </dipole>
   <energy>
    <i name="e_fr_energy">   -221.29324844 </i>
    <i name="e_wo_entrp">   -220.97872402 </i>
    <i name="e_0_energy">   -221.13598623 </i>
   </energy>
  </scstep>
  <scstep>
   <time name="diag">    1.79    2.44</time>
   <time name="diis">    3.04    3.26</time>
   <time name="orth">    0.51    0.51</time>
   <time name="total">    5.77    6.64</time>
   <dipole>
    <v name="dipole">      0.00000000       0.00000000       1.36345518 </v>
    <i name="Tr[quadrupol]"> -11184.11517379 </i>
    <i name="Echarged">      0.00000000 </i>
    <i name="Edipol_quadrupol">      0.00000000 </i>
    <i name="Eion">      0.00000000 </i>
   </dipole>
   <energy>
    <i name="e_fr_energy">   -221.29325263 </i>
    <i name="e_wo_entrp">   -220.97873552 </i>
    <i name="e_0_energy">   -221.13599408 </i>
   </energy>
  </scstep>
  <scstep>
   <time name="diag">    2.02    2.02</time>
   <time name="diis">    2.79    2.79</time>
   <time name="orth">    0.50    0.50</time>
   <time name="total">    5.75    5.75</time>
   <dipole>
    <v name="dipole">      0.00000000       0.00000000       1.36315959 </v>
    <i name="Tr[quadrupol]"> -11184.11174047 </i>
    <i name="Echarged">      0.00000000 </i>
    <i name="Edipol_quadrupol">      0.00000000 </i>
    <i name="Eion">      0.00000000 </i>
   </dipole>
   <energy>
    <i name="e_fr_energy">   -221.29325512 </i>
    <i name="e_wo_entrp">   -220.97874479 </i>
    <i name="e_0_energy">   -221.13599996 </i>
   </energy>
  </scstep>
  <scstep>
   <time name="diag">    1.99    2.00</time>
   <time name="diis">    2.89    2.89</time>
   <time name="orth">    0.51    0.51</time>
   <time name="total">    5.82    5.83</time>
   <dipole>
    <v name="dipole">      0.00000000       0.00000000       1.36303329 </v>
    <i name="Tr[quadrupol]"> -11184.10978109 </i>
    <i name="Echarged">      0.00000000 </i>
    <i name="Edipol_quadrupol">      0.00000000 </i>
    <i name="Eion">      0.00000000 </i>
   </dipole>
   <energy>
    <i name="e_fr_energy">   -221.29325724 </i>
    <i name="e_wo_entrp">   -220.97875303 </i>
    <i name="e_0_energy">   -221.13600514 </i>
   </energy>
  </scstep>
  <scstep>
   <time name="diag">    1.99    1.99</time>
   <time name="diis">    2.75    2.75</time>
   <time name="orth">    0.50    0.51</time>
   <time name="total">    5.67    5.67</time>
   <dipole>
    <v name="dipole">      0.00000000       0.00000000       1.36286710 </v>
    <i name="Tr[quadrupol]"> -11184.10659389 </i>
    <i name="Echarged">      0.00000000 </i>
    <i name="Edipol_quadrupol">      0.00000000 </i>
    <i name="Eion">      0.00000000 </i>
   </dipole>
   <energy>
    <i name="e_fr_energy">   -221.29326016 </i>
    <i name="e_wo_entrp">   -220.97875428 </i>
    <i name="e_0_energy">   -221.13600722 </i>
   </energy>
  </scstep>
  <scstep>
   <time name="diag">    1.99    1.99</time>
   <time name="diis">    2.39    2.39</time>
   <time name="orth">    0.51    0.51</time>
   <time name="total">    5.32    5.33</time>
   <dipole>
    <v name="dipole">      0.00000000       0.00000000       1.36282764 </v>
    <i name="Tr[quadrupol]"> -11184.10525241 </i>
    <i name="Echarged">      0.00000000 </i>
    <i name="Edipol_quadrupol">      0.00000000 </i>
    <i name="Eion">      0.00000000 </i>
   </dipole>
   <energy>
    <i name="e_fr_energy">   -221.29326143 </i>
    <i name="e_wo_entrp">   -220.97875621 </i>
    <i name="e_0_energy">   -221.13600882 </i>
   </energy>
  </scstep>
  <scstep>
   <time name="diag">    2.01    2.01</time>
   <time name="diis">    2.77    2.85</time>
   <time name="orth">    0.51    0.51</time>
   <time name="total">    5.72    5.80</time>
   <dipole>
    <v name="dipole">      0.00000000       0.00000000       1.36280552 </v>
    <i name="Tr[quadrupol]"> -11184.10330032 </i>
    <i name="Echarged">      0.00000000 </i>
    <i name="Edipol_quadrupol">      0.00000000 </i>
    <i name="Eion">      0.00000000 </i>
   </dipole>
   <energy>
    <i name="e_fr_energy">   -221.29326313 </i>
    <i name="e_wo_entrp">   -220.97875880 </i>
    <i name="e_0_energy">   -221.13601097 </i>
   </energy>
  </scstep>
  <scstep>
   <time name="diag">    2.01    2.01</time>
   <time name="diis">    2.36    2.37</time>
   <time name="orth">    0.50    0.50</time>
   <time name="total">    4.94    4.94</time>
   <dipole>
    <v name="dipole">      0.00000000       0.00000000       1.36278614 </v>
    <i name="Tr[quadrupol]"> -11184.10160545 </i>
    <i name="Echarged">      0.00000000 </i>
    <i name="Edipol_quadrupol">      0.00000000 </i>
    <i name="Eion">      0.00000000 </i>
   </dipole>
   <energy>
    <i name="alphaZ">    889.05487378 </i>
    <i name="ewald"> 255258.00480264 </i>
    <i name="hartreedc">-300259.81470818 </i>
    <i name="XCdc">   -124.32350325 </i>
    <i name="pawpsdc">  52838.74802119 </i>
    <i name="pawaedc"> -50937.79694634 </i>
    <i name="eentropy">     -0.31450408 </i>
    <i name="bandstr">  -3002.74274036 </i>
    <i name="atom">  45117.89144060 </i>
    <i name="e_fr_energy">   -221.29326400 </i>
    <i name="e_wo_entrp">   -220.97875992 </i>
    <i name="e_0_energy">   -221.13601196 </i>
   </energy>
  </scstep>
  <structure>
   <crystal>
    <varray name="basis" >
     <v>      11.00258152       0.00000000       0.00000000 </v>
     <v>       5.50129076       9.52851510       0.00000000 </v>
     <v>       0.00000000       0.00000000      26.19178509 </v>
    </varray>
    <i name="volume">   2745.90128299 </i>
    <varray name="rec_basis" >
     <v>       0.09088776      -0.05247407       0.00000000 </v>
     <v>       0.00000000       0.10494815       0.00000000 </v>
     <v>       0.00000000       0.00000000       0.03817991 </v>
    </varray>
   </crystal>
   <varray name="positions" >
    <v>       0.08333333       0.08333333       0.38179910 </v>
    <v>       0.25000000       0.50000000       0.55329505 </v>
    <v>       0.08333333       0.83333333       0.38179910 </v>
    <v>       0.91666667       0.16666667       0.46754708 </v>
    <v>       0.00000000       0.00000000       0.55329505 </v>
    <v>       0.66666667       0.91666667       0.46754708 </v>
    <v>       0.91666667       0.41666667       0.46754708 </v>
    <v>       0.66666667       0.66666667       0.46754708 </v>
    <v>       0.66666667       0.41666667       0.46754708 </v>
    <v>       0.08333333       0.58333333       0.38179910 </v>
    <v>       0.75000000       0.00000000       0.55329505 </v>
    <v>       0.91666667       0.91666667       0.46754708 </v>
    <v>       0.58333333       0.83333333       0.38179910 </v>
    <v>       0.58333333       0.58333333       0.38179910 </v>
    <v>       0.58333333       0.33333333       0.38179910 </v>
    <v>       0.33333333       0.08333333       0.38179910 </v>
    <v>       0.25000000       0.00000000       0.55329505 </v>
    <v>       0.41666667       0.16666667       0.46754708 </v>
    <v>       0.33333333       0.33333333       0.38179910 </v>
    <v>       0.16666667       0.41666667       0.46754708 </v>
    <v>       0.58333333       0.08333333       0.38179910 </v>
    <v>       0.33333333       0.83333333       0.38179910 </v>
    <v>       0.33333333       0.58333333       0.38179910 </v>
    <v>       0.16666667       0.66666667       0.46754708 </v>
    <v>       0.08333333       0.83333333       0.61820090 </v>
    <v>       0.08333333       0.58333333       0.61820090 </v>
    <v>       0.33333333       0.58333333       0.61820090 </v>
    <v>       0.08333333       0.08333333       0.61820090 </v>
    <v>       0.83333333       0.83333333       0.61820090 </v>
    <v>       0.83333333       0.58333333       0.61820090 </v>
    <v>       0.58333333       0.08333333       0.61820090 </v>
    <v>       0.58333333       0.58333333       0.61820090 </v>
    <v>       0.16666667       0.91666667       0.46754708 </v>
    <v>       0.25000000       0.75000000       0.55329505 </v>
    <v>       0.75000000       0.75000000       0.55329505 </v>
    <v>       0.25000000       0.25000000       0.55329505 </v>
    <v>       0.50000000       0.00000000       0.55329505 </v>
    <v>       0.16666667       0.16666667       0.46754708 </v>
    <v>       0.41666667       0.41666667       0.46754708 </v>
    <v>       0.50000000       0.25000000       0.55329505 </v>
    <v>       0.83333333       0.83333333       0.38179910 </v>
    <v>       0.00000000       0.75000000       0.55329505 </v>
    <v>       0.75000000       0.25000000       0.55329505 </v>
    <v>       0.41666667       0.66666667       0.46754708 </v>
    <v>       0.00000000       0.50000000       0.55329505 </v>
    <v>       0.50000000       0.75000000       0.55329505 </v>
    <v>       0.08333333       0.33333333       0.38179910 </v>
    <v>       0.83333333       0.08333333       0.38179910 </v>
    <v>       0.66666667       0.16666667       0.46754708 </v>
    <v>       0.91666667       0.66666667       0.46754708 </v>
    <v>       0.75000000       0.50000000       0.55329505 </v>
    <v>       0.83333333       0.33333333       0.38179910 </v>
    <v>       0.00000000       0.25000000       0.55329505 </v>
    <v>       0.41666667       0.91666667       0.46754708 </v>
    <v>       0.50000000       0.50000000       0.55329505 </v>
    <v>       0.83333333       0.58333333       0.38179910 </v>
   </varray>
  </structure>
  <varray name="forces" >
   <v>      -0.09875246       0.32412673      -1.29815154 </v>
   <v>       0.03144469      -0.53645030       2.35914090 </v>
   <v>      -0.31517163       0.34244467      -1.55476931 </v>
   <v>      -0.00629529      -0.03427665       0.11309658 </v>
   <v>      -0.02909024       0.32329363       2.39019229 </v>
   <v>      -0.02934551      -0.30582546       0.33164003 </v>
   <v>       0.29412334      -0.03076761       0.46792867 </v>
   <v>       0.15409758       0.24110013       0.57788590 </v>
   <v>      -0.37934235      -0.03896102       0.85675235 </v>
   <v>      -0.65058130       0.05510090      -1.60405909 </v>
   <v>      -0.05616753       0.44523349       2.36208495 </v>
   <v>      -0.15395157      -0.00496836       0.21311652 </v>
   <v>       0.17651051      -0.11250278      -1.60223078 </v>
   <v>       0.24528355      -0.12260406      -1.58483180 </v>
   <v>       0.24616176      -0.28590314      -1.30840344 </v>
   <v>      -0.29009582       0.05278318      -1.35997397 </v>
   <v>       0.48418269       0.05845771       1.56864110 </v>
   <v>      -0.08170649       0.03851476       0.79949780 </v>
   <v>      -0.11984797       0.14121953      -1.64535821 </v>
   <v>      -0.30982810      -0.09378135       0.62070791 </v>
   <v>       0.51244640      -0.15373140      -1.56060140 </v>
   <v>       0.06938497       0.06335315      -1.16713611 </v>
   <v>       0.10973793      -0.11539267      -1.38257323 </v>
   <v>       0.20351415       0.23327890       0.52731436 </v>
   <v>       0.19040415      -0.27644124      -2.44582071 </v>
   <v>      -0.26993718      -0.18672954      -2.66203520 </v>
   <v>       0.43829777       0.11463536      -2.68335112 </v>
   <v>       0.24402813       0.55556032      -2.51015623 </v>
   <v>      -0.22602811      -0.15915577      -2.45844022 </v>
   <v>      -0.11087359      -0.22515978      -3.22544138 </v>
   <v>      -0.50934959       0.41114979      -2.95738359 </v>
   <v>      -0.07178810       0.11914505      -3.37055910 </v>
   <v>       0.38183029      -0.27911879       0.28587800 </v>
   <v>       0.17952307      -0.20073530       2.65316106 </v>
   <v>       0.01170102      -0.30210063       2.94963627 </v>
   <v>      -0.08170125      -0.14648925       0.78760250 </v>
   <v>       0.09628381       0.22844818       1.75527514 </v>
   <v>       0.04288058      -0.07234599       0.07551847 </v>
   <v>       0.27733331      -0.07620303       1.01840915 </v>
   <v>       0.05753100      -0.36883804       1.71234474 </v>
   <v>       0.04260424      -0.07611549      -0.84884237 </v>
   <v>      -0.07777852      -0.06673190       3.43432500 </v>
   <v>      -0.10211979       0.27185675       0.71738654 </v>
   <v>      -0.23779475       0.24338553       0.62042293 </v>
   <v>      -0.25140890       0.09030472       2.77118398 </v>
   <v>      -0.03280078      -0.30719410       1.64775326 </v>
   <v>      -0.19611271       0.12975639      -0.80855133 </v>
   <v>      -0.06946861      -0.02820867      -0.83590756 </v>
   <v>       0.01817948       0.11719296       0.33618660 </v>
   <v>      -0.05511522       0.01905784       0.13275571 </v>
   <v>      -0.05219346       0.17167537       2.93702440 </v>
   <v>       0.13694106       0.00465416      -0.95742802 </v>
   <v>       0.14211350      -0.11865367       1.84104171 </v>
   <v>      -0.35136155      -0.06863826       1.22157449 </v>
   <v>       0.25276865       0.12053539       2.56463711 </v>
   <v>       0.17670074      -0.12224034      -0.81811074 </v>
  </varray>
  <energy>
   <i name="e_fr_energy">   -221.29326400 </i>
   <i name="e_wo_entrp">   -221.13601196 </i>
   <i name="e_0_energy">     -0.31450408 </i>
  </energy>
  <time name="totalsc">  411.14  415.62</time>
 </calculation>
 <calculation>
  <scstep>
   <time name="dav">   11.74   11.75</time>
   <time name="total">   12.16   12.18</time>
   <dipole>
    <v name="dipole">      0.00000000       0.00000000       1.36282575 </v>
    <i name="Tr[quadrupol]"> -11182.47309850 </i>
    <i name="Echarged">      0.00000000 </i>
    <i name="Edipol_quadrupol">      0.00000000 </i>
    <i name="Eion">      0.00000000 </i>
   </dipole>
   <energy>
    <i name="alphaZ">    888.12816447 </i>
    <i name="ewald"> 254533.06102214 </i>
    <i name="hartreedc">-299524.04656002 </i>
    <i name="XCdc">   -123.92679161 </i>
    <i name="pawpsdc">  52838.75372229 </i>
    <i name="pawaedc"> -50937.80271468 </i>
    <i name="eentropy">     -0.23195999 </i>
    <i name="bandstr">  -3015.76840109 </i>
    <i name="atom">  45117.89144060 </i>
    <i name="e_fr_energy">   -223.94207789 </i>
    <i name="e_wo_entrp">   -223.71011789 </i>
    <i name="e_0_energy">   -223.82609789 </i>
   </energy>
  </scstep>
  <scstep>
   <time name="diag">    2.00    2.00</time>
   <time name="diis">    4.92    5.71</time>
   <time name="orth">    0.51    0.51</time>
   <time name="total">    7.85    8.65</time>
   <dipole>
    <v name="dipole">      0.00000000       0.00000000       0.91372544 </v>
    <i name="Tr[quadrupol]"> -11182.10338711 </i>
    <i name="Echarged">      0.00000000 </i>
    <i name="Edipol_quadrupol">      0.00000000 </i>
    <i name="Eion">      0.00000000 </i>
   </dipole>
   <energy>
    <i name="e_fr_energy">   -230.12637555 </i>
    <i name="e_wo_entrp">   -229.73329723 </i>
    <i name="e_0_energy">   -229.92983639 </i>
   </energy>
  </scstep>
  <scstep>
   <time name="diag">    2.01    2.01</time>
   <time name="diis">    5.44    5.45</time>
   <time name="orth">    0.49    0.50</time>
   <time name="total">    8.37    8.38</time>
   <dipole>
    <v name="dipole">      0.00000000       0.00000000       1.32975437 </v>
    <i name="Tr[quadrupol]"> -11182.27901785 </i>
    <i name="Echarged">      0.00000000 </i>
    <i name="Edipol_quadrupol">      0.00000000 </i>
    <i name="Eion">      0.00000000 </i>
   </dipole>
   <energy>
    <i name="e_fr_energy">   -226.58277234 </i>
    <i name="e_wo_entrp">   -226.33260427 </i>
    <i name="e_0_energy">   -226.45768830 </i>
   </energy>
  </scstep>
  <scstep>
   <time name="diag">    1.99    2.01</time>
   <time name="diis">    5.22    5.28</time>
   <time name="orth">    0.49    0.49</time>
   <time name="total">    8.12    8.20</time>
   <dipole>
    <v name="dipole">      0.00000000       0.00000000       0.93189771 </v>
    <i name="Tr[quadrupol]"> -11182.51923470 </i>
    <i name="Echarged">      0.00000000 </i>
    <i name="Edipol_quadrupol">      0.00000000 </i>
    <i name="Eion">      0.00000000 </i>
   </dipole>
   <energy>
    <i name="e_fr_energy">   -227.66403253 </i>
    <i name="e_wo_entrp">   -227.28714773 </i>
    <i name="e_0_energy">   -227.47559013 </i>
   </energy>
  </scstep>
  <scstep>
   <time name="diag">    2.00    2.00</time>
   <time name="diis">    5.38    5.39</time>
   <time name="orth">    0.49    0.49</time>
   <time name="total">    8.29    8.30</time>
   <dipole>
    <v name="dipole">      0.00000000       0.00000000       1.06650053 </v>
    <i name="Tr[quadrupol]"> -11182.94799708 </i>
    <i name="Echarged">      0.00000000 </i>
    <i name="Edipol_quadrupol">      0.00000000 </i>
    <i name="Eion">      0.00000000 </i>
   </dipole>
   <energy>
    <i name="e_fr_energy">   -226.77984428 </i>
    <i name="e_wo_entrp">   -226.45262651 </i>
    <i name="e_0_energy">   -226.61623539 </i>
   </energy>
  </scstep>
  <scstep>
   <time name="diag">    1.98    1.98</time>
   <time name="diis">    5.37    5.37</time>
   <time name="orth">    0.49    0.49</time>
   <time name="total">    8.26    8.27</time>
   <dipole>
    <v name="dipole">      0.00000000       0.00000000       1.04295664 </v>
    <i name="Tr[quadrupol]"> -11182.82030150 </i>
    <i name="Echarged">      0.00000000 </i>
    <i name="Edipol_quadrupol">      0.00000000 </i>
    <i name="Eion">      0.00000000 </i>
   </dipole>
   <energy>
    <i name="e_fr_energy">   -226.37432183 </i>
    <i name="e_wo_entrp">   -226.03946942 </i>
    <i name="e_0_energy">   -226.20689562 </i>
   </energy>
  </scstep>
  <scstep>
   <time name="diag">    2.00    2.00</time>
   <time name="diis">    5.40    5.40</time>
   <time name="orth">    0.49    0.49</time>
   <time name="total">    8.31    8.32</time>
   <dipole>
    <v name="dipole">      0.00000000       0.00000000       1.06081552 </v>
    <i name="Tr[quadrupol]"> -11183.01487452 </i>
    <i name="Echarged">      0.00000000 </i>
    <i name="Edipol_quadrupol">      0.00000000 </i>
    <i name="Eion">      0.00000000 </i>
   </dipole>
   <energy>
    <i name="e_fr_energy">   -226.36466577 </i>
    <i name="e_wo_entrp">   -226.04666580 </i>
    <i name="e_0_energy">   -226.20566579 </i>
   </energy>
  </scstep>
  <scstep>
   <time name="diag">    2.01    2.01</time>
   <time name="diis">    5.40    5.40</time>
   <time name="orth">    0.49    0.49</time>
   <time name="total">    8.30    8.31</time>
   <dipole>
    <v name="dipole">      0.00000000       0.00000000       1.10214006 </v>
    <i name="Tr[quadrupol]"> -11183.23563733 </i>
    <i name="Echarged">      0.00000000 </i>
    <i name="Edipol_quadrupol">      0.00000000 </i>
    <i name="Eion">      0.00000000 </i>
   </dipole>
   <energy>
    <i name="e_fr_energy">   -226.15502187 </i>
    <i name="e_wo_entrp">   -225.86379397 </i>
    <i name="e_0_energy">   -226.00940792 </i>
   </energy>
  </scstep>
  <scstep>
   <time name="diag">    1.95    2.01</time>
   <time name="diis">    5.23    5.72</time>
   <time name="orth">    0.43    0.67</time>
   <time name="total">    8.03    9.03</time>
   <dipole>
    <v name="dipole">      0.00000000       0.00000000       1.09568033 </v>
    <i name="Tr[quadrupol]"> -11183.23188038 </i>
    <i name="Echarged">      0.00000000 </i>
    <i name="Edipol_quadrupol">      0.00000000 </i>
    <i name="Eion">      0.00000000 </i>
   </dipole>
   <energy>
    <i name="e_fr_energy">   -226.11095305 </i>
    <i name="e_wo_entrp">   -225.82886843 </i>
    <i name="e_0_energy">   -225.96991074 </i>
   </energy>
  </scstep>
  <scstep>
   <time name="diag">    1.99    1.99</time>
   <time name="diis">    5.36    5.36</time>
   <time name="orth">    0.49    0.49</time>
   <time name="total">    8.25    8.28</time>
   <dipole>
    <v name="dipole">      0.00000000       0.00000000       1.11360041 </v>
    <i name="Tr[quadrupol]"> -11183.29255499 </i>
    <i name="Echarged">      0.00000000 </i>
    <i name="Edipol_quadrupol">      0.00000000 </i>
    <i name="Eion">      0.00000000 </i>
   </dipole>
   <energy>
    <i name="e_fr_energy">   -226.08664314 </i>
    <i name="e_wo_entrp">   -225.80404824 </i>
    <i name="e_0_energy">   -225.94534569 </i>
   </energy>
  </scstep>
  <scstep>
   <time name="diag">    2.00    2.00</time>
   <time name="diis">    5.38    5.38</time>
   <time name="orth">    0.49    0.49</time>
   <time name="total">    8.29    8.30</time>
   <dipole>
    <v name="dipole">      0.00000000       0.00000000       1.12008550 </v>
    <i name="Tr[quadrupol]"> -11183.31952526 </i>
    <i name="Echarged">      0.00000000 </i>
    <i name="Edipol_quadrupol">      0.00000000 </i>
    <i name="Eion">      0.00000000 </i>
   </dipole>
   <energy>
    <i name="e_fr_energy">   -226.07701294 </i>
    <i name="e_wo_entrp">   -225.80527230 </i>
    <i name="e_0_energy">   -225.94114262 </i>
   </energy>
  </scstep>
  <scstep>
   <time name="diag">    1.99    2.00</time>
   <time name="diis">    5.49    5.50</time>
   <time name="orth">    0.49    0.49</time>
   <time name="total">    8.39    8.39</time>
   <dipole>
    <v name="dipole">      0.00000000       0.00000000       1.12339922 </v>
    <i name="Tr[quadrupol]"> -11183.32804728 </i>
    <i name="Echarged">      0.00000000 </i>
    <i name="Edipol_quadrupol">      0.00000000 </i>
    <i name="Eion">      0.00000000 </i>
   </dipole>
   <energy>
    <i name="e_fr_energy">   -226.07281241 </i>
    <i name="e_wo_entrp">   -225.79815604 </i>
    <i name="e_0_energy">   -225.93548423 </i>
   </energy>
  </scstep>
  <scstep>
   <time name="diag">    1.99    1.99</time>
   <time name="diis">    5.23    5.30</time>
   <time name="orth">    0.48    0.49</time>
   <time name="total">    8.13    8.21</time>
   <dipole>
    <v name="dipole">      0.00000000       0.00000000       1.12190871 </v>
    <i name="Tr[quadrupol]"> -11183.31924971 </i>
    <i name="Echarged">      0.00000000 </i>
    <i name="Edipol_quadrupol">      0.00000000 </i>
    <i name="Eion">      0.00000000 </i>
   </dipole>
   <energy>
    <i name="e_fr_energy">   -226.07288600 </i>
    <i name="e_wo_entrp">   -225.80272818 </i>
    <i name="e_0_energy">   -225.93780709 </i>
   </energy>
  </scstep>
  <scstep>
   <time name="diag">    2.00    2.00</time>
   <time name="diis">    5.29    5.30</time>
   <time name="orth">    0.49    0.49</time>
   <time name="total">    8.19    8.20</time>
   <dipole>
    <v name="dipole">      0.00000000       0.00000000       1.12651611 </v>
    <i name="Tr[quadrupol]"> -11183.33638439 </i>
    <i name="Echarged">      0.00000000 </i>
    <i name="Edipol_quadrupol">      0.00000000 </i>
    <i name="Eion">      0.00000000 </i>
   </dipole>
   <energy>
    <i name="e_fr_energy">   -226.07156552 </i>
    <i name="e_wo_entrp">   -225.80016361 </i>
    <i name="e_0_energy">   -225.93586457 </i>
   </energy>
  </scstep>
  <scstep>
   <time name="diag">    2.01    2.01</time>
   <time name="diis">    5.41    5.41</time>
   <time name="orth">    0.48    0.48</time>
   <time name="total">    8.32    8.33</time>
   <dipole>
    <v name="dipole">      0.00000000       0.00000000       1.12534922 </v>
    <i name="Tr[quadrupol]"> -11183.34389638 </i>
    <i name="Echarged">      0.00000000 </i>
    <i name="Edipol_quadrupol">      0.00000000 </i>
    <i name="Eion">      0.00000000 </i>
   </dipole>
   <energy>
    <i name="e_fr_energy">   -226.07087702 </i>
    <i name="e_wo_entrp">   -225.80056553 </i>
    <i name="e_0_energy">   -225.93572128 </i>
   </energy>
  </scstep>
  <scstep>
   <time name="diag">    2.02    2.02</time>
   <time name="diis">    5.40    5.40</time>
   <time name="orth">    0.46    0.60</time>
   <time name="total">    8.29    8.64</time>
   <dipole>
    <v name="dipole">      0.00000000       0.00000000       1.12596688 </v>
    <i name="Tr[quadrupol]"> -11183.36161776 </i>
    <i name="Echarged">      0.00000000 </i>
    <i name="Edipol_quadrupol">      0.00000000 </i>
    <i name="Eion">      0.00000000 </i>
   </dipole>
   <energy>
    <i name="e_fr_energy">   -226.07080542 </i>
    <i name="e_wo_entrp">   -225.80099454 </i>
    <i name="e_0_energy">   -225.93589998 </i>
   </energy>
  </scstep>
  <scstep>
   <time name="diag">    1.74    2.46</time>
   <time name="diis">    5.51    5.51</time>
   <time name="orth">    0.50    0.50</time>
   <time name="total">    8.17    8.91</time>
   <dipole>
    <v name="dipole">      0.00000000       0.00000000       1.12398931 </v>
    <i name="Tr[quadrupol]"> -11183.37189835 </i>
    <i name="Echarged">      0.00000000 </i>
    <i name="Edipol_quadrupol">      0.00000000 </i>
    <i name="Eion">      0.00000000 </i>
   </dipole>
   <energy>
    <i name="e_fr_energy">   -226.07065356 </i>
    <i name="e_wo_entrp">   -225.80168890 </i>
    <i name="e_0_energy">   -225.93617123 </i>
   </energy>
  </scstep>
  <scstep>
   <time name="diag">    1.99    1.99</time>
   <time name="diis">    5.31    5.38</time>
   <time name="orth">    0.49    0.49</time>
   <time name="total">    8.22    8.29</time>
   <dipole>
    <v name="dipole">      0.00000000       0.00000000       1.12292585 </v>
    <i name="Tr[quadrupol]"> -11183.38411060 </i>
    <i name="Echarged">      0.00000000 </i>
    <i name="Edipol_quadrupol">      0.00000000 </i>
    <i name="Eion">      0.00000000 </i>
   </dipole>
   <energy>
    <i name="e_fr_energy">   -226.07073363 </i>
    <i name="e_wo_entrp">   -225.80122934 </i>
    <i name="e_0_energy">   -225.93598149 </i>
   </energy>
  </scstep>
  <scstep>
   <time name="diag">    2.00    2.01</time>
   <time name="diis">    5.29    5.29</time>
   <time name="orth">    0.49    0.50</time>
   <time name="total">    8.21    8.22</time>
   <dipole>
    <v name="dipole">      0.00000000       0.00000000       1.12113325 </v>
    <i name="Tr[quadrupol]"> -11183.39549257 </i>
    <i name="Echarged">      0.00000000 </i>
    <i name="Edipol_quadrupol">      0.00000000 </i>
    <i name="Eion">      0.00000000 </i>
   </dipole>
   <energy>
    <i name="e_fr_energy">   -226.07083647 </i>
    <i name="e_wo_entrp">   -225.80150384 </i>
    <i name="e_0_energy">   -225.93617016 </i>
   </energy>
  </scstep>
  <scstep>
   <time name="diag">    2.01    2.01</time>
   <time name="diis">    5.18    5.19</time>
   <time name="orth">    0.50    0.50</time>
   <time name="total">    8.10    8.12</time>
   <dipole>
    <v name="dipole">      0.00000000       0.00000000       1.12069045 </v>
    <i name="Tr[quadrupol]"> -11183.40505727 </i>
    <i name="Echarged">      0.00000000 </i>
    <i name="Edipol_quadrupol">      0.00000000 </i>
    <i name="Eion">      0.00000000 </i>
   </dipole>
[...]
       <r>   -19.3854    10.8733    15.2485 </r>
       <r>   -19.2914     6.9412    15.9008 </r>
       <r>   -19.1974     1.0251    15.9971 </r>
       <r>   -19.1034     0.0307    16.0000 </r>
       <r>   -19.0095     0.0002    16.0000 </r>
       <r>   -18.9155     0.0000    16.0000 </r>
       <r>   -18.8215     0.0000    16.0000 </r>
       <r>   -18.7276     0.0000    16.0000 </r>
       <r>   -18.6336     0.0000    16.0000 </r>
       <r>   -18.5396     0.0000    16.0000 </r>
       <r>   -18.4457     0.0000    16.0000 </r>
       <r>   -18.3517     0.0000    16.0000 </r>
       <r>   -18.2577     0.0000    16.0000 </r>
       <r>   -18.1637     0.0000    16.0000 </r>
       <r>   -18.0698     0.0000    16.0000 </r>
       <r>   -17.9758     0.0000    16.0000 </r>
       <r>   -17.8818     0.0000    16.0000 </r>
       <r>   -17.7879     0.0000    16.0000 </r>
       <r>   -17.6939     0.0000    16.0000 </r>
       <r>   -17.5999     0.0000    16.0000 </r>
       <r>   -17.5060     0.0000    16.0000 </r>
       <r>   -17.4120     0.0000    16.0000 </r>
       <r>   -17.3180     0.0000    16.0000 </r>
       <r>   -17.2240     0.0000    16.0000 </r>
       <r>   -17.1301     0.0000    16.0000 </r>
       <r>   -17.0361     0.0000    16.0000 </r>
       <r>   -16.9421     0.0000    16.0000 </r>
       <r>   -16.8482     0.0000    16.0000 </r>
       <r>   -16.7542     0.0000    16.0000 </r>
       <r>   -16.6602     0.0000    16.0000 </r>
       <r>   -16.5663     0.0000    16.0000 </r>
       <r>   -16.4723     0.0000    16.0000 </r>
       <r>   -16.3783     0.0000    16.0000 </r>
       <r>   -16.2844     0.0000    16.0000 </r>
       <r>   -16.1904     0.0000    16.0000 </r>
       <r>   -16.0964     0.0000    16.0000 </r>
       <r>   -16.0024     0.0000    16.0000 </r>
       <r>   -15.9085     0.0000    16.0000 </r>
       <r>   -15.8145     0.0000    16.0000 </r>
       <r>   -15.7205     0.0000    16.0000 </r>
       <r>   -15.6266     0.0000    16.0000 </r>
       <r>   -15.5326     0.0000    16.0000 </r>
       <r>   -15.4386     0.0000    16.0000 </r>
       <r>   -15.3447     0.0000    16.0000 </r>
       <r>   -15.2507     0.0000    16.0000 </r>
       <r>   -15.1567     0.0000    16.0000 </r>
       <r>   -15.0627     0.0000    16.0000 </r>
       <r>   -14.9688     0.0000    16.0000 </r>
       <r>   -14.8748     0.0000    16.0000 </r>
       <r>   -14.7808     0.0000    16.0000 </r>
       <r>   -14.6869     0.0000    16.0000 </r>
       <r>   -14.5929     0.0000    16.0000 </r>
       <r>   -14.4989     0.0000    16.0000 </r>
       <r>   -14.4050     0.0000    16.0000 </r>
       <r>   -14.3110     0.0000    16.0000 </r>
       <r>   -14.2170     0.0000    16.0000 </r>
       <r>   -14.1230     0.0000    16.0000 </r>
       <r>   -14.0291     0.0000    16.0000 </r>
       <r>   -13.9351     0.0000    16.0000 </r>
       <r>   -13.8411     0.0000    16.0000 </r>
       <r>   -13.7472     0.0000    16.0000 </r>
       <r>   -13.6532     0.0000    16.0000 </r>
       <r>   -13.5592     0.0000    16.0000 </r>
       <r>   -13.4653     0.0000    16.0000 </r>
       <r>   -13.3713     0.0000    16.0000 </r>
       <r>   -13.2773     0.0000    16.0000 </r>
       <r>   -13.1833     0.0000    16.0000 </r>
       <r>   -13.0894     0.0000    16.0000 </r>
       <r>   -12.9954     0.0000    16.0000 </r>
       <r>   -12.9014     0.0000    16.0000 </r>
       <r>   -12.8075     0.0000    16.0000 </r>
       <r>   -12.7135     0.0000    16.0000 </r>
       <r>   -12.6195     0.0000    16.0000 </r>
       <r>   -12.5256     0.0000    16.0000 </r>
       <r>   -12.4316     0.0000    16.0000 </r>
       <r>   -12.3376     0.0000    16.0000 </r>
       <r>   -12.2436     0.0000    16.0000 </r>
       <r>   -12.1497     0.0000    16.0000 </r>
       <r>   -12.0557     0.0000    16.0000 </r>
       <r>   -11.9617     0.0000    16.0000 </r>
       <r>   -11.8678     0.0000    16.0000 </r>
       <r>   -11.7738     0.0000    16.0000 </r>
       <r>   -11.6798     0.0000    16.0000 </r>
       <r>   -11.5859     0.0000    16.0000 </r>
       <r>   -11.4919     0.0000    16.0000 </r>
       <r>   -11.3979     0.0000    16.0000 </r>
       <r>   -11.3040     0.0000    16.0000 </r>
       <r>   -11.2100     0.0000    16.0000 </r>
       <r>   -11.1160     0.0000    16.0000 </r>
       <r>   -11.0220     0.0000    16.0000 </r>
       <r>   -10.9281     0.0000    16.0000 </r>
       <r>   -10.8341     0.0000    16.0000 </r>
       <r>   -10.7401     0.0000    16.0000 </r>
       <r>   -10.6462     0.0000    16.0000 </r>
       <r>   -10.5522     0.0000    16.0000 </r>
       <r>   -10.4582     0.0000    16.0000 </r>
       <r>   -10.3643     0.0000    16.0000 </r>
       <r>   -10.2703     0.0000    16.0000 </r>
       <r>   -10.1763     0.0000    16.0000 </r>
       <r>   -10.0823     0.0000    16.0000 </r>
       <r>    -9.9884     0.0000    16.0000 </r>
       <r>    -9.8944     0.0000    16.0000 </r>
       <r>    -9.8004     0.0000    16.0000 </r>
       <r>    -9.7065     0.0000    16.0000 </r>
       <r>    -9.6125     0.0000    16.0000 </r>
       <r>    -9.5185     0.0000    16.0000 </r>
       <r>    -9.4246     0.0053    16.0005 </r>
       <r>    -9.3306     0.2562    16.0246 </r>
       <r>    -9.2366     2.5073    16.2602 </r>
       <r>    -9.1426     5.3164    16.7598 </r>
       <r>    -9.0487     3.6952    17.1070 </r>
       <r>    -8.9547     4.8667    17.5643 </r>
       <r>    -8.8607     3.8545    17.9265 </r>
       <r>    -8.7668     0.8371    18.0052 </r>
       <r>    -8.6728     1.4368    18.1402 </r>
       <r>    -8.5788     5.5677    18.6634 </r>
       <r>    -8.4849     9.2063    19.5285 </r>
       <r>    -8.3909    10.6550    20.5298 </r>
       <r>    -8.2969     8.8310    21.3596 </r>
       <r>    -8.2029    11.5659    22.4465 </r>
       <r>    -8.1090    23.2459    24.6309 </r>
       <r>    -8.0150    30.1714    27.4661 </r>
       <r>    -7.9210    27.5300    30.0531 </r>
       <r>    -7.8271    31.5882    33.0214 </r>
       <r>    -7.7331    29.6397    35.8066 </r>
       <r>    -7.6391    24.1130    38.0725 </r>
       <r>    -7.5452    28.3051    40.7324 </r>
       <r>    -7.4512    37.6708    44.2723 </r>
       <r>    -7.3572    47.3087    48.7179 </r>
       <r>    -7.2632    64.4403    54.7733 </r>
       <r>    -7.1693    72.4293    61.5795 </r>
       <r>    -7.0753    71.6928    68.3164 </r>
       <r>    -6.9813    66.2799    74.5447 </r>
       <r>    -6.8874    60.2861    80.2098 </r>
       <r>    -6.7934    62.2028    86.0550 </r>
       <r>    -6.6994    63.3038    92.0037 </r>
       <r>    -6.6055    69.6233    98.5461 </r>
       <r>    -6.5115    80.0037   106.0641 </r>
       <r>    -6.4175    85.7002   114.1173 </r>
       <r>    -6.3235    86.9314   122.2862 </r>
       <r>    -6.2296    86.6473   130.4285 </r>
       <r>    -6.1356    81.6498   138.1011 </r>
       <r>    -6.0416    73.5009   145.0080 </r>
       <r>    -5.9477    73.4026   151.9056 </r>
       <r>    -5.8537    75.8610   159.0342 </r>
       <r>    -5.7597    81.1941   166.6640 </r>
       <r>    -5.6658    85.8912   174.7352 </r>
       <r>    -5.5718    85.3539   182.7559 </r>
       <r>    -5.4778    83.1745   190.5718 </r>
       <r>    -5.3839    84.2227   198.4862 </r>
       <r>    -5.2899    86.7779   206.6407 </r>
       <r>    -5.1959    89.1024   215.0136 </r>
       <r>    -5.1019    87.6761   223.2525 </r>
       <r>    -5.0080    84.9377   231.2341 </r>
       <r>    -4.9140    85.8416   239.3006 </r>
       <r>    -4.8200    88.0025   247.5702 </r>
       <r>    -4.7261    89.7329   256.0024 </r>
       <r>    -4.6321    87.8156   264.2544 </r>
       <r>    -4.5381    87.2759   272.4557 </r>
       <r>    -4.4442    88.5202   280.7740 </r>
       <r>    -4.3502    90.8964   289.3155 </r>
       <r>    -4.2562    96.3542   298.3699 </r>
       <r>    -4.1622   102.7145   308.0219 </r>
       <r>    -4.0683   104.1424   317.8082 </r>
       <r>    -3.9743   103.5470   327.5384 </r>
       <r>    -3.8803    99.4469   336.8835 </r>
       <r>    -3.7864    98.5342   346.1427 </r>
       <r>    -3.6924   100.4427   355.5813 </r>
       <r>    -3.5984    98.2822   364.8168 </r>
       <r>    -3.5045    90.3890   373.3107 </r>
       <r>    -3.4105    84.8585   381.2848 </r>
       <r>    -3.3165    85.0800   389.2798 </r>
       <r>    -3.2225    85.8806   397.3500 </r>
       <r>    -3.1286    87.7885   405.5994 </r>
       <r>    -3.0346    87.1655   413.7904 </r>
       <r>    -2.9406    85.5004   421.8248 </r>
       <r>    -2.8467    87.1157   430.0111 </r>
       <r>    -2.7527    90.0295   438.4711 </r>
       <r>    -2.6587    88.4025   446.7783 </r>
       <r>    -2.5648    89.1851   455.1590 </r>
       <r>    -2.4708    91.1643   463.7257 </r>
       <r>    -2.3768    93.0690   472.4714 </r>
       <r>    -2.2828    98.5413   481.7313 </r>
       <r>    -2.1889   100.5751   491.1823 </r>
       <r>    -2.0949    98.3732   500.4264 </r>
       <r>    -2.0009    91.0541   508.9827 </r>
       <r>    -1.9070    81.3148   516.6239 </r>
       <r>    -1.8130    77.5151   523.9080 </r>
       <r>    -1.7190    75.2099   530.9754 </r>
       <r>    -1.6251    72.0284   537.7439 </r>
       <r>    -1.5311    63.9960   543.7576 </r>
       <r>    -1.4371    50.4061   548.4943 </r>
       <r>    -1.3431    37.0655   551.9773 </r>
       <r>    -1.2492    27.0606   554.5202 </r>
       <r>    -1.1552    21.5988   556.5498 </r>
       <r>    -1.0612    20.7364   558.4984 </r>
       <r>    -0.9673    25.0644   560.8537 </r>
       <r>    -0.8733    31.5432   563.8178 </r>
       <r>    -0.7793    31.8531   566.8111 </r>
       <r>    -0.6854    33.8145   569.9886 </r>
       <r>    -0.5914    36.6443   573.4321 </r>
       <r>    -0.4974    33.0309   576.5360 </r>
       <r>    -0.4035    27.8589   579.1539 </r>
       <r>    -0.3095    19.2777   580.9654 </r>
       <r>    -0.2155    10.9470   581.9941 </r>
       <r>    -0.1215     9.6907   582.9047 </r>
       <r>    -0.0276    13.2418   584.1490 </r>
       <r>     0.0664    12.4217   585.3163 </r>
       <r>     0.1604    12.4457   586.4858 </r>
       <r>     0.2543    11.4203   587.5590 </r>
       <r>     0.3483    14.6253   588.9333 </r>
       <r>     0.4423    19.2151   590.7389 </r>
       <r>     0.5362    20.4032   592.6562 </r>
       <r>     0.6302    21.3715   594.6645 </r>
       <r>     0.7242    16.9719   596.2594 </r>
       <r>     0.8182    15.7018   597.7349 </r>
       <r>     0.9121    16.5665   599.2916 </r>
       <r>     1.0061    14.3396   600.6391 </r>
       <r>     1.1001    11.2159   601.6931 </r>
       <r>     1.1940     9.7724   602.6114 </r>
       <r>     1.2880     7.9273   603.3563 </r>
       <r>     1.3820     9.4445   604.2438 </r>
       <r>     1.4759    11.5773   605.3317 </r>
       <r>     1.5699    14.7970   606.7222 </r>
       <r>     1.6639    17.1109   608.3301 </r>
       <r>     1.7579    16.8241   609.9110 </r>
       <r>     1.8518    16.4682   611.4586 </r>
       <r>     1.9458    17.6122   613.1136 </r>
       <r>     2.0398    17.3901   614.7477 </r>
       <r>     2.1337    16.4497   616.2935 </r>
       <r>     2.2277    16.9011   617.8817 </r>
       <r>     2.3217    15.7723   619.3638 </r>
       <r>     2.4156    11.8963   620.4817 </r>
       <r>     2.5096    10.3745   621.4566 </r>
       <r>     2.6036     9.4398   622.3436 </r>
       <r>     2.6976     7.1203   623.0127 </r>
       <r>     2.7915     9.3341   623.8899 </r>
       <r>     2.8855    12.5791   625.0719 </r>
       <r>     2.9795    10.3356   626.0431 </r>
       <r>     3.0734    10.7479   627.0531 </r>
       <r>     3.1674    13.5623   628.3276 </r>
       <r>     3.2614    16.2338   629.8531 </r>
       <r>     3.3553    17.9613   631.5409 </r>
       <r>     3.4493    15.7003   633.0162 </r>
       <r>     3.5433    13.9572   634.3278 </r>
       <r>     3.6373    15.5153   635.7858 </r>
       <r>     3.7312    18.1820   637.4943 </r>
       <r>     3.8252    20.6185   639.4318 </r>
       <r>     3.9192    21.1340   641.4178 </r>
       <r>     4.0131    17.4651   643.0590 </r>
       <r>     4.1071    16.5935   644.6183 </r>
       <r>     4.2011    20.5119   646.5458 </r>
       <r>     4.2950    22.2486   648.6365 </r>
       <r>     4.3890    22.1117   650.7143 </r>
       <r>     4.4830    24.4722   653.0140 </r>
       <r>     4.5769    26.8404   655.5362 </r>
       <r>     4.6709    25.5526   657.9373 </r>
       <r>     4.7649    24.3375   660.2243 </r>
       <r>     4.8589    26.8037   662.7430 </r>
       <r>     4.9528    28.8077   665.4501 </r>
       <r>     5.0468    28.5916   668.1369 </r>
       <r>     5.1408    25.3819   670.5220 </r>
       <r>     5.2347    13.1865   671.7611 </r>
       <r>     5.3287     2.4182   671.9884 </r>
       <r>     5.4227     0.1223   671.9999 </r>
       <r>     5.5166     0.0015   672.0000 </r>
       <r>     5.6106     0.0000   672.0000 </r>
       <r>     5.7046     0.0000   672.0000 </r>
       <r>     5.7986     0.0000   672.0000 </r>
       <r>     5.8925     0.0000   672.0000 </r>
       <r>     5.9865     0.0000   672.0000 </r>
       <r>     6.0805     0.0000   672.0000 </r>
       <r>     6.1744     0.0000   672.0000 </r>
       <r>     6.2684     0.0000   672.0000 </r>
       <r>     6.3624     0.0000   672.0000 </r>
       <r>     6.4563     0.0000   672.0000 </r>
      </set>
     </set>
    </array>
   </total>
  </dos>
 </calculation>
 <structure name="finalpos" >
  <crystal>
   <varray name="basis" >
    <v>      11.00258152       0.00000000       0.00000000 </v>
    <v>       5.50129076       9.52851510       0.00000000 </v>
    <v>       0.00000000       0.00000000      26.19178509 </v>
   </varray>
   <i name="volume">   2745.90128299 </i>
   <varray name="rec_basis" >
    <v>       0.09088776      -0.05247407       0.00000000 </v>
    <v>       0.00000000       0.10494815       0.00000000 </v>
    <v>       0.00000000       0.00000000       0.03817991 </v>
   </varray>
  </crystal>
  <varray name="positions" >
   <v>       0.08333333       0.08333333       0.38179910 </v>
   <v>       0.25968047       0.48339996       0.57844680 </v>
   <v>       0.08333333       0.83333333       0.38179910 </v>
   <v>       0.91990552       0.16439623       0.47396241 </v>
   <v>      -0.02790258       0.03070673       0.60837652 </v>
   <v>       0.67100730       0.91361515       0.47788913 </v>
   <v>       0.91874480       0.41851284       0.47485088 </v>
   <v>       0.66806193       0.66852702       0.47711394 </v>
   <v>       0.66448321       0.41810457       0.47718315 </v>
   <v>       0.08333333       0.58333333       0.38179910 </v>
   <v>       0.78297017      -0.02495274       0.56651634 </v>
   <v>       0.92182044       0.91472585       0.47569525 </v>
   <v>       0.58333333       0.83333333       0.38179910 </v>
   <v>       0.58333333       0.58333333       0.38179910 </v>
   <v>       0.58333333       0.33333333       0.38179910 </v>
   <v>       0.33333333       0.08333333       0.38179910 </v>
   <v>       0.26324778      -0.00089418       0.56892863 </v>
   <v>       0.41960092       0.16563536       0.47666051 </v>
   <v>       0.33333333       0.33333333       0.38179910 </v>
   <v>       0.16684412       0.41914705       0.47800309 </v>
   <v>       0.58333333       0.08333333       0.38179910 </v>
   <v>       0.33333333       0.83333333       0.38179910 </v>
   <v>       0.33333333       0.58333333       0.38179910 </v>
   <v>       0.16709709       0.66832894       0.48568577 </v>
   <v>       0.11868999       0.83210330       0.63318644 </v>
   <v>       0.08070388       0.58209777       0.62417920 </v>
   <v>       0.34738790       0.58607434       0.61646808 </v>
   <v>       0.09562675       0.12279564       0.61966435 </v>
   <v>       0.79766174       0.80620423       0.66212370 </v>
   <v>       0.85028744       0.55089143       0.61824432 </v>
   <v>       0.58459180       0.08787033       0.61435495 </v>
   <v>       0.58613168       0.58728855       0.61075861 </v>
   <v>       0.16942414       0.91639374       0.48165131 </v>
   <v>       0.25234575       0.75837524       0.57291729 </v>
   <v>       0.72654680       0.75624707       0.60414527 </v>
   <v>       0.25581947       0.24639589       0.56366942 </v>
   <v>       0.51329727      -0.00656868       0.56929953 </v>
   <v>       0.16935946       0.16470852       0.47274092 </v>
   <v>       0.41661888       0.41785101       0.48128035 </v>
   <v>       0.51066951       0.24639990       0.56676812 </v>
   <v>       0.83333333       0.83333333       0.38179910 </v>
   <v>      -0.03292706       0.79124096       0.64122530 </v>
   <v>       0.76224624       0.24040133       0.56327623 </v>
   <v>       0.41357903       0.66909299       0.47832213 </v>
   <v>       0.00227057       0.51049868       0.57011118 </v>
   <v>       0.50353482       0.75460646       0.56557053 </v>
   <v>       0.08333333       0.33333333       0.38179910 </v>
   <v>       0.83333333       0.08333333       0.38179910 </v>
   <v>       0.66897051       0.16544809       0.47456093 </v>
   <v>       0.91846236       0.66827404       0.47397771 </v>
   <v>       0.75995087       0.48869698       0.56835367 </v>
   <v>       0.83333333       0.33333333       0.38179910 </v>
   <v>       0.00598787       0.25732282       0.56239465 </v>
   <v>       0.41668166       0.91676809       0.47941231 </v>
   <v>       0.51096249       0.48947013       0.56941426 </v>
   <v>       0.83333333       0.58333333       0.38179910 </v>
  </varray>
  <varray name="selective"  type="logical" >
   <v type="logical" >  F  F  F </v>
   <v type="logical" >  T  T  T </v>
   <v type="logical" >  F  F  F </v>
   <v type="logical" >  T  T  T </v>
   <v type="logical" >  T  T  T </v>
   <v type="logical" >  T  T  T </v>
   <v type="logical" >  T  T  T </v>
   <v type="logical" >  T  T  T </v>
   <v type="logical" >  T  T  T </v>
   <v type="logical" >  F  F  F </v>
   <v type="logical" >  T  T  T </v>
   <v type="logical" >  T  T  T </v>
   <v type="logical" >  F  F  F </v>
   <v type="logical" >  F  F  F </v>
   <v type="logical" >  F  F  F </v>
   <v type="logical" >  F  F  F </v>
   <v type="logical" >  T  T  T </v>
   <v type="logical" >  T  T  T </v>
   <v type="logical" >  F  F  F </v>
   <v type="logical" >  T  T  T </v>
   <v type="logical" >  F  F  F </v>
   <v type="logical" >  F  F  F </v>
   <v type="logical" >  F  F  F </v>
   <v type="logical" >  T  T  T </v>
   <v type="logical" >  T  T  T </v>
   <v type="logical" >  T  T  T </v>
   <v type="logical" >  T  T  T </v>
   <v type="logical" >  T  T  T </v>
   <v type="logical" >  T  T  T </v>
   <v type="logical" >  T  T  T </v>
   <v type="logical" >  T  T  T </v>
   <v type="logical" >  T  T  T </v>
   <v type="logical" >  T  T  T </v>
   <v type="logical" >  T  T  T </v>
   <v type="logical" >  T  T  T </v>
   <v type="logical" >  T  T  T </v>
   <v type="logical" >  T  T  T </v>
   <v type="logical" >  T  T  T </v>
   <v type="logical" >  T  T  T </v>
   <v type="logical" >  T  T  T </v>
   <v type="logical" >  F  F  F </v>
   <v type="logical" >  T  T  T </v>
   <v type="logical" >  T  T  T </v>
   <v type="logical" >  T  T  T </v>
   <v type="logical" >  T  T  T </v>
   <v type="logical" >  T  T  T </v>
   <v type="logical" >  F  F  F </v>
   <v type="logical" >  F  F  F </v>
   <v type="logical" >  T  T  T </v>
   <v type="logical" >  T  T  T </v>
   <v type="logical" >  T  T  T </v>
   <v type="logical" >  F  F  F </v>
   <v type="logical" >  T  T  T </v>
   <v type="logical" >  T  T  T </v>
   <v type="logical" >  T  T  T </v>
   <v type="logical" >  F  F  F </v>
  </varray>
  <nose>
   <v>      -3.00000000       0.00000000       0.00010000       0.00010000 </v>
  </nose>
 </structure>
</modeling>
