unknown system                          
           1
    11.002582    0.000000    0.000000
     5.501291    9.528515    0.000000
     0.000000    0.000000   24.491785
   Au   Pd
  24  24
Direct configuration=     1
   0.08333333  0.08333333  0.40830017
   0.33333333  0.08333333  0.40830017
   0.25000000  0.25000000  0.59169983
   0.08333333  0.58333333  0.40830017
   0.08333333  0.33333333  0.40830017
   0.16666667  0.41666667  0.50000000
   0.25000000  0.75000000  0.59169983
   0.33333333  0.58333333  0.40830017
   0.41666667  0.91666667  0.50000000
   0.83333333  0.83333333  0.40830017
   0.66666667  0.66666667  0.50000000
   0.75000000  0.25000000  0.59169983
   0.08333333  0.83333333  0.40830017
   0.66666667  0.16666667  0.50000000
   0.50000000  0.75000000  0.59169983
   0.58333333  0.83333333  0.40830017
   0.16666667  0.66666667  0.50000000
   0.50000000  0.50000000  0.59169983
   0.58333333  0.58333333  0.40830017
   0.50000000  0.25000000  0.59169983
   0.58333333  0.33333333  0.40830017
   0.50000000  0.00000000  0.59169983
   0.66666667  0.91666667  0.50000000
   0.83333333  0.33333333  0.40830017
   0.00000000  0.50000000  0.59169983
   0.33333333  0.83333333  0.40830017
   0.41666667  0.66666667  0.50000000
   0.91666667  0.91666667  0.50000000
   0.41666667  0.16666667  0.50000000
   0.41666667  0.41666667  0.50000000
   0.16666667  0.91666667  0.50000000
   0.16666667  0.16666667  0.50000000
   0.91666667  0.66666667  0.50000000
   0.00000000  0.75000000  0.59169983
   0.25000000  0.50000000  0.59169983
   0.66666667  0.41666667  0.50000000
   0.00000000  0.25000000  0.59169983
   0.75000000  0.00000000  0.59169983
   0.91666667  0.41666667  0.50000000
   0.33333333  0.33333333  0.40830017
   0.83333333  0.58333333  0.40830017
   0.00000000  0.00000000  0.59169983
   0.75000000  0.50000000  0.59169983
   0.91666667  0.16666667  0.50000000
   0.58333333  0.08333333  0.40830017
   0.25000000  0.00000000  0.59169983
   0.83333333  0.08333333  0.40830017
   0.75000000  0.75000000  0.59169983
Direct configuration=     2
   0.08333333  0.08333333  0.40830017
   0.33333333  0.08333333  0.40830017
   0.24875468  0.25028137  0.59351994
   0.08333333  0.58333333  0.40830017
   0.08333333  0.33333333  0.40830017
   0.16693483  0.41618531  0.50044925
   0.24871801  0.75101534  0.59354060
   0.33333333  0.58333333  0.40830017
   0.41361050  0.91764604  0.49997693
   0.83333333  0.83333333  0.40830017
   0.66916261  0.66406349  0.50038841
   0.75176853  0.24952705  0.59351108
   0.08333333  0.83333333  0.40830017
   0.66741071  0.16596334  0.49962499
   0.50046997  0.74961106  0.59388191
   0.58333333  0.83333333  0.40830017
   0.16628538  0.66718268  0.50083103
   0.49993344  0.49999764  0.59331356
   0.58333333  0.58333333  0.40830017
   0.49942609  0.25038320  0.59362334
   0.58333333  0.33333333  0.40830017
   0.50042648 -0.00015202  0.59391892
   0.66819955  0.91698567  0.50035761
   0.83333333  0.33333333  0.40830017
  -0.00069743  0.50046035  0.59260826
   0.33333333  0.83333333  0.40830017
   0.41639608  0.66657905  0.49988566
   0.91699912  0.91701370  0.50057325
   0.41621116  0.16764078  0.49957290
   0.41652446  0.41663772  0.49997879
   0.16607934  0.91773128  0.50031901
   0.16581634  0.16639726  0.50051516
   0.91641986  0.66639662  0.50059235
  -0.00080653  0.75036567  0.59257293
   0.24919365  0.50033622  0.59288072
   0.66711907  0.41685616  0.50024405
  -0.00013770  0.24999797  0.59230016
   0.75154019 -0.00138695  0.59283113
   0.91638101  0.41655641  0.50058254
   0.33333333  0.33333333  0.40830017
   0.83333333  0.58333333  0.40830017
   0.00014990 -0.00007347  0.59241494
   0.75136876  0.49957871  0.59257528
   0.91761727  0.16622697  0.50036675
   0.58333333  0.08333333  0.40830017
   0.24854918  0.00069033  0.59269322
   0.83333333  0.08333333  0.40830017
   0.75124039  0.74942424  0.59281696
Direct configuration=     3
   0.08333333  0.08333333  0.40830017
   0.33333333  0.08333333  0.40830017
   0.24501872  0.25112548  0.59898029
   0.08333333  0.58333333  0.40830017
   0.08333333  0.33333333  0.40830017
   0.16773933  0.41474124  0.50179698
   0.24487204  0.75406138  0.59906289
   0.33333333  0.58333333  0.40830017
   0.40444199  0.92058417  0.49990771
   0.83333333  0.83333333  0.40830017
   0.67665045  0.65625397  0.50155363
   0.75707414  0.24810820  0.59894481
   0.08333333  0.83333333  0.40830017
   0.66964283  0.16385336  0.49849995
   0.50187987  0.74844425  0.60042814
   0.58333333  0.83333333  0.40830017
   0.16514153  0.66873071  0.50332412
   0.49973375  0.49999056  0.59815476
   0.58333333  0.58333333  0.40830017
   0.49770434  0.25153282  0.59939386
   0.58333333  0.33333333  0.40830017
   0.50170591 -0.00060810  0.60057621
   0.67279820  0.91794270  0.50143043
   0.83333333  0.33333333  0.40830017
  -0.00278973  0.50184142  0.59533353
   0.33333333  0.83333333  0.40830017
   0.41558434  0.66631621  0.49954265
   0.91799648  0.91805480  0.50229301
   0.41484465  0.17056311  0.49829162
   0.41609785  0.41655089  0.49991515
   0.16431738  0.92092514  0.50127604
   0.16326536  0.16558903  0.50206065
   0.91567943  0.66558647  0.50236940
  -0.00322612  0.75146270  0.59519222
   0.24677461  0.50134489  0.59642340
   0.66847627  0.41742465  0.50097622
  -0.00055078  0.24999189  0.59410116
   0.75616077 -0.00554779  0.59622502
   0.91552402  0.41622564  0.50233016
   0.33333333  0.33333333  0.40830017
   0.83333333  0.58333333  0.40830017
   0.00059960 -0.00029386  0.59456026
   0.75547503  0.49831482  0.59520162
   0.92046909  0.16490786  0.50146699
   0.58333333  0.08333333  0.40830017
   0.24419671  0.00276132  0.59567340
   0.83333333  0.08333333  0.40830017
   0.75496154  0.74769696  0.59616835
Direct configuration=     4
   0.08333333  0.08333333  0.40830017
   0.33333333  0.08333333  0.40830017
   0.24473664  0.25101920  0.60114115
   0.08333333  0.58333333  0.40830017
   0.08333333  0.33333333  0.40830017
   0.16756362  0.41437186  0.50310085
   0.24482573  0.75429476  0.60135328
   0.33333333  0.58333333  0.40830017
   0.40683892  0.91938525  0.50173002
   0.83333333  0.83333333  0.40830017
   0.67438011  0.65891828  0.50286207
   0.75681032  0.24771504  0.60091428
   0.08333333  0.83333333  0.40830017
   0.66967427  0.16545687  0.50018622
   0.50214406  0.74864818  0.60250797
   0.58333333  0.83333333  0.40830017
   0.16513741  0.66914853  0.50468594
   0.49978362  0.49999405  0.59984963
   0.58333333  0.58333333  0.40830017
   0.49827079  0.25107664  0.60125663
   0.58333333  0.33333333  0.40830017
   0.50178155 -0.00088572  0.60262752
   0.67075529  0.91747215  0.50295715
   0.83333333  0.33333333  0.40830017
  -0.00265219  0.50186753  0.59677995
   0.33333333  0.83333333  0.40830017
   0.41575454  0.66649149  0.50110227
   0.91929434  0.91791760  0.50308928
   0.41520966  0.16989305  0.49969783
   0.41673128  0.41634089  0.50126883
   0.16328803  0.92004421  0.50223179
   0.16262717  0.16727620  0.50308601
   0.91684607  0.66507865  0.50312808
  -0.00337370  0.75133817  0.59675670
   0.24609239  0.50163755  0.59797757
   0.66823297  0.41588205  0.50240211
  -0.00045281  0.25018178  0.59539387
   0.75628222 -0.00508305  0.59781626
   0.91766154  0.41414602  0.50302950
   0.33333333  0.33333333  0.40830017
   0.83333333  0.58333333  0.40830017
   0.00046503 -0.00030935  0.59588682
   0.75583660  0.49809460  0.59687447
   0.91951364  0.16544209  0.50233364
   0.58333333  0.08333333  0.40830017
   0.24423233  0.00277299  0.59725433
   0.83333333  0.08333333  0.40830017
   0.75465571  0.74784032  0.59772157
Direct configuration=     5
   0.08333333  0.08333333  0.40830017
   0.33333333  0.08333333  0.40830017
   0.24406628  0.25076664  0.60627642
   0.08333333  0.58333333  0.40830017
   0.08333333  0.33333333  0.40830017
   0.16714606  0.41349404  0.50619949
   0.24471568  0.75484940  0.60679637
   0.33333333  0.58333333  0.40830017
   0.41253521  0.91653602  0.50606072
   0.83333333  0.83333333  0.40830017
   0.66898467  0.66524998  0.50597155
   0.75618335  0.24678070  0.60559471
   0.08333333  0.83333333  0.40830017
   0.66974896  0.16926759  0.50419361
   0.50277192  0.74913281  0.60745068
   0.58333333  0.83333333  0.40830017
   0.16512761  0.67014145  0.50792228
   0.49990213  0.50000236  0.60387749
   0.58333333  0.58333333  0.40830017
   0.49961694  0.24999253  0.60568349
   0.58333333  0.33333333  0.40830017
   0.50196128 -0.00154549  0.60750246
   0.66590032  0.91635391  0.50658539
   0.83333333  0.33333333  0.40830017
  -0.00232533  0.50192959  0.60021737
   0.33333333  0.83333333  0.40830017
   0.41615902  0.66690804  0.50480869
   0.92237870  0.91759154  0.50498163
   0.41607710  0.16830066  0.50303969
   0.41823663  0.41584184  0.50448583
   0.16084179  0.91795071  0.50450312
   0.16111053  0.17128574  0.50552277
   0.91961860  0.66387180  0.50493109
  -0.00372441  0.75104224  0.60047467
   0.24447108  0.50233304  0.60167104
   0.66765475  0.41221607  0.50579073
  -0.00021999  0.25063305  0.59846597
   0.75657083 -0.00397861  0.60159783
   0.92274133  0.40920381  0.50469148
   0.33333333  0.33333333  0.40830017
   0.83333333  0.58333333  0.40830017
   0.00014523 -0.00034617  0.59903937
   0.75669584  0.49757125  0.60084999
   0.91724300  0.16671166  0.50439322
   0.58333333  0.08333333  0.40830017
   0.24431698  0.00280070  0.60101138
   0.83333333  0.08333333  0.40830017
   0.75392892  0.74818102  0.60141281
Direct configuration=     6
   0.08333333  0.08333333  0.40830017
   0.33333333  0.08333333  0.40830017
   0.24395522  0.25072479  0.60712723
   0.08333333  0.58333333  0.40830017
   0.08333333  0.33333333  0.40830017
   0.16707688  0.41334861  0.50671288
   0.24469745  0.75494129  0.60769818
   0.33333333  0.58333333  0.40830017
   0.41347898  0.91606396  0.50677823
   0.83333333  0.83333333  0.40830017
   0.66809076  0.66629902  0.50648673
   0.75607948  0.24662590  0.60637017
   0.08333333  0.83333333  0.40830017
   0.66976134  0.16989895  0.50485756
   0.50287595  0.74921310  0.60826960
   0.58333333  0.83333333  0.40830017
   0.16512599  0.67030596  0.50845848
   0.49992177  0.50000373  0.60454483
   0.58333333  0.58333333  0.40830017
   0.49983997  0.24981291  0.60641694
   0.58333333  0.33333333  0.40830017
   0.50199106 -0.00165481  0.60831015
   0.66509595  0.91616863  0.50718652
   0.83333333  0.33333333  0.40830017
  -0.00227117  0.50193988  0.60078688
   0.33333333  0.83333333  0.40830017
   0.41622603  0.66697705  0.50542277
   0.92288972  0.91753752  0.50529515
   0.41622081  0.16803684  0.50359337
   0.41848604  0.41575915  0.50501882
   0.16043649  0.91760386  0.50487943
   0.16085925  0.17195004  0.50592649
   0.92007795  0.66367184  0.50522981
  -0.00378251  0.75099321  0.60109066
   0.24420246  0.50244827  0.60228298
   0.66755895  0.41160869  0.50635215
  -0.00018142  0.25070782  0.59897495
   0.75661865 -0.00379562  0.60222436
   0.92358295  0.40838499  0.50496683
   0.33333333  0.33333333  0.40830017
   0.83333333  0.58333333  0.40830017
   0.00009225 -0.00035227  0.59956169
   0.75683820  0.49748455  0.60150866
   0.91686680  0.16692201  0.50473445
   0.58333333  0.08333333  0.40830017
   0.24433101  0.00280529  0.60163385
   0.83333333  0.08333333  0.40830017
   0.75380850  0.74823747  0.60202437
Direct configuration=     7
   0.08333333  0.08333333  0.40830017
   0.33333333  0.08333333  0.40830017
   0.24595016  0.25018915  0.60968508
   0.08333333  0.58333333  0.40830017
   0.08333333  0.33333333  0.40830017
   0.16936704  0.41410700  0.50834648
   0.24614289  0.75393660  0.61039901
   0.33333333  0.58333333  0.40830017
   0.41201202  0.91736525  0.50909121
   0.83333333  0.83333333  0.40830017
   0.66861402  0.66387664  0.50828519
   0.75481140  0.24721060  0.60884946
   0.08333333  0.83333333  0.40830017
   0.66915808  0.16649550  0.50722202
   0.50240938  0.74894989  0.61077782
   0.58333333  0.83333333  0.40830017
   0.16778438  0.66734007  0.50999390
   0.49967052  0.50048176  0.60654619
   0.58333333  0.58333333  0.40830017
   0.49971551  0.24927539  0.60843764
   0.58333333  0.33333333  0.40830017
   0.50130500 -0.00065545  0.61075892
   0.66578564  0.91795269  0.50900013
   0.83333333  0.33333333  0.40830017
  -0.00215178  0.50189063  0.60280235
   0.33333333  0.83333333  0.40830017
   0.41632725  0.66672337  0.50792909
   0.91839011  0.91817293  0.50631799
   0.41688117  0.16708870  0.50616906
   0.41725035  0.41637741  0.50716857
   0.16385246  0.91783529  0.50642408
   0.16519441  0.16746069  0.50723980
   0.91922401  0.66426780  0.50626939
  -0.00359519  0.75094744  0.60336098
   0.24510622  0.50193895  0.60434193
   0.66765804  0.41461922  0.50844096
  -0.00060224  0.25049495  0.60122801
   0.75517737 -0.00274466  0.60395319
   0.91909885  0.41193429  0.50596944
   0.33333333  0.33333333  0.40830017
   0.83333333  0.58333333  0.40830017
   0.00008089 -0.00011180  0.60162778
   0.75583906  0.49769341  0.60326530
   0.91671206  0.16723261  0.50607491
   0.58333333  0.08333333  0.40830017
   0.24565598  0.00206804  0.60343397
   0.83333333  0.08333333  0.40830017
   0.75316728  0.74850622  0.60407664
Direct configuration=     8
   0.08333333  0.08333333  0.40830017
   0.33333333  0.08333333  0.40830017
   0.24663353  0.25000566  0.61056127
   0.08333333  0.58333333  0.40830017
   0.08333333  0.33333333  0.40830017
   0.17015154  0.41436679  0.50890607
   0.24663803  0.75359244  0.61132419
   0.33333333  0.58333333  0.40830017
   0.41150951  0.91781101  0.50988353
   0.83333333  0.83333333  0.40830017
   0.66879327  0.66304685  0.50890126
   0.75437702  0.24741089  0.60969874
   0.08333333  0.83333333  0.40830017
   0.66895143  0.16532964  0.50803197
   0.50224956  0.74885972  0.61163702
   0.58333333  0.83333333  0.40830017
   0.16869502  0.66632410  0.51051986
   0.49958445  0.50064551  0.60723176
   0.58333333  0.58333333  0.40830017
   0.49967288  0.24909126  0.60912984
   0.58333333  0.33333333  0.40830017
   0.50106999 -0.00031311  0.61159775
   0.66602189  0.91856383  0.50962139
   0.83333333  0.33333333  0.40830017
  -0.00211088  0.50187376  0.60349275
   0.33333333  0.83333333  0.40830017
   0.41636192  0.66663647  0.50878764
   0.91684875  0.91839059  0.50666836
   0.41710737  0.16676392  0.50705137
   0.41682706  0.41658920  0.50790497
   0.16502261  0.91791457  0.50695320
   0.16667943  0.16592285  0.50768968
   0.91893148  0.66447194  0.50662550
  -0.00353103  0.75093175  0.60413869
   0.24541580  0.50176448  0.60504723
   0.66769198  0.41565048  0.50915649
  -0.00074639  0.25042203  0.60199980
   0.75468366 -0.00238466  0.60454541
   0.91756281  0.41315012  0.50631289
   0.33333333  0.33333333  0.40830017
   0.83333333  0.58333333  0.40830017
   0.00007700 -0.00002943  0.60233553
   0.75549679  0.49776495  0.60386704
   0.91665906  0.16733901  0.50653409
   0.58333333  0.08333333  0.40830017
   0.24610986  0.00181549  0.60405061
   0.83333333  0.08333333  0.40830017
   0.75294763  0.74859828  0.60477965
Direct configuration=     9
   0.08333333  0.08333333  0.40830017
   0.33333333  0.08333333  0.40830017
   0.24665849  0.25034257  0.61099911
   0.08333333  0.58333333  0.40830017
   0.08333333  0.33333333  0.40830017
   0.16957711  0.41348713  0.50909250
   0.24654194  0.75322293  0.61181150
   0.33333333  0.58333333  0.40830017
   0.41214046  0.91745951  0.50987966
   0.83333333  0.83333333  0.40830017
   0.66961324  0.66285648  0.50907509
   0.75394937  0.24814684  0.61022714
   0.08333333  0.83333333  0.40830017
   0.66774676  0.16621648  0.50803202
   0.50210407  0.74895902  0.61232967
   0.58333333  0.83333333  0.40830017
   0.16785579  0.66785736  0.51073130
   0.49957890  0.50018030  0.60789164
   0.58333333  0.58333333  0.40830017
   0.49910830  0.25001750  0.60967951
   0.58333333  0.33333333  0.40830017
   0.50114884 -0.00060689  0.61227731
   0.66727259  0.91705067  0.50962179
   0.83333333  0.33333333  0.40830017
  -0.00200753  0.50139436  0.60387125
   0.33333333  0.83333333  0.40830017
   0.41637641  0.66649441  0.50933027
   0.91719588  0.91704418  0.50703398
   0.41662836  0.16721659  0.50768850
   0.41825107  0.41568050  0.50828389
   0.16541898  0.91772629  0.50746938
   0.16683706  0.16583011  0.50808206
   0.91762126  0.66520775  0.50709128
  -0.00309239  0.75124754  0.60459618
   0.24663411  0.50122449  0.60605574
   0.66731236  0.41610325  0.50947278
  -0.00043485  0.25021481  0.60256995
   0.75422294 -0.00271510  0.60531762
   0.91706243  0.41464790  0.50671655
   0.33333333  0.33333333  0.40830017
   0.83333333  0.58333333  0.40830017
   0.00043225 -0.00033903  0.60279076
   0.75487291  0.49796413  0.60448731
   0.91738466  0.16689961  0.50708413
   0.58333333  0.08333333  0.40830017
   0.24644878  0.00158554  0.60485530
   0.83333333  0.08333333  0.40830017
   0.75266960  0.74875915  0.60528029
Direct configuration=    10
   0.08333333  0.08333333  0.40830017
   0.33333333  0.08333333  0.40830017
   0.24666859  0.25047886  0.61117623
   0.08333333  0.58333333  0.40830017
   0.08333333  0.33333333  0.40830017
   0.16934474  0.41313127  0.50916791
   0.24650307  0.75307345  0.61200864
   0.33333333  0.58333333  0.40830017
   0.41239570  0.91731731  0.50987810
   0.83333333  0.83333333  0.40830017
   0.66994494  0.66277947  0.50914541
   0.75377637  0.24844456  0.61044090
   0.08333333  0.83333333  0.40830017
   0.66725943  0.16657524  0.50803205
   0.50204521  0.74899919  0.61260987
   0.58333333  0.83333333  0.40830017
   0.16751629  0.66847762  0.51081684
   0.49957665  0.49999210  0.60815860
   0.58333333  0.58333333  0.40830017
   0.49887991  0.25039221  0.60990187
   0.58333333  0.33333333  0.40830017
   0.50118073 -0.00072573  0.61255222
   0.66777855  0.91643854  0.50962195
   0.83333333  0.33333333  0.40830017
  -0.00196572  0.50120042  0.60402437
   0.33333333  0.83333333  0.40830017
   0.41638228  0.66643694  0.50954978
   0.91733630  0.91649950  0.50718188
   0.41643458  0.16739972  0.50794624
   0.41882713  0.41531290  0.50843718
   0.16557932  0.91765012  0.50767820
   0.16690083  0.16579260  0.50824079
   0.91709122  0.66550542  0.50727970
  -0.00291495  0.75137529  0.60478126
   0.24712696  0.50100605  0.60646372
   0.66715878  0.41628641  0.50960073
  -0.00030882  0.25013098  0.60280059
   0.75403656 -0.00284878  0.60563001
   0.91686001  0.41525381  0.50687985
   0.33333333  0.33333333  0.40830017
   0.83333333  0.58333333  0.40830017
   0.00057596 -0.00046427  0.60297492
   0.75462053  0.49804470  0.60473823
   0.91767819  0.16672186  0.50730664
   0.58333333  0.08333333  0.40830017
   0.24658589  0.00149251  0.60518083
   0.83333333  0.08333333  0.40830017
   0.75255712  0.74882422  0.60548282
Direct configuration=    11
   0.08333333  0.08333333  0.40830017
   0.33333333  0.08333333  0.40830017
   0.24641340  0.25061189  0.61127221
   0.08333333  0.58333333  0.40830017
   0.08333333  0.33333333  0.40830017
   0.16865227  0.41382898  0.50924087
   0.24648107  0.75286731  0.61216075
   0.33333333  0.58333333  0.40830017
   0.41322644  0.91683072  0.50963834
   0.83333333  0.83333333  0.40830017
   0.66955680  0.66309137  0.50911533
   0.75411766  0.24818995  0.61051939
   0.08333333  0.83333333  0.40830017
   0.66787560  0.16637511  0.50777736
   0.50188510  0.74898278  0.61293550
   0.58333333  0.83333333  0.40830017
   0.16713246  0.66817550  0.51092677
   0.49956085  0.50014574  0.60860319
   0.58333333  0.58333333  0.40830017
   0.49898695  0.25029688  0.61025356
   0.58333333  0.33333333  0.40830017
   0.50128402 -0.00083287  0.61289085
   0.66769443  0.91642543  0.50946668
   0.83333333  0.33333333  0.40830017
  -0.00189157  0.50117049  0.60415344
   0.33333333  0.83333333  0.40830017
   0.41659508  0.66631863  0.50969682
   0.91767389  0.91652743  0.50745446
   0.41646049  0.16714927  0.50815493
   0.41836913  0.41571066  0.50848909
   0.16537388  0.91778455  0.50795579
   0.16615530  0.16609952  0.50851803
   0.91757923  0.66522829  0.50760142
  -0.00260625  0.75119356  0.60496163
   0.24714663  0.50110958  0.60688430
   0.66737869  0.41594020  0.50960184
  -0.00009372  0.25001067  0.60303026
   0.75380722 -0.00279695  0.60599445
   0.91743058  0.41505342  0.50716069
   0.33333333  0.33333333  0.40830017
   0.83333333  0.58333333  0.40830017
   0.00040257 -0.00037121  0.60315171
   0.75427035  0.49831702  0.60512481
   0.91780649  0.16646780  0.50763996
   0.58333333  0.08333333  0.40830017
   0.24681101  0.00140022  0.60567723
   0.83333333  0.08333333  0.40830017
   0.75267493  0.74868227  0.60578460
Direct configuration=    12
   0.08333333  0.08333333  0.40830017
   0.33333333  0.08333333  0.40830017
   0.24630645  0.25066764  0.61131243
   0.08333333  0.58333333  0.40830017
   0.08333333  0.33333333  0.40830017
   0.16836206  0.41412137  0.50927144
   0.24647185  0.75278093  0.61222449
   0.33333333  0.58333333  0.40830017
   0.41357459  0.91662679  0.50953785
   0.83333333  0.83333333  0.40830017
   0.66939413  0.66322208  0.50910272
   0.75426069  0.24808324  0.61055228
   0.08333333  0.83333333  0.40830017
   0.66813383  0.16629123  0.50767062
   0.50181799  0.74897590  0.61307197
   0.58333333  0.83333333  0.40830017
   0.16697160  0.66804889  0.51097284
   0.49955423  0.50021013  0.60878951
   0.58333333  0.58333333  0.40830017
   0.49903181  0.25025693  0.61040095
   0.58333333  0.33333333  0.40830017
   0.50132730 -0.00087776  0.61303276
   0.66765918  0.91641993  0.50940161
   0.83333333  0.33333333  0.40830017
  -0.00186049  0.50115795  0.60420753
   0.33333333  0.83333333  0.40830017
   0.41668425  0.66626905  0.50975843
   0.91781537  0.91653913  0.50756869
   0.41647135  0.16704431  0.50824240
   0.41817719  0.41587735  0.50851085
   0.16528778  0.91784089  0.50807213
   0.16584286  0.16622815  0.50863422
   0.91778375  0.66511215  0.50773625
  -0.00247687  0.75111740  0.60503722
   0.24715487  0.50115297  0.60706055
   0.66747084  0.41579511  0.50960231
  -0.00000358  0.24996025  0.60312650
   0.75371110 -0.00277523  0.60614718
   0.91766970  0.41496945  0.50727839
   0.33333333  0.33333333  0.40830017
   0.83333333  0.58333333  0.40830017
   0.00032991 -0.00033221  0.60322580
   0.75412360  0.49843114  0.60528683
   0.91786026  0.16636133  0.50777965
   0.58333333  0.08333333  0.40830017
   0.24690535  0.00136154  0.60588526
   0.83333333  0.08333333  0.40830017
   0.75272430  0.74862277  0.60591107
Direct configuration=    13
   0.08333333  0.08333333  0.40830017
   0.33333333  0.08333333  0.40830017
   0.24638295  0.25061226  0.61128186
   0.08333333  0.58333333  0.40830017
   0.08333333  0.33333333  0.40830017
   0.16874379  0.41421132  0.50931734
   0.24642711  0.75291531  0.61224266
   0.33333333  0.58333333  0.40830017
   0.41300789  0.91693851  0.50949512
   0.83333333  0.83333333  0.40830017
   0.66963913  0.66279330  0.50917374
   0.75436124  0.24787548  0.61047412
   0.08333333  0.83333333  0.40830017
   0.66848384  0.16589379  0.50755803
   0.50171013  0.74910906  0.61321024
   0.58333333  0.83333333  0.40830017
   0.16736763  0.66755794  0.51104119
   0.49976599  0.50012029  0.60907289
   0.58333333  0.58333333  0.40830017
   0.49930533  0.24999803  0.61054277
   0.58333333  0.33333333  0.40830017
   0.50136436 -0.00092903  0.61320397
   0.66778635  0.91686310  0.50943650
   0.83333333  0.33333333  0.40830017
  -0.00193039  0.50130695  0.60437066
   0.33333333  0.83333333  0.40830017
   0.41654945  0.66619314  0.50976330
   0.91779126  0.91686463  0.50774519
   0.41637500  0.16709433  0.50830072
   0.41756707  0.41614543  0.50857783
   0.16554296  0.91772381  0.50824530
   0.16586645  0.16607373  0.50882626
   0.91773275  0.66518500  0.50788187
  -0.00256219  0.75100667  0.60518836
   0.24690429  0.50118307  0.60718564
   0.66778054  0.41558846  0.50962180
  -0.00006849  0.25001775  0.60333109
   0.75372016 -0.00277820  0.60617867
   0.91753098  0.41466027  0.50745531
   0.33333333  0.33333333  0.40830017
   0.83333333  0.58333333  0.40830017
   0.00031322 -0.00037904  0.60337867
   0.75415328  0.49851097  0.60542381
   0.91777574  0.16642971  0.50788465
   0.58333333  0.08333333  0.40830017
   0.24712975  0.00117969  0.60605708
   0.83333333  0.08333333  0.40830017
   0.75278899  0.74852982  0.60600984
Direct configuration=    14
   0.08333333  0.08333333  0.40830017
   0.33333333  0.08333333  0.40830017
   0.24638666  0.25060957  0.61128038
   0.08333333  0.58333333  0.40830017
   0.08333333  0.33333333  0.40830017
   0.16876232  0.41421569  0.50931956
   0.24642494  0.75292183  0.61224354
   0.33333333  0.58333333  0.40830017
   0.41298037  0.91695365  0.50949304
   0.83333333  0.83333333  0.40830017
   0.66965102  0.66277248  0.50917719
   0.75436613  0.24786539  0.61047032
   0.08333333  0.83333333  0.40830017
   0.66850084  0.16587449  0.50755256
   0.50170489  0.74911552  0.61321695
   0.58333333  0.83333333  0.40830017
   0.16738686  0.66753411  0.51104451
   0.49977628  0.50011593  0.60908665
   0.58333333  0.58333333  0.40830017
   0.49931861  0.24998546  0.61054966
   0.58333333  0.33333333  0.40830017
   0.50136616 -0.00093152  0.61321228
   0.66779252  0.91688462  0.50943819
   0.83333333  0.33333333  0.40830017
  -0.00193379  0.50131419  0.60437858
   0.33333333  0.83333333  0.40830017
   0.41654290  0.66618946  0.50976353
   0.91779009  0.91688043  0.50775376
   0.41637033  0.16709675  0.50830356
   0.41753745  0.41615845  0.50858108
   0.16555535  0.91771812  0.50825371
   0.16586760  0.16606623  0.50883559
   0.91773028  0.66518854  0.50788894
  -0.00256634  0.75100130  0.60519570
   0.24689213  0.50118453  0.60719171
   0.66779557  0.41557842  0.50962275
  -0.00007165  0.25002054  0.60334102
   0.75372060 -0.00277834  0.60618020
   0.91752425  0.41464526  0.50746390
   0.33333333  0.33333333  0.40830017
   0.83333333  0.58333333  0.40830017
   0.00031241 -0.00038131  0.60338609
   0.75415472  0.49851484  0.60543046
   0.91777164  0.16643303  0.50788974
   0.58333333  0.08333333  0.40830017
   0.24714065  0.00117087  0.60606543
   0.83333333  0.08333333  0.40830017
   0.75279213  0.74852531  0.60601463
Direct configuration=    15
   0.08333333  0.08333333  0.40830017
   0.33333333  0.08333333  0.40830017
   0.24653756  0.25051056  0.61122431
   0.08333333  0.58333333  0.40830017
   0.08333333  0.33333333  0.40830017
   0.16889238  0.41395666  0.50934856
   0.24646229  0.75293607  0.61222324
   0.33333333  0.58333333  0.40830017
   0.41272752  0.91710743  0.50954252
   0.83333333  0.83333333  0.40830017
   0.66972740  0.66272732  0.50927022
   0.75430140  0.24784666  0.61036345
   0.08333333  0.83333333  0.40830017
   0.66818688  0.16611971  0.50752762
   0.50175348  0.74916394  0.61324394
   0.58333333  0.83333333  0.40830017
   0.16745043  0.66768961  0.51108715
   0.49990135  0.49997260  0.60922484
   0.58333333  0.58333333  0.40830017
   0.49944755  0.24991086  0.61056806
   0.58333333  0.33333333  0.40830017
   0.50144374 -0.00102859  0.61329979
   0.66776294  0.91687053  0.50954869
   0.83333333  0.33333333  0.40830017
  -0.00197954  0.50135762  0.60451767
   0.33333333  0.83333333  0.40830017
   0.41657069  0.66605841  0.50975514
   0.91808693  0.91682712  0.50782730
   0.41637001  0.16719331  0.50831256
   0.41778009  0.41592346  0.50867323
   0.16560775  0.91754939  0.50833017
   0.16593877  0.16610836  0.50895278
   0.91759032  0.66530953  0.50793629
  -0.00269732  0.75101135  0.60529566
   0.24686002  0.50112209  0.60724275
   0.66770710  0.41545975  0.50966816
  -0.00012421  0.25005774  0.60351744
   0.75381792 -0.00286989  0.60613035
   0.91754116  0.41438089  0.50756119
   0.33333333  0.33333333  0.40830017
   0.83333333  0.58333333  0.40830017
   0.00043565 -0.00049174  0.60353557
   0.75424850  0.49847979  0.60549699
   0.91784700  0.16644610  0.50789138
   0.58333333  0.08333333  0.40830017
   0.24722491  0.00110597  0.60612839
   0.83333333  0.08333333  0.40830017
   0.75268599  0.74857948  0.60601875
Direct configuration=    16
   0.08333333  0.08333333  0.40830017
   0.33333333  0.08333333  0.40830017
   0.24659705  0.25047152  0.61120221
   0.08333333  0.58333333  0.40830017
   0.08333333  0.33333333  0.40830017
   0.16894366  0.41385453  0.50935999
   0.24647701  0.75294169  0.61221523
   0.33333333  0.58333333  0.40830017
   0.41262782  0.91716806  0.50956202
   0.83333333  0.83333333  0.40830017
   0.66975751  0.66270951  0.50930690
   0.75427588  0.24783927  0.61032131
   0.08333333  0.83333333  0.40830017
   0.66806309  0.16621640  0.50751779
   0.50177263  0.74918304  0.61325458
   0.58333333  0.83333333  0.40830017
   0.16747549  0.66775092  0.51110397
   0.49995067  0.49991609  0.60927934
   0.58333333  0.58333333  0.40830017
   0.49949839  0.24988144  0.61057531
   0.58333333  0.33333333  0.40830017
   0.50147433 -0.00106686  0.61333430
   0.66775128  0.91686498  0.50959225
   0.83333333  0.33333333  0.40830017
  -0.00199758  0.50137475  0.60457251
   0.33333333  0.83333333  0.40830017
   0.41658165  0.66600674  0.50975183
   0.91820397  0.91680611  0.50785630
   0.41636989  0.16723139  0.50831611
   0.41787577  0.41583081  0.50870957
   0.16562841  0.91748285  0.50836032
   0.16596683  0.16612497  0.50899898
   0.91753513  0.66535724  0.50795496
  -0.00274896  0.75101532  0.60533508
   0.24684737  0.50109747  0.60726287
   0.66767222  0.41541296  0.50968607
  -0.00014494  0.25007240  0.60358700
   0.75385629 -0.00290599  0.60611069
   0.91754782  0.41427665  0.50759955
   0.33333333  0.33333333  0.40830017
   0.83333333  0.58333333  0.40830017
   0.00048424 -0.00053529  0.60359450
   0.75428547  0.49846596  0.60552322
   0.91787671  0.16645125  0.50789202
   0.58333333  0.08333333  0.40830017
   0.24725814  0.00108038  0.60615322
   0.83333333  0.08333333  0.40830017
   0.75264413  0.74860084  0.60602037
Direct configuration=    17
   0.08333333  0.08333333  0.40830017
   0.33333333  0.08333333  0.40830017
   0.24672341  0.25036838  0.61116746
   0.08333333  0.58333333  0.40830017