  48  48   0   0
  0.5349325E+02  0.1100258E-08  0.1100258E-08  0.2449179E-08  0.3500000E-15
  1.000000000000000E-004
  CAR 
 unknown system                          
      6.40981410     -9.81922624  301     -1.10065905      1.00000000
     -9.819  0.0000E+00  0.0000E+00
     -9.765  0.0000E+00  0.0000E+00
     -9.711  0.0000E+00  0.0000E+00
     -9.657  0.0000E+00  0.0000E+00
     -9.603  0.0000E+00  0.0000E+00
     -9.549  0.0000E+00  0.0000E+00
     -9.495  0.0000E+00  0.0000E+00
     -9.441  0.0000E+00  0.0000E+00
     -9.386  0.7525E-17  0.4071E-18
     -9.332  0.3157E-14  0.1712E-15
     -9.278  0.7065E-12  0.3839E-13
     -9.224  0.8963E-10  0.4887E-11
     -9.170  0.6461E-08  0.3544E-09
     -9.116  0.2653E-06  0.1471E-07
     -9.062  0.6222E-05  0.3513E-06
     -9.008  0.8357E-04  0.4872E-05
     -8.954  0.6445E-03  0.3974E-04
     -8.900  0.2862E-02  0.1946E-03
     -8.845  0.7346E-02  0.5920E-03
     -8.791  0.1108E-01  0.1191E-02
     -8.737  0.1069E-01  0.1769E-02
     -8.683  0.9235E-02  0.2269E-02
     -8.629  0.1022E-01  0.2822E-02
     -8.575  0.1046E-01  0.3388E-02
     -8.521  0.7226E-02  0.3778E-02
     -8.467  0.3125E-02  0.3948E-02
     -8.413  0.8872E-03  0.3996E-02
     -8.359  0.5221E-03  0.4024E-02
     -8.305  0.1515E-02  0.4106E-02
     -8.250  0.3553E-02  0.4298E-02
     -8.196  0.5694E-02  0.4606E-02
     -8.142  0.7261E-02  0.4999E-02
     -8.088  0.8439E-02  0.5455E-02
     -8.034  0.1002E-01  0.5997E-02
     -7.980  0.1369E-01  0.6738E-02
     -7.926  0.1845E-01  0.7736E-02
     -7.872  0.1924E-01  0.8777E-02
     -7.818  0.1465E-01  0.9570E-02
     -7.764  0.1008E-01  0.1012E-01
     -7.709  0.9941E-02  0.1065E-01
     -7.655  0.1287E-01  0.1135E-01
     -7.601  0.1569E-01  0.1220E-01
     -7.547  0.1625E-01  0.1308E-01
     -7.493  0.1482E-01  0.1388E-01
     -7.439  0.1599E-01  0.1474E-01
     -7.385  0.2125E-01  0.1589E-01
     -7.331  0.2518E-01  0.1726E-01
     -7.277  0.2606E-01  0.1867E-01
     -7.223  0.2766E-01  0.2016E-01
     -7.168  0.3103E-01  0.2184E-01
     -7.114  0.3608E-01  0.2379E-01
     -7.060  0.4428E-01  0.2619E-01
     -7.006  0.5466E-01  0.2914E-01
     -6.952  0.6390E-01  0.3260E-01
     -6.898  0.6834E-01  0.3630E-01
     -6.844  0.6686E-01  0.3992E-01
     -6.790  0.6545E-01  0.4346E-01
     -6.736  0.7065E-01  0.4728E-01
     -6.682  0.7968E-01  0.5159E-01
     -6.628  0.8798E-01  0.5635E-01
     -6.573  0.9600E-01  0.6154E-01
     -6.519  0.1025E+00  0.6709E-01
     -6.465  0.1044E+00  0.7273E-01
     -6.411  0.1042E+00  0.7837E-01
     -6.357  0.1114E+00  0.8439E-01
     -6.303  0.1305E+00  0.9146E-01
     -6.249  0.1517E+00  0.9966E-01
     -6.195  0.1619E+00  0.1084E+00
     -6.141  0.1608E+00  0.1171E+00
     -6.087  0.1584E+00  0.1257E+00
     -6.032  0.1599E+00  0.1343E+00
     -5.978  0.1615E+00  0.1431E+00
     -5.924  0.1599E+00  0.1517E+00
     -5.870  0.1559E+00  0.1602E+00
     -5.816  0.1497E+00  0.1683E+00
     -5.762  0.1441E+00  0.1760E+00
     -5.708  0.1420E+00  0.1837E+00
     -5.654  0.1414E+00  0.1914E+00
     -5.600  0.1391E+00  0.1989E+00
     -5.546  0.1374E+00  0.2063E+00
     -5.491  0.1390E+00  0.2139E+00
     -5.437  0.1420E+00  0.2215E+00
     -5.383  0.1442E+00  0.2293E+00
     -5.329  0.1456E+00  0.2372E+00
     -5.275  0.1488E+00  0.2453E+00
     -5.221  0.1570E+00  0.2538E+00
     -5.167  0.1673E+00  0.2628E+00
     -5.113  0.1738E+00  0.2722E+00
     -5.059  0.1758E+00  0.2817E+00
     -5.005  0.1759E+00  0.2912E+00
     -4.951  0.1760E+00  0.3008E+00
     -4.896  0.1764E+00  0.3103E+00
     -4.842  0.1754E+00  0.3198E+00
     -4.788  0.1711E+00  0.3290E+00
     -4.734  0.1638E+00  0.3379E+00
     -4.680  0.1575E+00  0.3464E+00
     -4.626  0.1578E+00  0.3550E+00
     -4.572  0.1642E+00  0.3638E+00
     -4.518  0.1709E+00  0.3731E+00
     -4.464  0.1748E+00  0.3825E+00
     -4.410  0.1775E+00  0.3921E+00
     -4.355  0.1783E+00  0.4018E+00
     -4.301  0.1752E+00  0.4113E+00
     -4.247  0.1707E+00  0.4205E+00
     -4.193  0.1683E+00  0.4296E+00
     -4.139  0.1675E+00  0.4387E+00
     -4.085  0.1689E+00  0.4478E+00
     -4.031  0.1748E+00  0.4573E+00
     -3.977  0.1844E+00  0.4672E+00
     -3.923  0.1916E+00  0.4776E+00
     -3.869  0.1897E+00  0.4879E+00
     -3.814  0.1828E+00  0.4978E+00
     -3.760  0.1818E+00  0.5076E+00
     -3.706  0.1877E+00  0.5177E+00
     -3.652  0.1928E+00  0.5282E+00
     -3.598  0.1955E+00  0.5387E+00
     -3.544  0.1995E+00  0.5495E+00
     -3.490  0.2056E+00  0.5607E+00
     -3.436  0.2100E+00  0.5720E+00
     -3.382  0.2100E+00  0.5834E+00
     -3.328  0.2084E+00  0.5947E+00
     -3.274  0.2069E+00  0.6058E+00
     -3.219  0.2027E+00  0.6168E+00
     -3.165  0.1952E+00  0.6274E+00
     -3.111  0.1890E+00  0.6376E+00
     -3.057  0.1868E+00  0.6477E+00
     -3.003  0.1866E+00  0.6578E+00
     -2.949  0.1866E+00  0.6679E+00
     -2.895  0.1865E+00  0.6780E+00
     -2.841  0.1852E+00  0.6880E+00
     -2.787  0.1812E+00  0.6978E+00
     -2.733  0.1768E+00  0.7074E+00
     -2.678  0.1765E+00  0.7169E+00
     -2.624  0.1821E+00  0.7268E+00
     -2.570  0.1902E+00  0.7371E+00
     -2.516  0.1944E+00  0.7476E+00
     -2.462  0.1940E+00  0.7581E+00
     -2.408  0.1924E+00  0.7685E+00
     -2.354  0.1904E+00  0.7788E+00
     -2.300  0.1862E+00  0.7888E+00
     -2.246  0.1801E+00  0.7986E+00
     -2.192  0.1759E+00  0.8081E+00
     -2.137  0.1760E+00  0.8176E+00
     -2.083  0.1798E+00  0.8274E+00
     -2.029  0.1863E+00  0.8374E+00
     -1.975  0.1941E+00  0.8479E+00
     -1.921  0.2009E+00  0.8588E+00
     -1.867  0.2030E+00  0.8698E+00
     -1.813  0.1988E+00  0.8805E+00
     -1.759  0.1938E+00  0.8910E+00
     -1.705  0.1954E+00  0.9016E+00
     -1.651  0.2008E+00  0.9125E+00
     -1.597  0.2023E+00  0.9234E+00
     -1.542  0.2000E+00  0.9342E+00
     -1.488  0.1978E+00  0.9449E+00
     -1.434  0.1965E+00  0.9555E+00
     -1.380  0.1937E+00  0.9660E+00
     -1.326  0.1854E+00  0.9761E+00
     -1.272  0.1709E+00  0.9853E+00
     -1.218  0.1537E+00  0.9936E+00
     -1.164  0.1351E+00  0.1001E+01
     -1.110  0.1141E+00  0.1007E+01
     -1.056  0.8989E-01  0.1012E+01
     -1.001  0.6311E-01  0.1015E+01
     -0.947  0.3871E-01  0.1017E+01
     -0.893  0.2405E-01  0.1019E+01
     -0.839  0.1970E-01  0.1020E+01
     -0.785  0.1988E-01  0.1021E+01
     -0.731  0.1987E-01  0.1022E+01
     -0.677  0.1957E-01  0.1023E+01
     -0.623  0.2327E-01  0.1024E+01
     -0.569  0.3358E-01  0.1026E+01
     -0.515  0.4490E-01  0.1029E+01
     -0.460  0.4932E-01  0.1031E+01
     -0.406  0.4493E-01  0.1034E+01
     -0.352  0.3638E-01  0.1036E+01
     -0.298  0.3354E-01  0.1037E+01
     -0.244  0.3893E-01  0.1040E+01
     -0.190  0.4220E-01  0.1042E+01
     -0.136  0.3728E-01  0.1044E+01
     -0.082  0.2858E-01  0.1045E+01
     -0.028  0.2133E-01  0.1047E+01
      0.026  0.1825E-01  0.1048E+01
      0.080  0.2029E-01  0.1049E+01
      0.135  0.2561E-01  0.1050E+01
      0.189  0.3049E-01  0.1052E+01
      0.243  0.3287E-01  0.1053E+01
      0.297  0.3356E-01  0.1055E+01
      0.351  0.3402E-01  0.1057E+01
      0.405  0.3609E-01  0.1059E+01
      0.459  0.3986E-01  0.1061E+01
      0.513  0.4318E-01  0.1064E+01
      0.567  0.4683E-01  0.1066E+01
      0.621  0.5022E-01  0.1069E+01
      0.676  0.4917E-01  0.1071E+01
      0.730  0.4394E-01  0.1074E+01
      0.784  0.3788E-01  0.1076E+01
      0.838  0.3133E-01  0.1078E+01
      0.892  0.2492E-01  0.1079E+01
      0.946  0.2085E-01  0.1080E+01
      1.000  0.1996E-01  0.1081E+01
      1.054  0.2130E-01  0.1082E+01
      1.108  0.2308E-01  0.1084E+01
      1.162  0.2289E-01  0.1085E+01
      1.217  0.1979E-01  0.1086E+01
      1.271  0.1531E-01  0.1087E+01
      1.325  0.1144E-01  0.1087E+01
      1.379  0.1021E-01  0.1088E+01
      1.433  0.1281E-01  0.1089E+01
      1.487  0.1941E-01  0.1090E+01
      1.541  0.2859E-01  0.1091E+01
      1.595  0.3524E-01  0.1093E+01
      1.649  0.3481E-01  0.1095E+01
      1.703  0.3080E-01  0.1097E+01
      1.757  0.3145E-01  0.1098E+01
      1.812  0.3676E-01  0.1100E+01
      1.866  0.3725E-01  0.1102E+01
      1.920  0.3014E-01  0.1104E+01
      1.974  0.2248E-01  0.1105E+01
      2.028  0.1847E-01  0.1106E+01
      2.082  0.1922E-01  0.1107E+01
      2.136  0.2554E-01  0.1109E+01
      2.190  0.3528E-01  0.1110E+01
      2.244  0.4354E-01  0.1113E+01
      2.298  0.4793E-01  0.1115E+01
      2.353  0.4952E-01  0.1118E+01
      2.407  0.4710E-01  0.1121E+01
      2.461  0.4031E-01  0.1123E+01
      2.515  0.3557E-01  0.1125E+01
      2.569  0.3773E-01  0.1127E+01
      2.623  0.4339E-01  0.1129E+01
      2.677  0.4652E-01  0.1132E+01
      2.731  0.4342E-01  0.1134E+01
      2.785  0.3465E-01  0.1136E+01
      2.839  0.2459E-01  0.1137E+01
      2.894  0.1757E-01  0.1138E+01
      2.948  0.1441E-01  0.1139E+01
      3.002  0.1175E-01  0.1140E+01
      3.056  0.8663E-02  0.1140E+01
      3.110  0.9074E-02  0.1141E+01
      3.164  0.1441E-01  0.1141E+01
      3.218  0.2201E-01  0.1142E+01
      3.272  0.2685E-01  0.1144E+01
      3.326  0.2437E-01  0.1145E+01
      3.380  0.1903E-01  0.1146E+01
      3.434  0.1908E-01  0.1147E+01
      3.489  0.2402E-01  0.1149E+01
      3.543  0.2996E-01  0.1150E+01
      3.597  0.3599E-01  0.1152E+01
      3.651  0.3991E-01  0.1154E+01
      3.705  0.3980E-01  0.1156E+01
      3.759  0.3610E-01  0.1158E+01
      3.813  0.2956E-01  0.1160E+01
      3.867  0.2319E-01  0.1161E+01
      3.921  0.2051E-01  0.1162E+01
      3.975  0.2258E-01  0.1164E+01
      4.030  0.2680E-01  0.1165E+01
      4.084  0.2853E-01  0.1167E+01
      4.138  0.2728E-01  0.1168E+01
      4.192  0.2598E-01  0.1170E+01
      4.246  0.2310E-01  0.1171E+01
      4.300  0.1719E-01  0.1172E+01
      4.354  0.1475E-01  0.1172E+01
      4.408  0.2009E-01  0.1174E+01
      4.462  0.2687E-01  0.1175E+01
      4.516  0.3164E-01  0.1177E+01
      4.571  0.4032E-01  0.1179E+01
      4.625  0.5244E-01  0.1182E+01
      4.679  0.5862E-01  0.1185E+01
      4.733  0.5539E-01  0.1188E+01
      4.787  0.4927E-01  0.1191E+01
      4.841  0.4765E-01  0.1193E+01
      4.895  0.5145E-01  0.1196E+01
      4.949  0.5677E-01  0.1199E+01
      5.003  0.6278E-01  0.1202E+01
      5.057  0.6920E-01  0.1206E+01
      5.111  0.7024E-01  0.1210E+01
      5.166  0.6494E-01  0.1213E+01
      5.220  0.5854E-01  0.1217E+01
      5.274  0.5042E-01  0.1219E+01
      5.328  0.3773E-01  0.1221E+01
      5.382  0.2412E-01  0.1223E+01
      5.436  0.1389E-01  0.1223E+01
      5.490  0.6834E-02  0.1224E+01
      5.544  0.2419E-02  0.1224E+01
      5.598  0.5405E-03  0.1224E+01
      5.652  0.7174E-04  0.1224E+01
      5.707  0.5515E-05  0.1224E+01
      5.761  0.2429E-06  0.1224E+01
      5.815  0.6092E-08  0.1224E+01
      5.869  0.8669E-10  0.1224E+01
      5.923  0.6980E-12  0.1224E+01
      5.977  0.3171E-14  0.1224E+01
      6.031  0.8209E-17  0.1224E+01
      6.085  0.0000E+00  0.1224E+01
      6.139  0.0000E+00  0.1224E+01
      6.193  0.0000E+00  0.1224E+01
      6.248  0.0000E+00  0.1224E+01
      6.302  0.0000E+00  0.1224E+01
      6.356  0.0000E+00  0.1224E+01
      6.410  0.0000E+00  0.1224E+01
