unknown system                          
           1
    11.002582    0.000000    0.000000
     5.501291    9.528515    0.000000
     0.000000    0.000000   24.491785
   Au   Pd
  24  24
Direct configuration=     1
   0.08333333  0.08333333  0.40830017
   0.66666667  0.66666667  0.50000000
   0.66666667  0.41666667  0.50000000
   0.83333333  0.33333333  0.40830017
   0.58333333  0.83333333  0.40830017
   0.50000000  0.50000000  0.59169983
   0.41666667  0.66666667  0.50000000
   0.58333333  0.58333333  0.40830017
   0.50000000  0.25000000  0.59169983
   0.50000000  0.00000000  0.59169983
   0.41666667  0.16666667  0.50000000
   0.58333333  0.08333333  0.40830017
   0.16666667  0.91666667  0.50000000
   0.25000000  0.50000000  0.59169983
   0.16666667  0.66666667  0.50000000
   0.33333333  0.58333333  0.40830017
   0.25000000  0.75000000  0.59169983
   0.91666667  0.91666667  0.50000000
   0.25000000  0.00000000  0.59169983
   0.16666667  0.16666667  0.50000000
   0.33333333  0.08333333  0.40830017
   0.91666667  0.16666667  0.50000000
   0.00000000  0.50000000  0.59169983
   0.08333333  0.33333333  0.40830017
   0.66666667  0.16666667  0.50000000
   0.75000000  0.00000000  0.59169983
   0.00000000  0.00000000  0.59169983
   0.25000000  0.25000000  0.59169983
   0.83333333  0.08333333  0.40830017
   0.83333333  0.58333333  0.40830017
   0.75000000  0.50000000  0.59169983
   0.83333333  0.83333333  0.40830017
   0.75000000  0.25000000  0.59169983
   0.50000000  0.75000000  0.59169983
   0.00000000  0.25000000  0.59169983
   0.91666667  0.41666667  0.50000000
   0.16666667  0.41666667  0.50000000
   0.08333333  0.58333333  0.40830017
   0.91666667  0.66666667  0.50000000
   0.41666667  0.41666667  0.50000000
   0.58333333  0.33333333  0.40830017
   0.08333333  0.83333333  0.40830017
   0.00000000  0.75000000  0.59169983
   0.66666667  0.91666667  0.50000000
   0.33333333  0.83333333  0.40830017
   0.33333333  0.33333333  0.40830017
   0.41666667  0.91666667  0.50000000
   0.75000000  0.75000000  0.59169983
Direct configuration=     2
   0.08330194  0.08188330  0.40572010
   0.66826484  0.66734972  0.50070999
   0.66718280  0.41489659  0.50041901
   0.83288032  0.33348859  0.40603324
   0.58385927  0.83316279  0.40643174
   0.50128673  0.49955285  0.59392423
   0.41677025  0.66785185  0.49996160
   0.58330937  0.58332791  0.40575915
   0.50114100  0.24941198  0.59355820
   0.50110466 -0.00132845  0.59350118
   0.41656306  0.16787306  0.49998316
   0.58453129  0.08386847  0.40648115
   0.16699808  0.91635554  0.49965572
   0.24935755  0.49955781  0.59361368
   0.16492400  0.66574976  0.49951539
   0.33279467  0.58272941  0.40617720
   0.24922800  0.75081871  0.59430401
   0.91471434  0.91665464  0.50000915
   0.24978852  0.00042467  0.59392422
   0.16631546  0.16829833  0.50077510
   0.33367762  0.08274757  0.40606898
   0.91517471  0.16719228  0.50081406
  -0.00063308  0.49998647  0.59324296
   0.08300106  0.33555509  0.40639153
   0.66687001  0.16644033  0.49998456
   0.75073487 -0.00034420  0.59259122
  -0.00088324  0.00038802  0.59309279
   0.24915095  0.25043647  0.59288401
   0.83305031  0.08289418  0.40709259
   0.83436334  0.58373487  0.40738221
   0.75027626  0.49991281  0.59283590
   0.83419899  0.83281911  0.40743178
   0.75081995  0.24953177  0.59283086
   0.50099408  0.74980766  0.59292891
  -0.00066009  0.25037655  0.59284333
   0.91687848  0.41772632  0.50039550
   0.16627279  0.41729940  0.49973212
   0.08269245  0.58333689  0.40746981
   0.91635338  0.66651952  0.49979097
   0.41693546  0.41539554  0.49951690
   0.58331558  0.33262354  0.40727461
   0.08273007  0.83342394  0.40694299
  -0.00132994  0.75083242  0.59285779
   0.66803946  0.91600536  0.50024946
   0.33297418  0.83341923  0.40697087
   0.33316393  0.33412474  0.40731304
   0.41730767  0.91592265  0.50007831
   0.75021459  0.74996396  0.59253472
Direct configuration=     3
   0.08320774  0.07753319  0.39797989
   0.67305934  0.66939890  0.50283998
   0.66873118  0.40958634  0.50167603
   0.83152128  0.33395435  0.39923246
   0.58543706  0.83265114  0.40082646
   0.50514691  0.49821141  0.60059743
   0.41708100  0.67140740  0.49984639
   0.58323747  0.58331166  0.39813608
   0.50456401  0.24764790  0.59913331
   0.50441865 -0.00531382  0.59890524
   0.41625223  0.17149222  0.49993262
   0.58812517  0.08547386  0.40102408
   0.16799233  0.91542215  0.49862287
   0.24743020  0.49823124  0.59935522
   0.15969601  0.66299906  0.49806157
   0.33117869  0.58091763  0.39980829
   0.24691199  0.75327483  0.60211657
   0.90885735  0.91661856  0.50003662
   0.24915409  0.00169868  0.60059740
   0.16526186  0.17319331  0.50310040
   0.33471049  0.08099029  0.39937542
   0.91069883  0.16876912  0.50325626
  -0.00253234  0.49994587  0.59787235
   0.08200423  0.34222037  0.40066560
   0.66748005  0.16576133  0.49993824
   0.75293947 -0.00137680  0.59526537
  -0.00353295  0.00155208  0.59727167
   0.24660379  0.25174589  0.59643654
   0.83220125  0.08157673  0.40346984
   0.83745337  0.58493947  0.40462832
   0.75110504  0.49965124  0.59624412
   0.83679598  0.83127646  0.40482661
   0.75327981  0.24812706  0.59622394
   0.50397633  0.74923062  0.59661614
  -0.00264035  0.25150621  0.59627381
   0.91751391  0.42090527  0.50158200
   0.16509116  0.41919760  0.49892849
   0.08076979  0.58334755  0.40497874
   0.91541351  0.66607807  0.49916387
   0.41774184  0.41158216  0.49806759
   0.58326233  0.33049416  0.40419794
   0.08092029  0.83369576  0.40287146
  -0.00531975  0.75332968  0.59633166
   0.67215785  0.91402145  0.50099784
   0.33189670  0.83367693  0.40298298
   0.33265574  0.33649897  0.40435166
   0.41923067  0.91369059  0.50031325
   0.75085836  0.74985584  0.59503938
Direct configuration=     4
   0.08207695  0.08002785  0.39635347
   0.67097273  0.66776440  0.50195373
   0.66575317  0.41461130  0.50115082
   0.83274622  0.33324246  0.39776986
   0.58611999  0.83251206  0.39952983
   0.50347731  0.49928049  0.60214754
   0.41839672  0.66747723  0.49989824
   0.58342732  0.58310660  0.39664701
   0.50441801  0.24735537  0.60067961
   0.50383936 -0.00397872  0.60016125
   0.41747443  0.16810524  0.49992371
   0.58707632  0.08441135  0.39961554
   0.16545346  0.91713892  0.49887149
   0.24810082  0.49925158  0.60060445
   0.16241548  0.66417304  0.49866719
   0.33129634  0.58189897  0.39823194
   0.24697871  0.75232759  0.60379074
   0.91234314  0.91653976  0.49994354
   0.24896317  0.00147423  0.60228423
   0.16520175  0.17122357  0.50225183
   0.33372429  0.08240148  0.39807234
   0.91537553  0.16632446  0.50225035
  -0.00263282  0.50064074  0.59947471
   0.08265242  0.33872386  0.39913964
   0.66567318  0.16494017  0.49993687
   0.75266973 -0.00103973  0.59656058
  -0.00264446  0.00079196  0.59827962
   0.24794342  0.25112807  0.59773861
   0.83371153  0.08158601  0.40259196
   0.83534199  0.58560611  0.40380147
   0.75099949  0.49936898  0.59742980
   0.83662173  0.83149392  0.40365391
   0.75308248  0.24808418  0.59820804
   0.50334259  0.74871104  0.59780606
  -0.00277329  0.25124835  0.59774007
   0.91724923  0.41991021  0.50111768
   0.16478429  0.41881653  0.49926614
   0.08089934  0.58476312  0.40338810
   0.91622285  0.66509598  0.49955375
   0.41705560  0.41517008  0.49867065
   0.58353590  0.33189583  0.40323094
   0.08095434  0.83284553  0.40187987
  -0.00462690  0.75285824  0.59726953
   0.66796386  0.91665176  0.50054554
   0.33250882  0.83235620  0.40180873
   0.33293866  0.33508229  0.40313230
   0.41892539  0.91693495  0.50025068
   0.75196939  0.74966638  0.59672606
Direct configuration=     5
   0.08168569  0.08089103  0.39579071
   0.67025075  0.66719885  0.50164709
   0.66472275  0.41634998  0.50096909
   0.83317006  0.33299614  0.39726379
   0.58635629  0.83246394  0.39908118
   0.50289962  0.49965040  0.60268389
   0.41885197  0.66611736  0.49991618
   0.58349301  0.58303565  0.39613178
   0.50436750  0.24725416  0.60121464
   0.50363891 -0.00351676  0.60059584
   0.41789733  0.16693332  0.49992063
   0.58671341  0.08404372  0.39912818
   0.16457499  0.91773293  0.49895751
   0.24833286  0.49960463  0.60103669
   0.16335644  0.66457924  0.49887674
   0.33133704  0.58223852  0.39768650
   0.24700180  0.75199984  0.60437002
   0.91354925  0.91651249  0.49991134
   0.24889712  0.00139656  0.60286789
   0.16518095  0.17054202  0.50195821
   0.33338306  0.08288977  0.39762146
   0.91699371  0.16547859  0.50190230
  -0.00266758  0.50088118  0.60002914
   0.08287670  0.33751404  0.39861165
   0.66504799  0.16465604  0.49993639
   0.75257640 -0.00092310  0.59700873
  -0.00233704  0.00052896  0.59862837
   0.24840694  0.25091430  0.59818914
   0.83423410  0.08158922  0.40228820
   0.83461143  0.58583678  0.40351538
   0.75096296  0.49927131  0.59784005
   0.83656143  0.83156917  0.40324815
   0.75301420  0.24806934  0.59889456
   0.50312331  0.74853126  0.59821779
  -0.00281929  0.25115913  0.59824741
   0.91715765  0.41956591  0.50095701
   0.16467811  0.41868467  0.49938297
   0.08094417  0.58525292  0.40283772
   0.91650289  0.66475616  0.49968865
   0.41681816  0.41641153  0.49887931
   0.58363056  0.33238082  0.40289635
   0.08096612  0.83255134  0.40153677
  -0.00438717  0.75269512  0.59759405
   0.66651271  0.91756187  0.50038905
   0.33272062  0.83189921  0.40140242
   0.33303655  0.33459210  0.40271039
   0.41881976  0.91805752  0.50022903
   0.75235382  0.74960082  0.59730966
Direct configuration=     6
   0.08234234  0.08125024  0.39525793
   0.66875275  0.66775762  0.50121843
   0.66650288  0.41494439  0.50077804
   0.83320274  0.33316807  0.39698963
   0.58573125  0.83269851  0.39872831
   0.50209815  0.49971980  0.60318927
   0.41698845  0.66776430  0.49995392
   0.58374028  0.58296556  0.39561514
   0.50369145  0.24786464  0.60166111
   0.50309234 -0.00307110  0.60098299
   0.41684296  0.16789020  0.49990195
   0.58626248  0.08394323  0.39866429
   0.16700878  0.91648073  0.49909498
   0.24882283  0.49981667  0.60128499
   0.16530711  0.66482006  0.49927453
   0.33154079  0.58241515  0.39721098
   0.24736517  0.75172079  0.60482796
   0.91345767  0.91625229  0.49994092
   0.24902289  0.00094752  0.60330253
   0.16590327  0.16943491  0.50147868
   0.33300773  0.08284795  0.39728501
   0.91513069  0.16775611  0.50138137
  -0.00196088  0.50051059  0.60054237
   0.08288732  0.33658690  0.39822768
   0.66516478  0.16582499  0.49999436
   0.75258598 -0.00097567  0.59729483
  -0.00164847  0.00019480  0.59887297
   0.24906908  0.25051813  0.59839261
   0.83424055  0.08197671  0.40220985
   0.83418007  0.58520461  0.40332316
   0.75068215  0.49914347  0.59811843
   0.83619367  0.83206577  0.40298880
   0.75286397  0.24835163  0.59913856
   0.50238808  0.74882391  0.59835345
  -0.00242891  0.25085923  0.59862007
   0.91710575  0.41817815  0.50066973
   0.16524479  0.41802977  0.49956531
   0.08139270  0.58479598  0.40239234
   0.91633996  0.66519726  0.50000754
   0.41604463  0.41669370  0.49935000
   0.58390678  0.33269430  0.40282169
   0.08147108  0.83256268  0.40126957
  -0.00349052  0.75228016  0.59779644
   0.66661740  0.91706728  0.50014659
   0.33274685  0.83205324  0.40145505
   0.33324497  0.33411409  0.40257675
   0.41743694  0.91802455  0.50017937
   0.75190628  0.74983613  0.59766955
Direct configuration=     7
   0.08243392  0.08130033  0.39518363
   0.66854384  0.66783554  0.50115865
   0.66675114  0.41474837  0.50075140
   0.83320730  0.33319204  0.39695140
   0.58564408  0.83273123  0.39867910
   0.50198638  0.49972947  0.60325975
   0.41672857  0.66799397  0.49995918
   0.58377477  0.58295578  0.39554309
   0.50359717  0.24794977  0.60172338
   0.50301611 -0.00300895  0.60103698
   0.41669592  0.16802365  0.49989934
   0.58619959  0.08392922  0.39859960
   0.16734819  0.91630610  0.49911415
   0.24889116  0.49984624  0.60131962
   0.16557914  0.66485364  0.49933001
   0.33156920  0.58243979  0.39714466
   0.24741585  0.75168188  0.60489182
   0.91344489  0.91621600  0.49994504
   0.24904043  0.00088490  0.60336314
   0.16600400  0.16928051  0.50141181
   0.33295539  0.08284212  0.39723809
   0.91487088  0.16807373  0.50130872
  -0.00186233  0.50045891  0.60061394
   0.08288880  0.33645761  0.39817413
   0.66518107  0.16598801  0.50000245
   0.75258732 -0.00098300  0.59733472
  -0.00155244  0.00014820  0.59890708
   0.24916143  0.25046289  0.59842099
   0.83424145  0.08203075  0.40219892
   0.83411991  0.58511645  0.40329635
   0.75064299  0.49912564  0.59815725
   0.83614238  0.83213503  0.40295263
   0.75284301  0.24839099  0.59917259
   0.50228554  0.74886473  0.59837237
  -0.00237447  0.25081741  0.59867204
   0.91709852  0.41798461  0.50062967
   0.16532381  0.41793844  0.49959074
   0.08145525  0.58473226  0.40233023
   0.91631724  0.66525877  0.50005201
   0.41593676  0.41673305  0.49941564
   0.58394530  0.33273802  0.40281128
   0.08154151  0.83256426  0.40123231
  -0.00336547  0.75222230  0.59782466
   0.66663200  0.91699830  0.50011278
   0.33275051  0.83207472  0.40146239
   0.33327404  0.33404743  0.40255811
   0.41724409  0.91801996  0.50017244
   0.75184387  0.74986894  0.59771974
Direct configuration=     8
   0.08282258  0.08091027  0.39491966
   0.66807885  0.66802625  0.50103295
   0.66638535  0.41494972  0.50075810
   0.83305498  0.33333451  0.39674777
   0.58519215  0.83285958  0.39851523
   0.50215295  0.49963848  0.60342399
   0.41706030  0.66787967  0.50001003
   0.58368601  0.58304706  0.39526785
   0.50346309  0.24806335  0.60192267
   0.50290469 -0.00299092  0.60109979
   0.41661040  0.16853149  0.49989522
   0.58611073  0.08419188  0.39845937
   0.16705317  0.91697374  0.49922421
   0.24891723  0.49972535  0.60143371
   0.16554645  0.66471161  0.49942160
   0.33182252  0.58217715  0.39695950
   0.24761393  0.75176802  0.60523508
   0.91339616  0.91641129  0.49999098
   0.24903101  0.00084483  0.60356644
   0.16594920  0.16892448  0.50126649
   0.33313140  0.08252850  0.39703959
   0.91476413  0.16786693  0.50114711
  -0.00152080  0.50005698  0.60074279
   0.08280956  0.33679281  0.39805016
   0.66504306  0.16643556  0.50006985
   0.75259398 -0.00100888  0.59732493
  -0.00139900  0.00025865  0.59876210
   0.24924399  0.25025762  0.59837600
   0.83414613  0.08217407  0.40226211
   0.83438050  0.58479265  0.40333003
   0.75039450  0.49928177  0.59810431
   0.83604935  0.83225157  0.40293745
   0.75285119  0.24844614  0.59911835
   0.50209339  0.74899298  0.59828731
  -0.00188357  0.25052208  0.59863119
   0.91733498  0.41791647  0.50055371
   0.16499888  0.41823814  0.49965011
   0.08164575  0.58418248  0.40239988
   0.91646690  0.66508827  0.50022932
   0.41609702  0.41644711  0.49966967
   0.58387428  0.33274579  0.40293872
   0.08175166  0.83281179  0.40125785
  -0.00297421  0.75203515  0.59786270
   0.66677193  0.91677699  0.50000925
   0.33275441  0.83229772  0.40156084
   0.33337983  0.33408726  0.40265321
   0.41700012  0.91785532  0.50018807
   0.75134890  0.74989028  0.59769275
Direct configuration=     9
   0.08314878  0.08058290  0.39469810
   0.66768858  0.66818632  0.50092746
   0.66607834  0.41511872  0.50076372
   0.83292714  0.33345408  0.39657687
   0.58481284  0.83296731  0.39837769
   0.50229276  0.49956211  0.60356184
   0.41733872  0.66778373  0.50005271
   0.58361152  0.58312366  0.39503685
   0.50335056  0.24815868  0.60208993
   0.50281117 -0.00297580  0.60115251
   0.41653861  0.16895772  0.49989175
   0.58603615  0.08441233  0.39834168
   0.16680556  0.91753409  0.49931659
   0.24893912  0.49962390  0.60152946
   0.16551900  0.66459241  0.49949848
   0.33203514  0.58195672  0.39680409
   0.24778018  0.75184032  0.60552318
   0.91335525  0.91657519  0.50002954
   0.24902311  0.00081119  0.60373706
   0.16590321  0.16862566  0.50114453
   0.33327912  0.08226527  0.39687298
   0.91467453  0.16769335  0.50101146
  -0.00123416  0.49971964  0.60085093
   0.08274305  0.33707415  0.39794612
   0.66492722  0.16681120  0.50012642
   0.75259957 -0.00103061  0.59731672
  -0.00127021  0.00035135  0.59864043
   0.24931328  0.25008534  0.59833825
   0.83406614  0.08229436  0.40231514
   0.83459921  0.58452088  0.40335829
   0.75018595  0.49941281  0.59805988
   0.83597128  0.83234939  0.40292472
   0.75285805  0.24849242  0.59907283
   0.50193211  0.74910062  0.59821591
  -0.00147155  0.25027422  0.59859690
   0.91753345  0.41785928  0.50048996
   0.16472616  0.41848969  0.49969994
   0.08180564  0.58372104  0.40245834
   0.91659251  0.66494517  0.50037814
   0.41623153  0.41620712  0.49988288
   0.58381467  0.33275232  0.40304568
   0.08192804  0.83301955  0.40127928
  -0.00264582  0.75187808  0.59789463
   0.66688937  0.91659124  0.49992235
   0.33275769  0.83248487  0.40164347
   0.33346862  0.33412069  0.40273303
   0.41679535  0.91771714  0.50020118
   0.75093346  0.74990820  0.59767010
Direct configuration=    10
   0.08318998  0.08054647  0.39429224
   0.66793357  0.66809286  0.50073883
   0.66589581  0.41547801  0.50077534
   0.83293529  0.33337413  0.39628880
   0.58480975  0.83290623  0.39816867
   0.50247864  0.49950133  0.60380992
   0.41707361  0.66759371  0.50007530
   0.58347079  0.58323530  0.39466944
   0.50346217  0.24798485  0.60237169
   0.50275729 -0.00289223  0.60112315
   0.41654556  0.16884289  0.49988279
   0.58600417  0.08457377  0.39822886
   0.16643724  0.91753542  0.49945966
   0.24901325  0.49954547  0.60171882
   0.16551563  0.66479440  0.49952123
   0.33213121  0.58188251  0.39666411
   0.24798946  0.75180701  0.60600890
   0.91329372  0.91653550  0.50006262
   0.24911862  0.00081920  0.60402781
   0.16590216  0.16881753  0.50094352
   0.33337843  0.08241137  0.39661125
   0.91441342  0.16787125  0.50081907
  -0.00128593  0.49951712  0.60099257
   0.08297788  0.33691961  0.39778255
   0.66477645  0.16683947  0.50025895
   0.75261112 -0.00113318  0.59723400
  -0.00121353  0.00044523  0.59844031
   0.24944281  0.24975129  0.59819865
   0.83405801  0.08240616  0.40239876
   0.83459851  0.58466497  0.40345731
   0.75023662  0.49946518  0.59786764
   0.83597973  0.83227403  0.40299958
   0.75305671  0.24846266  0.59893388
   0.50173909  0.74921912  0.59811342
  -0.00115954  0.25007072  0.59840955
   0.91748538  0.41794483  0.50046214
   0.16435453  0.41858381  0.49979451
   0.08196349  0.58362839  0.40266572
   0.91645272  0.66487787  0.50061465
   0.41616037  0.41636546  0.50022245
   0.58371648  0.33285749  0.40325196
   0.08217500  0.83290685  0.40145423
  -0.00248900  0.75176022  0.59793328
   0.66677507  0.91669426  0.49976474
   0.33278500  0.83234463  0.40179449
   0.33356251  0.33412650  0.40290880
   0.41674652  0.91803516  0.50025529
   0.75074422  0.74971516  0.59752856
Direct configuration=    11
   0.08324858  0.08049465  0.39371490
   0.66828206  0.66795991  0.50047051
   0.66563615  0.41598911  0.50079187
   0.83294689  0.33326040  0.39587902
   0.58480537  0.83281934  0.39787133
   0.50274306  0.49941486  0.60416281
   0.41669648  0.66732340  0.50010743
   0.58327059  0.58339410  0.39414679
   0.50362093  0.24773759  0.60277248
   0.50268066 -0.00277336  0.60108138
   0.41655545  0.16867954  0.49987003
   0.58595868  0.08480341  0.39806839
   0.16591331  0.91753732  0.49966318
   0.24911871  0.49943392  0.60198817
   0.16551083  0.66508174  0.49955360
   0.33226788  0.58177695  0.39646500
   0.24828715  0.75175962  0.60669983
   0.91320619  0.91647905  0.50010967
   0.24925449  0.00083060  0.60444139
   0.16590066  0.16909045  0.50065758
   0.33351969  0.08261919  0.39623892
   0.91404198  0.16812432  0.50054539
  -0.00135958  0.49922904  0.60119406
   0.08331193  0.33669978  0.39754987
   0.66456198  0.16687968  0.50044746
   0.75262754 -0.00127910  0.59711633
  -0.00113291  0.00057878  0.59815565
   0.24962706  0.24927611  0.59800008
   0.83404645  0.08256519  0.40251771
   0.83459752  0.58486993  0.40359817
   0.75030870  0.49953967  0.59759418
   0.83599175  0.83216682  0.40310607
   0.75333929  0.24842034  0.59873621
   0.50146451  0.74938768  0.59796762
  -0.00071569  0.24978125  0.59814305
   0.91741702  0.41806653  0.50042257
   0.16382589  0.41871770  0.49992905
   0.08218804  0.58349659  0.40296073
   0.91625388  0.66478213  0.50095108
   0.41605914  0.41659072  0.50070549
   0.58357679  0.33300711  0.40354540
   0.08252630  0.83274655  0.40170309
  -0.00226592  0.75159257  0.59798827
   0.66661248  0.91684081  0.49954055
   0.33282384  0.83214514  0.40200933
   0.33369608  0.33413476  0.40315883
   0.41667706  0.91848755  0.50033227
   0.75047502  0.74944056  0.59732722
Direct configuration=    12
   0.08316182  0.08061314  0.39329327
   0.66767673  0.66830179  0.50018270
   0.66574534  0.41612769  0.50070235
   0.83299096  0.33338006  0.39550327
   0.58500899  0.83293800  0.39766332
   0.50284111  0.49931619  0.60451668
   0.41628719  0.66799963  0.50015611
   0.58346931  0.58321231  0.39375537
   0.50390864  0.24754887  0.60309020
   0.50301913 -0.00297266  0.60099180
   0.41656101  0.16863985  0.49983029
   0.58621950  0.08458474  0.39802793
   0.16628683  0.91750871  0.49982226
   0.24908692  0.49939011  0.60220427
   0.16536643  0.66489689  0.49968831
   0.33218031  0.58180451  0.39644822
   0.24820460  0.75158936  0.60726506
   0.91283461  0.91624601  0.50009447
   0.24929081  0.00075407  0.60467519
   0.16570996  0.16904365  0.50035493
   0.33359753  0.08265692  0.39597923
   0.91395701  0.16873290  0.50025032
  -0.00137237  0.49934566  0.60135614
   0.08333063  0.33649087  0.39737221
   0.66431948  0.16673875  0.50059126
   0.75273600 -0.00160168  0.59701611
  -0.00097207  0.00029767  0.59804884
   0.24973506  0.24932066  0.59782606
   0.83425539  0.08235149  0.40256850
   0.83461767  0.58489693  0.40364117
   0.75052634  0.49934324  0.59737279
   0.83622292  0.83204357  0.40325334
   0.75351679  0.24836879  0.59856655
   0.50155268  0.74924408  0.59779735
  -0.00087003  0.24975699  0.59780704
   0.91719507  0.41789715  0.50031882
   0.16403291  0.41880293  0.50010063
   0.08208441  0.58386760  0.40328794
   0.91629028  0.66509386  0.50117610
   0.41557626  0.41675411  0.50108817
   0.58358767  0.33325788  0.40385666
   0.08243943  0.83255330  0.40192379
  -0.00235055  0.75150484  0.59805300
   0.66636997  0.91711779  0.49933081
   0.33275358  0.83219915  0.40223363
   0.33371927  0.33431422  0.40345687
   0.41657703  0.91836278  0.50032096
   0.75072142  0.74936459  0.59713972
Direct configuration=    13
   0.08313328  0.08065211  0.39315460
   0.66747764  0.66841423  0.50008805
   0.66578126  0.41617328  0.50067291
   0.83300546  0.33341941  0.39537968
   0.58507595  0.83297703  0.39759491
   0.50287335  0.49928374  0.60463306
   0.41615258  0.66822204  0.50017213
   0.58353467  0.58315252  0.39362663
   0.50400326  0.24748681  0.60319469
   0.50313045 -0.00303820  0.60096233
   0.41656284  0.16862680  0.49981722
   0.58630528  0.08451282  0.39801463
   0.16640968  0.91749930  0.49987458
   0.24907646  0.49937571  0.60227534
   0.16531894  0.66483610  0.49973261
   0.33215151  0.58181357  0.39644270
   0.24817745  0.75153337  0.60745096
   0.91271240  0.91616936  0.50008946
   0.24930275  0.00072890  0.60475209
   0.16564725  0.16902826  0.50025539
   0.33362313  0.08266933  0.39589382
   0.91392906  0.16893306  0.50015327
  -0.00137657  0.49938401  0.60140944
   0.08333678  0.33642216  0.39731378
   0.66423973  0.16669240  0.50063855
   0.75277168 -0.00170777  0.59698315
  -0.00091917  0.00020522  0.59801371
   0.24977058  0.24933532  0.59776883
   0.83432410  0.08228121  0.40258521
   0.83462430  0.58490581  0.40365532
   0.75059792  0.49927863  0.59729998
   0.83629895  0.83200303  0.40330178
   0.75357516  0.24835184  0.59851075
   0.50158168  0.74919685  0.59774134
  -0.00092080  0.24974901  0.59769653
   0.91712208  0.41784145  0.50028470
   0.16410100  0.41883096  0.50015706
   0.08205033  0.58398962  0.40339555
   0.91630225  0.66519638  0.50125011
   0.41541744  0.41680784  0.50121403
   0.58359125  0.33334036  0.40395904
   0.08241086  0.83248973  0.40199637
  -0.00237838  0.75147599  0.59807429
   0.66629021  0.91720889  0.49926183
   0.33273047  0.83221691  0.40230740
   0.33372690  0.33437325  0.40355489
   0.41654413  0.91832175  0.50031724
   0.75080246  0.74933960  0.59707806
Direct configuration=    14
   0.08310095  0.08053480  0.39279536
   0.66697120  0.66883434  0.49977464
   0.66515069  0.41647516  0.50054335
   0.83303224  0.33357933  0.39487612
   0.58519126  0.83306151  0.39737279
   0.50294419  0.49920295  0.60500267
   0.41597581  0.66834322  0.50025904
   0.58371438  0.58309507  0.39324961
   0.50435398  0.24734427  0.60351135
   0.50343990 -0.00336838  0.60081952
   0.41632264  0.16856258  0.49979931
   0.58659911  0.08442578  0.39802505
   0.16618850  0.91780628  0.50006356
   0.24911538  0.49935969  0.60256223
   0.16530788  0.66490118  0.50006208
   0.33212709  0.58196059  0.39659690
   0.24795353  0.75134690  0.60800364
   0.91275533  0.91651962  0.50011710
   0.24933235  0.00063095  0.60483610
   0.16569274  0.16894682  0.49993099
   0.33369906  0.08261044  0.39568377
   0.91413442  0.16856725  0.49978283
  -0.00133062  0.49943357  0.60153087
   0.08325963  0.33662923  0.39718907
   0.66414756  0.16681408  0.50076151
   0.75297407 -0.00197580  0.59693650
  -0.00079025 -0.00021162  0.59792461
   0.24979316  0.24944990  0.59757225
   0.83454696  0.08210897  0.40261091
   0.83483473  0.58473733  0.40365813
   0.75073752  0.49911255  0.59706142
   0.83657546  0.83182942  0.40338971
   0.75367321  0.24813598  0.59832030
   0.50189628  0.74881775  0.59758785
  -0.00107058  0.24975482  0.59730632
   0.91702440  0.41824139  0.50007962
   0.16421970  0.41864001  0.50033647
   0.08177110  0.58414121  0.40373738
   0.91610999  0.66510033  0.50138412
   0.41533098  0.41700504  0.50162577
   0.58372895  0.33340140  0.40431236
   0.08225081  0.83263468  0.40222541
  -0.00244132  0.75144331  0.59823152
   0.66578562  0.91731937  0.49907562
   0.33270329  0.83239621  0.40247204
   0.33369013  0.33455396  0.40390708
   0.41636086  0.91847097  0.50024399
   0.75111578  0.74927558  0.59685120
Direct configuration=    15
   0.08309153  0.08050062  0.39269068
   0.66682362  0.66895676  0.49968332
   0.66496695  0.41656313  0.50050559
   0.83304004  0.33362593  0.39472938
   0.58522486  0.83308613  0.39730807
   0.50296482  0.49917941  0.60511037
   0.41592430  0.66837853  0.50028437
   0.58376674  0.58307833  0.39313974
   0.50445618  0.24730274  0.60360362
   0.50353007 -0.00346459  0.60077790
   0.41625264  0.16854387  0.49979409
   0.58668473  0.08440042  0.39802809
   0.16612405  0.91789573  0.50011862
   0.24912672  0.49935502  0.60264582
   0.16530466  0.66492014  0.50015809
   0.33211997  0.58200343  0.39664183
   0.24788828  0.75129256  0.60816468
   0.91276784  0.91662168  0.50012516
   0.24934098  0.00060240  0.60486058
   0.16570600  0.16892308  0.49983646
   0.33372119  0.08259328  0.39562256
   0.91419426  0.16846065  0.49967489
  -0.00131723  0.49944801  0.60156625
   0.08323715  0.33668957  0.39715273
   0.66412070  0.16684954  0.50079734
   0.75303305 -0.00205390  0.59692291
  -0.00075268 -0.00033309  0.59789865
   0.24979974  0.24948329  0.59751496
   0.83461189  0.08205878  0.40261840
   0.83489604  0.58468823  0.40365895
   0.75077819  0.49906415  0.59699191
   0.83665603  0.83177883  0.40341533
   0.75370178  0.24807309  0.59826481
   0.50198795  0.74870728  0.59754312
  -0.00111423  0.24975652  0.59719261
   0.91699594  0.41835793  0.50001986
   0.16425429  0.41858437  0.50038875
   0.08168973  0.58418538  0.40383698
   0.91605396  0.66507235  0.50142317
   0.41530578  0.41706250  0.50174575
   0.58376907  0.33341919  0.40441532
   0.08220417  0.83267692  0.40229216
  -0.00245967  0.75143378  0.59827733
   0.66563858  0.91735156  0.49902136
   0.33269536  0.83244846  0.40252002
   0.33367942  0.33460663  0.40400971
   0.41630745  0.91851446  0.50022265
   0.75120707  0.74925693  0.59678509
Direct configuration=    16
   0.08318833  0.08044051  0.39253725
   0.66688573  0.66879378  0.49951860
   0.66498487  0.41655557  0.50047578
   0.83315424  0.33346162  0.39432694
   0.58525066  0.83294514  0.39712392
   0.50302420  0.49916170  0.60531943
   0.41576967  0.66815045  0.50038286
   0.58361161  0.58336177  0.39297853
   0.50448500  0.24716237  0.60375976
   0.50336763 -0.00346074  0.60068244
   0.41626024  0.16863722  0.49984447
   0.58661201  0.08470374  0.39808443
   0.16601180  0.91785829  0.50024693
   0.24931140  0.49920079  0.60293796
   0.16523319  0.66524423  0.50050176
   0.33213302  0.58218083  0.39695929
   0.24802019  0.75126094  0.60845672
   0.91278401  0.91665360  0.50020298
   0.24943906  0.00050071  0.60472902
   0.16560592  0.16909000  0.49964251
   0.33371513  0.08267911  0.39551383
   0.91386728  0.16868865  0.49943563
  -0.00123259  0.49918523  0.60157263
   0.08340992  0.33683058  0.39711964
   0.66407420  0.16698127  0.50083587
   0.75306772 -0.00201326  0.59695788
  -0.00077050 -0.00030823  0.59793853
   0.24986369  0.24922356  0.59743004
   0.83447992  0.08231327  0.40252663
   0.83490150  0.58468260  0.40353315
   0.75066939  0.49909600  0.59678728
   0.83662218  0.83173993  0.40342781
   0.75384316  0.24786757  0.59810534
   0.50203176  0.74848941  0.59750361
  -0.00094482  0.24962623  0.59686805
   0.91689689  0.41857898  0.49984981
   0.16401833  0.41855622  0.50051460
   0.08175411  0.58397601  0.40403158
   0.91585716  0.66503482  0.50140411
   0.41544585  0.41702858  0.50199564
   0.58387395  0.33329155  0.40455687
   0.08237302  0.83284337  0.40243161
  -0.00239194  0.75140605  0.59845023
   0.66569636  0.91733702  0.49894427
   0.33280134  0.83247689  0.40251690
   0.33374760  0.33461637  0.40426663
   0.41595200  0.91880128  0.50014127
   0.75124459  0.74906840  0.59662898
Direct configuration=    17
   0.08323784  0.08040977  0.39245877
   0.66691750  0.66871043  0.49943435
   0.66499404  0.41655171  0.50046054
   0.83321264  0.33337758  0.39412110