  48  48   0   0
  0.5349325E+02  0.1100258E-08  0.1100258E-08  0.2449179E-08  0.3500000E-15
  1.000000000000000E-004
  CAR 
 unknown system                          
      6.37046339     -9.73059848  301     -1.09410496      1.00000000
     -9.731  0.0000E+00  0.0000E+00
     -9.677  0.0000E+00  0.0000E+00
     -9.623  0.0000E+00  0.0000E+00
     -9.570  0.0000E+00  0.0000E+00
     -9.516  0.0000E+00  0.0000E+00
     -9.462  0.0000E+00  0.0000E+00
     -9.409  0.0000E+00  0.0000E+00
     -9.355  0.0000E+00  0.0000E+00
     -9.301  0.1103E-16  0.5921E-18
     -9.248  0.4362E-14  0.2347E-15
     -9.194  0.9430E-12  0.5084E-13
     -9.140  0.1158E-09  0.6266E-11
     -9.087  0.8092E-08  0.4406E-09
     -9.033  0.3223E-06  0.1774E-07
     -8.979  0.7336E-05  0.4114E-06
     -8.926  0.9561E-04  0.5543E-05
     -8.872  0.7153E-03  0.4393E-04
     -8.818  0.3080E-02  0.2092E-03
     -8.765  0.7651E-02  0.6199E-03
     -8.711  0.1106E-01  0.1214E-02
     -8.657  0.9889E-02  0.1744E-02
     -8.604  0.7729E-02  0.2159E-02
     -8.550  0.9222E-02  0.2654E-02
     -8.496  0.1116E-01  0.3253E-02
     -8.443  0.8705E-02  0.3720E-02
     -8.389  0.4031E-02  0.3937E-02
     -8.335  0.1434E-02  0.4014E-02
     -8.282  0.1923E-02  0.4117E-02
     -8.228  0.5069E-02  0.4389E-02
     -8.174  0.9092E-02  0.4877E-02
     -8.120  0.1052E-01  0.5442E-02
     -8.067  0.8914E-02  0.5920E-02
     -8.013  0.8316E-02  0.6366E-02
     -7.959  0.1040E-01  0.6925E-02
     -7.906  0.1267E-01  0.7605E-02
     -7.852  0.1424E-01  0.8369E-02
     -7.798  0.1587E-01  0.9220E-02
     -7.745  0.1729E-01  0.1015E-01
     -7.691  0.1786E-01  0.1111E-01
     -7.637  0.1758E-01  0.1205E-01
     -7.584  0.1863E-01  0.1305E-01
     -7.530  0.2151E-01  0.1420E-01
     -7.476  0.2215E-01  0.1539E-01
     -7.423  0.1962E-01  0.1645E-01
     -7.369  0.1719E-01  0.1737E-01
     -7.315  0.1716E-01  0.1829E-01
     -7.262  0.2088E-01  0.1941E-01
     -7.208  0.2624E-01  0.2082E-01
     -7.154  0.3013E-01  0.2244E-01
     -7.101  0.3393E-01  0.2426E-01
     -7.047  0.3986E-01  0.2640E-01
     -6.993  0.4688E-01  0.2891E-01
     -6.940  0.5380E-01  0.3180E-01
     -6.886  0.5988E-01  0.3501E-01
     -6.832  0.6330E-01  0.3841E-01
     -6.779  0.6686E-01  0.4200E-01
     -6.725  0.7652E-01  0.4611E-01
     -6.671  0.9033E-01  0.5095E-01
     -6.618  0.1016E+00  0.5641E-01
     -6.564  0.1087E+00  0.6224E-01
     -6.510  0.1111E+00  0.6820E-01
     -6.457  0.1104E+00  0.7413E-01
     -6.403  0.1119E+00  0.8013E-01
     -6.349  0.1201E+00  0.8657E-01
     -6.296  0.1332E+00  0.9372E-01
     -6.242  0.1438E+00  0.1014E+00
     -6.188  0.1496E+00  0.1095E+00
     -6.135  0.1536E+00  0.1177E+00
     -6.081  0.1555E+00  0.1261E+00
     -6.027  0.1565E+00  0.1345E+00
     -5.974  0.1595E+00  0.1430E+00
     -5.920  0.1615E+00  0.1517E+00
     -5.866  0.1583E+00  0.1602E+00
     -5.813  0.1524E+00  0.1684E+00
     -5.759  0.1482E+00  0.1763E+00
     -5.705  0.1467E+00  0.1842E+00
     -5.652  0.1469E+00  0.1921E+00
     -5.598  0.1468E+00  0.1999E+00
     -5.544  0.1442E+00  0.2077E+00
     -5.491  0.1409E+00  0.2152E+00
     -5.437  0.1397E+00  0.2227E+00
     -5.383  0.1407E+00  0.2303E+00
     -5.330  0.1453E+00  0.2381E+00
     -5.276  0.1535E+00  0.2463E+00
     -5.222  0.1606E+00  0.2550E+00
     -5.169  0.1658E+00  0.2639E+00
     -5.115  0.1716E+00  0.2731E+00
     -5.061  0.1754E+00  0.2825E+00
     -5.008  0.1737E+00  0.2918E+00
     -4.954  0.1675E+00  0.3008E+00
     -4.900  0.1609E+00  0.3094E+00
     -4.847  0.1564E+00  0.3178E+00
     -4.793  0.1557E+00  0.3262E+00
     -4.739  0.1596E+00  0.3347E+00
     -4.686  0.1675E+00  0.3437E+00
     -4.632  0.1767E+00  0.3532E+00
     -4.578  0.1798E+00  0.3629E+00
     -4.525  0.1727E+00  0.3721E+00
     -4.471  0.1643E+00  0.3809E+00
     -4.417  0.1643E+00  0.3898E+00
     -4.364  0.1699E+00  0.3989E+00
     -4.310  0.1743E+00  0.4082E+00
     -4.256  0.1776E+00  0.4178E+00
     -4.203  0.1822E+00  0.4275E+00
     -4.149  0.1871E+00  0.4376E+00
     -4.095  0.1895E+00  0.4478E+00
     -4.042  0.1885E+00  0.4579E+00
     -3.988  0.1858E+00  0.4678E+00
     -3.934  0.1847E+00  0.4778E+00
     -3.881  0.1867E+00  0.4878E+00
     -3.827  0.1908E+00  0.4980E+00
     -3.773  0.1943E+00  0.5084E+00
     -3.720  0.1980E+00  0.5191E+00
     -3.666  0.2028E+00  0.5300E+00
     -3.612  0.2046E+00  0.5409E+00
     -3.559  0.2011E+00  0.5517E+00
     -3.505  0.1961E+00  0.5623E+00
     -3.451  0.1940E+00  0.5727E+00
     -3.398  0.1964E+00  0.5832E+00
     -3.344  0.2001E+00  0.5939E+00
     -3.290  0.2005E+00  0.6047E+00
     -3.237  0.1970E+00  0.6153E+00
     -3.183  0.1923E+00  0.6256E+00
     -3.129  0.1889E+00  0.6357E+00
     -3.075  0.1880E+00  0.6458E+00
     -3.022  0.1889E+00  0.6560E+00
     -2.968  0.1910E+00  0.6662E+00
     -2.914  0.1945E+00  0.6767E+00
     -2.861  0.1971E+00  0.6872E+00
     -2.807  0.1956E+00  0.6977E+00
     -2.753  0.1917E+00  0.7080E+00
     -2.700  0.1874E+00  0.7181E+00
     -2.646  0.1828E+00  0.7279E+00
     -2.592  0.1799E+00  0.7375E+00
     -2.539  0.1784E+00  0.7471E+00
     -2.485  0.1741E+00  0.7565E+00
     -2.431  0.1687E+00  0.7655E+00
     -2.378  0.1694E+00  0.7746E+00
     -2.324  0.1740E+00  0.7839E+00
     -2.270  0.1767E+00  0.7934E+00
     -2.217  0.1801E+00  0.8031E+00
     -2.163  0.1863E+00  0.8131E+00
     -2.109  0.1914E+00  0.8234E+00
     -2.056  0.1920E+00  0.8337E+00
     -2.002  0.1893E+00  0.8438E+00
     -1.948  0.1879E+00  0.8539E+00
     -1.895  0.1912E+00  0.8642E+00
     -1.841  0.1975E+00  0.8748E+00
     -1.787  0.2004E+00  0.8855E+00
     -1.734  0.1951E+00  0.8960E+00
     -1.680  0.1841E+00  0.9059E+00
     -1.626  0.1780E+00  0.9154E+00
     -1.573  0.1830E+00  0.9253E+00
     -1.519  0.1933E+00  0.9356E+00
     -1.465  0.2010E+00  0.9464E+00
     -1.412  0.2021E+00  0.9573E+00
     -1.358  0.1967E+00  0.9678E+00
     -1.304  0.1857E+00  0.9778E+00
     -1.251  0.1704E+00  0.9869E+00
     -1.197  0.1535E+00  0.9952E+00
     -1.143  0.1349E+00  0.1002E+01
     -1.090  0.1123E+00  0.1008E+01
     -1.036  0.8721E-01  0.1013E+01
     -0.982  0.6153E-01  0.1016E+01
     -0.929  0.3811E-01  0.1018E+01
     -0.875  0.2159E-01  0.1020E+01
     -0.821  0.1483E-01  0.1020E+01
     -0.768  0.1639E-01  0.1021E+01
     -0.714  0.2077E-01  0.1022E+01
     -0.660  0.2476E-01  0.1024E+01
     -0.607  0.2976E-01  0.1025E+01
     -0.553  0.3691E-01  0.1027E+01
     -0.499  0.4363E-01  0.1030E+01
     -0.446  0.4485E-01  0.1032E+01
     -0.392  0.3806E-01  0.1034E+01
     -0.338  0.2808E-01  0.1036E+01
     -0.285  0.2601E-01  0.1037E+01
     -0.231  0.3524E-01  0.1039E+01
     -0.177  0.4323E-01  0.1041E+01
     -0.124  0.3981E-01  0.1043E+01
     -0.070  0.3126E-01  0.1045E+01
     -0.016  0.2737E-01  0.1047E+01
      0.037  0.2935E-01  0.1048E+01
      0.091  0.3402E-01  0.1050E+01
      0.145  0.3743E-01  0.1052E+01
      0.198  0.3582E-01  0.1054E+01
      0.252  0.3129E-01  0.1056E+01
      0.306  0.3011E-01  0.1057E+01
      0.359  0.3269E-01  0.1059E+01
      0.413  0.3371E-01  0.1061E+01
      0.467  0.3262E-01  0.1062E+01
      0.520  0.3364E-01  0.1064E+01
      0.574  0.3843E-01  0.1066E+01
      0.628  0.4476E-01  0.1069E+01
      0.681  0.4701E-01  0.1071E+01
      0.735  0.4345E-01  0.1074E+01
      0.789  0.3814E-01  0.1076E+01
      0.842  0.3146E-01  0.1077E+01
      0.896  0.2360E-01  0.1079E+01
      0.950  0.1834E-01  0.1080E+01
      1.003  0.1751E-01  0.1081E+01
      1.057  0.2021E-01  0.1082E+01
      1.111  0.2351E-01  0.1083E+01
      1.164  0.2479E-01  0.1084E+01
      1.218  0.2310E-01  0.1085E+01
      1.272  0.1935E-01  0.1086E+01
      1.325  0.1529E-01  0.1087E+01
      1.379  0.1314E-01  0.1088E+01
      1.433  0.1610E-01  0.1089E+01
      1.486  0.2428E-01  0.1090E+01
      1.540  0.3192E-01  0.1092E+01
      1.594  0.3271E-01  0.1094E+01
      1.647  0.2702E-01  0.1095E+01
      1.701  0.2264E-01  0.1096E+01
      1.755  0.2671E-01  0.1098E+01
      1.808  0.3530E-01  0.1100E+01
      1.862  0.3751E-01  0.1102E+01
      1.916  0.3126E-01  0.1103E+01
      1.970  0.2461E-01  0.1105E+01
      2.023  0.2244E-01  0.1106E+01
      2.077  0.2404E-01  0.1107E+01
      2.131  0.2917E-01  0.1109E+01
      2.184  0.3516E-01  0.1111E+01
      2.238  0.3805E-01  0.1113E+01
      2.292  0.3879E-01  0.1115E+01
      2.345  0.3973E-01  0.1117E+01
      2.399  0.4005E-01  0.1119E+01
      2.453  0.3862E-01  0.1121E+01
      2.506  0.3719E-01  0.1123E+01
      2.560  0.3869E-01  0.1125E+01
      2.614  0.4291E-01  0.1127E+01
      2.667  0.4752E-01  0.1130E+01
      2.721  0.5069E-01  0.1133E+01
      2.775  0.4735E-01  0.1135E+01
      2.828  0.3611E-01  0.1137E+01
      2.882  0.2426E-01  0.1138E+01
      2.936  0.1571E-01  0.1139E+01
      2.989  0.8843E-02  0.1140E+01
      3.043  0.4971E-02  0.1140E+01
      3.097  0.6775E-02  0.1140E+01
      3.150  0.1329E-01  0.1141E+01
      3.204  0.2074E-01  0.1142E+01
      3.258  0.2598E-01  0.1144E+01
      3.311  0.2687E-01  0.1145E+01
      3.365  0.2328E-01  0.1146E+01
      3.419  0.1871E-01  0.1147E+01
      3.472  0.1741E-01  0.1148E+01
      3.526  0.2115E-01  0.1149E+01
      3.580  0.2941E-01  0.1151E+01
      3.633  0.3848E-01  0.1153E+01
      3.687  0.4252E-01  0.1155E+01
      3.741  0.3990E-01  0.1157E+01
      3.794  0.3350E-01  0.1159E+01
      3.848  0.2621E-01  0.1161E+01
      3.902  0.2179E-01  0.1162E+01
      3.955  0.2311E-01  0.1163E+01
      4.009  0.2666E-01  0.1165E+01
      4.063  0.2709E-01  0.1166E+01
      4.116  0.2497E-01  0.1167E+01
      4.170  0.2329E-01  0.1169E+01
      4.224  0.2221E-01  0.1170E+01
      4.277  0.2030E-01  0.1171E+01
      4.331  0.1823E-01  0.1172E+01
      4.385  0.1987E-01  0.1173E+01
      4.438  0.2536E-01  0.1174E+01
      4.492  0.3071E-01  0.1176E+01
      4.546  0.3841E-01  0.1178E+01
      4.599  0.5005E-01  0.1181E+01
      4.653  0.5657E-01  0.1184E+01
      4.707  0.5278E-01  0.1187E+01
      4.760  0.4661E-01  0.1189E+01
      4.814  0.4645E-01  0.1192E+01
      4.868  0.5038E-01  0.1194E+01
      4.921  0.5199E-01  0.1197E+01
      4.975  0.5402E-01  0.1200E+01
      5.029  0.6409E-01  0.1203E+01
      5.082  0.7540E-01  0.1207E+01
      5.136  0.7507E-01  0.1211E+01
      5.190  0.6581E-01  0.1215E+01
      5.243  0.5676E-01  0.1218E+01
      5.297  0.4716E-01  0.1221E+01
      5.351  0.3379E-01  0.1222E+01
      5.404  0.1936E-01  0.1223E+01
      5.458  0.8294E-02  0.1224E+01
      5.512  0.2453E-02  0.1224E+01
      5.565  0.4665E-03  0.1224E+01
      5.619  0.5448E-04  0.1224E+01
      5.673  0.3801E-05  0.1224E+01
      5.726  0.1559E-06  0.1224E+01
      5.780  0.3720E-08  0.1224E+01
      5.834  0.5131E-10  0.1224E+01
      5.887  0.4068E-12  0.1224E+01
      5.941  0.1847E-14  0.1224E+01
      5.995  0.4137E-17  0.1224E+01
      6.048  0.0000E+00  0.1224E+01
      6.102  0.0000E+00  0.1224E+01
      6.156  0.0000E+00  0.1224E+01
      6.209  0.0000E+00  0.1224E+01
      6.263  0.0000E+00  0.1224E+01
      6.317  0.0000E+00  0.1224E+01
      6.370  0.0000E+00  0.1224E+01
