       N       E                     dE             d eps       ncg     rms          rms(c)
DAV:   1     0.320169373537E+04    0.32017E+04   -0.18983E+05  3672   0.112E+03
DAV:   2     0.137314339491E+02   -0.31880E+04   -0.29319E+04  4392   0.263E+02
DAV:   3    -0.200814491060E+03   -0.21455E+03   -0.19959E+03  4128   0.651E+01
DAV:   4    -0.206521361014E+03   -0.57069E+01   -0.56455E+01  4260   0.107E+01
DAV:   5    -0.206703842215E+03   -0.18248E+00   -0.18187E+00  4452   0.195E+00    0.624E+01
RMM:   6    -0.199963744141E+03    0.67401E+01   -0.94088E+01  3679   0.152E+01    0.548E+01
RMM:   7    -0.200729916215E+03   -0.76617E+00   -0.53505E+01  3681   0.120E+01    0.377E+01
RMM:   8    -0.199696092779E+03    0.10338E+01   -0.46236E+01  3681   0.115E+01    0.270E+01
RMM:   9    -0.200288529831E+03   -0.59244E+00   -0.26501E+01  3681   0.824E+00    0.256E+01
RMM:  10    -0.192566560866E+03    0.77220E+01   -0.13057E+01  3681   0.552E+00    0.147E+01
RMM:  11    -0.189445715383E+03    0.31208E+01   -0.39923E+00  3679   0.313E+00    0.803E+00
RMM:  12    -0.188788134538E+03    0.65758E+00   -0.16357E+00  3679   0.197E+00    0.557E+00
RMM:  13    -0.188715108071E+03    0.73026E-01   -0.47461E-01  3679   0.106E+00    0.552E+00
RMM:  14    -0.188630143099E+03    0.84965E-01   -0.32774E-01  3681   0.900E-01    0.422E+00
RMM:  15    -0.188623315358E+03    0.68277E-02   -0.30046E-01  3680   0.854E-01    0.336E+00
RMM:  16    -0.188532025958E+03    0.91289E-01   -0.11694E-01  3680   0.552E-01    0.165E+00
RMM:  17    -0.188512057610E+03    0.19968E-01   -0.51307E-02  3680   0.352E-01    0.116E+00
RMM:  18    -0.188501342656E+03    0.10715E-01   -0.12769E-02  3680   0.174E-01    0.641E-01
RMM:  19    -0.188498543536E+03    0.27991E-02   -0.62270E-03  3678   0.120E-01    0.425E-01
RMM:  20    -0.188497899048E+03    0.64449E-03   -0.21155E-03  3679   0.690E-02    0.336E-01
RMM:  21    -0.188497381112E+03    0.51794E-03   -0.11937E-03  3680   0.525E-02    0.233E-01
RMM:  22    -0.188497206999E+03    0.17411E-03   -0.73776E-04  3680   0.432E-02    0.119E-01
RMM:  23    -0.188497353549E+03   -0.14655E-03   -0.28360E-04  3680   0.263E-02    0.785E-02
RMM:  24    -0.188497612703E+03   -0.25915E-03   -0.10914E-04  3682   0.163E-02    0.513E-02
RMM:  25    -0.188497934755E+03   -0.32205E-03   -0.55567E-05  3673   0.110E-02    0.426E-02
RMM:  26    -0.188498433524E+03   -0.49877E-03   -0.43736E-05  3672   0.931E-03    0.288E-02
RMM:  27    -0.188499046359E+03   -0.61283E-03   -0.47184E-05  3672   0.975E-03    0.302E-02
RMM:  28    -0.188499570047E+03   -0.52369E-03   -0.29346E-05  3654   0.751E-03    0.183E-02
RMM:  29    -0.188500034204E+03   -0.46416E-03   -0.23050E-05  3526   0.660E-03    0.229E-02
RMM:  30    -0.188500467663E+03   -0.43346E-03   -0.29933E-05  3522   0.724E-03    0.963E-03
RMM:  31    -0.188500683769E+03   -0.21611E-03   -0.15334E-05  3081   0.501E-03    0.983E-03
RMM:  32    -0.188500782522E+03   -0.98753E-04   -0.54698E-06  2674   0.295E-03    0.583E-03
RMM:  33    -0.188500834498E+03   -0.51977E-04   -0.13342E-06  2233   0.158E-03    0.290E-03
RMM:  34    -0.188500881588E+03   -0.47089E-04   -0.89830E-07  2169   0.134E-03    0.234E-03
RMM:  35    -0.188500917466E+03   -0.35879E-04   -0.66091E-07  2156   0.116E-03    0.167E-03
RMM:  36    -0.188500928953E+03   -0.11486E-04   -0.24294E-07  1655   0.691E-04    0.893E-04
RMM:  37    -0.188500936579E+03   -0.76257E-05   -0.13899E-07  1679   0.592E-04    0.664E-04
RMM:  38    -0.188500940944E+03   -0.43649E-05   -0.12129E-07  1458   0.511E-04    0.449E-04
RMM:  39    -0.188500941513E+03   -0.56990E-06   -0.29985E-08   796   0.359E-04
   1 F= -.18850094E+03 E0= -.18836691E+03  d E =-.188501E+03
       N       E                     dE             d eps       ncg     rms          rms(c)
DAV:   1    -0.189605146548E+03   -0.11042E+01   -0.38033E+02  3684   0.299E+01    0.383E+00
RMM:   2    -0.189992228126E+03   -0.38708E+00   -0.39658E+00  3679   0.431E+00    0.234E+00
RMM:   3    -0.190095619645E+03   -0.10339E+00   -0.36795E-01  3705   0.106E+00    0.379E+00
RMM:   4    -0.189978480153E+03    0.11714E+00   -0.15658E-01  3687   0.668E-01    0.138E+00
RMM:   5    -0.190092249981E+03   -0.11377E+00   -0.96424E-02  3686   0.466E-01    0.346E+00
RMM:   6    -0.189971445363E+03    0.12080E+00   -0.58902E-02  3683   0.369E-01    0.887E-01
RMM:   7    -0.189965437375E+03    0.60080E-02   -0.14038E-02  3681   0.189E-01    0.551E-01
RMM:   8    -0.189962711935E+03    0.27254E-02   -0.51361E-03  3684   0.112E-01    0.286E-01
RMM:   9    -0.189962006636E+03    0.70530E-03   -0.21016E-03  3683   0.726E-02    0.157E-01
RMM:  10    -0.189961840315E+03    0.16632E-03   -0.69959E-04  3686   0.416E-02    0.116E-01
RMM:  11    -0.189961746381E+03    0.93933E-04   -0.18985E-04  3686   0.221E-02    0.602E-02
RMM:  12    -0.189961738019E+03    0.83624E-05   -0.57529E-05  3679   0.122E-02    0.456E-02
RMM:  13    -0.189961727060E+03    0.10959E-04   -0.28835E-05  3678   0.883E-03    0.263E-02
RMM:  14    -0.189961725289E+03    0.17711E-05   -0.15789E-05  3672   0.644E-03    0.169E-02
RMM:  15    -0.189961723170E+03    0.21188E-05   -0.51362E-06  2894   0.371E-03    0.534E-03
RMM:  16    -0.189961724166E+03   -0.99593E-06   -0.12018E-06  2029   0.189E-03
   2 F= -.18996172E+03 E0= -.18982762E+03  d E =-.146078E+01
       N       E                     dE             d eps       ncg     rms          rms(c)
DAV:   1    -0.188495062765E+03    0.14667E+01   -0.35730E+03  3672   0.940E+01    0.920E+00
RMM:   2    -0.191903235033E+03   -0.34082E+01   -0.35060E+01  3680   0.129E+01    0.547E+00
RMM:   3    -0.192387849932E+03   -0.48461E+00   -0.23526E+00  3709   0.266E+00    0.874E+00
RMM:   4    -0.191737610276E+03    0.65024E+00   -0.73777E-01  3686   0.146E+00    0.380E+00
RMM:   5    -0.192434398043E+03   -0.69679E+00   -0.66300E-01  3686   0.123E+00    0.824E+00
RMM:   6    -0.191795951510E+03    0.63845E+00   -0.51908E-01  3683   0.110E+00    0.369E+00
RMM:   7    -0.191677698324E+03    0.11825E+00   -0.19235E-01  3681   0.692E-01    0.185E+00
RMM:   8    -0.191647031377E+03    0.30667E-01   -0.62613E-02  3681   0.389E-01    0.112E+00
RMM:   9    -0.191632343483E+03    0.14688E-01   -0.22838E-02  3685   0.239E-01    0.374E-01
RMM:  10    -0.191632070294E+03    0.27319E-03   -0.57560E-03  3687   0.117E-01    0.326E-01
RMM:  11    -0.191631234831E+03    0.83546E-03   -0.21677E-03  3681   0.735E-02    0.185E-01
RMM:  12    -0.191631220972E+03    0.13858E-04   -0.70139E-04  3682   0.431E-02    0.153E-01
RMM:  13    -0.191631040188E+03    0.18078E-03   -0.37145E-04  3683   0.310E-02    0.799E-02
RMM:  14    -0.191631007808E+03    0.32380E-04   -0.12217E-04  3678   0.178E-02    0.406E-02
RMM:  15    -0.191631000683E+03    0.71250E-05   -0.36287E-05  3678   0.969E-03    0.185E-02
RMM:  16    -0.191631005136E+03   -0.44533E-05   -0.79507E-06  3241   0.458E-03    0.116E-02
RMM:  17    -0.191631008372E+03   -0.32357E-05   -0.27166E-06  2501   0.274E-03    0.729E-03
RMM:  18    -0.191631014486E+03   -0.61135E-05   -0.94168E-07  2096   0.172E-03    0.492E-03
RMM:  19    -0.191631017354E+03   -0.28687E-05   -0.40822E-07  2020   0.115E-03    0.187E-03
RMM:  20    -0.191631021474E+03   -0.41201E-05   -0.14832E-07  1516   0.615E-04    0.140E-03
RMM:  21    -0.191631024172E+03   -0.26980E-05   -0.71382E-08  1061   0.491E-04    0.786E-04
RMM:  22    -0.191631030081E+03   -0.59084E-05   -0.20700E-07  1985   0.592E-04    0.939E-04
RMM:  23    -0.191631033061E+03   -0.29806E-05   -0.10330E-07  1064   0.420E-04    0.759E-04
RMM:  24    -0.191631036501E+03   -0.34391E-05   -0.18967E-07  1436   0.509E-04    0.566E-04
RMM:  25    -0.191631037634E+03   -0.11338E-05   -0.56087E-08   806   0.400E-04    0.412E-04
RMM:  26    -0.191631038838E+03   -0.12037E-05   -0.12756E-07  1277   0.468E-04    0.303E-04
RMM:  27    -0.191631039170E+03   -0.33196E-06   -0.24492E-08   663   0.359E-04
   3 F= -.19163104E+03 E0= -.19149923E+03  d E =-.313010E+01
       N       E                     dE             d eps       ncg     rms          rms(c)
DAV:   1    -0.191780854976E+03   -0.14982E+00   -0.27039E+02  3684   0.254E+01    0.225E+00
RMM:   2    -0.192070463777E+03   -0.28961E+00   -0.30408E+00  3685   0.372E+00    0.145E+00
RMM:   3    -0.192125414879E+03   -0.54951E-01   -0.21611E-01  3710   0.808E-01    0.277E+00
RMM:   4    -0.192067283161E+03    0.58132E-01   -0.56438E-02  3687   0.403E-01    0.129E+00
RMM:   5    -0.192080286462E+03   -0.13003E-01   -0.28461E-02  3688   0.256E-01    0.171E+00
RMM:   6    -0.192061776587E+03    0.18510E-01   -0.39344E-02  3682   0.309E-01    0.947E-01
RMM:   7    -0.192053487285E+03    0.82893E-02   -0.15260E-02  3681   0.196E-01    0.393E-01
RMM:   8    -0.192052458846E+03    0.10284E-02   -0.40111E-03  3685   0.102E-01    0.305E-01
RMM:   9    -0.192051281545E+03    0.11773E-02   -0.16935E-03  3682   0.654E-02    0.102E-01
RMM:  10    -0.192051195945E+03    0.85599E-04   -0.36274E-04  3682   0.293E-02    0.632E-02
RMM:  11    -0.192051158336E+03    0.37609E-04   -0.11888E-04  3686   0.170E-02    0.348E-02
RMM:  12    -0.192051158171E+03    0.16566E-06   -0.46150E-05  3681   0.107E-02    0.305E-02
RMM:  13    -0.192051153185E+03    0.49862E-05   -0.18866E-05  3678   0.701E-03    0.181E-02
RMM:  14    -0.192051152113E+03    0.10719E-05   -0.48155E-06  2868   0.371E-03    0.976E-03
RMM:  15    -0.192051151803E+03    0.30938E-06   -0.15836E-06  2045   0.225E-03
   4 F= -.19205115E+03 E0= -.19192221E+03  d E =-.420113E+00
       N       E                     dE             d eps       ncg     rms          rms(c)
DAV:   1    -0.192038383039E+03    0.12769E-01   -0.55908E+01  3732   0.115E+01    0.940E-01
RMM:   2    -0.192098974898E+03   -0.60592E-01   -0.63692E-01  3685   0.170E+00    0.647E-01
RMM:   3    -0.192108227983E+03   -0.92531E-02   -0.44799E-02  3716   0.369E-01    0.117E+00
RMM:   4    -0.192097745319E+03    0.10483E-01   -0.10366E-02  3686   0.175E-01    0.541E-01
RMM:   5    -0.192100075129E+03   -0.23298E-02   -0.46946E-03  3689   0.104E-01    0.723E-01
RMM:   6    -0.192096814300E+03    0.32608E-02   -0.79945E-03  3681   0.139E-01    0.413E-01
RMM:   7    -0.192095371480E+03    0.14428E-02   -0.32779E-03  3682   0.910E-02    0.182E-01
RMM:   8    -0.192095145938E+03    0.22554E-03   -0.79347E-04  3685   0.457E-02    0.136E-01
RMM:   9    -0.192094914064E+03    0.23187E-03   -0.33915E-04  3681   0.293E-02    0.485E-02
RMM:  10    -0.192094891420E+03    0.22644E-04   -0.80947E-05  3682   0.138E-02    0.268E-02
RMM:  11    -0.192094884579E+03    0.68406E-05   -0.26509E-05  3682   0.793E-03    0.154E-02
RMM:  12    -0.192094884916E+03   -0.33676E-06   -0.10910E-05  3672   0.514E-03    0.129E-02
RMM:  13    -0.192094884683E+03    0.23319E-06   -0.37068E-06  2603   0.320E-03
   5 F= -.19209488E+03 E0= -.19196723E+03  d E =-.463846E+00
       N       E                     dE             d eps       ncg     rms          rms(c)
DAV:   1    -0.192108840086E+03   -0.13955E-01   -0.46291E+01  3696   0.105E+01    0.978E-01
RMM:   2    -0.192159367317E+03   -0.50527E-01   -0.51452E-01  3684   0.154E+00    0.720E-01
RMM:   3    -0.192169567765E+03   -0.10200E-01   -0.43808E-02  3704   0.362E-01    0.126E+00
RMM:   4    -0.192156871002E+03    0.12697E-01   -0.11990E-02  3686   0.186E-01    0.488E-01
RMM:   5    -0.192162237488E+03   -0.53665E-02   -0.60019E-03  3689   0.116E-01    0.875E-01
RMM:   6    -0.192156795928E+03    0.54416E-02   -0.69083E-03  3680   0.129E-01    0.446E-01
RMM:   7    -0.192155046301E+03    0.17496E-02   -0.29981E-03  3682   0.879E-02    0.170E-01
RMM:   8    -0.192154833177E+03    0.21312E-03   -0.70488E-04  3683   0.429E-02    0.116E-01
RMM:   9    -0.192154670243E+03    0.16293E-03   -0.29093E-04  3681   0.271E-02    0.458E-02
RMM:  10    -0.192154648883E+03    0.21360E-04   -0.85245E-05  3683   0.143E-02    0.285E-02
RMM:  11    -0.192154641269E+03    0.76140E-05   -0.21226E-05  3673   0.718E-03    0.135E-02
RMM:  12    -0.192154641535E+03   -0.26613E-06   -0.72901E-06  3565   0.429E-03
   6 F= -.19215464E+03 E0= -.19202804E+03  d E =-.597569E-01
       N       E                     dE             d eps       ncg     rms          rms(c)
DAV:   1    -0.192153175595E+03    0.14657E-02   -0.59866E+00  3744   0.377E+00    0.337E-01
RMM:   2    -0.192159744234E+03   -0.65686E-02   -0.66811E-02  3684   0.553E-01    0.263E-01
RMM:   3    -0.192160852110E+03   -0.11079E-02   -0.56164E-03  3704   0.130E-01    0.432E-01
RMM:   4    -0.192159326337E+03    0.15258E-02   -0.13976E-03  3686   0.639E-02    0.166E-01
RMM:   5    -0.192160041196E+03   -0.71486E-03   -0.72255E-04  3688   0.403E-02    0.309E-01
RMM:   6    -0.192159335280E+03    0.70592E-03   -0.87534E-04  3680   0.459E-02    0.155E-01
RMM:   7    -0.192159144498E+03    0.19078E-03   -0.38298E-04  3682   0.314E-02    0.615E-02
RMM:   8    -0.192159117014E+03    0.27484E-04   -0.85693E-05  3685   0.151E-02    0.404E-02
RMM:   9    -0.192159097982E+03    0.19032E-04   -0.35537E-05  3678   0.948E-03    0.179E-02
RMM:  10    -0.192159094201E+03    0.37803E-05   -0.12029E-05  3672   0.537E-03    0.990E-03
RMM:  11    -0.192159093281E+03    0.92071E-06   -0.26620E-06  2333   0.265E-03
   7 F= -.19215909E+03 E0= -.19203288E+03  d E =-.642086E-01
       N       E                     dE             d eps       ncg     rms          rms(c)
DAV:   1    -0.192162923063E+03   -0.38289E-02   -0.67935E+00  3696   0.400E+00    0.270E-01
RMM:   2    -0.192170009919E+03   -0.70869E-02   -0.75048E-02  3683   0.588E-01    0.211E-01
RMM:   3    -0.192170539199E+03   -0.52928E-03   -0.44472E-03  3729   0.119E-01    0.277E-01
RMM:   4    -0.192170313632E+03    0.22557E-03   -0.94674E-04  3680   0.500E-02    0.259E-01
RMM:   5    -0.192169945970E+03    0.36766E-03   -0.72352E-04  3684   0.421E-02    0.195E-01
RMM:   6    -0.192169787102E+03    0.15887E-03   -0.88584E-04  3681   0.473E-02    0.147E-01
RMM:   7    -0.192169668655E+03    0.11845E-03   -0.50551E-04  3683   0.357E-02    0.786E-02
RMM:   8    -0.192169617778E+03    0.50877E-04   -0.10273E-04  3685   0.166E-02    0.356E-02
RMM:   9    -0.192169602690E+03    0.15088E-04   -0.36620E-05  3677   0.948E-03    0.264E-02
RMM:  10    -0.192169590664E+03    0.12026E-04   -0.24321E-05  3681   0.752E-03    0.123E-02
RMM:  11    -0.192169589466E+03    0.11983E-05   -0.60586E-06  3353   0.379E-03    0.836E-03
RMM:  12    -0.192169588810E+03    0.65639E-06   -0.33845E-06  2193   0.299E-03
   8 F= -.19216959E+03 E0= -.19204327E+03  d E =-.104955E-01
       N       E                     dE             d eps       ncg     rms          rms(c)
DAV:   1    -0.192168195833E+03    0.13936E-02   -0.41847E+00  3696   0.314E+00    0.209E-01
RMM:   2    -0.192172556903E+03   -0.43611E-02   -0.46213E-02  3683   0.461E-01    0.164E-01
RMM:   3    -0.192172871677E+03   -0.31477E-03   -0.27210E-03  3732   0.935E-02    0.215E-01
RMM:   4    -0.192172734654E+03    0.13702E-03   -0.57049E-04  3680   0.388E-02    0.201E-01
RMM:   5    -0.192172511715E+03    0.22294E-03   -0.44258E-04  3685   0.329E-02    0.151E-01
RMM:   6    -0.192172415487E+03    0.96228E-04   -0.54264E-04  3681   0.370E-02    0.113E-01
RMM:   7    -0.192172345908E+03    0.69579E-04   -0.31171E-04  3682   0.280E-02    0.610E-02
RMM:   8    -0.192172315586E+03    0.30322E-04   -0.62050E-05  3686   0.129E-02    0.284E-02
RMM:   9    -0.192172306908E+03    0.86788E-05   -0.22201E-05  3672   0.739E-03    0.221E-02
RMM:  10    -0.192172298938E+03    0.79693E-05   -0.14992E-05  3673   0.592E-03    0.106E-02
RMM:  11    -0.192172297906E+03    0.10327E-05   -0.38691E-06  2651   0.313E-03    0.656E-03
RMM:  12    -0.192172297499E+03    0.40622E-06   -0.26481E-06  1995   0.276E-03
   9 F= -.19217230E+03 E0= -.19204589E+03  d E =-.132042E-01
       N       E                     dE             d eps       ncg     rms          rms(c)
DAV:   1    -0.192171631861E+03    0.66604E-03   -0.84674E+00  3672   0.445E+00    0.255E-01
RMM:   2    -0.192180589009E+03   -0.89571E-02   -0.92211E-02  3681   0.656E-01    0.262E-01
RMM:   3    -0.192180637176E+03   -0.48166E-04   -0.57038E-03  3758   0.136E-01    0.224E-01
RMM:   4    -0.192180254216E+03    0.38296E-03   -0.86568E-04  3676   0.506E-02    0.182E-01
RMM:   5    -0.192180094472E+03    0.15974E-03   -0.87915E-04  3684   0.473E-02    0.166E-01
RMM:   6    -0.192180067943E+03    0.26529E-04   -0.12213E-03  3682   0.548E-02    0.149E-01
RMM:   7    -0.192180099026E+03   -0.31083E-04   -0.40377E-04  3682   0.310E-02    0.149E-01
RMM:   8    -0.192179906293E+03    0.19273E-03   -0.12610E-04  3686   0.173E-02    0.633E-02
RMM:   9    -0.192179881249E+03    0.25044E-04   -0.42382E-05  3678   0.103E-02    0.418E-02
RMM:  10    -0.192179853852E+03    0.27396E-04   -0.49896E-05  3683   0.107E-02    0.231E-02
RMM:  11    -0.192179846643E+03    0.72097E-05   -0.19601E-05  3672   0.663E-03    0.112E-02
RMM:  12    -0.192179845388E+03    0.12546E-05   -0.14324E-05  3676   0.553E-03    0.686E-03
RMM:  13    -0.192179845140E+03    0.24799E-06   -0.19226E-06  2054   0.235E-03
  10 F= -.19217985E+03 E0= -.19205317E+03  d E =-.754764E-02
       N       E                     dE             d eps       ncg     rms          rms(c)
DAV:   1    -0.192178446890E+03    0.13985E-02   -0.27965E+00  3684   0.256E+00    0.145E-01
RMM:   2    -0.192181394624E+03   -0.29477E-02   -0.30440E-02  3681   0.377E-01    0.149E-01
RMM:   3    -0.192181402066E+03   -0.74416E-05   -0.18714E-03  3761   0.780E-02    0.127E-01
RMM:   4    -0.192181282851E+03    0.11922E-03   -0.27864E-04  3676   0.287E-02    0.105E-01
RMM:   5    -0.192181273726E+03    0.91241E-05   -0.27986E-04  3684   0.266E-02    0.114E-01
RMM:   6    -0.192181404872E+03   -0.13115E-03   -0.32720E-04  3683   0.273E-02    0.161E-01
RMM:   7    -0.192181189759E+03    0.21511E-03   -0.24023E-04  3684   0.239E-02    0.644E-02
RMM:   8    -0.192181172149E+03    0.17610E-04   -0.59635E-05  3680   0.126E-02    0.324E-02
RMM:   9    -0.192181164190E+03    0.79585E-05   -0.13412E-05  3642   0.578E-03    0.241E-02
RMM:  10    -0.192181154999E+03    0.91912E-05   -0.16173E-05  3674   0.612E-03    0.133E-02
RMM:  11    -0.192181152639E+03    0.23600E-05   -0.63814E-06  3437   0.382E-03    0.658E-03
RMM:  12    -0.192181152243E+03    0.39650E-06   -0.48452E-06  3073   0.334E-03
  11 F= -.19218115E+03 E0= -.19205432E+03  d E =-.885474E-02
       N       E                     dE             d eps       ncg     rms          rms(c)
DAV:   1    -0.192179858917E+03    0.12937E-02   -0.57780E+00  3672   0.370E+00    0.188E-01
RMM:   2    -0.192186098133E+03   -0.62392E-02   -0.63493E-02  3681   0.544E-01    0.222E-01
RMM:   3    -0.192186058879E+03    0.39253E-04   -0.40778E-03  3759   0.114E-01    0.188E-01
RMM:   4    -0.192185801647E+03    0.25723E-03   -0.43646E-04  3677   0.366E-02    0.142E-01
RMM:   5    -0.192185860704E+03   -0.59057E-04   -0.20127E-04  3688   0.221E-02    0.175E-01
RMM:   6    -0.192185645671E+03    0.21503E-03   -0.47025E-04  3681   0.333E-02    0.128E-01
RMM:   7    -0.192185567175E+03    0.78496E-04   -0.73720E-04  3683   0.421E-02    0.800E-02
RMM:   8    -0.192185551575E+03    0.15600E-04   -0.17888E-04  3682   0.212E-02    0.480E-02
RMM:   9    -0.192185535362E+03    0.16213E-04   -0.25799E-05  3682   0.823E-03    0.347E-02
RMM:  10    -0.192185519369E+03    0.15994E-04   -0.21004E-05  3679   0.707E-03    0.223E-02
RMM:  11    -0.192185512103E+03    0.72654E-05   -0.16358E-05  3673   0.611E-03    0.115E-02
RMM:  12    -0.192185510673E+03    0.14305E-05   -0.15037E-05  3677   0.571E-03    0.631E-03
RMM:  13    -0.192185510542E+03    0.13084E-06   -0.19312E-06  2037   0.232E-03
  12 F= -.19218551E+03 E0= -.19205858E+03  d E =-.435830E-02
       N       E                     dE             d eps       ncg     rms          rms(c)
DAV:   1    -0.192183564472E+03    0.19462E-02   -0.31083E+00  3672   0.271E+00    0.137E-01
RMM:   2    -0.192186914965E+03   -0.33505E-02   -0.34129E-02  3681   0.399E-01    0.163E-01
RMM:   3    -0.192186883405E+03    0.31560E-04   -0.21926E-03  3760   0.834E-02    0.137E-01
RMM:   4    -0.192186744939E+03    0.13847E-03   -0.23034E-04  3677   0.266E-02    0.103E-01
RMM:   5    -0.192186782840E+03   -0.37901E-04   -0.10803E-04  3689   0.162E-02    0.129E-01
RMM:   6    -0.192186666577E+03    0.11626E-03   -0.25370E-04  3681   0.244E-02    0.939E-02
RMM:   7    -0.192186627343E+03    0.39234E-04   -0.40276E-04  3683   0.311E-02    0.578E-02
RMM:   8    -0.192186620219E+03    0.71240E-05   -0.95099E-05  3682   0.154E-02    0.352E-02
RMM:   9    -0.192186611557E+03    0.86623E-05   -0.13645E-05  3624   0.599E-03    0.256E-02
RMM:  10    -0.192186602916E+03    0.86408E-05   -0.11390E-05  3672   0.522E-03    0.164E-02
RMM:  11    -0.192186599085E+03    0.38309E-05   -0.88371E-06  3669   0.450E-03    0.854E-03
RMM:  12    -0.192186598352E+03    0.73334E-06   -0.80792E-06  3672   0.419E-03
  13 F= -.19218660E+03 E0= -.19205959E+03  d E =-.544611E-02
       N       E                     dE             d eps       ncg     rms          rms(c)
DAV:   1    -0.192185244904E+03    0.13542E-02   -0.31340E+00  3672   0.274E+00    0.149E-01
RMM:   2    -0.192188685707E+03   -0.34408E-02   -0.35051E-02  3681   0.401E-01    0.171E-01
RMM:   3    -0.192188653868E+03    0.31839E-04   -0.22966E-03  3725   0.841E-02    0.151E-01
RMM:   4    -0.192188447552E+03    0.20632E-03   -0.24723E-04  3677   0.281E-02    0.869E-02
RMM:   5    -0.192188507258E+03   -0.59707E-04   -0.16167E-04  3683   0.202E-02    0.127E-01
RMM:   6    -0.192188528524E+03   -0.21265E-04   -0.27590E-04  3681   0.249E-02    0.140E-01
RMM:   7    -0.192188370626E+03    0.15790E-03   -0.32567E-04  3683   0.279E-02    0.508E-02
RMM:   8    -0.192188373661E+03   -0.30357E-05   -0.66760E-05  3682   0.130E-02    0.340E-02
RMM:   9    -0.192188363663E+03    0.99987E-05   -0.12469E-05  3631   0.576E-03    0.218E-02
RMM:  10    -0.192188357767E+03    0.58956E-05   -0.83943E-06  3656   0.449E-03    0.147E-02
RMM:  11    -0.192188354440E+03    0.33271E-05   -0.74421E-06  3635   0.414E-03    0.735E-03
RMM:  12    -0.192188353956E+03    0.48391E-06   -0.56420E-06  3384   0.354E-03
  14 F= -.19218835E+03 E0= -.19206120E+03  d E =-.175560E-02
       N       E                     dE             d eps       ncg     rms          rms(c)
DAV:   1    -0.192188286460E+03    0.67980E-04   -0.15538E-01  3744   0.609E-01    0.330E-02
RMM:   2    -0.192188456651E+03   -0.17019E-03   -0.17349E-03  3681   0.895E-02    0.398E-02
RMM:   3    -0.192188452386E+03    0.42649E-05   -0.11462E-04  3727   0.188E-02    0.334E-02
RMM:   4    -0.192188442927E+03    0.94590E-05   -0.11715E-05  3674   0.613E-03    0.203E-02
RMM:   5    -0.192188447942E+03   -0.50154E-05   -0.70167E-06  3215   0.420E-03    0.309E-02
RMM:   6    -0.192188445513E+03    0.24297E-05   -0.14054E-05  3672   0.572E-03    0.272E-02
RMM:   7    -0.192188440962E+03    0.45506E-05   -0.18606E-05  3673   0.670E-03    0.109E-02
RMM:   8    -0.192188441248E+03   -0.28604E-06   -0.31674E-06  2527   0.295E-03
  15 F= -.19218844E+03 E0= -.19206127E+03  d E =-.184290E-02
       N       E                     dE             d eps       ncg     rms          rms(c)
DAV:   1    -0.192187432270E+03    0.10087E-02   -0.23419E+00  3672   0.236E+00    0.122E-01
RMM:   2    -0.192190113654E+03   -0.26814E-02   -0.26496E-02  3682   0.348E-01    0.173E-01
RMM:   3    -0.192189975619E+03    0.13804E-03   -0.18196E-03  3732   0.747E-02    0.114E-01
RMM:   4    -0.192189870642E+03    0.10498E-03   -0.16450E-04  3679   0.230E-02    0.814E-02
RMM:   5    -0.192189909270E+03   -0.38628E-04   -0.81382E-05  3684   0.143E-02    0.109E-01
RMM:   6    -0.192189872987E+03    0.36283E-04   -0.16614E-04  3677   0.195E-02    0.101E-01
RMM:   7    -0.192189803890E+03    0.69097E-04   -0.34098E-04  3681   0.285E-02    0.381E-02
RMM:   8    -0.192189807903E+03   -0.40136E-05   -0.53489E-05  3676   0.115E-02    0.284E-02
RMM:   9    -0.192189802885E+03    0.50180E-05   -0.75292E-06  3232   0.449E-03    0.205E-02
RMM:  10    -0.192189798937E+03    0.39484E-05   -0.41049E-06  2740   0.332E-03    0.152E-02
RMM:  11    -0.192189795146E+03    0.37911E-05   -0.85183E-06  3667   0.450E-03    0.726E-03
RMM:  12    -0.192189794604E+03    0.54194E-06   -0.52596E-06  3115   0.346E-03
  16 F= -.19218979E+03 E0= -.19206247E+03  d E =-.135336E-02
       N       E                     dE             d eps       ncg     rms          rms(c)
DAV:   1    -0.192189041065E+03    0.75408E-03   -0.11572E+00  3672   0.166E+00    0.850E-02
RMM:   2    -0.192190359935E+03   -0.13189E-02   -0.13027E-02  3682   0.245E-01    0.123E-01
RMM:   3    -0.192190281301E+03    0.78634E-04   -0.88854E-04  3732   0.523E-02    0.795E-02
RMM:   4    -0.192190231087E+03    0.50214E-04   -0.76833E-05  3678   0.158E-02    0.571E-02
RMM:   5    -0.192190251007E+03   -0.19920E-04   -0.42525E-05  3684   0.104E-02    0.774E-02
RMM:   6    -0.192190243983E+03    0.70238E-05   -0.86696E-05  3676   0.140E-02    0.777E-02
RMM:   7    -0.192190202101E+03    0.41882E-04   -0.17841E-04  3681   0.206E-02    0.278E-02
RMM:   8    -0.192190204601E+03   -0.25005E-05   -0.27194E-05  3672   0.824E-03    0.205E-02
RMM:   9    -0.192190201996E+03    0.26053E-05   -0.36729E-06  2618   0.319E-03    0.148E-02
RMM:  10    -0.192190199896E+03    0.21000E-05   -0.21041E-06  2086   0.251E-03    0.110E-02
RMM:  11    -0.192190197902E+03    0.19940E-05   -0.46948E-06  2927   0.347E-03    0.518E-03
RMM:  12    -0.192190197643E+03    0.25866E-06   -0.27638E-06  2012   0.279E-03
  17 F= -.19219020E+03 E0= -.19206278E+03  d E =-.175640E-02
       N       E                     dE             d eps       ncg     rms          rms(c)
DAV:   1    -0.192188921146E+03    0.12768E-02   -0.25066E+00  3672   0.244E+00    0.116E-01
RMM:   2    -0.192191690894E+03   -0.27697E-02   -0.27695E-02  3681   0.359E-01    0.158E-01
RMM:   3    -0.192191585051E+03    0.10584E-03   -0.17967E-03  3740   0.750E-02    0.107E-01
RMM:   4    -0.192191491075E+03    0.93976E-04   -0.15410E-04  3676   0.223E-02    0.833E-02
RMM:   5    -0.192191524744E+03   -0.33668E-04   -0.80403E-05  3690   0.143E-02    0.111E-01
RMM:   6    -0.192191499108E+03    0.25635E-04   -0.19306E-04  3681   0.210E-02    0.110E-01
RMM:   7    -0.192191404314E+03    0.94794E-04   -0.36365E-04  3681   0.293E-02    0.346E-02
RMM:   8    -0.192191415420E+03   -0.11105E-04   -0.53135E-05  3675   0.115E-02    0.298E-02
RMM:   9    -0.192191409810E+03    0.56096E-05   -0.73319E-06  3197   0.445E-03    0.219E-02
RMM:  10    -0.192191405583E+03    0.42274E-05   -0.45139E-06  2851   0.347E-03    0.172E-02
RMM:  11    -0.192191400410E+03    0.51727E-05   -0.14757E-05  3672   0.584E-03    0.672E-03
RMM:  12    -0.192191400151E+03    0.25888E-06   -0.44753E-06  2861   0.325E-03
  18 F= -.19219140E+03 E0= -.19206392E+03  d E =-.120251E-02
       N       E                     dE             d eps       ncg     rms          rms(c)
DAV:   1    -0.192191110225E+03    0.29019E-03   -0.49068E-01  3672   0.108E+00    0.508E-02
RMM:   2    -0.192191649294E+03   -0.53907E-03   -0.54050E-03  3681   0.159E-01    0.706E-02
RMM:   3    -0.192191624588E+03    0.24706E-04   -0.34948E-04  3740   0.331E-02    0.477E-02
RMM:   4    -0.192191607954E+03    0.16634E-04   -0.29620E-05  3676   0.977E-03    0.385E-02
RMM:   5    -0.192191613708E+03   -0.57538E-05   -0.13454E-05  3677   0.583E-03    0.482E-02
RMM:   6    -0.192191607742E+03    0.59667E-05   -0.38840E-05  3681   0.950E-03    0.454E-02
RMM:   7    -0.192191594686E+03    0.13055E-04   -0.77737E-05  3677   0.136E-02    0.154E-02
RMM:   8    -0.192191597094E+03   -0.24072E-05   -0.10885E-05  3642   0.520E-03    0.134E-02
RMM:   9    -0.192191595957E+03    0.11368E-05   -0.13727E-06  2049   0.201E-03    0.995E-03
RMM:  10    -0.192191595053E+03    0.90413E-06   -0.92988E-07  1944   0.171E-03
  19 F= -.19219160E+03 E0= -.19206409E+03  d E =-.139741E-02
       N       E                     dE             d eps       ncg     rms          rms(c)
DAV:   1    -0.192190221309E+03    0.13746E-02   -0.22986E+00  3672   0.234E+00    0.105E-01
RMM:   2    -0.192192711632E+03   -0.24903E-02   -0.25075E-02  3680   0.343E-01    0.136E-01
RMM:   3    -0.192192642134E+03    0.69498E-04   -0.15892E-03  3749   0.710E-02    0.997E-02
RMM:   4    -0.192192561672E+03    0.80462E-04   -0.13188E-04  3673   0.207E-02    0.779E-02
RMM:   5    -0.192192577178E+03   -0.15506E-04   -0.51490E-05  3694   0.115E-02    0.954E-02
RMM:   6    -0.192192541755E+03    0.35423E-04   -0.15343E-04  3681   0.190E-02    0.905E-02
RMM:   7    -0.192192479451E+03    0.62303E-04   -0.32365E-04  3685   0.276E-02    0.324E-02
RMM:   8    -0.192192492495E+03   -0.13043E-04   -0.55993E-05  3683   0.117E-02    0.291E-02
RMM:   9    -0.192192487459E+03    0.50357E-05   -0.67736E-06  3141   0.436E-03    0.207E-02
RMM:  10    -0.192192484336E+03    0.31229E-05   -0.33556E-06  2517   0.305E-03    0.167E-02
RMM:  11    -0.192192479879E+03    0.44576E-05   -0.15296E-05  3672   0.599E-03    0.653E-03
RMM:  12    -0.192192479600E+03    0.27900E-06   -0.32105E-06  2280   0.287E-03
  20 F= -.19219248E+03 E0= -.19206493E+03  d E =-.884547E-03
