 vasp.5.4.1 24Jun15 (build Mar 14 2019 10:18:33) complex                        
  
 executed on INTEL-19.0.2+OPENMPI date 2022.06.20  18:30:37
 running on   36 total cores
 distrk:  each k-point on   36 cores,    1 groups
 distr:  one band on NCORES_PER_BAND=   6 cores,    6 groups


--------------------------------------------------------------------------------------------------------


 INCAR:
 POTCAR:    PAW_PBE Au 04Oct2007                  
 POTCAR:    PAW_PBE Pd 04Jan2005                  
 POTCAR:    PAW_PBE Au 04Oct2007                  
  local pseudopotential read in
  partial core-charges read in
  partial kinetic energy density read in
  atomic valenz-charges read in
  non local Contribution for L=           2  read in
    real space projection operators read in
  non local Contribution for L=           2  read in
    real space projection operators read in
  non local Contribution for L=           0  read in
    real space projection operators read in
  non local Contribution for L=           0  read in
    real space projection operators read in
  non local Contribution for L=           1  read in
    real space projection operators read in
  non local Contribution for L=           1  read in
    real space projection operators read in
    PAW grid and wavefunctions read in
 
   number of l-projection  operators is LMAX  =           6
   number of lm-projection operators is LMMAX =          18
 
 POTCAR:    PAW_PBE Pd 04Jan2005                  
  local pseudopotential read in
  partial core-charges read in
  partial kinetic energy density read in
  atomic valenz-charges read in
  non local Contribution for L=           2  read in
    real space projection operators read in
  non local Contribution for L=           2  read in
    real space projection operators read in
  non local Contribution for L=           0  read in
    real space projection operators read in
  non local Contribution for L=           0  read in
    real space projection operators read in
  non local Contribution for L=           1  read in
    real space projection operators read in
  non local Contribution for L=           1  read in
    real space projection operators read in
    PAW grid and wavefunctions read in
 
   number of l-projection  operators is LMAX  =           6
   number of lm-projection operators is LMMAX =          18
 
 Optimization of the real space projectors (new method)

 maximal supplied QI-value         = 15.12
 optimisation between [QCUT,QGAM] = [ 10.13, 20.41] = [ 28.73,116.64] Ry 
 Optimized for a Real-space Cutoff    1.51 Angstroem

   l    n(q)    QCUT    max X(q) W(low)/X(q) W(high)/X(q)  e(spline) 
   2      8    10.129    60.898    0.46E-03    0.46E-03    0.14E-06
   2      8    10.129    58.894    0.47E-03    0.47E-03    0.14E-06
   0      9    10.129   109.617    0.16E-03    0.11E-03    0.54E-07
   0      9    10.129    75.026    0.15E-03    0.11E-03    0.52E-07
   1      9    10.129    16.344    0.96E-04    0.15E-03    0.14E-06
   1      9    10.129    10.160    0.81E-04    0.12E-03    0.11E-06
 Optimization of the real space projectors (new method)

 maximal supplied QI-value         = 14.36
 optimisation between [QCUT,QGAM] = [ 10.20, 20.39] = [ 29.12,116.47] Ry 
 Optimized for a Real-space Cutoff    1.51 Angstroem

   l    n(q)    QCUT    max X(q) W(low)/X(q) W(high)/X(q)  e(spline) 
   2      8    10.197    59.108    0.26E-03    0.14E-03    0.96E-07
   2      8    10.197    58.101    0.27E-03    0.14E-03    0.98E-07
   0      9    10.197   102.235    0.54E-04    0.60E-05    0.72E-07
   0      9    10.197    58.388    0.52E-04    0.60E-05    0.68E-07
   1      9    10.197    22.191    0.18E-03    0.25E-03    0.79E-07
   1      9    10.197    15.590    0.15E-03    0.21E-03    0.69E-07
  PAW_PBE Au 04Oct2007                  :
 energy of atom  1       EATOM= -926.0867
 kinetic energy error for atom=    0.0062 (will be added to EATOM!!)
  PAW_PBE Pd 04Jan2005                  :
 energy of atom  2       EATOM= -809.7530
 kinetic energy error for atom=    0.0091 (will be added to EATOM!!)
 
 
 POSCAR: Au Pd                                   
  positions in cartesian coordinates
  No initial velocities read in
 exchange correlation table for  LEXCH =        8
   RHO(1)=    0.500       N(1)  =     2000
   RHO(2)=  100.500       N(2)  =     4000

 VTST: version 3.2, (02/03/18)

 CHAIN: initializing optimizer
 
 OPT: Using VASP Conjugate-Gradient optimizer
 CHAIN: Read ICHAIN            0
 
 POSCAR: Au Pd                                   
  positions in cartesian coordinates
  No initial velocities read in
 


--------------------------------------------------------------------------------------------------------


 ion  position               nearest neighbor table
   1  0.083  0.083  0.408-  23 2.75  20 2.75  21 2.75  11 2.75  27 2.75  30 2.75  44 2.75  10 2.75
                            29 2.75
   2  0.750  0.500  0.592-   3 2.75  18 2.75  16 2.75  24 2.75  25 2.75  31 2.75  19 2.75   6 2.75
                             4 2.75
   3  0.667  0.667  0.500-   7 2.75   2 2.75  31 2.75  18 2.75  26 2.75   4 2.75  41 2.75  38 2.75
                            48 2.75  47 2.75  16 2.75  33 2.75
   4  0.667  0.417  0.500-   8 2.75  25 2.75   6 2.75   5 2.75   3 2.75  29 2.75  48 2.75  37 2.75
                            18 2.75   7 2.75  27 2.75   2 2.75
   5  0.667  0.167  0.500-  40 2.75  28 2.75  36 2.75  37 2.75   4 2.75  41 2.75  42 2.75  29 2.75
                             9 2.75   8 2.75  30 2.75  25 2.75
   6  0.500  0.500  0.592-  48 2.75   4 2.75  25 2.75  31 2.75  36 2.75  15 2.75  12 2.75   2 2.75
                            37 2.75
   7  0.583  0.583  0.408-   3 2.75   8 2.75  11 2.75  27 2.75  47 2.75  33 2.75  14 2.75   4 2.75
                            48 2.75
   8  0.583  0.333  0.408-   4 2.75   7 2.75  14 2.75  30 2.75  40 2.75  34 2.75  27 2.75   5 2.75
                            37 2.75
   9  0.417  0.167  0.500-  44 2.75  39 2.75  45 2.75  41 2.75  37 2.75  26 2.75  46 2.75  23 2.75
                             5 2.75  34 2.75  36 2.75  40 2.75
  10  0.167  0.917  0.500-  20 2.75  15 2.75  22 2.75  13 2.75  23 2.75  29 2.75  48 2.75  42 2.75
                            26 2.75   1 2.75  11 2.75  35 2.75
  11  0.333  0.833  0.408-  26 2.75   7 2.75  14 2.75   1 2.75  44 2.75  20 2.75  47 2.75  48 2.75
                            10 2.75
  12  0.250  0.500  0.592-  13 2.75  37 2.75  36 2.75  15 2.75  43 2.75  45 2.75   6 2.75  19 2.75
                            46 2.75
  13  0.167  0.667  0.500-  17 2.75  12 2.75  43 2.75  37 2.75  42 2.75  10 2.75  46 2.75  38 2.75
                            48 2.75  20 2.75  14 2.75  15 2.75
  14  0.333  0.583  0.408-  48 2.75  11 2.75  20 2.75  34 2.75   8 2.75  17 2.75   7 2.75  37 2.75
                            13 2.75
  15  0.250  0.750  0.592-  10 2.75  48 2.75  12 2.75  22 2.75  35 2.75   6 2.75  43 2.75  31 2.75
                            13 2.75
  16  0.750  0.750  0.592-  41 2.75  38 2.75  28 2.75   2 2.75  39 2.75  19 2.75  31 2.75  43 2.75
                             3 2.75
  17  0.083  0.583  0.408-  13 2.75  20 2.75  21 2.75  32 2.75  34 2.75  33 2.75  14 2.75  46 2.75
                            38 2.75
  18  0.917  0.417  0.500-  27 2.75  24 2.75   2 2.75   3 2.75  23 2.75  29 2.75  38 2.75   4 2.75
                            46 2.75  33 2.75  21 2.75  19 2.75
  19  0.000  0.500  0.592-  38 2.75  46 2.75  16 2.75  43 2.75  45 2.75  24 2.75   2 2.75  12 2.75
                            18 2.75
  20  0.083  0.833  0.408-  10 2.75   1 2.75  14 2.75  17 2.75  30 2.75  11 2.75  32 2.75  13 2.75
                            42 2.75
  21  0.083  0.333  0.408-  46 2.75  17 2.75  33 2.75  44 2.75   1 2.75  27 2.75  34 2.75  23 2.75
                            18 2.75
  22  0.000  0.000  0.592-  29 2.75  10 2.75  24 2.75  25 2.75  15 2.75  43 2.75  35 2.75  28 2.75
                            42 2.75
  23  0.167  0.167  0.500-   1 2.75  35 2.75  24 2.75  10 2.75  26 2.75  18 2.75  46 2.75   9 2.75
                            29 2.75  21 2.75  45 2.75  44 2.75
  24  0.000  0.250  0.592-  18 2.75  23 2.75  19 2.75  22 2.75   2 2.75  35 2.75  25 2.75  45 2.75
                            29 2.75
  25  0.750  0.250  0.592-   4 2.75  29 2.75   6 2.75  22 2.75  28 2.75   2 2.75  24 2.75  36 2.75
                             5 2.75
  26  0.417  0.917  0.500-  11 2.75  31 2.75  35 2.75  23 2.75   9 2.75   3 2.75  48 2.75  41 2.75
                            10 2.75  44 2.75  47 2.75  39 2.75
  27  0.833  0.333  0.408-  18 2.75   7 2.75   1 2.75  30 2.75  33 2.75   8 2.75  21 2.75  29 2.75
                             4 2.75
  28  0.750  0.000  0.592-   5 2.75  42 2.75  25 2.75  36 2.75  16 2.75  43 2.75  22 2.75  39 2.75
                            41 2.75
  29  0.917  0.167  0.500-  30 2.75  22 2.75  25 2.75   4 2.75  10 2.75  18 2.75  42 2.75  23 2.75
                             5 2.75  27 2.75   1 2.75  24 2.75
  30  0.833  0.083  0.408-  29 2.75  20 2.75  27 2.75   8 2.75  32 2.75   1 2.75  40 2.75  42 2.75
                             5 2.75
  31  0.500  0.750  0.592-  26 2.75   3 2.75   6 2.75   2 2.75  35 2.75  39 2.75  16 2.75  15 2.75
                            48 2.75
  32  0.833  0.833  0.408-  42 2.75  30 2.75  33 2.75  40 2.75  17 2.75  20 2.75  47 2.75  38 2.75
                            41 2.75
  33  0.833  0.583  0.408-  38 2.75  27 2.75  32 2.75  21 2.75  47 2.75  17 2.75   7 2.75  18 2.75
                             3 2.75
  34  0.333  0.333  0.408-  37 2.75  17 2.75  14 2.75  40 2.75  44 2.75  21 2.75   8 2.75   9 2.75
                            46 2.75
  35  0.250  0.000  0.592-  23 2.75  26 2.75  24 2.75  15 2.75  31 2.75  45 2.75  39 2.75  22 2.75
                            10 2.75
  36  0.500  0.250  0.592-  37 2.75   5 2.75  12 2.75  28 2.75   6 2.75  39 2.75  25 2.75  45 2.75
                             9 2.75
  37  0.417  0.417  0.500-  34 2.75  36 2.75  12 2.75  13 2.75   9 2.75   5 2.75  48 2.75  46 2.75
                             4 2.75  14 2.75   6 2.75   8 2.75
  38  0.917  0.667  0.500-  33 2.75  19 2.75  16 2.75  18 2.75  41 2.75  42 2.75  46 2.75  13 2.75
                             3 2.75  32 2.75  43 2.75  17 2.75
  39  0.500  0.000  0.592-   9 2.75  41 2.75  31 2.75  36 2.75  16 2.75  45 2.75  35 2.75  28 2.75
                            26 2.75
  40  0.583  0.083  0.408-   5 2.75   8 2.75  32 2.75  34 2.75  47 2.75  44 2.75  30 2.75  41 2.75
                             9 2.75
  41  0.667  0.917  0.500-  47 2.75  16 2.75  39 2.75   3 2.75  38 2.75   5 2.75   9 2.75  42 2.75
                            26 2.75  40 2.75  32 2.75  28 2.75
  42  0.917  0.917  0.500-  32 2.75  43 2.75  28 2.75  29 2.75  13 2.75  38 2.75   5 2.75  41 2.75
                            10 2.75  30 2.75  22 2.75  20 2.75
  43  0.000  0.750  0.592-  42 2.75  13 2.75  19 2.75  22 2.75  28 2.75  12 2.75  15 2.75  16 2.75
                            38 2.75
  44  0.333  0.083  0.408-   9 2.75  11 2.75  21 2.75  34 2.75  47 2.75  40 2.75   1 2.75  26 2.75
                            23 2.75
  45  0.250  0.250  0.592-  46 2.75   9 2.75  19 2.75  35 2.75  39 2.75  12 2.75  24 2.75  36 2.75
                            23 2.75
  46  0.167  0.417  0.500-  21 2.75  45 2.75  19 2.75  13 2.75  23 2.75  38 2.75   9 2.75  18 2.75
                            37 2.75  17 2.75  34 2.75  12 2.75
  47  0.583  0.833  0.408-  41 2.75  33 2.75  40 2.75   7 2.75  44 2.75  11 2.75  32 2.75   3 2.75
                            26 2.75
  48  0.417  0.667  0.500-  14 2.75   6 2.75  15 2.75   4 2.75  10 2.75  26 2.75  37 2.75   3 2.75
                            13 2.75  11 2.75  31 2.75   7 2.75
 
  LATTYP: Found a hexagonal cell.
 ALAT       =    11.0025815153
 C/A-ratio  =     2.2260035120
  
  Lattice vectors:
  
 A1 = (   5.5012907576,  -9.5285150994,   0.0000000000)
 A2 = ( -11.0025815153,   0.0000000000,   0.0000000000)
 A3 = (   0.0000000000,   0.0000000000, -24.4917850943)


Analysis of symmetry for initial positions (statically):
=====================================================================
 Subroutine PRICEL returns:
 Original cell was already a primitive cell.
 

 Routine SETGRP: Setting up the symmetry group for a 
 hexagonal supercell.


 Subroutine GETGRP returns: Found  1 space group operations
 (whereof  1 operations were pure point group operations)
 out of a pool of 24 trial point group operations.


The static configuration has the point symmetry C_1 .


Analysis of symmetry for dynamics (positions and initial velocities):
=====================================================================
 Subroutine PRICEL returns:
 Original cell was already a primitive cell.
 

 Routine SETGRP: Setting up the symmetry group for a 
 hexagonal supercell.


 Subroutine GETGRP returns: Found  1 space group operations
 (whereof  1 operations were pure point group operations)
 out of a pool of 24 trial point group operations.


The dynamic configuration has the point symmetry C_1 .
 
 
 KPOINTS: Automatic mesh                          

Automatic generation of k-mesh.
Space group operators:
 irot       det(A)        alpha          n_x          n_y          n_z        tau_x        tau_y        tau_z
    1     1.000000     0.000000     1.000000     0.000000     0.000000     0.000000     0.000000     0.000000
 
 Subroutine IBZKPT returns following result:
 ===========================================
 
 Found      6 irreducible k-points:
 
 Following reciprocal coordinates:
            Coordinates               Weight
  0.250000  0.250000  0.000000     16.000000
  0.000000  0.250000  0.000000     16.000000
 -0.250000  0.000000  0.000000     16.000000
 -0.250000  0.250000  0.000000     16.000000
  0.500000 -0.250000  0.000000     16.000000
 -0.250000  0.500000  0.000000     16.000000
 
 Following cartesian coordinates:
            Coordinates               Weight
  0.022722  0.013119  0.000000     16.000000
  0.000000  0.026237  0.000000     16.000000
 -0.022722  0.013119  0.000000     16.000000
 -0.022722  0.039356  0.000000     16.000000
  0.045444 -0.052474  0.000000     16.000000
 -0.022722  0.065593  0.000000     16.000000
 


--------------------------------------------------------------------------------------------------------




 Dimension of arrays:
   k-points           NKPTS =      6   k-points in BZ     NKDIM =      6   number of bands    NBANDS=    306
   number of dos      NEDOS =    301   number of ions     NIONS =     48
   non local maximal  LDIM  =      6   non local SUM 2l+1 LMDIM =     18
   total plane-waves  NPLWV = 349920
   max r-space proj   IRMAX =   2009   max aug-charges    IRDMAX=   8532
   dimension x,y,z NGX =    54 NGY =   54 NGZ =  120
   dimension x,y,z NGXF=   108 NGYF=  108 NGZF=  240
   support grid    NGXF=   108 NGYF=  108 NGZF=  240
   ions per type =              24  24
 NGX,Y,Z   is equivalent  to a cutoff of   8.16,  8.16,  8.15 a.u.
 NGXF,Y,Z  is equivalent  to a cutoff of  16.32, 16.32, 16.29 a.u.


 I would recommend the setting:
   dimension x,y,z NGX =    54 NGY =   54 NGZ =  120
 SYSTEM =  unknown system                          
 POSCAR =  Au Pd                                   

 Startparameter for this run:
   NWRITE =      1    write-flag & timer
   PREC   = normal    normal or accurate (medium, high low for compatibility)
   ISTART =      0    job   : 0-new  1-cont  2-samecut
   ICHARG =      2    charge: 1-file 2-atom 10-const
   ISPIN  =      1    spin polarized calculation?
   LNONCOLLINEAR =      F non collinear calculations
   LSORBIT =      F    spin-orbit coupling
   INIWAV =      1    electr: 0-lowe 1-rand  2-diag
   LASPH  =      F    aspherical Exc in radial PAW
   METAGGA=      F    non-selfconsistent MetaGGA calc.

 Electronic Relaxation 1
   ENCUT  =  400.0 eV  29.40 Ry    5.42 a.u.  17.94 17.94 39.94*2*pi/ulx,y,z
   ENINI  =  400.0     initial cutoff
   ENAUG  =  416.2 eV  augmentation charge cutoff
   NELM   =    500;   NELMIN=  2; NELMDL= -5     # of ELM steps 
   EDIFF  = 0.1E-05   stopping-criterion for ELM
   LREAL  =      T    real-space projection
   NLSPLINE    = F    spline interpolate recip. space projectors
   LCOMPAT=      F    compatible to vasp.4.4
   GGA_COMPAT  = T    GGA compatible to vasp.4.4-vasp.4.6
   LMAXPAW     = -100 max onsite density
   LMAXMIX     =    2 max onsite mixed and CHGCAR
   VOSKOWN=      1    Vosko Wilk Nusair interpolation
   ROPT   =   -0.00050  -0.00050
 Ionic relaxation
   EDIFFG = -.2E-01   stopping-criterion for IOM
   NSW    =    500    number of steps for IOM
   NBLOCK =      1;   KBLOCK =    500    inner block; outer block 
   IBRION =      2    ionic relax: 0-MD 1-quasi-New 2-CG
   NFREE  =      2    steps in history (QN), initial steepest desc. (CG)
   ISIF   =      0    stress and relaxation
   IWAVPR =     11    prediction:  0-non 1-charg 2-wave 3-comb
   ISYM   =      2    0-nonsym 1-usesym 2-fastsym
   LCORR  =      T    Harris-Foulkes like correction to forces

   POTIM  = 0.3500    time-step for ionic-motion
   TEIN   =    0.0    initial temperature
   TEBEG  =    0.0;   TEEND  =   0.0 temperature during run
   SMASS  =  -3.00    Nose mass-parameter (am)
   estimated Nose-frequenzy (Omega)   =  0.10E-29 period in steps =****** mass=  -0.277E-26a.u.
   SCALEE = 1.0000    scale energy and forces
   NPACO  =    256;   APACO  = 16.0  distance and # of slots for P.C.
   PSTRESS=    0.0 pullay stress

  Mass of Ions in am
   POMASS = 196.97106.42
  Ionic Valenz
   ZVAL   =  11.00 10.00
  Atomic Wigner-Seitz radii
   RWIGS  =  -1.00 -1.00
  virtual crystal weights 
   VCA    =   1.00  1.00
   NELECT =     504.0000    total number of electrons
   NUPDOWN=      -1.0000    fix difference up-down

 DOS related values:
   EMIN   =  10.00;   EMAX   =-10.00  energy-range for DOS
   EFERMI =   0.00
   ISMEAR =     0;   SIGMA  =   0.10  broadening in eV -4-tet -1-fermi 0-gaus

 Electronic relaxation 2 (details)
   IALGO  =     68    algorithm
   LDIAG  =      T    sub-space diagonalisation (order eigenvalues)
   LSUBROT=      F    optimize rotation matrix (better conditioning)
   TURBO    =      0    0=normal 1=particle mesh
   IRESTART =      0    0=no restart 2=restart with 2 vectors
   NREBOOT  =      0    no. of reboots
   NMIN     =      0    reboot dimension
   EREF     =   0.00    reference energy to select bands
   IMIX   =      4    mixing-type and parameters
     AMIX     =   0.40;   BMIX     =  1.00
     AMIX_MAG =   1.60;   BMIX_MAG =  1.00
     AMIN     =   0.10
     WC   =   100.;   INIMIX=   1;  MIXPRE=   1;  MAXMIX= -45

 Intra band minimization:
   WEIMIN = 0.0010     energy-eigenvalue tresh-hold
   EBREAK =  0.82E-09  absolut break condition
   DEPER  =   0.30     relativ break condition  

   TIME   =   0.40     timestep for ELM

  volume/ion in A,a.u.               =      53.49       360.99
  Fermi-wavevector in a.u.,A,eV,Ry     =   0.951418  1.797920 12.315955  0.905197
  Thomas-Fermi vector in A             =   2.079887
 
 Write flags
   LWAVE  =      F    write WAVECAR
   LCHARG =      F    write CHGCAR
   LVTOT  =      F    write LOCPOT, total local potential
   LVHAR  =      F    write LOCPOT, Hartree potential only
   LELF   =      F    write electronic localiz. function (ELF)
   LORBIT =      0    0 simple, 1 ext, 2 COOP (PROOUT)


 Dipole corrections
   LMONO  =      F    monopole corrections only (constant potential shift)
   LDIPOL =      T    correct potential (dipole corrections)
   IDIPOL =      3    1-x, 2-y, 3-z, 4-all directions 
   EPSILON=  1.0000000 bulk dielectric constant

 Exchange correlation treatment:
   GGA     =    PE    GGA type
   LEXCH   =     8    internal setting for exchange type
   VOSKOWN=      1    Vosko Wilk Nusair interpolation
   LHFCALC =     F    Hartree Fock is set to
   LHFONE  =     F    Hartree Fock one center treatment
   AEXX    =    0.0000 exact exchange contribution

 Linear response parameters
   LEPSILON=     F    determine dielectric tensor
   LRPA    =     F    only Hartree local field effects (RPA)
   LNABLA  =     F    use nabla operator in PAW spheres
   LVEL    =     F    velocity operator in full k-point grid
   LINTERFAST=   F  fast interpolation
   KINTER  =     0    interpolate to denser k-point grid
   CSHIFT  =0.1000    complex shift for real part using Kramers Kronig
   OMEGAMAX=  -1.0    maximum frequency
   DEG_THRESHOLD= 0.2000000E-02 threshold for treating states as degnerate
   RTIME   =    0.100 relaxation time in fs

 Orbital magnetization related:
   ORBITALMAG=     F  switch on orbital magnetization
   LCHIMAG   =     F  perturbation theory with respect to B field
   DQ        =  0.001000  dq finite difference perturbation B field



--------------------------------------------------------------------------------------------------------


 conjugate gradient relaxation of ions
 charge density and potential will be updated during run
 non-spin polarized calculation
 RMM-DIIS sequential band-by-band and
  variant of blocked Davidson during initial phase
 perform sub-space diagonalisation
    before iterative eigenvector-optimisation
 modified Broyden-mixing scheme, WC =      100.0
 initial mixing is a Kerker type mixing with AMIX =  0.4000 and BMIX =      1.0000
 Hartree-type preconditioning will be used
 using additional bands           54
 real space projection scheme for non local part
 use partial core corrections
 calculate Harris-corrections to forces 
   (improved forces if not selfconsistent)
 use gradient corrections 
 use of overlap-Matrix (Vanderbilt PP)
 Gauss-broadening in eV      SIGMA  =   0.10


--------------------------------------------------------------------------------------------------------


  energy-cutoff  :      400.00
  volume of cell :     2567.68
      direct lattice vectors                 reciprocal lattice vectors
    11.002581515  0.000000000  0.000000000     0.090887761 -0.052474073  0.000000000
     5.501290758  9.528515099  0.000000000     0.000000000  0.104948147  0.000000000
     0.000000000  0.000000000 24.491785094     0.000000000  0.000000000  0.040830017

  length of vectors
    11.002581515 11.002581515 24.491785094     0.104948147  0.104948147  0.040830017


 
 k-points in units of 2pi/SCALE and weight: Automatic mesh                          
   0.02272194  0.01311852  0.00000000       0.167
   0.00000000  0.02623704  0.00000000       0.167
  -0.02272194  0.01311852  0.00000000       0.167
  -0.02272194  0.03935555  0.00000000       0.167
   0.04544388 -0.05247407  0.00000000       0.167
  -0.02272194  0.06559259  0.00000000       0.167
 
 k-points in reciprocal lattice and weights: Automatic mesh                          
   0.25000000  0.25000000  0.00000000       0.167
   0.00000000  0.25000000  0.00000000       0.167
  -0.25000000  0.00000000  0.00000000       0.167
  -0.25000000  0.25000000  0.00000000       0.167
   0.50000000 -0.25000000  0.00000000       0.167
  -0.25000000  0.50000000  0.00000000       0.167
 
 position of ions in fractional coordinates (direct lattice) 
   0.08333333  0.08333333  0.40830017
   0.75000000  0.50000000  0.59169983
   0.66666667  0.66666667  0.50000000
   0.66666667  0.41666667  0.50000000
   0.66666667  0.16666667  0.50000000
   0.50000000  0.50000000  0.59169983
   0.58333333  0.58333333  0.40830017
   0.58333333  0.33333333  0.40830017
   0.41666667  0.16666667  0.50000000
   0.16666667  0.91666667  0.50000000
   0.33333333  0.83333333  0.40830017
   0.25000000  0.50000000  0.59169983
   0.16666667  0.66666667  0.50000000
   0.33333333  0.58333333  0.40830017
   0.25000000  0.75000000  0.59169983
   0.75000000  0.75000000  0.59169983
   0.08333333  0.58333333  0.40830017
   0.91666667  0.41666667  0.50000000
   0.00000000  0.50000000  0.59169983
   0.08333333  0.83333333  0.40830017
   0.08333333  0.33333333  0.40830017
   0.00000000  0.00000000  0.59169983
   0.16666667  0.16666667  0.50000000
   0.00000000  0.25000000  0.59169983
   0.75000000  0.25000000  0.59169983
   0.41666667  0.91666667  0.50000000
   0.83333333  0.33333333  0.40830017
   0.75000000  0.00000000  0.59169983
   0.91666667  0.16666667  0.50000000
   0.83333333  0.08333333  0.40830017
   0.50000000  0.75000000  0.59169983
   0.83333333  0.83333333  0.40830017
   0.83333333  0.58333333  0.40830017
   0.33333333  0.33333333  0.40830017
   0.25000000  0.00000000  0.59169983
   0.50000000  0.25000000  0.59169983
   0.41666667  0.41666667  0.50000000
   0.91666667  0.66666667  0.50000000
   0.50000000  0.00000000  0.59169983
   0.58333333  0.08333333  0.40830017
   0.66666667  0.91666667  0.50000000
   0.91666667  0.91666667  0.50000000
   0.00000000  0.75000000  0.59169983
   0.33333333  0.08333333  0.40830017
   0.25000000  0.25000000  0.59169983
   0.16666667  0.41666667  0.50000000
   0.58333333  0.83333333  0.40830017
   0.41666667  0.66666667  0.50000000
 
 position of ions in cartesian coordinates  (Angst):
   1.37532269  0.79404292 10.00000000
  11.00258152  4.76425755 14.49178509
  11.00258152  6.35234340 12.24589255
   9.62725883  3.97021462 12.24589255
   8.25193614  1.58808585 12.24589255
   8.25193614  4.76425755 14.49178509
   9.62725883  5.55830047 10.00000000
   8.25193614  3.17617170 10.00000000
   5.50129076  1.58808585 12.24589255
   6.87661345  8.73447217 12.24589255
   8.25193614  7.94042925 10.00000000
   5.50129076  4.76425755 14.49178509
   5.50129076  6.35234340 12.24589255
   6.87661345  5.55830047 10.00000000
   6.87661345  7.14638632 14.49178509
  12.37790420  7.14638632 14.49178509
   4.12596807  5.55830047 10.00000000
  12.37790420  3.97021462 12.24589255
   2.75064538  4.76425755 14.49178509
   5.50129076  7.94042925 10.00000000
   2.75064538  3.17617170 10.00000000
   0.00000000  0.00000000 14.49178509
   2.75064538  1.58808585 12.24589255
   1.37532269  2.38212877 14.49178509
   9.62725883  2.38212877 14.49178509
   9.62725883  8.73447217 12.24589255
  11.00258152  3.17617170 10.00000000
   8.25193614  0.00000000 14.49178509
  11.00258152  1.58808585 12.24589255
   9.62725883  0.79404292 10.00000000
   9.62725883  7.14638632 14.49178509
  13.75322689  7.94042925 10.00000000
  12.37790420  5.55830047 10.00000000
   5.50129076  3.17617170 10.00000000
   2.75064538  0.00000000 14.49178509
   6.87661345  2.38212877 14.49178509
   6.87661345  3.97021462 12.24589255
  13.75322689  6.35234340 12.24589255
   5.50129076  0.00000000 14.49178509
   6.87661345  0.79404292 10.00000000
  12.37790420  8.73447217 12.24589255
  15.12854958  8.73447217 12.24589255
   4.12596807  7.14638632 14.49178509
   4.12596807  0.79404292 10.00000000
   4.12596807  2.38212877 14.49178509
   4.12596807  3.97021462 12.24589255
  11.00258152  7.94042925 10.00000000
   8.25193614  6.35234340 12.24589255
 


--------------------------------------------------------------------------------------------------------


 k-point  1 :   0.2500 0.2500 0.0000  plane waves:   46635
 k-point  2 :   0.0000 0.2500 0.0000  plane waves:   46635
 k-point  3 :  -0.2500 0.0000 0.0000  plane waves:   46635
 k-point  4 :  -0.2500 0.2500 0.0000  plane waves:   46644
 k-point  5 :   0.5000-0.2500 0.0000  plane waves:   46644
 k-point  6 :  -0.2500 0.5000 0.0000  plane waves:   46644

 maximum and minimum number of plane-waves per node :      7818     7732

 maximum number of plane-waves:     46644
 maximum index in each direction: 
   IXMAX=   18   IYMAX=   18   IZMAX=   39
   IXMIN=  -18   IYMIN=  -18   IZMIN=  -39

 WARNING: aliasing errors must be expected set NGX to  74 to avoid them
 WARNING: aliasing errors must be expected set NGY to  74 to avoid them
 WARNING: aliasing errors must be expected set NGZ to 158 to avoid them
 aliasing errors are usually negligible using standard VASP settings
 and one can safely disregard these warnings

 real space projection operators:
  total allocation   :      12803.06 KBytes
  max/ min on nodes  :       2145.66       2127.94


 parallel 3D FFT for wavefunctions:
    minimum data exchange during FFTs selected (reduces bandwidth)
 parallel 3D FFT for charge:
    minimum data exchange during FFTs selected (reduces bandwidth)


 total amount of memory used by VASP on root node    84353. kBytes
========================================================================

   base      :      30000. kBytes
   nonlr-proj:       4285. kBytes
   fftplans  :       4447. kBytes
   grid      :       6721. kBytes
   one-center:        124. kBytes
   wavefun   :      38776. kBytes
 
     INWAV:  cpu time    0.0000: real time    0.0000
 Broyden mixing: mesh for mixing (old mesh)
   NGX = 35   NGY = 35   NGZ = 79
  (NGX  =108   NGY  =108   NGZ  =240)
  gives a total of  96775 points

 initial charge density was supplied:
 charge density of overlapping atoms calculated
 number of electron     504.0000000 magnetization 
 keeping initial charge density in first step


--------------------------------------------------------------------------------------------------------


 Maximum index for non-local projection operator          355
 Maximum index for augmentation-charges          437 (set IRDMAX)


--------------------------------------------------------------------------------------------------------


 First call to EWALD:  gamma=   0.129
 Maximum number of real-space cells 4x 4x 2
 Maximum number of reciprocal cells 2x 2x 5

 FEWALD executed in parallel
    FEWALD:  cpu time    0.0022: real time    0.0022


----------------------------------------- Iteration    1(   1)  ---------------------------------------


    POTLOK:  cpu time    0.0547: real time    0.0550
    SETDIJ:  cpu time    0.0065: real time    0.0066
     EDDAV:  cpu time    9.3597: real time    9.3656
       DOS:  cpu time    0.0015: real time    0.0015
    --------------------------------------------
      LOOP:  cpu time    9.4263: real time    9.4348

 eigenvalue-minimisations  :  3672
 total energy-change (2. order) : 0.3201694E+04  (-0.1898269E+05)
 number of electron     504.0000000 magnetization 
 augmentation part      504.0000000 magnetization 

 DIPCOR: dipole corrections for dipol
 direction  3 min pos     1,
 dipolmoment           0.000000      0.000000      0.000000 electrons x Angstroem
 Tr[quadrupol]    -10306.745645

 energy correction for charged system         0.000000 eV
 dipol+quadrupol energy correction           -0.000000 eV
 added-field ion interaction          0.000000 eV  (added to PSCEN)


 Free energy of the ion-electron system (eV)
  ---------------------------------------------------
  alpha Z        PSCENC =       805.86936429
  Ewald energy   TEWEN  =    200167.87194424
  -Hartree energ DENC   =   -242582.30341117
  -exchange      EXHF   =         0.00000000
  -V(xc)+E(xc)   XCENC  =      -327.62647067
  PAW double counting   =     40340.05962942   -38292.62782345
  entropy T*S    EENTRO =        -0.13134922
  eigenvalues    EBANDS =      1430.79597960
  atomic energy  EATOM  =     41659.78587232
  Solvation  Ediel_sol  =         0.00000000
  ---------------------------------------------------
  free energy    TOTEN  =      3201.69373537 eV

  energy without entropy =     3201.82508459  energy(sigma->0) =     3201.75940998


--------------------------------------------------------------------------------------------------------




----------------------------------------- Iteration    1(   2)  ---------------------------------------


     EDDAV:  cpu time   11.7621: real time   11.8514
       DOS:  cpu time    0.0016: real time    0.0016
    --------------------------------------------
      LOOP:  cpu time   11.7645: real time   11.8554

 eigenvalue-minimisations  :  4392
 total energy-change (2. order) :-0.3187962E+04  (-0.2931939E+04)
 number of electron     504.0000000 magnetization 
 augmentation part      504.0000000 magnetization 

 DIPCOR: dipole corrections for dipol
 direction  3 min pos     1,
 dipolmoment           0.000000      0.000000      0.000000 electrons x Angstroem
 Tr[quadrupol]    -10306.745645

 energy correction for charged system         0.000000 eV
 dipol+quadrupol energy correction           -0.000000 eV
 added-field ion interaction          0.000000 eV  (added to PSCEN)


 Free energy of the ion-electron system (eV)
  ---------------------------------------------------
  alpha Z        PSCENC =       805.86936429
  Ewald energy   TEWEN  =    200167.87194424
  -Hartree energ DENC   =   -242582.30341117
  -exchange      EXHF   =         0.00000000
  -V(xc)+E(xc)   XCENC  =      -327.62647067
  PAW double counting   =     40340.05962942   -38292.62782345
  entropy T*S    EENTRO =        -0.12279177
  eigenvalues    EBANDS =     -1757.17487927
  atomic energy  EATOM  =     41659.78587232
  Solvation  Ediel_sol  =         0.00000000
  ---------------------------------------------------
  free energy    TOTEN  =        13.73143395 eV

  energy without entropy =       13.85422572  energy(sigma->0) =       13.79282983


--------------------------------------------------------------------------------------------------------




----------------------------------------- Iteration    1(   3)  ---------------------------------------


     EDDAV:  cpu time   10.8380: real time   10.8940
       DOS:  cpu time    0.0017: real time    0.0017
    --------------------------------------------
      LOOP:  cpu time   10.8410: real time   10.9030

 eigenvalue-minimisations  :  4128
 total energy-change (2. order) :-0.2145459E+03  (-0.1995909E+03)
 number of electron     504.0000000 magnetization 
 augmentation part      504.0000000 magnetization 

 DIPCOR: dipole corrections for dipol
 direction  3 min pos     1,
 dipolmoment           0.000000      0.000000      0.000000 electrons x Angstroem
 Tr[quadrupol]    -10306.745645

 energy correction for charged system         0.000000 eV
 dipol+quadrupol energy correction           -0.000000 eV
 added-field ion interaction          0.000000 eV  (added to PSCEN)


 Free energy of the ion-electron system (eV)
  ---------------------------------------------------
  alpha Z        PSCENC =       805.86936429
  Ewald energy   TEWEN  =    200167.87194424
  -Hartree energ DENC   =   -242582.30341117
  -exchange      EXHF   =         0.00000000
  -V(xc)+E(xc)   XCENC  =      -327.62647067
  PAW double counting   =     40340.05962942   -38292.62782345
  entropy T*S    EENTRO =        -0.19978047
  eigenvalues    EBANDS =     -1971.64381558
  atomic energy  EATOM  =     41659.78587232
  Solvation  Ediel_sol  =         0.00000000
  ---------------------------------------------------
  free energy    TOTEN  =      -200.81449106 eV

  energy without entropy =     -200.61471059  energy(sigma->0) =     -200.71460082


--------------------------------------------------------------------------------------------------------




----------------------------------------- Iteration    1(   4)  ---------------------------------------


     EDDAV:  cpu time   11.0844: real time   11.1018
       DOS:  cpu time    0.0016: real time    0.0016
    --------------------------------------------
      LOOP:  cpu time   11.0870: real time   11.1089

 eigenvalue-minimisations  :  4260
 total energy-change (2. order) :-0.5706870E+01  (-0.5645520E+01)
 number of electron     504.0000000 magnetization 
 augmentation part      504.0000000 magnetization 

 DIPCOR: dipole corrections for dipol
 direction  3 min pos     1,
 dipolmoment           0.000000      0.000000      0.000000 electrons x Angstroem
 Tr[quadrupol]    -10306.745645

 energy correction for charged system         0.000000 eV
 dipol+quadrupol energy correction           -0.000000 eV
 added-field ion interaction          0.000000 eV  (added to PSCEN)


 Free energy of the ion-electron system (eV)
  ---------------------------------------------------
  alpha Z        PSCENC =       805.86936429
  Ewald energy   TEWEN  =    200167.87194424
  -Hartree energ DENC   =   -242582.30341117
  -exchange      EXHF   =         0.00000000
  -V(xc)+E(xc)   XCENC  =      -327.62647067
  PAW double counting   =     40340.05962942   -38292.62782345
  entropy T*S    EENTRO =        -0.20717147
  eigenvalues    EBANDS =     -1977.34329454
  atomic energy  EATOM  =     41659.78587232
  Solvation  Ediel_sol  =         0.00000000
  ---------------------------------------------------
  free energy    TOTEN  =      -206.52136101 eV

  energy without entropy =     -206.31418954  energy(sigma->0) =     -206.41777528


--------------------------------------------------------------------------------------------------------




----------------------------------------- Iteration    1(   5)  ---------------------------------------


     EDDAV:  cpu time   11.4357: real time   11.4457
       DOS:  cpu time    0.0017: real time    0.0017
    CHARGE:  cpu time    0.3057: real time    0.3059
    MIXING:  cpu time    0.0021: real time    0.0022
    --------------------------------------------
      LOOP:  cpu time   11.7471: real time   11.7593

 eigenvalue-minimisations  :  4452
 total energy-change (2. order) :-0.1824812E+00  (-0.1818658E+00)
 number of electron     503.9998404 magnetization 
 augmentation part      191.2995432 magnetization 

 DIPCOR: dipole corrections for dipol
 direction  3 min pos     1,
 dipolmoment           0.000000      0.000000      0.000000 electrons x Angstroem
 Tr[quadrupol]    -10306.745645

 energy correction for charged system         0.000000 eV
 dipol+quadrupol energy correction           -0.000000 eV
 added-field ion interaction          0.000000 eV  (added to PSCEN)


 Broyden mixing:
  rms(total) = 0.62404E+01    rms(broyden)= 0.62403E+01
  rms(prec ) = 0.63692E+01
  weight for this iteration     100.00

 Free energy of the ion-electron system (eV)
  ---------------------------------------------------
  alpha Z        PSCENC =       805.86936429
  Ewald energy   TEWEN  =    200167.87194424
  -Hartree energ DENC   =   -242582.30341117
  -exchange      EXHF   =         0.00000000
  -V(xc)+E(xc)   XCENC  =      -327.62647067
  PAW double counting   =     40340.05962942   -38292.62782345
  entropy T*S    EENTRO =        -0.20708420
  eigenvalues    EBANDS =     -1977.52586301
  atomic energy  EATOM  =     41659.78587232
  Solvation  Ediel_sol  =         0.00000000
  ---------------------------------------------------
  free energy    TOTEN  =      -206.70384222 eV

  energy without entropy =     -206.49675802  energy(sigma->0) =     -206.60030012


--------------------------------------------------------------------------------------------------------




----------------------------------------- Iteration    1(   6)  ---------------------------------------


    POTLOK:  cpu time    0.0508: real time    0.0511
    SETDIJ:  cpu time    0.0054: real time    0.0061
    EDDIAG:  cpu time    1.6770: real time    1.6774
  RMM-DIIS:  cpu time    4.5075: real time    4.5095
    ORTHCH:  cpu time    0.4117: real time    0.4121
       DOS:  cpu time    0.0016: real time    0.0017
    CHARGE:  cpu time    0.3063: real time    0.3064
    MIXING:  cpu time    0.0021: real time    0.0022
    --------------------------------------------
      LOOP:  cpu time    6.9638: real time    6.9708

 eigenvalue-minimisations  :  3679
 total energy-change (2. order) : 0.6740098E+01  (-0.9408757E+01)
 number of electron     503.9998420 magnetization 
 augmentation part      191.7614209 magnetization 

 DIPCOR: dipole corrections for dipol
 direction  3 min pos     1,
 dipolmoment           0.000000      0.000000      0.001782 electrons x Angstroem
 Tr[quadrupol]    -10308.134208

 energy correction for charged system         0.000000 eV
 dipol+quadrupol energy correction           -0.000000 eV
 added-field ion interaction          0.000000 eV  (added to PSCEN)


 Broyden mixing:
  rms(total) = 0.54850E+01    rms(broyden)= 0.54849E+01
  rms(prec ) = 0.56930E+01
  weight for this iteration     100.00

 eigenvalues of (default mixing * dielectric matrix)
  average eigenvalue GAMMA=   0.7406
  0.7406

 Free energy of the ion-electron system (eV)
  ---------------------------------------------------
  alpha Z        PSCENC =       805.86936417
  Ewald energy   TEWEN  =    200167.87194424
  -Hartree energ DENC   =   -242331.41416766
  -exchange      EXHF   =         0.00000000
  -V(xc)+E(xc)   XCENC  =      -340.20024647
  PAW double counting   =     43918.74660754   -41930.63046341
  entropy T*S    EENTRO =        -0.22781186
  eigenvalues    EBANDS =     -2149.76484302
  atomic energy  EATOM  =     41659.78587232
  Solvation  Ediel_sol  =         0.00000000
  ---------------------------------------------------
  free energy    TOTEN  =      -199.96374414 eV

  energy without entropy =     -199.73593229  energy(sigma->0) =     -199.84983821


--------------------------------------------------------------------------------------------------------




----------------------------------------- Iteration    1(   7)  ---------------------------------------


    POTLOK:  cpu time    0.0504: real time    0.0505
    SETDIJ:  cpu time    0.0061: real time    0.0061
    EDDIAG:  cpu time    1.6608: real time    1.6631
  RMM-DIIS:  cpu time    4.5181: real time    4.5260
    ORTHCH:  cpu time    0.4126: real time    0.4129
       DOS:  cpu time    0.0017: real time    0.0017
    CHARGE:  cpu time    0.3011: real time    0.3012
    MIXING:  cpu time    0.0021: real time    0.0021
    --------------------------------------------
      LOOP:  cpu time    6.9537: real time    6.9678

 eigenvalue-minimisations  :  3681
 total energy-change (2. order) :-0.7661721E+00  (-0.5350457E+01)
 number of electron     503.9998360 magnetization 
 augmentation part      196.9448580 magnetization 

 DIPCOR: dipole corrections for dipol
 direction  3 min pos     1,
 dipolmoment           0.000000      0.000000      0.148274 electrons x Angstroem
 Tr[quadrupol]    -10306.949920

 energy correction for charged system         0.000000 eV
 dipol+quadrupol energy correction           -0.000775 eV
 added-field ion interaction          0.000000 eV  (added to PSCEN)


 Broyden mixing:
  rms(total) = 0.37685E+01    rms(broyden)= 0.37683E+01
  rms(prec ) = 0.39756E+01
  weight for this iteration     100.00

 eigenvalues of (default mixing * dielectric matrix)
  average eigenvalue GAMMA=   1.0353
  1.6599  0.4107

 Free energy of the ion-electron system (eV)
  ---------------------------------------------------
  alpha Z        PSCENC =       805.86858959
  Ewald energy   TEWEN  =    200167.87194424
  -Hartree energ DENC   =   -242188.25831582
  -exchange      EXHF   =         0.00000000
  -V(xc)+E(xc)   XCENC  =      -342.52214527
  PAW double counting   =     45373.76507351   -43411.47107059
  entropy T*S    EENTRO =        -0.22773206
  eigenvalues    EBANDS =     -2265.54213213
  atomic energy  EATOM  =     41659.78587232
  Solvation  Ediel_sol  =         0.00000000
  ---------------------------------------------------
  free energy    TOTEN  =      -200.72991621 eV

  energy without entropy =     -200.50218415  energy(sigma->0) =     -200.61605018


--------------------------------------------------------------------------------------------------------




----------------------------------------- Iteration    1(   8)  ---------------------------------------


    POTLOK:  cpu time    0.0499: real time    0.0500
    SETDIJ:  cpu time    0.0060: real time    0.0060
    EDDIAG:  cpu time    1.6780: real time    1.6798
  RMM-DIIS:  cpu time    4.3580: real time    4.4339
    ORTHCH:  cpu time    0.4122: real time    0.4123
       DOS:  cpu time    0.0017: real time    0.0017
    CHARGE:  cpu time    0.3003: real time    0.3005
    MIXING:  cpu time    0.0022: real time    0.0022
    --------------------------------------------
      LOOP:  cpu time    6.8092: real time    6.8894

 eigenvalue-minimisations  :  3681
 total energy-change (2. order) : 0.1033823E+01  (-0.4623580E+01)
 number of electron     503.9998344 magnetization 
 augmentation part      198.4744368 magnetization 

 DIPCOR: dipole corrections for dipol
 direction  3 min pos     1,
 dipolmoment           0.000000      0.000000     -0.478086 electrons x Angstroem
 Tr[quadrupol]    -10308.096789

 energy correction for charged system         0.000000 eV
 dipol+quadrupol energy correction           -0.008054 eV
 added-field ion interaction          0.000000 eV  (added to PSCEN)


 Broyden mixing:
  rms(total) = 0.26968E+01    rms(broyden)= 0.26965E+01
  rms(prec ) = 0.30242E+01
  weight for this iteration     100.00

 eigenvalues of (default mixing * dielectric matrix)
  average eigenvalue GAMMA=   1.0306
  2.2137  0.4391  0.4391

 Free energy of the ion-electron system (eV)
  ---------------------------------------------------
  alpha Z        PSCENC =       805.86131022
  Ewald energy   TEWEN  =    200167.87194424
  -Hartree energ DENC   =   -242164.85832469
  -exchange      EXHF   =         0.00000000
  -V(xc)+E(xc)   XCENC  =      -344.37707487
  PAW double counting   =     47722.21503446   -45790.66150230
  entropy T*S    EENTRO =        -0.19095299
  eigenvalues    EBANDS =     -2255.34239917
  atomic energy  EATOM  =     41659.78587232
  Solvation  Ediel_sol  =         0.00000000
  ---------------------------------------------------
  free energy    TOTEN  =      -199.69609278 eV

  energy without entropy =     -199.50513979  energy(sigma->0) =     -199.60061628


--------------------------------------------------------------------------------------------------------




----------------------------------------- Iteration    1(   9)  ---------------------------------------


    POTLOK:  cpu time    0.0496: real time    0.0496
    SETDIJ:  cpu time    0.0060: real time    0.0060
    EDDIAG:  cpu time    1.7844: real time    1.7954
  RMM-DIIS:  cpu time    4.7650: real time    4.7882
    ORTHCH:  cpu time    0.4149: real time    0.4150
       DOS:  cpu time    0.0016: real time    0.0016
    CHARGE:  cpu time    0.3082: real time    0.3084
    MIXING:  cpu time    0.0023: real time    0.0023
    --------------------------------------------
      LOOP:  cpu time    7.3328: real time    7.3691

 eigenvalue-minimisations  :  3681
 total energy-change (2. order) :-0.5924371E+00  (-0.2650145E+01)
 number of electron     503.9998360 magnetization 
 augmentation part      197.0271042 magnetization 

 DIPCOR: dipole corrections for dipol
 direction  3 min pos     1,
 dipolmoment           0.000000      0.000000      0.985220 electrons x Angstroem
 Tr[quadrupol]    -10309.651455

 energy correction for charged system         0.000000 eV
 dipol+quadrupol energy correction           -0.034203 eV
 added-field ion interaction          0.000000 eV  (added to PSCEN)


 Broyden mixing:
  rms(total) = 0.25616E+01    rms(broyden)= 0.25613E+01
  rms(prec ) = 0.32172E+01
  weight for this iteration     100.00

 eigenvalues of (default mixing * dielectric matrix)
  average eigenvalue GAMMA=   0.8782
  2.3045  0.4420  0.4420  0.3242

 Free energy of the ion-electron system (eV)
  ---------------------------------------------------
  alpha Z        PSCENC =       805.83516087
  Ewald energy   TEWEN  =    200167.87194424
  -Hartree energ DENC   =   -242220.66259809
  -exchange      EXHF   =         0.00000000
  -V(xc)+E(xc)   XCENC  =      -344.92903193
  PAW double counting   =     49003.27909448   -47085.23428088
  entropy T*S    EENTRO =        -0.20700879
  eigenvalues    EBANDS =     -2186.02768206
  atomic energy  EATOM  =     41659.78587232
  Solvation  Ediel_sol  =         0.00000000
  ---------------------------------------------------
  free energy    TOTEN  =      -200.28852983 eV

  energy without entropy =     -200.08152104  energy(sigma->0) =     -200.18502544


--------------------------------------------------------------------------------------------------------




----------------------------------------- Iteration    1(  10)  ---------------------------------------


    POTLOK:  cpu time    0.0508: real time    0.0516
    SETDIJ:  cpu time    0.0065: real time    0.0074
    EDDIAG:  cpu time    1.6716: real time    1.6723
  RMM-DIIS:  cpu time    4.5414: real time    4.5437
    ORTHCH:  cpu time    0.4074: real time    0.4075
       DOS:  cpu time    0.0017: real time    0.0017
    CHARGE:  cpu time    0.3028: real time    0.3028
    MIXING:  cpu time    0.0026: real time    0.0026
    --------------------------------------------
      LOOP:  cpu time    6.9855: real time    6.9947

 eigenvalue-minimisations  :  3681
 total energy-change (2. order) : 0.7721969E+01  (-0.1305679E+01)
 number of electron     503.9998350 magnetization 
 augmentation part      198.0606680 magnetization 

 DIPCOR: dipole corrections for dipol
 direction  3 min pos     1,
 dipolmoment           0.000000      0.000000     -0.405821 electrons x Angstroem
 Tr[quadrupol]    -10309.940779

 energy correction for charged system         0.000000 eV
 dipol+quadrupol energy correction           -0.005803 eV
 added-field ion interaction          0.000000 eV  (added to PSCEN)


 Broyden mixing:
  rms(total) = 0.14651E+01    rms(broyden)= 0.14647E+01
  rms(prec ) = 0.17303E+01
  weight for this iteration     100.00

 eigenvalues of (default mixing * dielectric matrix)
  average eigenvalue GAMMA=   0.7895
  2.2939  0.5409  0.5409  0.3435  0.2283

 Free energy of the ion-electron system (eV)
  ---------------------------------------------------
  alpha Z        PSCENC =       805.86356103
  Ewald energy   TEWEN  =    200167.87194424
  -Hartree energ DENC   =   -242233.12482781
  -exchange      EXHF   =         0.00000000
  -V(xc)+E(xc)   XCENC  =      -345.00300692
  PAW double counting   =     49233.60021723   -47318.20637046
  entropy T*S    EENTRO =        -0.21012916
  eigenvalues    EBANDS =     -2163.14382134
  atomic energy  EATOM  =     41659.78587232
  Solvation  Ediel_sol  =         0.00000000
  ---------------------------------------------------
  free energy    TOTEN  =      -192.56656087 eV

  energy without entropy =     -192.35643171  energy(sigma->0) =     -192.46149629


--------------------------------------------------------------------------------------------------------




----------------------------------------- Iteration    1(  11)  ---------------------------------------


    POTLOK:  cpu time    0.0506: real time    0.0509
    SETDIJ:  cpu time    0.0062: real time    0.0062
    EDDIAG:  cpu time    1.6555: real time    1.6561
  RMM-DIIS:  cpu time    4.5235: real time    4.5258
    ORTHCH:  cpu time    0.4031: real time    0.4035
       DOS:  cpu time    0.0017: real time    0.0017
    CHARGE:  cpu time    0.3011: real time    0.3011
    MIXING:  cpu time    0.0027: real time    0.0027
    --------------------------------------------
      LOOP:  cpu time    6.9452: real time    6.9520

 eigenvalue-minimisations  :  3679
 total energy-change (2. order) : 0.3120845E+01  (-0.3992302E+00)
 number of electron     503.9998354 magnetization 
 augmentation part      197.8978827 magnetization 

 DIPCOR: dipole corrections for dipol
 direction  3 min pos     1,
 dipolmoment           0.000000      0.000000      0.058458 electrons x Angstroem
 Tr[quadrupol]    -10309.628307

 energy correction for charged system         0.000000 eV
 dipol+quadrupol energy correction           -0.000120 eV
 added-field ion interaction          0.000000 eV  (added to PSCEN)


 Broyden mixing:
  rms(total) = 0.80300E+00    rms(broyden)= 0.80274E+00
  rms(prec ) = 0.90576E+00
  weight for this iteration     100.00

 eigenvalues of (default mixing * dielectric matrix)
  average eigenvalue GAMMA=   0.7332
  2.2795  0.5835  0.5835  0.3623  0.3623  0.2283

 Free energy of the ion-electron system (eV)
  ---------------------------------------------------
  alpha Z        PSCENC =       805.86924387
  Ewald energy   TEWEN  =    200167.87194424
  -Hartree energ DENC   =   -242235.83400404
  -exchange      EXHF   =         0.00000000
  -V(xc)+E(xc)   XCENC  =      -344.60959346
  PAW double counting   =     49292.74919039   -47376.54314865
  entropy T*S    EENTRO =        -0.23192162
  eigenvalues    EBANDS =     -2158.50329843
  atomic energy  EATOM  =     41659.78587232
  Solvation  Ediel_sol  =         0.00000000
  ---------------------------------------------------
  free energy    TOTEN  =      -189.44571538 eV

  energy without entropy =     -189.21379377  energy(sigma->0) =     -189.32975458


--------------------------------------------------------------------------------------------------------




----------------------------------------- Iteration    1(  12)  ---------------------------------------


    POTLOK:  cpu time    0.0506: real time    0.0507
    SETDIJ:  cpu time    0.0061: real time    0.0061
    EDDIAG:  cpu time    1.6652: real time    1.6666
  RMM-DIIS:  cpu time    4.4481: real time    4.4518
    ORTHCH:  cpu time    0.4043: real time    0.4044
       DOS:  cpu time    0.0016: real time    0.0016
    CHARGE:  cpu time    0.3009: real time    0.3012
    MIXING:  cpu time    0.0027: real time    0.0027
    --------------------------------------------
      LOOP:  cpu time    6.8803: real time    6.8894

 eigenvalue-minimisations  :  3679
 total energy-change (2. order) : 0.6575808E+00  (-0.1635695E+00)
 number of electron     503.9998360 magnetization 
 augmentation part      197.4504322 magnetization 

 DIPCOR: dipole corrections for dipol
 direction  3 min pos     1,
 dipolmoment           0.000000      0.000000     -0.108638 electrons x Angstroem
 Tr[quadrupol]    -10309.917366

 energy correction for charged system         0.000000 eV
 dipol+quadrupol energy correction           -0.000416 eV
 added-field ion interaction          0.000000 eV  (added to PSCEN)


 Broyden mixing:
  rms(total) = 0.55657E+00    rms(broyden)= 0.55638E+00
  rms(prec ) = 0.63740E+00
  weight for this iteration     100.00

 eigenvalues of (default mixing * dielectric matrix)
  average eigenvalue GAMMA=   0.7276
  2.2635  0.7487  0.6224  0.6224  0.3186  0.3186  0.1993

 Free energy of the ion-electron system (eV)
  ---------------------------------------------------
  alpha Z        PSCENC =       805.86894841
  Ewald energy   TEWEN  =    200167.87194424
  -Hartree energ DENC   =   -242256.70821483
  -exchange      EXHF   =         0.00000000
  -V(xc)+E(xc)   XCENC  =      -344.28639312
  PAW double counting   =     49315.78770849   -47398.16922552
  entropy T*S    EENTRO =        -0.24193262
  eigenvalues    EBANDS =     -2138.69684192
  atomic energy  EATOM  =     41659.78587232
  Solvation  Ediel_sol  =         0.00000000
  ---------------------------------------------------
  free energy    TOTEN  =      -188.78813454 eV

  energy without entropy =     -188.54620192  energy(sigma->0) =     -188.66716823


--------------------------------------------------------------------------------------------------------




----------------------------------------- Iteration    1(  13)  ---------------------------------------


    POTLOK:  cpu time    0.0494: real time    0.0495
    SETDIJ:  cpu time    0.0060: real time    0.0060
    EDDIAG:  cpu time    1.6705: real time    1.6718
  RMM-DIIS:  cpu time    4.5454: real time    4.5489
    ORTHCH:  cpu time    0.4102: real time    0.4103
       DOS:  cpu time    0.0017: real time    0.0017
    CHARGE:  cpu time    0.3053: real time    0.3056
    MIXING:  cpu time    0.0028: real time    0.0028
    --------------------------------------------
      LOOP:  cpu time    6.9921: real time    6.9994

 eigenvalue-minimisations  :  3679
 total energy-change (2. order) : 0.7302647E-01  (-0.4746067E-01)
 number of electron     503.9998360 magnetization 
 augmentation part      197.1399192 magnetization 

 DIPCOR: dipole corrections for dipol
 direction  3 min pos     1,
 dipolmoment           0.000000      0.000000     -0.014183 electrons x Angstroem
 Tr[quadrupol]    -10310.310858

 energy correction for charged system         0.000000 eV
 dipol+quadrupol energy correction           -0.000007 eV
 added-field ion interaction          0.000000 eV  (added to PSCEN)


 Broyden mixing:
  rms(total) = 0.55164E+00    rms(broyden)= 0.55155E+00
  rms(prec ) = 0.60705E+00
  weight for this iteration     100.00

 eigenvalues of (default mixing * dielectric matrix)
  average eigenvalue GAMMA=   0.7108
  2.2375  0.8395  0.7443  0.7443  0.3243  0.3243  0.2763  0.1963

 Free energy of the ion-electron system (eV)
  ---------------------------------------------------
  alpha Z        PSCENC =       805.86935720
  Ewald energy   TEWEN  =    200167.87194424
  -Hartree energ DENC   =   -242279.91380166
  -exchange      EXHF   =         0.00000000
  -V(xc)+E(xc)   XCENC  =      -344.00342587
  PAW double counting   =     49333.58890269   -47414.56477075
  entropy T*S    EENTRO =        -0.24850597
  eigenvalues    EBANDS =     -2117.10068027
  atomic energy  EATOM  =     41659.78587232
  Solvation  Ediel_sol  =         0.00000000
  ---------------------------------------------------
  free energy    TOTEN  =      -188.71510807 eV

  energy without entropy =     -188.46660210  energy(sigma->0) =     -188.59085509


--------------------------------------------------------------------------------------------------------




----------------------------------------- Iteration    1(  14)  ---------------------------------------


    POTLOK:  cpu time    0.0496: real time    0.0496
    SETDIJ:  cpu time    0.0061: real time    0.0061
    EDDIAG:  cpu time    1.6185: real time    1.6855
  RMM-DIIS:  cpu time    4.5205: real time    4.5226
    ORTHCH:  cpu time    0.4035: real time    0.4036
       DOS:  cpu time    0.0016: real time    0.0016
    CHARGE:  cpu time    0.3019: real time    0.3020
    MIXING:  cpu time    0.0029: real time    0.0029
    --------------------------------------------
      LOOP:  cpu time    6.9055: real time    6.9765

 eigenvalue-minimisations  :  3681
 total energy-change (2. order) : 0.8496497E-01  (-0.3277438E-01)
 number of electron     503.9998363 magnetization 
 augmentation part      197.0480941 magnetization 

 DIPCOR: dipole corrections for dipol
 direction  3 min pos     1,
 dipolmoment           0.000000      0.000000      0.014817 electrons x Angstroem
 Tr[quadrupol]    -10310.343614

 energy correction for charged system         0.000000 eV
 dipol+quadrupol energy correction           -0.000008 eV
 added-field ion interaction          0.000000 eV  (added to PSCEN)


 Broyden mixing:
  rms(total) = 0.42227E+00    rms(broyden)= 0.42217E+00
  rms(prec ) = 0.46424E+00
  weight for this iteration     100.00

 eigenvalues of (default mixing * dielectric matrix)
  average eigenvalue GAMMA=   0.7475
  2.2209  1.1154  1.1154  0.7625  0.4124  0.3497  0.3497  0.2125  0.1887

 Free energy of the ion-electron system (eV)
  ---------------------------------------------------
  alpha Z        PSCENC =       805.86935655
  Ewald energy   TEWEN  =    200167.87194424
  -Hartree energ DENC   =   -242285.85194094
  -exchange      EXHF   =         0.00000000
  -V(xc)+E(xc)   XCENC  =      -343.81625754
  PAW double counting   =     49335.02213985   -47415.10797343
  entropy T*S    EENTRO =        -0.26513301
  eigenvalues    EBANDS =     -2112.13815113
  atomic energy  EATOM  =     41659.78587232
  Solvation  Ediel_sol  =         0.00000000
  ---------------------------------------------------
  free energy    TOTEN  =      -188.63014310 eV

  energy without entropy =     -188.36501009  energy(sigma->0) =     -188.49757659


--------------------------------------------------------------------------------------------------------




----------------------------------------- Iteration    1(  15)  ---------------------------------------


    POTLOK:  cpu time    0.0495: real time    0.0496
    SETDIJ:  cpu time    0.0060: real time    0.0060
    EDDIAG:  cpu time    1.6494: real time    1.6512
  RMM-DIIS:  cpu time    4.4862: real time    4.4912
    ORTHCH:  cpu time    0.4033: real time    0.4035
       DOS:  cpu time    0.0017: real time    0.0017
    CHARGE:  cpu time    0.2998: real time    0.2999
    MIXING:  cpu time    0.0032: real time    0.0032
    --------------------------------------------
      LOOP:  cpu time    6.8999: real time    6.9111

 eigenvalue-minimisations  :  3680
 total energy-change (2. order) : 0.6827741E-02  (-0.3004600E-01)
 number of electron     503.9998364 magnetization 
 augmentation part      197.0674432 magnetization 

 DIPCOR: dipole corrections for dipol
 direction  3 min pos     1,
 dipolmoment           0.000000      0.000000     -0.012882 electrons x Angstroem
 Tr[quadrupol]    -10310.545940

 energy correction for charged system         0.000000 eV
 dipol+quadrupol energy correction           -0.000006 eV
 added-field ion interaction          0.000000 eV  (added to PSCEN)


 Broyden mixing:
  rms(total) = 0.33640E+00    rms(broyden)= 0.33632E+00
  rms(prec ) = 0.37622E+00
  weight for this iteration     100.00

 eigenvalues of (default mixing * dielectric matrix)
  average eigenvalue GAMMA=   0.7654
  2.2644  1.3987  1.3987  0.6293  0.6293  0.3225  0.3225  0.2962  0.2014  0.1916

 Free energy of the ion-electron system (eV)
  ---------------------------------------------------
  alpha Z        PSCENC =       805.86935844
  Ewald energy   TEWEN  =    200167.87194424
  -Hartree energ DENC   =   -242295.87533263
  -exchange      EXHF   =         0.00000000
  -V(xc)+E(xc)   XCENC  =      -343.64045484
  PAW double counting   =     49347.49839034   -47426.60932701
  entropy T*S    EENTRO =        -0.25766038
  eigenvalues    EBANDS =     -2103.26610584
  atomic energy  EATOM  =     41659.78587232
  Solvation  Ediel_sol  =         0.00000000
  ---------------------------------------------------
  free energy    TOTEN  =      -188.62331536 eV

  energy without entropy =     -188.36565498  energy(sigma->0) =     -188.49448517


--------------------------------------------------------------------------------------------------------




----------------------------------------- Iteration    1(  16)  ---------------------------------------


    POTLOK:  cpu time    0.0496: real time    0.0496
    SETDIJ:  cpu time    0.0060: real time    0.0060
    EDDIAG:  cpu time    1.6610: real time    1.6616
  RMM-DIIS:  cpu time    4.4610: real time    4.4634
    ORTHCH:  cpu time    0.4054: real time    0.4054
       DOS:  cpu time    0.0017: real time    0.0017
    CHARGE:  cpu time    0.2990: real time    0.2994
    MIXING:  cpu time    0.0035: real time    0.0035
    --------------------------------------------
      LOOP:  cpu time    6.8881: real time    6.8932

 eigenvalue-minimisations  :  3680
 total energy-change (2. order) : 0.9128940E-01  (-0.1169390E-01)
 number of electron     503.9998362 magnetization 
 augmentation part      197.1339709 magnetization 

 DIPCOR: dipole corrections for dipol
 direction  3 min pos     1,
 dipolmoment           0.000000      0.000000      0.007722 electrons x Angstroem
 Tr[quadrupol]    -10310.896669

 energy correction for charged system         0.000000 eV
 dipol+quadrupol energy correction           -0.000002 eV
 added-field ion interaction          0.000000 eV  (added to PSCEN)


 Broyden mixing:
  rms(total) = 0.16506E+00    rms(broyden)= 0.16499E+00
  rms(prec ) = 0.18321E+00
  weight for this iteration     100.00

 eigenvalues of (default mixing * dielectric matrix)
  average eigenvalue GAMMA=   0.7576
  2.2322  1.5544  1.5544  0.6412  0.6412  0.3319  0.3319  0.3498  0.3025  0.2042
  0.1897

 Free energy of the ion-electron system (eV)
  ---------------------------------------------------
  alpha Z        PSCENC =       805.86936218
  Ewald energy   TEWEN  =    200167.87194424
  -Hartree energ DENC   =   -242308.52414192
  -exchange      EXHF   =         0.00000000
  -V(xc)+E(xc)   XCENC  =      -343.59320123
  PAW double counting   =     49366.33332731   -47445.01054530
  entropy T*S    EENTRO =        -0.26320964
  eigenvalues    EBANDS =     -2091.00143392
  atomic energy  EATOM  =     41659.78587232
  Solvation  Ediel_sol  =         0.00000000
  ---------------------------------------------------
  free energy    TOTEN  =      -188.53202596 eV

  energy without entropy =     -188.26881632  energy(sigma->0) =     -188.40042114


--------------------------------------------------------------------------------------------------------




----------------------------------------- Iteration    1(  17)  ---------------------------------------


    POTLOK:  cpu time    0.0499: real time    0.0499
    SETDIJ:  cpu time    0.0061: real time    0.0061
    EDDIAG:  cpu time    1.6722: real time    1.6738
  RMM-DIIS:  cpu time    4.5574: real time    4.5740
    ORTHCH:  cpu time    0.4900: real time    0.4923
       DOS:  cpu time    0.0017: real time    0.0017
    CHARGE:  cpu time    0.4436: real time    0.4449
    MIXING:  cpu time    0.0036: real time    0.0037
    --------------------------------------------
      LOOP:  cpu time    7.2253: real time    7.2491

 eigenvalue-minimisations  :  3680
 total energy-change (2. order) : 0.1996835E-01  (-0.5130681E-02)
 number of electron     503.9998362 magnetization 
 augmentation part      197.1371289 magnetization 

 DIPCOR: dipole corrections for dipol
 direction  3 min pos     1,
 dipolmoment           0.000000      0.000000     -0.004112 electrons x Angstroem
 Tr[quadrupol]    -10311.030993

 energy correction for charged system         0.000000 eV
 dipol+quadrupol energy correction           -0.000001 eV
 added-field ion interaction          0.000000 eV  (added to PSCEN)


 Broyden mixing:
  rms(total) = 0.11642E+00    rms(broyden)= 0.11639E+00
  rms(prec ) = 0.13321E+00
  weight for this iteration     100.00

 eigenvalues of (default mixing * dielectric matrix)
  average eigenvalue GAMMA=   0.7599
  2.1267  2.1267  1.3340  0.6730  0.6730  0.5388  0.3317  0.3317  0.3500  0.2447
  0.1975  0.1910

 Free energy of the ion-electron system (eV)
  ---------------------------------------------------
  alpha Z        PSCENC =       805.86936369
  Ewald energy   TEWEN  =    200167.87194424
  -Hartree energ DENC   =   -242314.63106779
  -exchange      EXHF   =         0.00000000
  -V(xc)+E(xc)   XCENC  =      -343.54202108
  PAW double counting   =     49369.87709891   -47448.19450105
  entropy T*S    EENTRO =        -0.26676691
  eigenvalues    EBANDS =     -2085.28197995
  atomic energy  EATOM  =     41659.78587232
  Solvation  Ediel_sol  =         0.00000000
  ---------------------------------------------------
  free energy    TOTEN  =      -188.51205761 eV

  energy without entropy =     -188.24529070  energy(sigma->0) =     -188.37867416


--------------------------------------------------------------------------------------------------------




----------------------------------------- Iteration    1(  18)  ---------------------------------------


    POTLOK:  cpu time    0.0671: real time    0.0675
    SETDIJ:  cpu time    0.0093: real time    0.0093
    EDDIAG:  cpu time    1.8435: real time    1.8523
  RMM-DIIS:  cpu time    4.5647: real time    4.5677
    ORTHCH:  cpu time    0.4052: real time    0.4053
       DOS:  cpu time    0.0017: real time    0.0017
    CHARGE:  cpu time    0.3015: real time    0.3017
    MIXING:  cpu time    0.0038: real time    0.0038
    --------------------------------------------
      LOOP:  cpu time    7.1977: real time    7.2136

 eigenvalue-minimisations  :  3680
 total energy-change (2. order) : 0.1071495E-01  (-0.1276948E-02)
 number of electron     503.9998362 magnetization 
 augmentation part      197.1021806 magnetization 

 DIPCOR: dipole corrections for dipol
 direction  3 min pos     1,
 dipolmoment           0.000000      0.000000     -0.002835 electrons x Angstroem
 Tr[quadrupol]    -10311.165049

 energy correction for charged system         0.000000 eV
 dipol+quadrupol energy correction           -0.000000 eV
 added-field ion interaction          0.000000 eV  (added to PSCEN)


 Broyden mixing:
  rms(total) = 0.64110E-01    rms(broyden)= 0.64094E-01
  rms(prec ) = 0.70775E-01
  weight for this iteration     100.00

 eigenvalues of (default mixing * dielectric matrix)
  average eigenvalue GAMMA=   0.7671
  2.3023  2.3023  1.2524  0.7845  0.7845  0.5819  0.3810  0.3345  0.3345  0.1911
  0.1992  0.2618  0.2618

 Free energy of the ion-electron system (eV)
  ---------------------------------------------------
  alpha Z        PSCENC =       805.86936400
  Ewald energy   TEWEN  =    200167.87194424
  -Hartree energ DENC   =   -242320.19431112
  -exchange      EXHF   =         0.00000000
  -V(xc)+E(xc)   XCENC  =      -343.51505467
  PAW double counting   =     49372.50065017   -47450.63719802
  entropy T*S    EENTRO =        -0.26535061
  eigenvalues    EBANDS =     -2079.91725898
  atomic energy  EATOM  =     41659.78587232
  Solvation  Ediel_sol  =         0.00000000
  ---------------------------------------------------
  free energy    TOTEN  =      -188.50134266 eV

  energy without entropy =     -188.23599205  energy(sigma->0) =     -188.36866735


--------------------------------------------------------------------------------------------------------




----------------------------------------- Iteration    1(  19)  ---------------------------------------


    POTLOK:  cpu time    0.0509: real time    0.0510
    SETDIJ:  cpu time    0.0067: real time    0.0068
    EDDIAG:  cpu time    1.6578: real time    1.6587
  RMM-DIIS:  cpu time    4.3467: real time    4.4230
    ORTHCH:  cpu time    0.4034: real time    0.4037
       DOS:  cpu time    0.0016: real time    0.0016
    CHARGE:  cpu time    0.2993: real time    0.2993
    MIXING:  cpu time    0.0039: real time    0.0039
    --------------------------------------------
      LOOP:  cpu time    6.7711: real time    6.8533

 eigenvalue-minimisations  :  3678
 total energy-change (2. order) : 0.2799120E-02  (-0.6226971E-03)
 number of electron     503.9998362 magnetization 
 augmentation part      197.0709081 magnetization 

 DIPCOR: dipole corrections for dipol
 direction  3 min pos     1,
 dipolmoment           0.000000      0.000000      0.002901 electrons x Angstroem
 Tr[quadrupol]    -10311.305477

 energy correction for charged system         0.000000 eV
 dipol+quadrupol energy correction           -0.000000 eV
 added-field ion interaction          0.000000 eV  (added to PSCEN)


 Broyden mixing:
  rms(total) = 0.42539E-01    rms(broyden)= 0.42528E-01
  rms(prec ) = 0.48174E-01
  weight for this iteration     100.00

 eigenvalues of (default mixing * dielectric matrix)
  average eigenvalue GAMMA=   0.7708
  2.4161  2.4161  1.1091  0.9112  0.9112  0.6055  0.5136  0.3333  0.3333  0.3337
  0.2858  0.1905  0.1995  0.2332

 Free energy of the ion-electron system (eV)
  ---------------------------------------------------
  alpha Z        PSCENC =       805.86936399
  Ewald energy   TEWEN  =    200167.87194424
  -Hartree energ DENC   =   -242326.08171863
  -exchange      EXHF   =         0.00000000
  -V(xc)+E(xc)   XCENC  =      -343.48639182
  PAW double counting   =     49375.70416727   -47453.69366166
  entropy T*S    EENTRO =        -0.26875379
  eigenvalues    EBANDS =     -2074.19936546
  atomic energy  EATOM  =     41659.78587232
  Solvation  Ediel_sol  =         0.00000000
  ---------------------------------------------------
  free energy    TOTEN  =      -188.49854354 eV

  energy without entropy =     -188.22978974  energy(sigma->0) =     -188.36416664


--------------------------------------------------------------------------------------------------------




----------------------------------------- Iteration    1(  20)  ---------------------------------------


    POTLOK:  cpu time    0.0502: real time    0.0506
    SETDIJ:  cpu time    0.0061: real time    0.0061
    EDDIAG:  cpu time    1.6623: real time    1.6638
  RMM-DIIS:  cpu time    4.5366: real time    4.5386
    ORTHCH:  cpu time    0.4034: real time    0.4036
       DOS:  cpu time    0.0016: real time    0.0016
    CHARGE:  cpu time    0.3035: real time    0.3035
    MIXING:  cpu time    0.0043: real time    0.0043
    --------------------------------------------
      LOOP:  cpu time    6.9686: real time    6.9757

 eigenvalue-minimisations  :  3679
 total energy-change (2. order) : 0.6444883E-03  (-0.2115545E-03)
 number of electron     503.9998363 magnetization 
 augmentation part      197.0501614 magnetization 

 DIPCOR: dipole corrections for dipol
 direction  3 min pos     1,
 dipolmoment           0.000000      0.000000      0.005844 electrons x Angstroem
 Tr[quadrupol]    -10311.414210

 energy correction for charged system         0.000000 eV
 dipol+quadrupol energy correction           -0.000001 eV
 added-field ion interaction          0.000000 eV  (added to PSCEN)


 Broyden mixing:
  rms(total) = 0.33599E-01    rms(broyden)= 0.33593E-01
  rms(prec ) = 0.38386E-01
  weight for this iteration     100.00

 eigenvalues of (default mixing * dielectric matrix)
  average eigenvalue GAMMA=   0.7671
  2.4139  2.4139  1.1040  1.1040  0.8246  0.8246  0.4771  0.4771  0.3310  0.3310
  0.3160  0.2722  0.1907  0.1991  0.2277

 Free energy of the ion-electron system (eV)
  ---------------------------------------------------
  alpha Z        PSCENC =       805.86936308
  Ewald energy   TEWEN  =    200167.87194424
  -Hartree energ DENC   =   -242330.57077947
  -exchange      EXHF   =         0.00000000
  -V(xc)+E(xc)   XCENC  =      -343.46621322
  PAW double counting   =     49377.49862895   -47455.43477676
  entropy T*S    EENTRO =        -0.26831452
  eigenvalues    EBANDS =     -2069.78362366
  atomic energy  EATOM  =     41659.78587232
  Solvation  Ediel_sol  =         0.00000000
  ---------------------------------------------------
  free energy    TOTEN  =      -188.49789905 eV

  energy without entropy =     -188.22958452  energy(sigma->0) =     -188.36374179


--------------------------------------------------------------------------------------------------------




----------------------------------------- Iteration    1(  21)  ---------------------------------------


    POTLOK:  cpu time    0.0502: real time    0.0511
    SETDIJ:  cpu time    0.0061: real time    0.0060
    EDDIAG:  cpu time    1.6617: real time    1.6632
  RMM-DIIS:  cpu time    4.5404: real time    4.5424
    ORTHCH:  cpu time    0.4034: real time    0.4036
       DOS:  cpu time    0.0016: real time    0.0017
    CHARGE:  cpu time    0.3057: real time    0.3059
    MIXING:  cpu time    0.0041: real time    0.0041
    --------------------------------------------
      LOOP:  cpu time    6.9739: real time    6.9815

 eigenvalue-minimisations  :  3680
 total energy-change (2. order) : 0.5179358E-03  (-0.1193688E-03)
 number of electron     503.9998363 magnetization 
 augmentation part      197.0520886 magnetization 

 DIPCOR: dipole corrections for dipol
 direction  3 min pos     1,
 dipolmoment           0.000000      0.000000      0.004937 electrons x Angstroem
 Tr[quadrupol]    -10311.478079

 energy correction for charged system         0.000000 eV
 dipol+quadrupol energy correction           -0.000001 eV
 added-field ion interaction          0.000000 eV  (added to PSCEN)


 Broyden mixing:
  rms(total) = 0.23346E-01    rms(broyden)= 0.23338E-01
  rms(prec ) = 0.26047E-01
  weight for this iteration     100.00

 eigenvalues of (default mixing * dielectric matrix)
  average eigenvalue GAMMA=   0.7922
  2.5084  2.3707  1.4914  1.4914  0.7572  0.7572  0.5597  0.5597  0.3335  0.3335
  0.3487  0.3031  0.2477  0.1907  0.1993  0.2223

 Free energy of the ion-electron system (eV)
  ---------------------------------------------------
  alpha Z        PSCENC =       805.86936343
  Ewald energy   TEWEN  =    200167.87194424
  -Hartree energ DENC   =   -242332.96243942
  -exchange      EXHF   =         0.00000000
  -V(xc)+E(xc)   XCENC  =      -343.46204350
  PAW double counting   =     49377.83983217   -47455.83294660
  entropy T*S    EENTRO =        -0.26799243
  eigenvalues    EBANDS =     -2067.33897132
  atomic energy  EATOM  =     41659.78587232
  Solvation  Ediel_sol  =         0.00000000
  ---------------------------------------------------
  free energy    TOTEN  =      -188.49738111 eV

  energy without entropy =     -188.22938869  energy(sigma->0) =     -188.36338490


--------------------------------------------------------------------------------------------------------




----------------------------------------- Iteration    1(  22)  ---------------------------------------


    POTLOK:  cpu time    0.0502: real time    0.0502
    SETDIJ:  cpu time    0.0061: real time    0.0061
    EDDIAG:  cpu time    1.6557: real time    1.6565
  RMM-DIIS:  cpu time    4.5160: real time    4.5185
    ORTHCH:  cpu time    0.4035: real time    0.4036
       DOS:  cpu time    0.0016: real time    0.0016
    CHARGE:  cpu time    0.3008: real time    0.3008
    MIXING:  cpu time    0.0042: real time    0.0042
    --------------------------------------------
      LOOP:  cpu time    6.9388: real time    6.9443

 eigenvalue-minimisations  :  3680
 total energy-change (2. order) : 0.1741127E-03  (-0.7377602E-04)
 number of electron     503.9998363 magnetization 
 augmentation part      197.0574498 magnetization 

 DIPCOR: dipole corrections for dipol
 direction  3 min pos     1,
 dipolmoment           0.000000      0.000000      0.002696 electrons x Angstroem
 Tr[quadrupol]    -10311.580211

 energy correction for charged system         0.000000 eV
 dipol+quadrupol energy correction           -0.000000 eV
 added-field ion interaction          0.000000 eV  (added to PSCEN)


 Broyden mixing:
  rms(total) = 0.11891E-01    rms(broyden)= 0.11886E-01
  rms(prec ) = 0.13860E-01
  weight for this iteration     100.00

 eigenvalues of (default mixing * dielectric matrix)
  average eigenvalue GAMMA=   0.7922
  2.5774  2.1872  1.9735  1.4054  0.7577  0.7577  0.6174  0.6174  0.4342  0.3333
  0.3333  0.3148  0.3027  0.2463  0.1907  0.1992  0.2194

 Free energy of the ion-electron system (eV)
  ---------------------------------------------------
  alpha Z        PSCENC =       805.86936403
  Ewald energy   TEWEN  =    200167.87194424
  -Hartree energ DENC   =   -242336.71679360
  -exchange      EXHF   =         0.00000000
  -V(xc)+E(xc)   XCENC  =      -343.45782153
  PAW double counting   =     49378.03714637   -47456.10988016
  entropy T*S    EENTRO =        -0.26798862
  eigenvalues    EBANDS =     -2063.50905004
  atomic energy  EATOM  =     41659.78587232
  Solvation  Ediel_sol  =         0.00000000
  ---------------------------------------------------
  free energy    TOTEN  =      -188.49720700 eV

  energy without entropy =     -188.22921838  energy(sigma->0) =     -188.36321269


--------------------------------------------------------------------------------------------------------




----------------------------------------- Iteration    1(  23)  ---------------------------------------


    POTLOK:  cpu time    0.0501: real time    0.0501
    SETDIJ:  cpu time    0.0061: real time    0.0061
    EDDIAG:  cpu time    1.6437: real time    1.6451
  RMM-DIIS:  cpu time    4.5347: real time    4.5366
    ORTHCH:  cpu time    0.4035: real time    0.4038
       DOS:  cpu time    0.0016: real time    0.0016
    CHARGE:  cpu time    0.2994: real time    0.2995
    MIXING:  cpu time    0.0046: real time    0.0046
    --------------------------------------------
      LOOP:  cpu time    6.9445: real time    6.9507

 eigenvalue-minimisations  :  3680
 total energy-change (2. order) :-0.1465499E-03  (-0.2835988E-04)
 number of electron     503.9998363 magnetization 
 augmentation part      197.0640909 magnetization 

 DIPCOR: dipole corrections for dipol
 direction  3 min pos     1,
 dipolmoment           0.000000      0.000000      0.003067 electrons x Angstroem
 Tr[quadrupol]    -10311.636688

 energy correction for charged system         0.000000 eV
 dipol+quadrupol energy correction           -0.000000 eV
[...]
    275       1.7367      0.00000
    276       1.8331      0.00000
    277       2.0186      0.00000
    278       2.2576      0.00000
    279       2.2899      0.00000
    280       2.3833      0.00000
    281       2.5272      0.00000
    282       2.6076      0.00000
    283       2.7385      0.00000
    284       2.8950      0.00000
    285       3.1406      0.00000
    286       3.2717      0.00000
    287       3.4620      0.00000
    288       3.6672      0.00000
    289       3.7296      0.00000
    290       3.9865      0.00000
    291       4.0958      0.00000
    292       4.1883      0.00000
    293       4.4627      0.00000
    294       4.5598      0.00000
    295       4.5829      0.00000
    296       4.6334      0.00000
    297       4.7818      0.00000
    298       4.8351      0.00000
    299       4.8739      0.00000
    300       4.8868      0.00000
    301       4.9994      0.00000
    302       5.0391      0.00000
    303       5.0685      0.00000
    304       5.0902      0.00000
    305       5.1649      0.00000
    306       5.2405      0.00000


--------------------------------------------------------------------------------------------------------


 soft charge-density along one line, spin component           1
         0         1         2         3         4         5         6         7         8         9
 total charge-density along one line
 
 pseudopotential strength for first ion, spin component:           1
 -8.048   0.002   0.004  -0.003  -0.001  -8.194   0.002   0.004
  0.002  -7.973  -0.000  -0.003  -0.000   0.002  -8.121  -0.000
  0.004  -0.000  -7.963  -0.001  -0.007   0.004  -0.000  -8.112
 -0.003  -0.003  -0.001  -7.963   0.000  -0.003  -0.003  -0.001
 -0.001  -0.000  -0.007   0.000  -8.045  -0.001  -0.000  -0.007
 -8.194   0.002   0.004  -0.003  -0.001  -8.325   0.002   0.004
  0.002  -8.121  -0.000  -0.003  -0.000   0.002  -8.253  -0.000
  0.004  -0.000  -8.112  -0.001  -0.007   0.004  -0.000  -8.244
 -0.003  -0.003  -0.001  -8.112   0.000  -0.003  -0.003  -0.001
 -0.001  -0.000  -0.007   0.000  -8.192  -0.001  -0.000  -0.006
  0.002   0.001  -0.025  -0.001  -0.003   0.002   0.001  -0.025
  0.003   0.002  -0.037  -0.001  -0.004   0.003   0.002  -0.037
  0.003  -0.003   0.002   0.000   0.004   0.003  -0.003   0.002
  0.000  -0.003  -0.006   0.003  -0.000   0.000  -0.003  -0.005
 -0.003   0.000  -0.001  -0.003   0.002  -0.003   0.000  -0.001
  0.003  -0.003   0.002   0.000   0.004   0.003  -0.003   0.002
  0.000  -0.004  -0.006   0.003  -0.000   0.000  -0.004  -0.006
 -0.004   0.000  -0.001  -0.003   0.002  -0.004   0.000  -0.001
 total augmentation occupancy for first ion, spin component:           1
  4.443   0.046  -0.077   0.058  -0.137  -2.642  -0.022   0.090  -0.086   0.125  -0.134   0.062  -0.044   0.001   0.003   0.004
  0.046   4.088  -0.038   0.026   0.054  -0.023  -1.817   0.038  -0.030  -0.066  -0.031  -0.013  -0.136   0.005   0.005   0.004
 -0.077  -0.038   4.354   0.046   0.141   0.090   0.038  -2.240  -0.052  -0.163   1.012  -0.119  -0.014  -0.211   0.002   0.002
  0.058   0.026   0.046   4.089  -0.010  -0.086  -0.030  -0.052  -1.801   0.005  -0.001   0.029   0.005  -0.011  -0.158   0.000
 -0.137   0.054   0.141  -0.010   4.113   0.125  -0.066  -0.163   0.005  -2.283   0.186  -0.087  -0.031  -0.001   0.025   0.005
 -2.642  -0.023   0.090  -0.086   0.125   2.717   0.005  -0.100   0.107  -0.116   0.119  -0.058   0.035  -0.003   0.002  -0.002
 -0.022  -1.817   0.038  -0.030  -0.066   0.005   1.520  -0.037   0.033   0.075   0.029   0.010   0.126   0.000  -0.007  -0.005
  0.090   0.038  -2.240  -0.052  -0.163  -0.100  -0.037   2.068   0.056   0.180  -0.950   0.141   0.010   0.216  -0.000  -0.001
 -0.086  -0.030  -0.052  -1.801   0.005   0.107   0.033   0.056   1.489  -0.001   0.000  -0.024  -0.007   0.007   0.150  -0.000
  0.125  -0.066  -0.163   0.005  -2.283  -0.116   0.075   0.180  -0.001   2.339  -0.169   0.081   0.023   0.005  -0.025  -0.002
 -0.134  -0.031   1.012  -0.001   0.186   0.119   0.029  -0.950   0.000  -0.169   2.382  -0.495  -0.000   0.111   0.002  -0.000
  0.062  -0.013  -0.119   0.029  -0.087  -0.058   0.010   0.141  -0.024   0.081  -0.495   0.146   0.012  -0.052  -0.009  -0.000
 -0.044  -0.136  -0.014   0.005  -0.031   0.035   0.126   0.010  -0.007   0.023  -0.000   0.012   0.196   0.003   0.005  -0.006
  0.001   0.005  -0.211  -0.011  -0.001  -0.003   0.000   0.216   0.007   0.005   0.111  -0.052   0.003   0.087  -0.002  -0.000
  0.003   0.005   0.002  -0.158   0.025   0.002  -0.007  -0.000   0.150  -0.025   0.002  -0.009   0.005  -0.002   0.182  -0.000
  0.004   0.004   0.002   0.000   0.005  -0.002  -0.005  -0.001  -0.000  -0.002  -0.000  -0.000  -0.006  -0.000  -0.000   0.000
  0.000  -0.005   0.001   0.004  -0.000  -0.000   0.001  -0.006  -0.001  -0.000  -0.007   0.002   0.000  -0.003  -0.000  -0.000
 -0.004   0.000  -0.001   0.004   0.002   0.001  -0.000  -0.000  -0.006   0.000   0.000   0.000  -0.000  -0.000  -0.005   0.000


------------------------ aborting loop because EDIFF is reached ----------------------------------------


    CHARGE:  cpu time    0.2993: real time    0.2994
    FORLOC:  cpu time    0.0187: real time    0.0187
    FORNL :  cpu time    1.6625: real time    1.6631
    FORCOR:  cpu time    0.0678: real time    0.0678
    FORHAR:  cpu time    0.0291: real time    0.0291
    MIXING:  cpu time    0.0037: real time    0.0037
    OFIELD:  cpu time    0.0000: real time    0.0000

 VOLUME and BASIS-vectors are now :
 -----------------------------------------------------------------------------
  energy-cutoff  :      400.00
  volume of cell :     2567.68
      direct lattice vectors                 reciprocal lattice vectors
    11.002581515  0.000000000  0.000000000     0.090887761 -0.052474073  0.000000000
     5.501290758  9.528515099  0.000000000     0.000000000  0.104948147  0.000000000
     0.000000000  0.000000000 24.491785094     0.000000000  0.000000000  0.040830017

  length of vectors
    11.002581515 11.002581515 24.491785094     0.104948147  0.104948147  0.040830017


 FORCES acting on ions
    electron-ion (+dipol)            ewald-force                    non-local-force                 convergence-correction
 -----------------------------------------------------------------------------------------------
   0.579E+01 -.662E+01 0.227E+04   -.630E+01 0.738E+01 -.227E+04   0.494E+00 -.765E+00 -.216E-01   0.170E-02 -.764E-03 0.200E-02
   0.877E+01 -.300E+00 -.233E+04   -.936E+01 0.314E+00 0.233E+04   0.584E+00 -.165E-01 -.313E+00   0.713E-03 0.475E-02 -.164E-02
   0.135E+01 0.129E+02 -.270E+02   -.147E+01 -.118E+02 0.265E+02   0.111E+00 -.110E+01 0.496E+00   -.972E-03 -.301E-03 0.265E-02
   0.278E+01 -.137E+02 0.454E+01   -.301E+01 0.133E+02 -.452E+01   0.227E+00 0.384E+00 -.142E-01   0.582E-03 0.401E-02 -.531E-04
   -.295E+01 -.914E+01 0.212E+02   0.339E+01 0.850E+01 -.206E+02   -.451E+00 0.646E+00 -.547E+00   -.991E-03 0.157E-02 -.214E-03
   0.455E+01 0.576E+01 -.222E+04   -.443E+01 -.620E+01 0.222E+04   -.112E+00 0.413E+00 0.332E+00   0.103E-02 0.620E-02 0.167E-02
   -.171E+02 -.119E+01 0.227E+04   0.179E+02 0.116E+01 -.227E+04   -.844E+00 0.370E-01 0.478E-01   -.437E-03 -.909E-03 0.161E-02
   0.909E+00 0.121E+02 0.230E+04   -.107E+01 -.130E+02 -.230E+04   0.163E+00 0.840E+00 -.114E-01   -.871E-03 0.196E-02 0.872E-03
   0.989E+00 -.393E+01 0.546E+01   -.105E+01 0.403E+01 -.549E+01   0.669E-01 -.104E+00 0.158E-01   -.364E-02 -.533E-03 0.538E-02
   0.584E+01 0.658E+01 0.110E+02   -.558E+01 -.648E+01 -.105E+02   -.261E+00 -.105E+00 -.511E+00   0.395E-02 -.904E-03 0.580E-02
   -.939E+01 -.264E+01 0.225E+04   0.105E+02 0.298E+01 -.225E+04   -.105E+01 -.351E+00 -.102E+00   -.166E-02 -.902E-03 0.472E-02
   -.134E+01 0.861E+01 -.225E+04   0.971E+00 -.933E+01 0.225E+04   0.357E+00 0.716E+00 0.143E+00   -.113E-02 0.175E-02 0.148E-02
   -.788E+01 0.166E+01 -.112E+02   0.743E+01 -.197E+01 0.118E+02   0.444E+00 0.312E+00 -.543E+00   0.499E-03 -.621E-04 0.159E-02
   0.513E+01 0.414E+01 0.222E+04   -.517E+01 -.472E+01 -.222E+04   0.323E-01 0.579E+00 -.508E+00   0.660E-04 0.199E-03 0.263E-02
   -.425E+01 -.470E+01 -.228E+04   0.489E+01 0.508E+01 0.228E+04   -.639E+00 -.389E+00 -.104E+00   0.452E-02 0.274E-02 0.240E-02
   0.190E+00 -.195E+02 -.228E+04   -.265E-01 0.204E+02 0.228E+04   -.159E+00 -.977E+00 0.235E+00   -.404E-02 -.127E-02 -.193E-02
   0.115E+02 -.436E+01 0.224E+04   -.122E+02 0.404E+01 -.224E+04   0.748E+00 0.324E+00 -.137E+00   -.462E-03 -.905E-03 0.457E-03
   -.801E+00 0.629E+00 -.169E+02   0.105E+01 -.503E+00 0.157E+02   -.245E+00 -.117E+00 0.115E+01   0.171E-02 0.262E-02 -.377E-03
   -.113E+02 0.817E+00 -.223E+04   0.122E+02 -.685E+00 0.223E+04   -.812E+00 -.130E+00 0.354E+00   -.631E-03 0.803E-03 -.219E-02
   0.147E+02 -.157E+01 0.227E+04   -.158E+02 0.233E+01 -.227E+04   0.110E+01 -.761E+00 0.332E-02   0.114E-02 -.180E-02 0.188E-02
   0.108E+01 -.655E+01 0.228E+04   -.709E+00 0.652E+01 -.228E+04   -.359E+00 0.235E-01 0.503E-01   0.128E-03 0.107E-02 0.168E-03
   0.638E+01 0.167E+01 -.225E+04   -.724E+01 -.150E+01 0.225E+04   0.842E+00 -.166E+00 0.221E+00   0.671E-02 -.248E-02 0.211E-02
   0.144E+02 -.743E+01 0.181E+02   -.140E+02 0.714E+01 -.174E+02   -.344E+00 0.298E+00 -.692E+00   0.150E-02 -.207E-02 0.566E-02
   -.780E+01 0.128E+02 -.227E+04   0.770E+01 -.132E+02 0.227E+04   0.938E-01 0.438E+00 0.514E-01   0.413E-02 -.167E-02 0.768E-03
   0.115E+02 0.910E+01 -.198E+04   -.118E+02 -.937E+01 0.198E+04   0.273E+00 0.268E+00 0.144E+01   0.212E-02 0.169E-02 0.107E-02
   0.591E+01 0.608E+01 0.262E+02   -.567E+01 -.638E+01 -.258E+02   -.243E+00 0.297E+00 -.376E+00   -.295E-02 0.880E-04 0.733E-02
   -.259E+01 0.210E+00 0.197E+04   0.249E+01 -.421E+00 -.197E+04   0.102E+00 0.206E+00 -.131E+01   0.158E-02 0.277E-02 0.155E-02
   0.625E+01 -.649E+01 -.198E+04   -.634E+01 0.637E+01 0.198E+04   0.949E-01 0.119E+00 0.173E+01   -.243E-02 -.338E-02 0.141E-02
   -.910E+01 0.152E+01 -.149E+02   0.860E+01 -.157E+01 0.146E+02   0.495E+00 0.432E-01 0.377E+00   0.232E-02 -.475E-03 0.113E-02
   0.734E+01 0.405E+01 0.198E+04   -.745E+01 -.416E+01 -.198E+04   0.116E+00 0.103E+00 -.169E+01   0.574E-03 -.160E-03 0.439E-03
   0.518E+01 -.167E+02 -.196E+04   -.531E+01 0.173E+02 0.195E+04   0.143E+00 -.538E+00 0.170E+01   -.913E-03 0.364E-02 0.810E-03
   0.113E+02 -.262E+01 0.195E+04   -.118E+02 0.284E+01 -.195E+04   0.406E+00 -.207E+00 -.192E+01   0.174E-02 -.223E-02 0.140E-02
   -.213E+01 -.864E+01 0.197E+04   0.213E+01 0.915E+01 -.197E+04   -.119E-01 -.503E+00 -.165E+01   0.561E-03 -.235E-02 0.321E-02
   0.354E+00 0.618E+01 0.197E+04   -.358E+00 -.646E+01 -.197E+04   0.301E-02 0.285E+00 -.161E+01   -.573E-03 0.127E-02 0.351E-03
   -.156E+02 0.293E+00 -.198E+04   0.163E+02 -.527E+00 0.198E+04   -.756E+00 0.244E+00 0.156E+01   0.268E-02 -.303E-02 -.607E-03
   0.231E+01 0.851E+01 -.200E+04   -.234E+01 -.879E+01 0.200E+04   0.336E-01 0.278E+00 0.170E+01   -.441E-02 -.280E-03 0.530E-03
   -.552E+01 -.123E+02 0.553E+01   0.516E+01 0.123E+02 -.554E+01   0.364E+00 -.634E-01 0.769E-02   -.999E-03 0.211E-02 -.431E-03
   -.120E+01 0.766E+01 -.238E+02   0.137E+01 -.716E+01 0.234E+02   -.174E+00 -.499E+00 0.414E+00   -.600E-03 -.248E-02 0.249E-02
   0.263E+01 -.529E+01 -.199E+04   -.276E+01 0.532E+01 0.199E+04   0.135E+00 -.304E-01 0.179E+01   -.654E-02 -.346E-02 0.516E-03
   -.153E-01 0.147E+02 0.201E+04   -.114E+00 -.149E+02 -.201E+04   0.129E+00 0.268E+00 -.159E+01   -.310E-03 0.208E-02 -.246E-03
   0.826E+00 0.657E+01 -.299E+02   -.559E+00 -.680E+01 0.294E+02   -.270E+00 0.232E+00 0.448E+00   -.250E-02 -.182E-02 0.390E-02
   -.105E+02 0.409E+01 0.520E+01   0.990E+01 -.410E+01 -.525E+01   0.629E+00 -.151E-02 0.558E-01   0.170E-02 -.251E-02 0.749E-03
   0.339E+00 -.703E+01 -.198E+04   -.752E+00 0.742E+01 0.197E+04   0.406E+00 -.385E+00 0.181E+01   0.947E-04 -.237E-02 0.750E-03
   -.138E+02 0.174E+01 0.201E+04   0.143E+02 -.198E+01 -.201E+04   -.576E+00 0.245E+00 -.157E+01   -.181E-02 0.129E-02 0.926E-03
   -.847E+01 0.123E+02 -.199E+04   0.883E+01 -.126E+02 0.199E+04   -.365E+00 0.288E+00 0.149E+01   -.182E-02 -.357E-02 -.704E-03
   0.409E+01 -.961E+01 0.558E+01   -.376E+01 0.967E+01 -.553E+01   -.336E+00 -.449E-01 -.445E-01   -.111E-02 0.264E-03 0.183E-02
   -.167E+02 -.551E+01 0.198E+04   0.171E+02 0.595E+01 -.198E+04   -.382E+00 -.445E+00 -.181E+01   -.141E-02 -.155E-02 0.243E-02
   0.591E+01 0.502E+01 0.206E+02   -.571E+01 -.486E+01 -.201E+02   -.202E+00 -.145E+00 -.475E+00   0.709E-03 0.220E-02 0.265E-02
 -----------------------------------------------------------------------------------------------
   -.334E-01 -.580E-01 -.210E+00   -.352E-12 -.835E-13 -.159E-11   0.111E-02 0.484E-01 0.716E-01   -.746E-03 0.837E-03 0.709E-01
 
 
 POSITION                                       TOTAL-FORCE (eV/Angst)
 -----------------------------------------------------------------------------------
      1.35910      0.82381      9.69623        -0.007736     -0.005057     -0.010381
     10.98731      4.77311     14.90015        -0.004540      0.002179     -0.004688
     11.00285      6.36965     12.26495        -0.005988     -0.008395      0.004490
      9.62299      3.95989     12.23908        -0.002976      0.006747      0.007958
      8.26842      1.56539     12.22836        -0.007193      0.003193      0.005943
      8.24685      4.75306     14.72352         0.006055     -0.012016      0.005403
      9.65280      5.56718      9.69516         0.001467      0.008726      0.003316
      8.24063      3.14737      9.66916         0.003552      0.000871      0.004321
      5.51391      1.57798     12.23860         0.002024     -0.001553     -0.009397
      6.88246      8.72156     12.24154        -0.000084     -0.006302     -0.010516
      8.28271      7.96728      9.71394         0.008120     -0.004989     -0.009030
      5.49959      4.72943     14.74856        -0.009263     -0.004722     -0.004482
      5.49363      6.33703     12.26359        -0.001085      0.010159     -0.006909
      6.87126      5.54845      9.75486        -0.003533      0.003602     -0.009104
      6.89212      7.15671     14.79391         0.001357     -0.005839     -0.010485
     12.37803      7.18750     14.79715         0.000695      0.007429      0.010387
      4.09289      5.56882      9.75064         0.014072     -0.000680      0.005386
     12.39373      3.97067     12.24828         0.003410      0.011419      0.002350
      2.76033      4.76543     14.74541         0.011476      0.003281      0.014973
      5.46301      7.96820      9.70204        -0.003734     -0.003200      0.002388
      2.75324      3.18697      9.69921         0.010470     -0.006149      0.000895
     -0.02501      0.00112     14.74210        -0.008163      0.001340     -0.002491
      2.76388      1.58057     12.23072        -0.003952      0.002654      0.003266
      1.37619      2.36443     14.79793         0.002784     -0.006385     -0.004539
      9.61115      2.37627     14.63221        -0.005476     -0.001269      0.007284
      9.63525      8.71795     12.21457        -0.000815     -0.006631     -0.002538
     10.99416      3.18459      9.86734        -0.002001     -0.001755     -0.003588
      8.24376      0.00777     14.60662         0.000797     -0.004127      0.014011
     11.01267      1.56788     12.26395         0.002395     -0.006373     -0.006387
      9.61174      0.80079      9.86677         0.001499      0.001573      0.000331
      9.62718      7.16337     14.60547         0.008192      0.003579      0.005217
     13.72571      7.96557      9.92360        -0.003560      0.001983     -0.007713
     12.37279      5.58727      9.88594        -0.005417      0.003328      0.004663
      5.49761      3.16338      9.86832        -0.000396      0.006916     -0.014795
      2.76979     -0.00722     14.61235         0.007053      0.006966      0.002578
      6.87902      2.34353     14.62514         0.004420      0.003681     -0.003328
      6.87529      3.96715     12.24113         0.001473     -0.008128     -0.007543
     13.76002      6.36666     12.27245        -0.001474     -0.004467      0.008763
      5.48097      0.00684     14.61016        -0.000714     -0.003134     -0.000270
      6.86570      0.78282      9.86041        -0.000229      0.001476     -0.006665
     12.39159      8.71215     12.27971        -0.005479      0.001284     -0.001063
     15.12968      8.72581     12.24134         0.011729     -0.007015      0.004957
      4.11767      7.15844     14.63617        -0.005529     -0.001870      0.009764
      4.15604      0.80054      9.83341         0.001983      0.002399     -0.003376
      4.13725      2.35981     14.62284        -0.008799     -0.000888      0.000528
      4.13603      3.97518     12.24175        -0.006204      0.008360      0.005230
     11.02826      7.96124      9.88315        -0.000965     -0.000493     -0.000854
      8.25292      6.34794     12.22293         0.000280      0.008291      0.005742
 -----------------------------------------------------------------------------------
    total drift:                               -0.033017     -0.008775     -0.066990


--------------------------------------------------------------------------------------------------------



  FREE ENERGIE OF THE ION-ELECTRON SYSTEM (eV)
  ---------------------------------------------------
  free  energy   TOTEN  =      -192.19247960 eV

  energy  without entropy=     -191.93738674  energy(sigma->0) =     -192.06493317
 
 d Force = 0.8175624E-03[ 0.418E-03, 0.122E-02]  d Energy = 0.8845470E-03-0.670E-04
 d Force =-0.3392414E+01[-0.330E+01,-0.349E+01]  d Ewald  =-0.3392412E+01-0.201E-05


--------------------------------------------------------------------------------------------------------


    POTLOK:  cpu time    0.0585: real time    0.0585


--------------------------------------------------------------------------------------------------------


 stress matrix after NEB project (eV)
      0.00000      0.00000      0.00000
      0.00000      0.00000      0.00000
      0.00000      0.00000      0.00000
  FORCES: max atom, RMS     0.019148    0.010451
  FORCE total and by dimension    0.072406    0.014973
  Stress total and by dimension    0.000000    0.000000
 Conjugate gradient step on ions:
 trial-energy change:   -0.000885  1 .order   -0.000818   -0.001218   -0.000418
  (g-gl).g = 0.403E-03      g.g   = 0.374E-03  gl.gl    = 0.573E-03
 g(Force)  = 0.374E-03   g(Stress)= 0.000E+00 ortho     = 0.573E-04
 gamma     =   0.70344
 trial     =   2.93512
 opt step  =   3.85804  (harmonic =   4.46758) maximal distance =0.00636059
 next E    =  -192.192547   (d E  =  -0.00095)


--------------------------------------------------------------------------------------------------------


  
 reached required accuracy - stopping structural energy minimisation
     LOOP+:  cpu time   84.0235: real time   84.2898
    4ORBIT:  cpu time    0.0000: real time    0.0000

 total amount of memory used by VASP on root node    84353. kBytes
========================================================================

   base      :      30000. kBytes
   nonlr-proj:       4285. kBytes
   fftplans  :       4447. kBytes
   grid      :       6721. kBytes
   one-center:        124. kBytes
   wavefun   :      38776. kBytes
 
  
  
 General timing and accounting informations for this job:
 ========================================================
  
                  Total CPU time used (sec):     2034.309
                            User time (sec):     1953.616
                          System time (sec):       80.693
                         Elapsed time (sec):     2046.629
  
                   Maximum memory used (kb):      839732.
                   Average memory used (kb):           0.
  
                          Minor page faults:       630286
                          Major page faults:            2
                 Voluntary context switches:         9487
