unknown system                          
           1
    11.002582    0.000000    0.000000
     5.501291    9.528515    0.000000
     0.000000    0.000000   24.491785
   Au   Pd
  24  24
Direct configuration=     1
   0.08333333  0.08333333  0.40830017
   0.75000000  0.50000000  0.59169983
   0.66666667  0.66666667  0.50000000
   0.66666667  0.41666667  0.50000000
   0.66666667  0.16666667  0.50000000
   0.50000000  0.50000000  0.59169983
   0.58333333  0.58333333  0.40830017
   0.58333333  0.33333333  0.40830017
   0.41666667  0.16666667  0.50000000
   0.16666667  0.91666667  0.50000000
   0.33333333  0.83333333  0.40830017
   0.25000000  0.50000000  0.59169983
   0.16666667  0.66666667  0.50000000
   0.33333333  0.58333333  0.40830017
   0.25000000  0.75000000  0.59169983
   0.75000000  0.75000000  0.59169983
   0.08333333  0.58333333  0.40830017
   0.91666667  0.41666667  0.50000000
   0.00000000  0.50000000  0.59169983
   0.08333333  0.83333333  0.40830017
   0.08333333  0.33333333  0.40830017
   0.00000000  0.00000000  0.59169983
   0.16666667  0.16666667  0.50000000
   0.00000000  0.25000000  0.59169983
   0.75000000  0.25000000  0.59169983
   0.41666667  0.91666667  0.50000000
   0.83333333  0.33333333  0.40830017
   0.75000000  0.00000000  0.59169983
   0.91666667  0.16666667  0.50000000
   0.83333333  0.08333333  0.40830017
   0.50000000  0.75000000  0.59169983
   0.83333333  0.83333333  0.40830017
   0.83333333  0.58333333  0.40830017
   0.33333333  0.33333333  0.40830017
   0.25000000  0.00000000  0.59169983
   0.50000000  0.25000000  0.59169983
   0.41666667  0.41666667  0.50000000
   0.91666667  0.66666667  0.50000000
   0.50000000  0.00000000  0.59169983
   0.58333333  0.08333333  0.40830017
   0.66666667  0.91666667  0.50000000
   0.91666667  0.91666667  0.50000000
   0.00000000  0.75000000  0.59169983
   0.33333333  0.08333333  0.40830017
   0.25000000  0.25000000  0.59169983
   0.16666667  0.41666667  0.50000000
   0.58333333  0.83333333  0.40830017
   0.41666667  0.66666667  0.50000000
Direct configuration=     2
   0.08198756  0.08433991  0.40607765
   0.74918649  0.50007038  0.59429734
   0.66535103  0.66931365  0.49957571
   0.66701972  0.41529215  0.49999315
   0.66780495  0.16503191  0.50030601
   0.50004994  0.49957712  0.59359876
   0.58417265  0.58370888  0.40610733
   0.58357821  0.33210547  0.40611746
   0.41682153  0.16658171  0.50003445
   0.16707988  0.91705635  0.50042279
   0.33472289  0.83384465  0.40637847
   0.25030658  0.49869874  0.59354757
   0.16579645  0.66613674  0.50031999
   0.33393104  0.58216065  0.40638340
   0.25064362  0.75052262  0.59385268
   0.74940637  0.75194010  0.59353473
   0.08234511  0.58300680  0.40642230
   0.91683061  0.41695996  0.49922888
   0.00109289  0.50022141  0.59363693
   0.08111653  0.83441053  0.40611458
   0.08350479  0.33373529  0.40615415
  -0.00126758  0.00028062  0.59354286
   0.16835792  0.16593434  0.50037587
   0.00053117  0.24894819  0.59390969
   0.74972819  0.24931114  0.59289250
   0.41771987  0.91628291  0.50023165
   0.83344090  0.33306807  0.40708217
   0.74974303  0.00005235  0.59251790
   0.91564574  0.16639825  0.49982234
   0.83312844  0.08306317  0.40734430
   0.49925865  0.75126518  0.59269331
   0.83217386  0.83394315  0.40760511
   0.83303670  0.58412544  0.40717833
   0.33374829  0.33253827  0.40726470
   0.25131639 -0.00028890  0.59284696
   0.50041194  0.24911081  0.59283012
   0.41613871  0.41619487  0.50003740
   0.91625065  0.66799021  0.49970172
   0.49961994  0.00019436  0.59258885
   0.58340910  0.08258564  0.40725528
   0.66709994  0.91654121  0.49976059
   0.91496408  0.91696795  0.49997389
  -0.00107290  0.75078343  0.59269958
   0.33476674  0.08295212  0.40717079
   0.25094347  0.24937205  0.59284784
   0.16753293  0.41644869  0.50002302
   0.58374547  0.83411274  0.40745613
   0.41687952  0.66710873  0.50024276
Direct configuration=     3
   0.07795025  0.08735963  0.39941010
   0.74674598  0.50028151  0.60208987
   0.66140413  0.67725460  0.49830284
   0.66807890  0.41116862  0.49997261
   0.67121981  0.16012765  0.50122405
   0.50019974  0.49830848  0.59929556
   0.58669059  0.58483551  0.39952879
   0.58431283  0.32842190  0.39956935
   0.41728613  0.16632683  0.50013779
   0.16831951  0.91822541  0.50169118
   0.33889157  0.83537861  0.40061336
   0.25122633  0.49479495  0.59909080
   0.16318580  0.66454695  0.50127996
   0.33572418  0.57864259  0.40063309
   0.25257447  0.75209049  0.60031123
   0.74762547  0.75776042  0.59903942
   0.07938046  0.58202720  0.40078869
   0.91732243  0.41783986  0.49691553
   0.00437154  0.50088564  0.59944822
   0.07446610  0.83764213  0.39955779
   0.08401914  0.33494116  0.39971610
  -0.00507034  0.00112247  0.59907196
   0.17343169  0.16373735  0.50150350
   0.00212467  0.24579276  0.60053925
   0.74891274  0.24724456  0.59647050
   0.42087947  0.91513163  0.50092660
   0.83376360  0.33227226  0.40342818
   0.74897211  0.00020938  0.59497209
   0.91258296  0.16559299  0.49928936
   0.83251374  0.08225267  0.40447669
   0.49703458  0.75506071  0.59567376
   0.82869544  0.83577261  0.40551992
   0.83214682  0.58650176  0.40381280
   0.33499317  0.33015310  0.40415828
   0.25526557 -0.00115560  0.59628834
   0.50164777  0.24644326  0.59622098
   0.41455484  0.41477947  0.50014961
   0.91500259  0.67196084  0.49880688
   0.49847974  0.00077743  0.59525591
   0.58363640  0.08034256  0.40412061
   0.66839977  0.91616485  0.49904237
   0.90985632  0.91787178  0.49989555
  -0.00429159  0.75313372  0.59569882
   0.33906697  0.08180850  0.40378266
   0.25377389  0.24748819  0.59629188
   0.17013171  0.41579477  0.50009210
   0.58498188  0.83645096  0.40492403
   0.41751809  0.66843490  0.50097104
Direct configuration=     4
   0.07996949  0.08640871  0.39834749
   0.74798148  0.50103470  0.60319902
   0.66429433  0.67208579  0.49901391
   0.66632100  0.41417513  0.49989076
   0.66786422  0.16285109  0.50075408
   0.49979289  0.49829036  0.60033123
   0.58684318  0.58369487  0.39829229
   0.58496790  0.32812901  0.39828471
   0.41918647  0.16575115  0.50004343
   0.16698153  0.91730395  0.50117091
   0.33665803  0.83564426  0.39960971
   0.25232070  0.49585078  0.60051245
   0.16441133  0.66636150  0.50101194
   0.33447164  0.58055313  0.39984253
   0.25130308  0.75177700  0.60170867
   0.74754767  0.75582542  0.60027337
   0.08028458  0.58307926  0.39952409
   0.91743368  0.41814701  0.49770710
   0.00170974  0.50061254  0.60026275
   0.07693482  0.83599979  0.39860528
   0.08493798  0.33300582  0.39829975
  -0.00382102  0.00027399  0.60023356
   0.17011628  0.16520642  0.50104361
   0.00169037  0.24705810  0.60153384
   0.74847691  0.24799294  0.59743644
   0.41938739  0.91638774  0.50056818
   0.83255133  0.33320884  0.40245785
   0.74804747  0.00091077  0.59613596
   0.91640520  0.16442909  0.49955642
   0.83095321  0.08318583  0.40355622
   0.49899855  0.75361536  0.59653553
   0.82860753  0.83571554  0.40446429
   0.83148968  0.58676159  0.40278294
   0.33499557  0.32984274  0.40339991
   0.25419713 -0.00055056  0.59747110
   0.50208129  0.24594253  0.59707949
   0.41600521  0.41547239  0.50012758
   0.91499671  0.67002174  0.49922339
   0.49847647  0.00149927  0.59604800
   0.58369100  0.08107356  0.40328826
   0.66747139  0.91694078  0.49945018
   0.91402540  0.91620642  0.49985599
  -0.00288611  0.75280079  0.59653203
   0.33771807  0.08271611  0.40301666
   0.25363058  0.24709890  0.59733727
   0.16812867  0.41614855  0.49998746
   0.58523842  0.83657280  0.40359828
   0.41711155  0.66688651  0.50059408
Direct configuration=     5
   0.08088871  0.08597582  0.39786375
   0.74854392  0.50137757  0.60370394
   0.66561003  0.66973279  0.49933761
   0.66552076  0.41554378  0.49985350
   0.66633666  0.16409088  0.50054013
   0.49960767  0.49828211  0.60080270
   0.58691265  0.58317561  0.39772939
   0.58526610  0.32799567  0.39769991
   0.42005156  0.16548908  0.50000047
   0.16637244  0.91688448  0.50093406
   0.33564126  0.83576520  0.39915282
   0.25281889  0.49633142  0.60115963
   0.16496923  0.66718753  0.50088993
   0.33390145  0.58142287  0.39948265
   0.25072431  0.75163429  0.60234482
   0.74751226  0.75494455  0.60083511
   0.08069616  0.58355819  0.39894841
   0.91748432  0.41828683  0.49806744
   0.00049800  0.50048822  0.60063354
   0.07805866  0.83525215  0.39817167
   0.08535626  0.33212480  0.39765499
  -0.00325229 -0.00011226  0.60076236
   0.16860700  0.16587518  0.50083425
   0.00149266  0.24763411  0.60198661
   0.74827851  0.24833362  0.59787617
   0.41870815  0.91695956  0.50040501
   0.83199947  0.33363520  0.40201612
   0.74762654  0.00123006  0.59666579
   0.91814520  0.16389924  0.49967799
   0.83024281  0.08361063  0.40313719
   0.49989261  0.75295740  0.59692783
   0.82856751  0.83568955  0.40398374
   0.83119054  0.58687988  0.40231412
   0.33499666  0.32970146  0.40305468
   0.25371075 -0.00027513  0.59800953
   0.50227864  0.24571459  0.59747031
   0.41666546  0.41578783  0.50011756
   0.91499404  0.66913901  0.49941300
   0.49847498  0.00182788  0.59640858
   0.58371586  0.08140634  0.40290936
   0.66704876  0.91729400  0.49963583
   0.91592329  0.91544829  0.49983798
  -0.00224629  0.75264923  0.59691133
   0.33710401  0.08312928  0.40266795
   0.25356534  0.24692169  0.59781316
   0.16721682  0.41630961  0.49993983
   0.58535521  0.83662827  0.40299476
   0.41692648  0.66618163  0.50042248
Direct configuration=     6
   0.08113210  0.08535684  0.39742282
   0.74864465  0.50100787  0.60426777
   0.66541495  0.66880800  0.49961782
   0.66626149  0.41563418  0.49987740
   0.66825176  0.16492844  0.50029794
   0.50024053  0.49859459  0.60121512
   0.58584592  0.58345396  0.39719768
   0.58445455  0.32924267  0.39706217
   0.41784111  0.16639858  0.49998278
   0.16718693  0.91619805  0.50071173
   0.33524611  0.83543219  0.39883437
   0.25182972  0.49670855  0.60160806
   0.16602118  0.66609247  0.50075077
   0.33404827  0.58169124  0.39924005
   0.25081702  0.75158709  0.60295307
   0.74784635  0.75451699  0.60137915
   0.08097846  0.58336908  0.39852363
   0.91739618  0.41751193  0.49839603
   0.00067393  0.50037327  0.60090536
   0.07869667  0.83540556  0.39771827
   0.08487184  0.33250487  0.39707918
  -0.00282190  0.00026477  0.60126907
   0.16790879  0.16632791  0.50063256
   0.00099853  0.24807434  0.60238088
   0.74853701  0.24892500  0.59798044
   0.41809234  0.91624611  0.50008242
   0.83232263  0.33358017  0.40187401
   0.74793360  0.00105910  0.59698822
   0.91785324  0.16468851  0.49988503
   0.83093692  0.08326914  0.40293657
   0.49993109  0.75222229  0.59705130
   0.82927908  0.83551441  0.40367239
   0.83163004  0.58640660  0.40193706
   0.33473972  0.33049796  0.40287876
   0.25301666 -0.00044892  0.59827237
   0.50211694  0.24596200  0.59790334
   0.41593153  0.41688689  0.50004711
   0.91556010  0.66863580  0.49969083
   0.49846672  0.00169392  0.59681539
   0.58348096  0.08176393  0.40243043
   0.66803355  0.91567977  0.49995952
   0.91614740  0.91589816  0.49978302
  -0.00172610  0.75169420  0.59719896
   0.33660258  0.08314142  0.40243914
   0.25296642  0.24759536  0.59801463
   0.16706831  0.41700710  0.49997085
   0.58478688  0.83604313  0.40264938
   0.41650722  0.66655449  0.50021514
Direct configuration=     7
   0.08121966  0.08513417  0.39726420
   0.74868088  0.50087487  0.60447059
   0.66534477  0.66847532  0.49971863
   0.66652795  0.41566670  0.49988599
   0.66894068  0.16522974  0.50021082
   0.50046819  0.49870700  0.60136347
   0.58546218  0.58355410  0.39700640
   0.58416261  0.32969126  0.39683275
   0.41704593  0.16672576  0.49997641
   0.16747992  0.91595112  0.50063175
   0.33510396  0.83531239  0.39871982
   0.25147389  0.49684422  0.60176937
   0.16639961  0.66569854  0.50070071
   0.33410109  0.58178778  0.39915279
   0.25085037  0.75157012  0.60317188
   0.74796654  0.75436318  0.60157487
   0.08108001  0.58330105  0.39837083
   0.91736448  0.41723317  0.49851424
   0.00073722  0.50033192  0.60100314
   0.07892619  0.83546074  0.39755516
   0.08469758  0.33264159  0.39687204
  -0.00266707  0.00040040  0.60145135
   0.16765763  0.16649078  0.50056000
   0.00082077  0.24823270  0.60252271
   0.74863000  0.24913774  0.59801795
   0.41787082  0.91598945  0.49996637
   0.83243888  0.33356038  0.40182289
   0.74804406  0.00099761  0.59710421
   0.91774822  0.16497244  0.49995950
   0.83118662  0.08314630  0.40286441
   0.49994493  0.75195785  0.59709571
   0.82953506  0.83545141  0.40356038
   0.83178815  0.58623634  0.40180142
   0.33464729  0.33078449  0.40281548
   0.25276698 -0.00051143  0.59836692
   0.50205877  0.24605100  0.59805911
   0.41566750  0.41728226  0.50002176
   0.91576373  0.66845478  0.49979077
   0.49846376  0.00164573  0.59696173
   0.58339646  0.08189257  0.40225814
   0.66838782  0.91509908  0.50007596
   0.91622802  0.91606000  0.49976325
  -0.00153897  0.75135065  0.59730244
   0.33642220  0.08314578  0.40235684
   0.25275097  0.24783770  0.59808710
   0.16701488  0.41725801  0.49998201
   0.58458243  0.83583264  0.40252514
   0.41635640  0.66668861  0.50014056
Direct configuration=     8
   0.08085810  0.08539678  0.39703921
   0.74867823  0.50073378  0.60492435
   0.66489114  0.66905775  0.49966603
   0.66652668  0.41568083  0.49984293
   0.66888023  0.16477459  0.50012284
   0.50030878  0.49878963  0.60147171
   0.58539343  0.58379906  0.39675389
   0.58406319  0.32995915  0.39652072
   0.41751750  0.16660404  0.50001758
   0.16755156  0.91606712  0.50066038
   0.33527996  0.83524452  0.39848144
   0.25140645  0.49682668  0.60193641
   0.16612593  0.66546359  0.50070597
   0.33398899  0.58174233  0.39898312
   0.25104700  0.75138696  0.60345162
   0.74804785  0.75448953  0.60187977
   0.08096051  0.58322446  0.39822839
   0.91755556  0.41713808  0.49854929
   0.00102974  0.50023170  0.60113596
   0.07875642  0.83556050  0.39731669
   0.08427790  0.33309592  0.39661714
  -0.00270954  0.00043117  0.60161110
   0.16775747  0.16625446  0.50052688
   0.00088316  0.24820557  0.60277278
   0.74876525  0.24914303  0.59798247
   0.41812816  0.91550998  0.49984527
   0.83272967  0.33338813  0.40188344
   0.74847533  0.00090526  0.59701707
   0.91782352  0.16495893  0.50006953
   0.83152899  0.08313974  0.40283542
   0.49954544  0.75210900  0.59700338
   0.82978995  0.83536471  0.40362196
   0.83185703  0.58603391  0.40186238
   0.33440931  0.33124474  0.40281310
   0.25267432 -0.00056090  0.59825051
   0.50195878  0.24635330  0.59800417
   0.41587796  0.41698241  0.50009636
   0.91606194  0.66842909  0.49984760
   0.49827323  0.00140901  0.59699203
   0.58324356  0.08191716  0.40230698
   0.66845578  0.91510257  0.50017143
   0.91615259  0.91613623  0.49978846
  -0.00152398  0.75131358  0.59732111
   0.33637875  0.08309276  0.40229245
   0.25244200  0.24796870  0.59805595
   0.16684116  0.41764432  0.49998547
   0.58448748  0.83545119  0.40263381
   0.41654750  0.66680494  0.50010343
Direct configuration=     9
   0.08057436  0.08560288  0.39686264
   0.74867615  0.50062305  0.60528045
   0.66453514  0.66951483  0.49962475
   0.66652569  0.41569192  0.49980914
   0.66883280  0.16441738  0.50005379
   0.50018368  0.49885448  0.60155666
   0.58533948  0.58399132  0.39655571
   0.58398516  0.33016939  0.39627584
   0.41788758  0.16650852  0.50004990
   0.16760778  0.91615816  0.50068285
   0.33541809  0.83519126  0.39829436
   0.25135353  0.49681291  0.60206749
   0.16591114  0.66527920  0.50071010
   0.33390101  0.58170667  0.39884997
   0.25120132  0.75124321  0.60367117
   0.74811167  0.75458868  0.60211907
   0.08086672  0.58316435  0.39811661
   0.91770553  0.41706346  0.49857679
   0.00125932  0.50015305  0.60124020
   0.07862319  0.83563880  0.39712954
   0.08394853  0.33345248  0.39641710
  -0.00274286  0.00045532  0.60173646
   0.16783583  0.16606901  0.50050089
   0.00093212  0.24818428  0.60296904
   0.74887139  0.24914717  0.59795461
   0.41833012  0.91513370  0.49975023
   0.83295788  0.33325294  0.40193096
   0.74881379  0.00083279  0.59694869
   0.91788261  0.16494834  0.50015587
   0.83179769  0.08313460  0.40281268
   0.49923193  0.75222762  0.59693091
   0.82998999  0.83529667  0.40367028
   0.83191110  0.58587504  0.40191022
   0.33422254  0.33160594  0.40281124
   0.25260161 -0.00059973  0.59815915
   0.50188031  0.24659055  0.59796105
   0.41604312  0.41674708  0.50015491
   0.91629598  0.66840893  0.49989219
   0.49812370  0.00122323  0.59701580
   0.58312357  0.08193646  0.40234532
   0.66850913  0.91510531  0.50024635
   0.91609338  0.91619606  0.49980824
  -0.00151222  0.75128449  0.59733577
   0.33634465  0.08305115  0.40224192
   0.25219953  0.24807152  0.59803151
   0.16670483  0.41794749  0.49998819
   0.58441296  0.83515182  0.40271910
   0.41669748  0.66689623  0.50007430
Direct configuration=    10
   0.08058559  0.08575688  0.39659283
   0.74856434  0.50083373  0.60583561
   0.66503756  0.66945779  0.49964734
   0.66649256  0.41565846  0.49974017
   0.66879986  0.16419156  0.49990756
   0.50011846  0.49883058  0.60162185
   0.58556159  0.58382081  0.39623887
   0.58421944  0.33014649  0.39591353
   0.41805321  0.16620956  0.50009538
   0.16754341  0.91587104  0.50068477
   0.33511661  0.83537978  0.39796638
   0.25150472  0.49676548  0.60225595
   0.16600118  0.66559757  0.50069876
   0.33363654  0.58189503  0.39867561
   0.25106490  0.75114492  0.60398733
   0.74806251  0.75459049  0.60247995
   0.08063188  0.58336726  0.39793934
   0.91763951  0.41737066  0.49867545
   0.00113557  0.50018270  0.60141665
   0.07868875  0.83557351  0.39687452
   0.08387558  0.33353815  0.39613099
  -0.00258299  0.00026037  0.60190181
   0.16839010  0.16595428  0.50039658
   0.00104723  0.24814326  0.60330940
   0.74883837  0.24917344  0.59783707
   0.41832603  0.91532981  0.49960105
   0.83281059  0.33338390  0.40206355
   0.74897079  0.00092629  0.59680483
   0.91785826  0.16483619  0.50029676
   0.83170010  0.08341046  0.40282984
   0.49915795  0.75223883  0.59680903
   0.82986687  0.83529499  0.40384408
   0.83176885  0.58583791  0.40210080
   0.33400957  0.33173027  0.40286697
   0.25246400 -0.00058152  0.59795141
   0.50192627  0.24661179  0.59783687
   0.41636825  0.41654022  0.50024925
   0.91599453  0.66851490  0.49996099
   0.49794443  0.00111720  0.59697358
   0.58301945  0.08191372  0.40246258
   0.66862071  0.91504375  0.50037422
   0.91633715  0.91611055  0.49982224
  -0.00141034  0.75138497  0.59736223
   0.33611810  0.08330394  0.40223175
   0.25212548  0.24796584  0.59788666
   0.16683535  0.41764526  0.49997183
   0.58463495  0.83503566  0.40287485
   0.41652618  0.66669129  0.50000091
Direct configuration=    11
   0.08059204  0.08584537  0.39643778
   0.74850008  0.50095479  0.60615463
   0.66532629  0.66942501  0.49966032
   0.66647352  0.41563923  0.49970053
   0.66878094  0.16406178  0.49982353
   0.50008099  0.49881684  0.60165931
   0.58568923  0.58372282  0.39605679
   0.58435406  0.33013333  0.39570533
   0.41814839  0.16603776  0.50012152
   0.16750642  0.91570604  0.50068588
   0.33494336  0.83548812  0.39777790
   0.25159160  0.49673823  0.60236424
   0.16605292  0.66578052  0.50069225
   0.33348455  0.58200327  0.39857541
   0.25098651  0.75108843  0.60416902
   0.74803426  0.75459153  0.60268734
   0.08049692  0.58348387  0.39783747
   0.91760158  0.41754719  0.49873214
   0.00106445  0.50019974  0.60151805
   0.07872643  0.83553600  0.39672798
   0.08383366  0.33358739  0.39596657
  -0.00249111  0.00014835  0.60199683
   0.16870861  0.16588836  0.50033663
   0.00111339  0.24811969  0.60350499
   0.74881939  0.24918853  0.59776952
   0.41832368  0.91544251  0.49951533
   0.83272594  0.33345916  0.40213974
   0.74906101  0.00098002  0.59672215
   0.91784427  0.16477174  0.50037773
   0.83164403  0.08356899  0.40283971
   0.49911543  0.75224527  0.59673899
   0.82979612  0.83529403  0.40394396
   0.83168711  0.58581658  0.40221032
   0.33388718  0.33180171  0.40289899
   0.25238492 -0.00057106  0.59783203
   0.50195269  0.24662400  0.59776552
   0.41655508  0.41642134  0.50030346
   0.91582131  0.66857579  0.50000052
   0.49784141  0.00105627  0.59694932
   0.58295962  0.08190064  0.40252997
   0.66868484  0.91500837  0.50044771
   0.91647724  0.91606141  0.49983029
  -0.00135180  0.75144271  0.59737743
   0.33598791  0.08344920  0.40222590
   0.25208293  0.24790511  0.59780343
   0.16691036  0.41747158  0.49996243
   0.58476251  0.83496891  0.40296435
   0.41642774  0.66657352  0.49995874
Direct configuration=    12
   0.08071430  0.08583251  0.39628331
   0.74830922  0.50113642  0.60662479
   0.66541269  0.66895340  0.49986391
   0.66651519  0.41573501  0.49969054
   0.66890542  0.16431468  0.49965610
   0.50028655  0.49880812  0.60165336
   0.58549482  0.58372381  0.39583031
   0.58425296  0.33008630  0.39544465
   0.41812670  0.16599028  0.50010968
   0.16751247  0.91577100  0.50061013
   0.33485506  0.83563616  0.39755528
   0.25154506  0.49663849  0.60246466
   0.16627885  0.66552111  0.50068943
   0.33359869  0.58199562  0.39848503
   0.25087304  0.75111670  0.60440131
   0.74796716  0.75462281  0.60296370
   0.08023896  0.58375065  0.39774664
   0.91778436  0.41724932  0.49893179
   0.00087007  0.50034038  0.60160722
   0.07861078  0.83572280  0.39654509
   0.08385101  0.33353731  0.39580347
  -0.00235078  0.00014483  0.60210563
   0.16832203  0.16603789  0.50016694
   0.00097970  0.24818664  0.60373769
   0.74881182  0.24930252  0.59764365
   0.41826493  0.91536498  0.49933625
   0.83260748  0.33357613  0.40228777
   0.74883244  0.00108466  0.59660826
   0.91815045  0.16477097  0.50049706
   0.83152767  0.08366793  0.40288002
   0.49925874  0.75206004  0.59658707
   0.82958618  0.83545854  0.40415145
   0.83165070  0.58585588  0.40236378
   0.33397167  0.33169179  0.40299740
   0.25225631 -0.00065609  0.59762175
   0.50211050  0.24627159  0.59764893
   0.41647838  0.41646550  0.50029251
   0.91597342  0.66864690  0.50013100
   0.49792096  0.00105564  0.59689264
   0.58291203  0.08197879  0.40260951
   0.66878065  0.91487266  0.50062262
   0.91671933  0.91591535  0.49978068
  -0.00132683  0.75134637  0.59739280
   0.33587802  0.08363421  0.40218630
   0.25219966  0.24786417  0.59766618
   0.16714289  0.41735439  0.49994656
   0.58473526  0.83518922  0.40306289
   0.41660304  0.66637566  0.49982227
Direct configuration=    13
   0.08080396  0.08582308  0.39617001
   0.74816924  0.50126962  0.60696960
   0.66547607  0.66860752  0.50001323
   0.66654576  0.41580525  0.49968321
   0.66899672  0.16450015  0.49953331
   0.50043731  0.49880173  0.60164899
   0.58535225  0.58372453  0.39566421
   0.58417882  0.33005180  0.39525347
   0.41811079  0.16595546  0.50010100
   0.16751690  0.91581865  0.50055457
   0.33479030  0.83574473  0.39739201
   0.25151093  0.49656535  0.60253831
   0.16644455  0.66533086  0.50068736
   0.33368240  0.58199000  0.39841874
   0.25078981  0.75113744  0.60457166
   0.74791795  0.75464576  0.60316638
   0.08004978  0.58394632  0.39768002
   0.91791841  0.41703087  0.49907822
   0.00072751  0.50044353  0.60167261
   0.07852597  0.83585979  0.39641095
   0.08386374  0.33350057  0.39568386
  -0.00224787  0.00014225  0.60218542
   0.16803852  0.16614755  0.50004249
   0.00088165  0.24823574  0.60390835
   0.74880626  0.24938612  0.59755134
   0.41822185  0.91530811  0.49920491
   0.83252060  0.33366192  0.40239634
   0.74866481  0.00116139  0.59652474
   0.91837500  0.16477041  0.50058458
   0.83144233  0.08374049  0.40290958
   0.49936384  0.75192419  0.59647564
   0.82943221  0.83557919  0.40430363
   0.83162400  0.58588470  0.40247632
   0.33403363  0.33161117  0.40306958
   0.25216199 -0.00071845  0.59746753
   0.50222623  0.24601314  0.59756342
   0.41642213  0.41649788  0.50028448
   0.91608498  0.66869904  0.50022668
   0.49797930  0.00105518  0.59685107
   0.58287712  0.08203611  0.40266785
   0.66885091  0.91477313  0.50075090
   0.91689689  0.91580823  0.49974429
  -0.00130853  0.75127573  0.59740407
   0.33579742  0.08376989  0.40215726
   0.25228527  0.24783415  0.59756552
   0.16731342  0.41726844  0.49993493
   0.58471527  0.83535079  0.40313516
   0.41673161  0.66623054  0.49972218
Direct configuration=    14
   0.08060494  0.08588180  0.39610380
   0.74830113  0.50118746  0.60730710
   0.66550401  0.66850962  0.50015692
   0.66661216  0.41573888  0.49968183
   0.66914827  0.16469531  0.49943827
   0.50024650  0.49879801  0.60157447
   0.58519728  0.58400559  0.39560451
   0.58399386  0.33005091  0.39510165
   0.41813631  0.16584087  0.50004121
   0.16778285  0.91552065  0.50042752
   0.33497056  0.83572041  0.39726948
   0.25165009  0.49643414  0.60252957
   0.16665860  0.66515527  0.50068518
   0.33360044  0.58197611  0.39840675
   0.25097280  0.75095145  0.60460754
   0.74790627  0.75469662  0.60335416
   0.08010540  0.58396120  0.39770292
   0.91809008  0.41700406  0.49929150
   0.00069547  0.50035689  0.60168635
   0.07841114  0.83600368  0.39632536
   0.08374033  0.33375109  0.39565401
  -0.00252354  0.00020913  0.60219790
   0.16787284  0.16620976  0.49991148
   0.00083707  0.24840167  0.60402687
   0.74885652  0.24941364  0.59747657
   0.41824078  0.91503591  0.49908045
   0.83251383  0.33366055  0.40250292
   0.74880690  0.00102154  0.59645350
   0.91842981  0.16476009  0.50064704
   0.83157733  0.08371196  0.40292729
   0.49922366  0.75199552  0.59637907
   0.82938680  0.83575556  0.40447663
   0.83147407  0.58597599  0.40267017
   0.33397924  0.33175657  0.40311679
   0.25229001 -0.00071847  0.59729921
   0.50225529  0.24604618  0.59748430
   0.41640174  0.41655629  0.50023868
   0.91630495  0.66837550  0.50037182
   0.49794758  0.00093870  0.59679270
   0.58286638  0.08210783  0.40268958
   0.66884386  0.91460430  0.50092180
   0.91706655  0.91587871  0.49972962
  -0.00142100  0.75132613  0.59741898
   0.33589197  0.08374247  0.40207499
   0.25217087  0.24780939  0.59746189
   0.16718854  0.41743032  0.49991648
   0.58453643  0.83537114  0.40321910
   0.41665302  0.66638356  0.49956406
Direct configuration=    15
   0.08056063  0.08589487  0.39608906
   0.74833050  0.50116917  0.60738224
   0.66551023  0.66848783  0.50018891
   0.66662694  0.41572410  0.49968152
   0.66918201  0.16473876  0.49941712
   0.50020403  0.49879718  0.60155787
   0.58516278  0.58406817  0.39559122
   0.58395268  0.33005071  0.39506785
   0.41814199  0.16581535  0.50002789
   0.16784206  0.91545431  0.50039924
   0.33501069  0.83571499  0.39724219
   0.25168108  0.49640493  0.60252763
   0.16670626  0.66511618  0.50068469
   0.33358219  0.58197302  0.39840408
   0.25101353  0.75091005  0.60461552
   0.74790367  0.75470795  0.60339597
   0.08011779  0.58396451  0.39770802
   0.91812830  0.41699810  0.49933899
   0.00068833  0.50033760  0.60168940
   0.07838557  0.83603571  0.39630631
   0.08371285  0.33380687  0.39564737
  -0.00258491  0.00022402  0.60220068
   0.16783596  0.16622362  0.49988231
   0.00082715  0.24843861  0.60405326
   0.74886770  0.24941977  0.59745993
   0.41824500  0.91497532  0.49905274
   0.83251232  0.33366025  0.40252665
   0.74883854  0.00099040  0.59643764
   0.91844201  0.16475780  0.50066095
   0.83160738  0.08370561  0.40293123
   0.49919245  0.75201140  0.59635757
   0.82937670  0.83579483  0.40451515
   0.83144070  0.58599632  0.40271333
   0.33396714  0.33178894  0.40312730
   0.25231851 -0.00071847  0.59726173
   0.50226176  0.24605353  0.59746669
   0.41639720  0.41656930  0.50022848
   0.91635392  0.66830347  0.50040413
   0.49794051  0.00091276  0.59677971
   0.58286399  0.08212380  0.40269442
   0.66884229  0.91456671  0.50095985
   0.91710433  0.91589441  0.49972635
  -0.00144604  0.75133736  0.59742230
   0.33591302  0.08373637  0.40205668
   0.25214540  0.24780388  0.59743882
   0.16716074  0.41746636  0.49991238
   0.58449661  0.83537568  0.40323779
   0.41663553  0.66641762  0.49952885
Direct configuration=    16
   0.08045322  0.08604541  0.39605304
   0.74822344  0.50115305  0.60765786
   0.66566172  0.66842950  0.50030896
   0.66664015  0.41586520  0.49968148
   0.66915868  0.16458863  0.49938160
   0.50022688  0.49874056  0.60144802
   0.58521660  0.58409914  0.39563011
   0.58391434  0.33014294  0.39496410
   0.41823774  0.16569556  0.49995789
   0.16790343  0.91528165  0.50027351
   0.33495317  0.83576767  0.39711020
   0.25160502  0.49635940  0.60245262
   0.16666087  0.66520047  0.50069766
   0.33342130  0.58209968  0.39839754
   0.25097696  0.75097096  0.60453416
   0.74789078  0.75462395  0.60356550
   0.08010742  0.58404861  0.39779110
   0.91800039  0.41709331  0.49952081
   0.00082863  0.50030926  0.60172699
   0.07846398  0.83596776  0.39625832
   0.08356709  0.33399476  0.39569408
  -0.00259171  0.00022813  0.60214708
   0.16807216  0.16603768  0.49975458
   0.00094357  0.24829596  0.60412386
   0.74884951  0.24947213  0.59744216
   0.41820795  0.91492669  0.49896414
   0.83237522  0.33377406  0.40262824
   0.74891055  0.00092144  0.59638128
   0.91855522  0.16467100  0.50069976
   0.83164428  0.08376533  0.40291198
   0.49914635  0.75197042  0.59632656
   0.82941079  0.83584365  0.40469861
   0.83129083  0.58618149  0.40296283
   0.33382711  0.33192508  0.40312525
   0.25226014 -0.00063681  0.59709041
   0.50229043  0.24607959  0.59738207
   0.41652050  0.41649131  0.50015145
   0.91645595  0.66815669  0.50054830
   0.49787087  0.00084356  0.59671367
   0.58289742  0.08211069  0.40269650
   0.66889342  0.91450277  0.50110298
   0.91719840  0.91586612  0.49974209
  -0.00141688  0.75131341  0.59743260
   0.33589005  0.08377125  0.40194103
   0.25205658  0.24777655  0.59733724
   0.16712243  0.41748655  0.49989152
   0.58451204  0.83533785  0.40331592
   0.41669507  0.66640993  0.49938235
Direct configuration=    17
   0.08037773  0.08615121  0.39602772
   0.74814820  0.50114173  0.60785157
   0.66576819  0.66838851  0.50039334
   0.66664943  0.41596437  0.49968145