  48  48   0   0
  0.5349325E+02  0.1100258E-08  0.1100258E-08  0.2449179E-08  0.3500000E-15
  1.000000000000000E-004
  CAR 
 unknown system                          
      6.42943985     -9.74760569  301     -1.08912740      1.00000000
     -9.748  0.0000E+00  0.0000E+00
     -9.694  0.0000E+00  0.0000E+00
     -9.640  0.0000E+00  0.0000E+00
     -9.586  0.0000E+00  0.0000E+00
     -9.532  0.0000E+00  0.0000E+00
     -9.478  0.0000E+00  0.0000E+00
     -9.424  0.0000E+00  0.0000E+00
     -9.370  0.0000E+00  0.0000E+00
     -9.316  0.9608E-17  0.5181E-18
     -9.262  0.3675E-14  0.1987E-15
     -9.208  0.8195E-12  0.4439E-13
     -9.154  0.1035E-09  0.5623E-11
     -9.101  0.7408E-08  0.4051E-09
     -9.047  0.3015E-06  0.1666E-07
     -8.993  0.6988E-05  0.3935E-06
     -8.939  0.9248E-04  0.5380E-05
     -8.885  0.7005E-03  0.4315E-04
     -8.831  0.3045E-02  0.2073E-03
     -8.777  0.7622E-02  0.6184E-03
     -8.723  0.1115E-01  0.1220E-02
     -8.669  0.1039E-01  0.1780E-02
     -8.615  0.8933E-02  0.2262E-02
     -8.561  0.1040E-01  0.2822E-02
     -8.507  0.1090E-01  0.3410E-02
     -8.453  0.7288E-02  0.3803E-02
     -8.400  0.2885E-02  0.3959E-02
     -8.346  0.6784E-03  0.3995E-02
     -8.292  0.1948E-03  0.4006E-02
     -8.238  0.6188E-03  0.4039E-02
     -8.184  0.2193E-02  0.4157E-02
     -8.130  0.5264E-02  0.4441E-02
     -8.076  0.9766E-02  0.4968E-02
     -8.022  0.1581E-01  0.5821E-02
     -7.968  0.2209E-01  0.7012E-02
     -7.914  0.2452E-01  0.8334E-02
     -7.860  0.2162E-01  0.9500E-02
     -7.806  0.1722E-01  0.1043E-01
     -7.752  0.1345E-01  0.1115E-01
     -7.699  0.9217E-02  0.1165E-01
     -7.645  0.5366E-02  0.1194E-01
     -7.591  0.5018E-02  0.1221E-01
     -7.537  0.9890E-02  0.1274E-01
     -7.483  0.1688E-01  0.1365E-01
     -7.429  0.2018E-01  0.1474E-01
     -7.375  0.1899E-01  0.1577E-01
     -7.321  0.1786E-01  0.1673E-01
     -7.267  0.1949E-01  0.1778E-01
     -7.213  0.2385E-01  0.1907E-01
     -7.159  0.3042E-01  0.2071E-01
     -7.105  0.3937E-01  0.2283E-01
     -7.051  0.5187E-01  0.2563E-01
     -6.998  0.6487E-01  0.2912E-01
     -6.944  0.7255E-01  0.3304E-01
     -6.890  0.7384E-01  0.3702E-01
     -6.836  0.7241E-01  0.4092E-01
     -6.782  0.7237E-01  0.4482E-01
     -6.728  0.7480E-01  0.4886E-01
     -6.674  0.7770E-01  0.5305E-01
     -6.620  0.7959E-01  0.5734E-01
     -6.566  0.8091E-01  0.6170E-01
     -6.512  0.8302E-01  0.6618E-01
     -6.458  0.8894E-01  0.7098E-01
     -6.404  0.9938E-01  0.7633E-01
     -6.350  0.1098E+00  0.8225E-01
     -6.297  0.1187E+00  0.8866E-01
     -6.243  0.1297E+00  0.9565E-01
     -6.189  0.1418E+00  0.1033E+00
     -6.135  0.1499E+00  0.1114E+00
     -6.081  0.1559E+00  0.1198E+00
     -6.027  0.1653E+00  0.1287E+00
     -5.973  0.1766E+00  0.1382E+00
     -5.919  0.1812E+00  0.1480E+00
     -5.865  0.1731E+00  0.1573E+00
     -5.811  0.1581E+00  0.1658E+00
     -5.757  0.1463E+00  0.1737E+00
     -5.703  0.1409E+00  0.1813E+00
     -5.649  0.1396E+00  0.1889E+00
     -5.595  0.1396E+00  0.1964E+00
     -5.542  0.1369E+00  0.2038E+00
     -5.488  0.1320E+00  0.2109E+00
     -5.434  0.1317E+00  0.2180E+00
     -5.380  0.1397E+00  0.2255E+00
     -5.326  0.1523E+00  0.2337E+00
     -5.272  0.1639E+00  0.2426E+00
     -5.218  0.1719E+00  0.2518E+00
     -5.164  0.1771E+00  0.2614E+00
     -5.110  0.1834E+00  0.2713E+00
     -5.056  0.1884E+00  0.2814E+00
     -5.002  0.1853E+00  0.2914E+00
     -4.948  0.1771E+00  0.3010E+00
     -4.894  0.1741E+00  0.3104E+00
     -4.841  0.1766E+00  0.3199E+00
     -4.787  0.1769E+00  0.3294E+00
     -4.733  0.1734E+00  0.3388E+00
     -4.679  0.1690E+00  0.3479E+00
     -4.625  0.1655E+00  0.3568E+00
     -4.571  0.1660E+00  0.3658E+00
     -4.517  0.1702E+00  0.3750E+00
     -4.463  0.1731E+00  0.3843E+00
     -4.409  0.1727E+00  0.3936E+00
     -4.355  0.1708E+00  0.4028E+00
     -4.301  0.1695E+00  0.4120E+00
     -4.247  0.1705E+00  0.4212E+00
     -4.193  0.1741E+00  0.4305E+00
     -4.140  0.1803E+00  0.4403E+00
     -4.086  0.1862E+00  0.4503E+00
     -4.032  0.1885E+00  0.4605E+00
     -3.978  0.1878E+00  0.4706E+00
     -3.924  0.1883E+00  0.4807E+00
     -3.870  0.1910E+00  0.4910E+00
     -3.816  0.1934E+00  0.5015E+00
     -3.762  0.1941E+00  0.5119E+00
     -3.708  0.1955E+00  0.5225E+00
     -3.654  0.2008E+00  0.5333E+00
     -3.600  0.2092E+00  0.5446E+00
     -3.546  0.2160E+00  0.5562E+00
     -3.492  0.2178E+00  0.5680E+00
     -3.439  0.2134E+00  0.5795E+00
     -3.385  0.2034E+00  0.5905E+00
     -3.331  0.1904E+00  0.6007E+00
     -3.277  0.1800E+00  0.6104E+00
     -3.223  0.1779E+00  0.6200E+00
     -3.169  0.1832E+00  0.6299E+00
     -3.115  0.1892E+00  0.6401E+00
     -3.061  0.1897E+00  0.6503E+00
     -3.007  0.1855E+00  0.6603E+00
     -2.953  0.1838E+00  0.6703E+00
     -2.899  0.1873E+00  0.6804E+00
     -2.845  0.1900E+00  0.6906E+00
     -2.791  0.1880E+00  0.7007E+00
     -2.738  0.1849E+00  0.7107E+00
     -2.684  0.1854E+00  0.7207E+00
     -2.630  0.1888E+00  0.7309E+00
     -2.576  0.1909E+00  0.7412E+00
     -2.522  0.1892E+00  0.7514E+00
     -2.468  0.1850E+00  0.7614E+00
     -2.414  0.1811E+00  0.7711E+00
     -2.360  0.1789E+00  0.7808E+00
     -2.306  0.1756E+00  0.7902E+00
     -2.252  0.1712E+00  0.7995E+00
     -2.198  0.1698E+00  0.8086E+00
     -2.144  0.1724E+00  0.8179E+00
     -2.090  0.1768E+00  0.8275E+00
     -2.037  0.1815E+00  0.8372E+00
     -1.983  0.1870E+00  0.8473E+00
     -1.929  0.1933E+00  0.8577E+00
     -1.875  0.1972E+00  0.8684E+00
     -1.821  0.1984E+00  0.8791E+00
     -1.767  0.1978E+00  0.8897E+00
     -1.713  0.1953E+00  0.9003E+00
     -1.659  0.1926E+00  0.9107E+00
     -1.605  0.1915E+00  0.9210E+00
     -1.551  0.1921E+00  0.9314E+00
     -1.497  0.1957E+00  0.9419E+00
     -1.443  0.2012E+00  0.9528E+00
     -1.389  0.2026E+00  0.9637E+00
     -1.336  0.1939E+00  0.9741E+00
     -1.282  0.1766E+00  0.9837E+00
     -1.228  0.1554E+00  0.9920E+00
     -1.174  0.1321E+00  0.9992E+00
     -1.120  0.1098E+00  0.1005E+01
     -1.066  0.9136E-01  0.1010E+01
     -1.012  0.7393E-01  0.1014E+01
     -0.958  0.5517E-01  0.1017E+01
     -0.904  0.3788E-01  0.1019E+01
     -0.850  0.2571E-01  0.1020E+01
     -0.796  0.1893E-01  0.1021E+01
     -0.742  0.1683E-01  0.1022E+01
     -0.688  0.1946E-01  0.1023E+01
     -0.635  0.2518E-01  0.1025E+01
     -0.581  0.3252E-01  0.1026E+01
     -0.527  0.4017E-01  0.1029E+01
     -0.473  0.4380E-01  0.1031E+01
     -0.419  0.4082E-01  0.1033E+01
     -0.365  0.3516E-01  0.1035E+01
     -0.311  0.3387E-01  0.1037E+01
     -0.257  0.3924E-01  0.1039E+01
     -0.203  0.4390E-01  0.1041E+01
     -0.149  0.3979E-01  0.1044E+01
     -0.095  0.2751E-01  0.1045E+01
     -0.041  0.1564E-01  0.1046E+01
      0.013  0.1336E-01  0.1047E+01
      0.066  0.2212E-01  0.1048E+01
      0.120  0.3450E-01  0.1050E+01
      0.174  0.4079E-01  0.1052E+01
      0.228  0.3946E-01  0.1054E+01
      0.282  0.3702E-01  0.1056E+01
      0.336  0.3651E-01  0.1058E+01
      0.390  0.3661E-01  0.1060E+01
      0.444  0.3657E-01  0.1062E+01
      0.498  0.3664E-01  0.1064E+01
      0.552  0.3745E-01  0.1066E+01
      0.606  0.4034E-01  0.1068E+01
      0.660  0.4507E-01  0.1071E+01
      0.714  0.4659E-01  0.1073E+01
      0.767  0.4174E-01  0.1075E+01
      0.821  0.3328E-01  0.1077E+01
      0.875  0.2522E-01  0.1078E+01
      0.929  0.2052E-01  0.1080E+01
      0.983  0.1957E-01  0.1081E+01
      1.037  0.2044E-01  0.1082E+01
      1.091  0.2047E-01  0.1083E+01
      1.145  0.1843E-01  0.1084E+01
      1.199  0.1602E-01  0.1085E+01
      1.253  0.1432E-01  0.1085E+01
      1.307  0.1292E-01  0.1086E+01
      1.361  0.1365E-01  0.1087E+01
      1.415  0.1845E-01  0.1088E+01
      1.468  0.2695E-01  0.1089E+01
      1.522  0.3516E-01  0.1091E+01
      1.576  0.3678E-01  0.1093E+01
      1.630  0.3230E-01  0.1095E+01
      1.684  0.3007E-01  0.1097E+01
      1.738  0.3461E-01  0.1098E+01
      1.792  0.3950E-01  0.1101E+01
      1.846  0.3499E-01  0.1102E+01
      1.900  0.2295E-01  0.1104E+01
      1.954  0.1497E-01  0.1104E+01
      2.008  0.1448E-01  0.1105E+01
      2.062  0.1575E-01  0.1106E+01
      2.116  0.1728E-01  0.1107E+01
      2.169  0.2328E-01  0.1108E+01
      2.223  0.3537E-01  0.1110E+01
      2.277  0.4777E-01  0.1113E+01
      2.331  0.5323E-01  0.1116E+01
      2.385  0.5103E-01  0.1118E+01
      2.439  0.4555E-01  0.1121E+01
      2.493  0.4223E-01  0.1123E+01
      2.547  0.4371E-01  0.1125E+01
      2.601  0.4726E-01  0.1128E+01
      2.655  0.4896E-01  0.1131E+01
      2.709  0.4592E-01  0.1133E+01
      2.763  0.3730E-01  0.1135E+01
      2.817  0.2655E-01  0.1137E+01
      2.870  0.1746E-01  0.1138E+01
      2.924  0.1254E-01  0.1138E+01
      2.978  0.1279E-01  0.1139E+01
      3.032  0.1469E-01  0.1140E+01
      3.086  0.1605E-01  0.1141E+01
      3.140  0.1914E-01  0.1142E+01
      3.194  0.2413E-01  0.1143E+01
      3.248  0.2609E-01  0.1144E+01
      3.302  0.2095E-01  0.1145E+01
      3.356  0.1455E-01  0.1146E+01
      3.410  0.1439E-01  0.1147E+01
      3.464  0.1851E-01  0.1148E+01
      3.518  0.2324E-01  0.1149E+01
      3.571  0.2938E-01  0.1151E+01
      3.625  0.3668E-01  0.1153E+01
      3.679  0.4158E-01  0.1155E+01
      3.733  0.4047E-01  0.1157E+01
      3.787  0.3306E-01  0.1159E+01
      3.841  0.2458E-01  0.1160E+01
      3.895  0.2099E-01  0.1161E+01
      3.949  0.2293E-01  0.1163E+01
      4.003  0.2750E-01  0.1164E+01
      4.057  0.2989E-01  0.1166E+01
      4.111  0.2858E-01  0.1167E+01
      4.165  0.2683E-01  0.1169E+01
      4.219  0.2512E-01  0.1170E+01
      4.273  0.2039E-01  0.1171E+01
      4.326  0.1530E-01  0.1172E+01
      4.380  0.1776E-01  0.1173E+01
      4.434  0.2773E-01  0.1175E+01
      4.488  0.3720E-01  0.1177E+01
      4.542  0.4461E-01  0.1179E+01
      4.596  0.5343E-01  0.1182E+01
      4.650  0.5930E-01  0.1185E+01
      4.704  0.5518E-01  0.1188E+01
      4.758  0.4625E-01  0.1190E+01
      4.812  0.4372E-01  0.1193E+01
      4.866  0.4646E-01  0.1195E+01
      4.920  0.4819E-01  0.1198E+01
      4.974  0.5257E-01  0.1201E+01
      5.027  0.6161E-01  0.1204E+01
      5.081  0.6741E-01  0.1208E+01
      5.135  0.6450E-01  0.1211E+01
      5.189  0.5744E-01  0.1214E+01
      5.243  0.5245E-01  0.1217E+01
      5.297  0.4636E-01  0.1220E+01
      5.351  0.3524E-01  0.1222E+01
      5.405  0.2321E-01  0.1223E+01
      5.459  0.1360E-01  0.1224E+01
      5.513  0.6369E-02  0.1224E+01
      5.567  0.2056E-02  0.1224E+01
      5.621  0.4187E-03  0.1224E+01
      5.675  0.5164E-04  0.1224E+01
      5.728  0.3775E-05  0.1224E+01
      5.782  0.1614E-06  0.1224E+01
      5.836  0.3997E-08  0.1224E+01
      5.890  0.5687E-10  0.1224E+01
      5.944  0.4621E-12  0.1224E+01
      5.998  0.2136E-14  0.1224E+01
      6.052  0.5490E-17  0.1224E+01
      6.106  0.0000E+00  0.1224E+01
      6.160  0.0000E+00  0.1224E+01
      6.214  0.0000E+00  0.1224E+01
      6.268  0.0000E+00  0.1224E+01
      6.322  0.0000E+00  0.1224E+01
      6.376  0.0000E+00  0.1224E+01
      6.429  0.0000E+00  0.1224E+01
