       N       E                     dE             d eps       ncg     rms          rms(c)
DAV:   1     0.320140960990E+04    0.32014E+04   -0.18984E+05  3672   0.112E+03
DAV:   2     0.141610050962E+02   -0.31872E+04   -0.29291E+04  4368   0.263E+02
DAV:   3    -0.201382361771E+03   -0.21554E+03   -0.20055E+03  4164   0.651E+01
DAV:   4    -0.207154178514E+03   -0.57718E+01   -0.57015E+01  4248   0.107E+01
DAV:   5    -0.207333980268E+03   -0.17980E+00   -0.17928E+00  4440   0.195E+00    0.623E+01
RMM:   6    -0.212137011854E+03   -0.48030E+01   -0.10925E+02  3677   0.159E+01    0.607E+01
RMM:   7    -0.217524639065E+03   -0.53876E+01   -0.59683E+01  3678   0.119E+01    0.544E+01
RMM:   8    -0.213055134033E+03    0.44695E+01   -0.91375E+01  3676   0.142E+01    0.392E+01
RMM:   9    -0.211695821049E+03    0.13593E+01   -0.39419E+01  3677   0.101E+01    0.371E+01
RMM:  10    -0.203236263265E+03    0.84596E+01   -0.20657E+01  3681   0.758E+00    0.247E+01
RMM:  11    -0.196971049344E+03    0.62652E+01   -0.13423E+01  3678   0.591E+00    0.184E+01
RMM:  12    -0.190584358155E+03    0.63867E+01   -0.65719E+00  3679   0.409E+00    0.987E+00
RMM:  13    -0.189792447172E+03    0.79191E+00   -0.15426E+00  3681   0.187E+00    0.795E+00
RMM:  14    -0.189517550450E+03    0.27490E+00   -0.40685E-01  3681   0.961E-01    0.647E+00
RMM:  15    -0.189497218261E+03    0.20332E-01   -0.45520E-01  3678   0.989E-01    0.652E+00
RMM:  16    -0.189271526513E+03    0.22569E+00   -0.41244E-01  3681   0.981E-01    0.475E+00
RMM:  17    -0.189034199348E+03    0.23733E+00   -0.29899E-01  3678   0.842E-01    0.251E+00
RMM:  18    -0.188964780810E+03    0.69419E-01   -0.12114E-01  3678   0.512E-01    0.159E+00
RMM:  19    -0.188945647744E+03    0.19133E-01   -0.23085E-02  3682   0.232E-01    0.894E-01
RMM:  20    -0.188942127229E+03    0.35205E-02   -0.49216E-03  3682   0.105E-01    0.748E-01
RMM:  21    -0.188941905887E+03    0.22134E-03   -0.80283E-03  3679   0.139E-01    0.682E-01
RMM:  22    -0.188938507421E+03    0.33985E-02   -0.66760E-03  3680   0.128E-01    0.402E-01
RMM:  23    -0.188937065489E+03    0.14419E-02   -0.21761E-03  3678   0.726E-02    0.206E-01
RMM:  24    -0.188936708072E+03    0.35742E-03   -0.85880E-04  3679   0.442E-02    0.104E-01
RMM:  25    -0.188936948533E+03   -0.24046E-03   -0.34544E-04  3680   0.282E-02    0.113E-01
RMM:  26    -0.188937050274E+03   -0.10174E-03   -0.13740E-04  3678   0.180E-02    0.577E-02
RMM:  27    -0.188937372483E+03   -0.32221E-03   -0.94312E-05  3674   0.149E-02    0.504E-02
RMM:  28    -0.188937666102E+03   -0.29362E-03   -0.60714E-05  3672   0.107E-02    0.341E-02
RMM:  29    -0.188938013564E+03   -0.34746E-03   -0.32172E-05  3671   0.857E-03    0.272E-02
RMM:  30    -0.188938710037E+03   -0.69647E-03   -0.40209E-05  3672   0.847E-03    0.161E-02
RMM:  31    -0.188939334650E+03   -0.62461E-03   -0.41634E-05  3661   0.852E-03    0.261E-02
RMM:  32    -0.188939750532E+03   -0.41588E-03   -0.30847E-05  3513   0.702E-03    0.163E-02
RMM:  33    -0.188939884784E+03   -0.13425E-03   -0.78175E-06  2780   0.352E-03    0.111E-02
RMM:  34    -0.188940067789E+03   -0.18301E-03   -0.77422E-06  2768   0.359E-03    0.567E-03
RMM:  35    -0.188940135274E+03   -0.67485E-04   -0.19548E-06  2318   0.183E-03    0.385E-03
RMM:  36    -0.188940194166E+03   -0.58892E-04   -0.11361E-06  2185   0.149E-03    0.334E-03
RMM:  37    -0.188940247815E+03   -0.53649E-04   -0.93017E-07  2170   0.125E-03    0.290E-03
RMM:  38    -0.188940271667E+03   -0.23852E-04   -0.52940E-07  2125   0.920E-04    0.184E-03
RMM:  39    -0.188940286468E+03   -0.14801E-04   -0.38240E-07  1724   0.749E-04    0.113E-03
RMM:  40    -0.188940289783E+03   -0.33152E-05   -0.13378E-07  1325   0.487E-04    0.803E-04
RMM:  41    -0.188940293029E+03   -0.32461E-05   -0.84007E-08  1178   0.443E-04    0.678E-04
RMM:  42    -0.188940294409E+03   -0.13792E-05   -0.33251E-08   850   0.368E-04    0.558E-04
RMM:  43    -0.188940296246E+03   -0.18373E-05   -0.54929E-08  1056   0.376E-04    0.455E-04
RMM:  44    -0.188940297047E+03   -0.80086E-06   -0.10078E-08   514   0.298E-04
   1 F= -.18894030E+03 E0= -.18881854E+03  d E =-.188940E+03
       N       E                     dE             d eps       ncg     rms          rms(c)
DAV:   1    -0.190035183674E+03   -0.10949E+01   -0.38571E+02  3684   0.301E+01    0.383E+00
RMM:   2    -0.190428627458E+03   -0.39344E+00   -0.40122E+00  3676   0.434E+00    0.237E+00
RMM:   3    -0.190530664840E+03   -0.10204E+00   -0.38116E-01  3704   0.107E+00    0.388E+00
RMM:   4    -0.190423387293E+03    0.10728E+00   -0.17081E-01  3687   0.694E-01    0.164E+00
RMM:   5    -0.190510190760E+03   -0.86803E-01   -0.10646E-01  3686   0.477E-01    0.309E+00
RMM:   6    -0.190402972102E+03    0.10722E+00   -0.57750E-02  3677   0.374E-01    0.657E-01
RMM:   7    -0.190398402066E+03    0.45700E-02   -0.12645E-02  3682   0.180E-01    0.334E-01
RMM:   8    -0.190397320384E+03    0.10817E-02   -0.39765E-03  3685   0.979E-02    0.237E-01
RMM:   9    -0.190396849199E+03    0.47118E-03   -0.16648E-03  3684   0.641E-02    0.145E-01
RMM:  10    -0.190396643054E+03    0.20615E-03   -0.45644E-04  3685   0.341E-02    0.667E-02
RMM:  11    -0.190396631751E+03    0.11302E-04   -0.93234E-05  3690   0.155E-02    0.527E-02
RMM:  12    -0.190396617410E+03    0.14341E-04   -0.37070E-05  3674   0.988E-03    0.363E-02
RMM:  13    -0.190396612645E+03    0.47648E-05   -0.22101E-05  3672   0.758E-03    0.250E-02
RMM:  14    -0.190396607635E+03    0.50101E-05   -0.10448E-05  3637   0.530E-03    0.941E-03
RMM:  15    -0.190396607711E+03   -0.75743E-07   -0.22915E-06  2311   0.252E-03
   2 F= -.19039661E+03 E0= -.19027516E+03  d E =-.145631E+01
       N       E                     dE             d eps       ncg     rms          rms(c)
DAV:   1    -0.188689216070E+03    0.17074E+01   -0.36187E+03  3672   0.946E+01    0.903E+00
RMM:   2    -0.192194984943E+03   -0.35058E+01   -0.35715E+01  3679   0.130E+01    0.561E+00
RMM:   3    -0.192804661938E+03   -0.60968E+00   -0.26034E+00  3704   0.279E+00    0.964E+00
RMM:   4    -0.192031136995E+03    0.77352E+00   -0.84275E-01  3682   0.155E+00    0.406E+00
RMM:   5    -0.192479872733E+03   -0.44874E+00   -0.58805E-01  3686   0.115E+00    0.735E+00
RMM:   6    -0.192014441187E+03    0.46543E+00   -0.51720E-01  3681   0.113E+00    0.298E+00
RMM:   7    -0.191917000721E+03    0.97440E-01   -0.18253E-01  3681   0.675E-01    0.142E+00
RMM:   8    -0.191900400491E+03    0.16600E-01   -0.56847E-02  3682   0.368E-01    0.111E+00
RMM:   9    -0.191886595312E+03    0.13805E-01   -0.20809E-02  3681   0.228E-01    0.367E-01
RMM:  10    -0.191886337362E+03    0.25795E-03   -0.51643E-03  3685   0.110E-01    0.337E-01
RMM:  11    -0.191885384250E+03    0.95311E-03   -0.17298E-03  3683   0.672E-02    0.169E-01
RMM:  12    -0.191885445873E+03   -0.61623E-04   -0.74916E-04  3681   0.436E-02    0.166E-01
RMM:  13    -0.191885187110E+03    0.25876E-03   -0.35377E-04  3683   0.305E-02    0.548E-02
RMM:  14    -0.191885193571E+03   -0.64611E-05   -0.10188E-04  3679   0.161E-02    0.433E-02
RMM:  15    -0.191885178058E+03    0.15513E-04   -0.31788E-05  3678   0.919E-03    0.144E-02
RMM:  16    -0.191885183035E+03   -0.49766E-05   -0.67995E-06  3009   0.418E-03    0.114E-02
RMM:  17    -0.191885186600E+03   -0.35652E-05   -0.24049E-06  2378   0.266E-03    0.616E-03
RMM:  18    -0.191885190796E+03   -0.41957E-05   -0.83786E-07  2069   0.159E-03    0.493E-03
RMM:  19    -0.191885195235E+03   -0.44391E-05   -0.41925E-07  2061   0.116E-03    0.197E-03
RMM:  20    -0.191885198041E+03   -0.28065E-05   -0.14222E-07  1506   0.629E-04    0.138E-03
RMM:  21    -0.191885201625E+03   -0.35837E-05   -0.83569E-08  1189   0.500E-04    0.660E-04
RMM:  22    -0.191885205997E+03   -0.43723E-05   -0.14628E-07  1797   0.539E-04    0.785E-04
RMM:  23    -0.191885210350E+03   -0.43529E-05   -0.16715E-07  1284   0.505E-04    0.756E-04
RMM:  24    -0.191885212900E+03   -0.25493E-05   -0.16107E-07  1403   0.496E-04    0.424E-04
RMM:  25    -0.191885214060E+03   -0.11607E-05   -0.75061E-08   893   0.404E-04    0.333E-04
RMM:  26    -0.191885214749E+03   -0.68891E-06   -0.65163E-08   887   0.400E-04
   3 F= -.19188521E+03 E0= -.19176714E+03  d E =-.294492E+01
       N       E                     dE             d eps       ncg     rms          rms(c)
DAV:   1    -0.192041236254E+03   -0.15602E+00   -0.42850E+02  3672   0.320E+01    0.279E+00
RMM:   2    -0.192500608268E+03   -0.45937E+00   -0.47683E+00  3682   0.467E+00    0.191E+00
RMM:   3    -0.192595949137E+03   -0.95341E-01   -0.35288E-01  3708   0.103E+00    0.368E+00
RMM:   4    -0.192494183347E+03    0.10177E+00   -0.96471E-02  3683   0.521E-01    0.158E+00
RMM:   5    -0.192492380278E+03    0.18031E-02   -0.48479E-02  3684   0.336E-01    0.153E+00
RMM:   6    -0.192474129676E+03    0.18251E-01   -0.56296E-02  3681   0.376E-01    0.807E-01
RMM:   7    -0.192468051788E+03    0.60779E-02   -0.16143E-02  3681   0.202E-01    0.412E-01
RMM:   8    -0.192465702043E+03    0.23497E-02   -0.47530E-03  3682   0.111E-01    0.214E-01
RMM:   9    -0.192465251180E+03    0.45086E-03   -0.13326E-03  3681   0.562E-02    0.140E-01
RMM:  10    -0.192465055253E+03    0.19593E-03   -0.36136E-04  3684   0.296E-02    0.620E-02
RMM:  11    -0.192465042433E+03    0.12820E-04   -0.14605E-04  3682   0.188E-02    0.527E-02
RMM:  12    -0.192465022178E+03    0.20255E-04   -0.60225E-05  3682   0.124E-02    0.270E-02
RMM:  13    -0.192465023855E+03   -0.16771E-05   -0.17445E-05  3673   0.684E-03    0.206E-02
RMM:  14    -0.192465021280E+03    0.25749E-05   -0.55015E-06  2945   0.395E-03    0.818E-03
RMM:  15    -0.192465022458E+03   -0.11783E-05   -0.17576E-06  2098   0.227E-03    0.571E-03
RMM:  16    -0.192465023929E+03   -0.14708E-05   -0.75408E-07  2003   0.160E-03    0.248E-03
RMM:  17    -0.192465025141E+03   -0.12118E-05   -0.24143E-07  1986   0.877E-04    0.192E-03
RMM:  18    -0.192465027420E+03   -0.22794E-05   -0.18111E-07  2039   0.709E-04    0.134E-03
RMM:  19    -0.192465028481E+03   -0.10607E-05   -0.49401E-08  1023   0.460E-04    0.836E-04
RMM:  20    -0.192465029774E+03   -0.12930E-05   -0.17427E-08   688   0.401E-04    0.513E-04
RMM:  21    -0.192465031336E+03   -0.15622E-05   -0.78627E-08  1104   0.451E-04    0.550E-04
RMM:  22    -0.192465032844E+03   -0.15082E-05   -0.86188E-08  1020   0.442E-04    0.343E-04
RMM:  23    -0.192465033429E+03   -0.58499E-06   -0.50482E-08   757   0.390E-04
   4 F= -.19246503E+03 E0= -.19235079E+03  d E =-.579819E+00
       N       E                     dE             d eps       ncg     rms          rms(c)
DAV:   1    -0.192436159735E+03    0.28873E-01   -0.85568E+01  3708   0.143E+01    0.115E+00
RMM:   2    -0.192530361256E+03   -0.94202E-01   -0.97271E-01  3681   0.211E+00    0.875E-01
RMM:   3    -0.192549019703E+03   -0.18658E-01   -0.72953E-02  3710   0.471E-01    0.162E+00
RMM:   4    -0.192528657525E+03    0.20362E-01   -0.17998E-02  3682   0.224E-01    0.710E-01
RMM:   5    -0.192525797469E+03    0.28601E-02   -0.74647E-03  3683   0.135E-01    0.538E-01
RMM:   6    -0.192523873802E+03    0.19237E-02   -0.11787E-02  3681   0.171E-01    0.305E-01
RMM:   7    -0.192523171795E+03    0.70201E-03   -0.30313E-03  3681   0.874E-02    0.192E-01
RMM:   8    -0.192522648205E+03    0.52359E-03   -0.89789E-04  3682   0.486E-02    0.872E-02
RMM:   9    -0.192522569110E+03    0.79095E-04   -0.23875E-04  3681   0.238E-02    0.593E-02
RMM:  10    -0.192522532133E+03    0.36978E-04   -0.69230E-05  3683   0.129E-02    0.267E-02
RMM:  11    -0.192522528571E+03    0.35615E-05   -0.30678E-05  3679   0.847E-03    0.207E-02
RMM:  12    -0.192522525936E+03    0.26354E-05   -0.12294E-05  3672   0.554E-03    0.107E-02
RMM:  13    -0.192522526302E+03   -0.36576E-06   -0.28878E-06  2405   0.293E-03
   5 F= -.19252253E+03 E0= -.19240980E+03  d E =-.637312E+00
       N       E                     dE             d eps       ncg     rms          rms(c)
DAV:   1    -0.192537005376E+03   -0.14479E-01   -0.39637E+01  3720   0.974E+00    0.790E-01
RMM:   2    -0.192578549643E+03   -0.41544E-01   -0.45075E-01  3682   0.142E+00    0.483E-01
RMM:   3    -0.192585344043E+03   -0.67944E-02   -0.26761E-02  3706   0.285E-01    0.906E-01
RMM:   4    -0.192578570599E+03    0.67734E-02   -0.66042E-03  3685   0.135E-01    0.423E-01
RMM:   5    -0.192578657693E+03   -0.87094E-04   -0.44652E-03  3680   0.104E-01    0.396E-01
RMM:   6    -0.192577346261E+03    0.13114E-02   -0.43607E-03  3683   0.104E-01    0.215E-01
RMM:   7    -0.192576946860E+03    0.39940E-03   -0.11395E-03  3682   0.539E-02    0.117E-01
RMM:   8    -0.192576778851E+03    0.16801E-03   -0.32530E-04  3680   0.292E-02    0.633E-02
RMM:   9    -0.192576727958E+03    0.50893E-04   -0.10285E-04  3681   0.159E-02    0.293E-02
RMM:  10    -0.192576718028E+03    0.99302E-05   -0.29091E-05  3679   0.823E-03    0.166E-02
RMM:  11    -0.192576715621E+03    0.24062E-05   -0.11554E-05  3672   0.524E-03    0.119E-02
RMM:  12    -0.192576714990E+03    0.63150E-06   -0.53834E-06  3310   0.367E-03
   6 F= -.19257671E+03 E0= -.19246515E+03  d E =-.541887E-01
       N       E                     dE             d eps       ncg     rms          rms(c)
DAV:   1    -0.192576688688E+03    0.26934E-04   -0.15219E+00  3744   0.191E+00    0.154E-01
RMM:   2    -0.192578279406E+03   -0.15907E-02   -0.17303E-02  3682   0.278E-01    0.973E-02
RMM:   3    -0.192578582343E+03   -0.30294E-03   -0.10712E-03  3706   0.568E-02    0.191E-01
RMM:   4    -0.192578265827E+03    0.31652E-03   -0.27291E-04  3684   0.274E-02    0.828E-02
RMM:   5    -0.192578276872E+03   -0.11045E-04   -0.16857E-04  3681   0.202E-02    0.760E-02
RMM:   6    -0.192578231762E+03    0.45110E-04   -0.17173E-04  3682   0.207E-02    0.440E-02
RMM:   7    -0.192578214656E+03    0.17106E-04   -0.46769E-05  3679   0.109E-02    0.225E-02
RMM:   8    -0.192578208478E+03    0.61775E-05   -0.11937E-05  3669   0.564E-03    0.103E-02
RMM:   9    -0.192578207045E+03    0.14328E-05   -0.35271E-06  2512   0.298E-03    0.626E-03
RMM:  10    -0.192578206544E+03    0.50147E-06   -0.12925E-06  1961   0.205E-03
   7 F= -.19257821E+03 E0= -.19246687E+03  d E =-.556802E-01
       N       E                     dE             d eps       ncg     rms          rms(c)
DAV:   1    -0.192581685521E+03   -0.34785E-02   -0.53378E+00  3708   0.358E+00    0.239E-01
RMM:   2    -0.192587494187E+03   -0.58087E-02   -0.61742E-02  3680   0.526E-01    0.185E-01
RMM:   3    -0.192587774945E+03   -0.28076E-03   -0.39009E-03  3710   0.109E-01    0.229E-01
RMM:   4    -0.192587306693E+03    0.46825E-03   -0.64289E-04  3680   0.440E-02    0.115E-01
RMM:   5    -0.192587509046E+03   -0.20235E-03   -0.43082E-04  3682   0.324E-02    0.181E-01
RMM:   6    -0.192587326479E+03    0.18257E-03   -0.55466E-04  3682   0.356E-02    0.120E-01
RMM:   7    -0.192587208826E+03    0.11765E-03   -0.31782E-04  3682   0.278E-02    0.544E-02
RMM:   8    -0.192587182179E+03    0.26647E-04   -0.55955E-05  3678   0.121E-02    0.264E-02
RMM:   9    -0.192587173984E+03    0.81948E-05   -0.16831E-05  3672   0.638E-03    0.215E-02
RMM:  10    -0.192587167013E+03    0.69708E-05   -0.11043E-05  3670   0.513E-03    0.994E-03
RMM:  11    -0.192587165758E+03    0.12552E-05   -0.51807E-06  3005   0.347E-03    0.593E-03
RMM:  12    -0.192587165459E+03    0.29958E-06   -0.26901E-06  2035   0.276E-03
   8 F= -.19258717E+03 E0= -.19247602E+03  d E =-.895891E-02
       N       E                     dE             d eps       ncg     rms          rms(c)
DAV:   1    -0.192585966228E+03    0.11995E-02   -0.36219E+00  3696   0.294E+00    0.196E-01
RMM:   2    -0.192589906461E+03   -0.39402E-02   -0.41849E-02  3680   0.433E-01    0.154E-01
RMM:   3    -0.192590086665E+03   -0.18020E-03   -0.26514E-03  3710   0.899E-02    0.188E-01
RMM:   4    -0.192589767845E+03    0.31882E-03   -0.42729E-04  3679   0.359E-02    0.938E-02
RMM:   5    -0.192589898283E+03   -0.13044E-03   -0.29469E-04  3681   0.268E-02    0.146E-01
RMM:   6    -0.192589791682E+03    0.10660E-03   -0.37370E-04  3681   0.292E-02    0.102E-01
RMM:   7    -0.192589707094E+03    0.84588E-04   -0.21783E-04  3681   0.229E-02    0.460E-02
RMM:   8    -0.192589688558E+03    0.18535E-04   -0.38631E-05  3677   0.101E-02    0.220E-02
RMM:   9    -0.192589683022E+03    0.55362E-05   -0.11444E-05  3665   0.526E-03    0.181E-02
RMM:  10    -0.192589678058E+03    0.49639E-05   -0.77071E-06  3601   0.430E-03    0.821E-03
RMM:  11    -0.192589677198E+03    0.86022E-06   -0.36597E-06  2564   0.298E-03
   9 F= -.19258968E+03 E0= -.19247868E+03  d E =-.114707E-01
       N       E                     dE             d eps       ncg     rms          rms(c)
DAV:   1    -0.192590505543E+03   -0.82749E-03   -0.61236E+00  3672   0.381E+00    0.200E-01
RMM:   2    -0.192597648889E+03   -0.71433E-02   -0.71579E-02  3680   0.567E-01    0.280E-01
RMM:   3    -0.192597415256E+03    0.23363E-03   -0.48937E-03  3729   0.122E-01    0.206E-01
RMM:   4    -0.192597168639E+03    0.24662E-03   -0.50067E-04  3677   0.387E-02    0.155E-01
RMM:   5    -0.192597092219E+03    0.76420E-04   -0.19742E-04  3684   0.222E-02    0.147E-01
RMM:   6    -0.192596906853E+03    0.18537E-03   -0.63533E-04  3680   0.383E-02    0.112E-01
RMM:   7    -0.192596881392E+03    0.25461E-04   -0.82216E-04  3682   0.438E-02    0.702E-02
RMM:   8    -0.192596863675E+03    0.17717E-04   -0.13580E-04  3680   0.182E-02    0.423E-02
RMM:   9    -0.192596846709E+03    0.16966E-04   -0.17191E-05  3673   0.677E-03    0.348E-02
RMM:  10    -0.192596829284E+03    0.17425E-04   -0.21701E-05  3672   0.709E-03    0.207E-02
RMM:  11    -0.192596823109E+03    0.61758E-05   -0.19624E-05  3672   0.651E-03    0.112E-02
RMM:  12    -0.192596822124E+03    0.98500E-06   -0.13549E-05  3673   0.539E-03    0.460E-03
RMM:  13    -0.192596822367E+03   -0.24347E-06   -0.13171E-06  1983   0.193E-03
  10 F= -.19259682E+03 E0= -.19248560E+03  d E =-.714517E-02
       N       E                     dE             d eps       ncg     rms          rms(c)
DAV:   1    -0.192587645626E+03    0.91765E-02   -0.14087E+01  3672   0.578E+00    0.303E-01
RMM:   2    -0.192604098937E+03   -0.16453E-01   -0.16440E-01  3680   0.859E-01    0.419E-01
RMM:   3    -0.192603590651E+03    0.50829E-03   -0.11204E-02  3727   0.185E-01    0.307E-01
RMM:   4    -0.192603000862E+03    0.58979E-03   -0.11225E-03  3677   0.583E-02    0.231E-01
RMM:   5    -0.192602870571E+03    0.13029E-03   -0.46019E-04  3684   0.338E-02    0.229E-01
RMM:   6    -0.192602383566E+03    0.48701E-03   -0.14652E-03  3680   0.580E-02    0.170E-01
RMM:   7    -0.192602289388E+03    0.94178E-04   -0.18947E-03  3682   0.664E-02    0.106E-01
RMM:   8    -0.192602246181E+03    0.43207E-04   -0.30827E-04  3680   0.274E-02    0.641E-02
RMM:   9    -0.192602206625E+03    0.39556E-04   -0.39760E-05  3683   0.103E-02    0.527E-02
RMM:  10    -0.192602166940E+03    0.39684E-04   -0.50654E-05  3680   0.108E-02    0.313E-02
RMM:  11    -0.192602153329E+03    0.13611E-04   -0.44335E-05  3676   0.979E-03    0.171E-02
RMM:  12    -0.192602151169E+03    0.21608E-05   -0.31341E-05  3680   0.819E-03    0.719E-03
RMM:  13    -0.192602151674E+03   -0.50502E-06   -0.31586E-06  2471   0.291E-03
  11 F= -.19260215E+03 E0= -.19249055E+03  d E =-.124745E-01
       N       E                     dE             d eps       ncg     rms          rms(c)
DAV:   1    -0.192600992528E+03    0.11586E-02   -0.14629E+00  3732   0.186E+00    0.969E-02
RMM:   2    -0.192602669786E+03   -0.16773E-02   -0.16993E-02  3680   0.277E-01    0.133E-01
RMM:   3    -0.192602609575E+03    0.60211E-04   -0.11483E-03  3727   0.593E-02    0.976E-02
RMM:   4    -0.192602552987E+03    0.56588E-04   -0.11179E-04  3677   0.185E-02    0.733E-02
RMM:   5    -0.192602549255E+03    0.37316E-05   -0.47963E-05  3684   0.109E-02    0.763E-02
RMM:   6    -0.192602505607E+03    0.43648E-04   -0.15773E-04  3680   0.190E-02    0.556E-02
RMM:   7    -0.192602505191E+03    0.41613E-06   -0.20144E-04  3682   0.217E-02    0.347E-02
RMM:   8    -0.192602501502E+03    0.36892E-05   -0.32429E-05  3672   0.891E-03    0.210E-02
RMM:   9    -0.192602497284E+03    0.42178E-05   -0.40471E-06  2765   0.334E-03    0.172E-02
RMM:  10    -0.192602493117E+03    0.41677E-05   -0.55281E-06  3142   0.372E-03    0.103E-02
RMM:  11    -0.192602491794E+03    0.13230E-05   -0.50164E-06  2955   0.348E-03    0.563E-03
RMM:  12    -0.192602491754E+03    0.39872E-07   -0.31809E-06  2179   0.294E-03
  12 F= -.19260249E+03 E0= -.19249076E+03  d E =-.128146E-01
       N       E                     dE             d eps       ncg     rms          rms(c)
DAV:   1    -0.192595560731E+03    0.69311E-02   -0.11447E+01  3672   0.522E+00    0.289E-01
RMM:   2    -0.192608529171E+03   -0.12968E-01   -0.13211E-01  3680   0.774E-01    0.338E-01
RMM:   3    -0.192608259417E+03    0.26975E-03   -0.86451E-03  3719   0.163E-01    0.258E-01
RMM:   4    -0.192607642964E+03    0.61645E-03   -0.90107E-04  3678   0.533E-02    0.173E-01
RMM:   5    -0.192607521799E+03    0.12117E-03   -0.86400E-04  3682   0.466E-02    0.185E-01
RMM:   6    -0.192607567370E+03   -0.45571E-04   -0.15626E-03  3680   0.602E-02    0.201E-01
RMM:   7    -0.192607378965E+03    0.18840E-03   -0.69731E-04  3681   0.402E-02    0.128E-01
RMM:   8    -0.192607243901E+03    0.13506E-03   -0.16039E-04  3683   0.200E-02    0.516E-02
RMM:   9    -0.192607217113E+03    0.26789E-04   -0.36502E-05  3679   0.944E-03    0.398E-02
RMM:  10    -0.192607192674E+03    0.24439E-04   -0.43856E-05  3678   0.999E-03    0.221E-02
RMM:  11    -0.192607187419E+03    0.52547E-05   -0.25406E-05  3675   0.744E-03    0.136E-02
RMM:  12    -0.192607186529E+03    0.89063E-06   -0.14045E-05  3671   0.553E-03    0.563E-03
RMM:  13    -0.192607186855E+03   -0.32593E-06   -0.15409E-06  2039   0.213E-03
  13 F= -.19260719E+03 E0= -.19249502E+03  d E =-.469510E-02
       N       E                     dE             d eps       ncg     rms          rms(c)
DAV:   1    -0.192606820569E+03    0.36596E-03   -0.54475E-01  3744   0.114E+00    0.625E-02
RMM:   2    -0.192607425568E+03   -0.60500E-03   -0.62536E-03  3680   0.169E-01    0.740E-02
RMM:   3    -0.192607407768E+03    0.17800E-04   -0.40716E-04  3719   0.354E-02    0.559E-02
RMM:   4    -0.192607382487E+03    0.25281E-04   -0.41532E-05  3677   0.114E-02    0.393E-02
RMM:   5    -0.192607399692E+03   -0.17205E-04   -0.35110E-05  3675   0.921E-03    0.580E-02
RMM:   6    -0.192607378607E+03    0.21085E-04   -0.55077E-05  3679   0.112E-02    0.413E-02
RMM:   7    -0.192607375629E+03    0.29784E-05   -0.62514E-05  3673   0.123E-02    0.208E-02
RMM:   8    -0.192607373751E+03    0.18776E-05   -0.89224E-06  3342   0.479E-03    0.114E-02
RMM:   9    -0.192607372386E+03    0.13650E-05   -0.15546E-06  2008   0.212E-03    0.917E-03
RMM:  10    -0.192607371136E+03    0.12506E-05   -0.20073E-06  1954   0.243E-03    0.538E-03
RMM:  11    -0.192607370903E+03    0.23277E-06   -0.15920E-06  1953   0.217E-03
  14 F= -.19260737E+03 E0= -.19249510E+03  d E =-.487915E-02
       N       E                     dE             d eps       ncg     rms          rms(c)
DAV:   1    -0.192606550017E+03    0.82112E-03   -0.29039E+00  3672   0.263E+00    0.136E-01
RMM:   2    -0.192609623085E+03   -0.30731E-02   -0.31820E-02  3680   0.384E-01    0.133E-01
RMM:   3    -0.192609653619E+03   -0.30534E-04   -0.19134E-03  3726   0.771E-02    0.132E-01
RMM:   4    -0.192609511998E+03    0.14162E-03   -0.22653E-04  3675   0.260E-02    0.987E-02
RMM:   5    -0.192609466781E+03    0.45217E-04   -0.76205E-05  3687   0.140E-02    0.845E-02
RMM:   6    -0.192609435199E+03    0.31582E-04   -0.32288E-04  3680   0.278E-02    0.764E-02
RMM:   7    -0.192609407010E+03    0.28189E-04   -0.27709E-04  3682   0.258E-02    0.336E-02
RMM:   8    -0.192609404769E+03    0.22416E-05   -0.30313E-05  3677   0.892E-03    0.238E-02
RMM:   9    -0.192609398620E+03    0.61490E-05   -0.71252E-06  3279   0.432E-03    0.163E-02
RMM:  10    -0.192609394479E+03    0.41409E-05   -0.73815E-06  3640   0.421E-03    0.911E-03
RMM:  11    -0.192609393366E+03    0.11123E-05   -0.72783E-06  3646   0.402E-03    0.440E-03
RMM:  12    -0.192609393376E+03   -0.99099E-08   -0.17019E-06  1972   0.214E-03
  15 F= -.19260939E+03 E0= -.19249721E+03  d E =-.202247E-02
       N       E                     dE             d eps       ncg     rms          rms(c)
DAV:   1    -0.192608902731E+03    0.49064E-03   -0.87081E-01  3672   0.144E+00    0.739E-02
RMM:   2    -0.192609818595E+03   -0.91586E-03   -0.95210E-03  3680   0.210E-01    0.742E-02
RMM:   3    -0.192609824241E+03   -0.56463E-05   -0.57439E-04  3725   0.422E-02    0.729E-02
RMM:   4    -0.192609781953E+03    0.42288E-04   -0.67662E-05  3675   0.142E-02    0.554E-02
RMM:   5    -0.192609767059E+03    0.14894E-04   -0.22289E-05  3681   0.762E-03    0.455E-02
RMM:   6    -0.192609762164E+03    0.48947E-05   -0.99706E-05  3681   0.155E-02    0.420E-02
RMM:   7    -0.192609754711E+03    0.74531E-05   -0.85829E-05  3677   0.143E-02    0.185E-02
RMM:   8    -0.192609754175E+03    0.53607E-06   -0.90390E-06  3502   0.490E-03
  16 F= -.19260975E+03 E0= -.19249761E+03  d E =-.238327E-02
       N       E                     dE             d eps       ncg     rms          rms(c)
DAV:   1    -0.192608983270E+03    0.77144E-03   -0.25228E+00  3672   0.245E+00    0.114E-01
RMM:   2    -0.192611752666E+03   -0.27694E-02   -0.27984E-02  3680   0.360E-01    0.147E-01
RMM:   3    -0.192611692173E+03    0.60493E-04   -0.17873E-03  3749   0.745E-02    0.109E-01
RMM:   4    -0.192611610501E+03    0.81671E-04   -0.17487E-04  3672   0.229E-02    0.937E-02
RMM:   5    -0.192611564529E+03    0.45972E-04   -0.52431E-05  3684   0.118E-02    0.793E-02
RMM:   6    -0.192611529721E+03    0.34809E-04   -0.23261E-04  3680   0.236E-02    0.716E-02
RMM:   7    -0.192611503496E+03    0.26225E-04   -0.30408E-04  3677   0.267E-02    0.307E-02
RMM:   8    -0.192611510772E+03   -0.72762E-05   -0.38689E-05  3677   0.979E-03    0.264E-02
RMM:   9    -0.192611505059E+03    0.57126E-05   -0.54045E-06  2891   0.392E-03    0.195E-02
RMM:  10    -0.192611499991E+03    0.50684E-05   -0.80172E-06  3625   0.441E-03    0.130E-02
RMM:  11    -0.192611497682E+03    0.23082E-05   -0.79438E-06  3641   0.424E-03    0.636E-03
RMM:  12    -0.192611497427E+03    0.25518E-06   -0.35736E-06  2430   0.298E-03
  17 F= -.19261150E+03 E0= -.19249934E+03  d E =-.174325E-02
       N       E                     dE             d eps       ncg     rms          rms(c)
DAV:   1    -0.192609543851E+03    0.19538E-02   -0.29496E+00  3672   0.265E+00    0.120E-01
RMM:   2    -0.192612762574E+03   -0.32187E-02   -0.32406E-02  3679   0.389E-01    0.161E-01
RMM:   3    -0.192612667642E+03    0.94932E-04   -0.20465E-03  3751   0.799E-02    0.116E-01
RMM:   4    -0.192612573155E+03    0.94486E-04   -0.18703E-04  3673   0.238E-02    0.101E-01
RMM:   5    -0.192612525795E+03    0.47360E-04   -0.55601E-05  3685   0.122E-02    0.890E-02
RMM:   6    -0.192612475950E+03    0.49846E-04   -0.28960E-04  3681   0.263E-02    0.812E-02
RMM:   7    -0.192612437872E+03    0.38077E-04   -0.41393E-04  3679   0.311E-02    0.336E-02
RMM:   8    -0.192612446257E+03   -0.83850E-05   -0.45730E-05  3677   0.107E-02    0.300E-02
RMM:   9    -0.192612438881E+03    0.73759E-05   -0.65669E-06  3126   0.430E-03    0.222E-02
RMM:  10    -0.192612432316E+03    0.65652E-05   -0.10473E-05  3667   0.500E-03    0.149E-02
RMM:  11    -0.192612429320E+03    0.29961E-05   -0.10878E-05  3672   0.493E-03    0.687E-03
RMM:  12    -0.192612429131E+03    0.18844E-06   -0.48166E-06  2936   0.336E-03
  18 F= -.19261243E+03 E0= -.19250026E+03  d E =-.267496E-02
       N       E                     dE             d eps       ncg     rms          rms(c)
DAV:   1    -0.192611840739E+03    0.58858E-03   -0.72017E-01  3672   0.131E+00    0.587E-02
RMM:   2    -0.192612620746E+03   -0.78001E-03   -0.78952E-03  3680   0.192E-01    0.805E-02
RMM:   3    -0.192612591170E+03    0.29576E-04   -0.49727E-04  3751   0.394E-02    0.570E-02
RMM:   4    -0.192612569355E+03    0.21816E-04   -0.44308E-05  3672   0.116E-02    0.496E-02
RMM:   5    -0.192612559240E+03    0.10115E-04   -0.13111E-05  3651   0.597E-03    0.445E-02
RMM:   6    -0.192612550524E+03    0.87159E-05   -0.73183E-05  3682   0.132E-02    0.407E-02
RMM:   7    -0.192612543016E+03    0.75081E-05   -0.10458E-04  3675   0.156E-02    0.167E-02
RMM:   8    -0.192612545190E+03   -0.21742E-05   -0.11157E-05  3651   0.527E-03    0.149E-02
RMM:   9    -0.192612543335E+03    0.18547E-05   -0.15049E-06  2044   0.214E-03    0.112E-02
RMM:  10    -0.192612541635E+03    0.17007E-05   -0.24338E-06  1976   0.263E-03    0.761E-03
RMM:  11    -0.192612540893E+03    0.74157E-06   -0.31285E-06  2266   0.298E-03
  19 F= -.19261254E+03 E0= -.19250037E+03  d E =-.278672E-02
       N       E                     dE             d eps       ncg     rms          rms(c)
DAV:   1    -0.192612161503E+03    0.38013E-03   -0.14947E+00  3672   0.188E+00    0.839E-02
RMM:   2    -0.192613814258E+03   -0.16528E-02   -0.16525E-02  3677   0.278E-01    0.122E-01
RMM:   3    -0.192613747826E+03    0.66432E-04   -0.10706E-03  3770   0.579E-02    0.840E-02
RMM:   4    -0.192613705007E+03    0.42819E-04   -0.90636E-05  3675   0.165E-02    0.724E-02
RMM:   5    -0.192613688820E+03    0.16188E-04   -0.33345E-05  3685   0.942E-03    0.710E-02
RMM:   6    -0.192613660965E+03    0.27854E-04   -0.15325E-04  3681   0.192E-02    0.607E-02
RMM:   7    -0.192613641614E+03    0.19351E-04   -0.22506E-04  3678   0.229E-02    0.258E-02
RMM:   8    -0.192613647994E+03   -0.63795E-05   -0.27938E-05  3672   0.824E-03    0.233E-02
RMM:   9    -0.192613644317E+03    0.36767E-05   -0.32309E-06  2536   0.310E-03    0.181E-02
RMM:  10    -0.192613640262E+03    0.40546E-05   -0.57909E-06  3258   0.381E-03    0.127E-02
RMM:  11    -0.192613637925E+03    0.23373E-05   -0.80153E-06  3631   0.432E-03    0.512E-03
RMM:  12    -0.192613637832E+03    0.93351E-07   -0.28284E-06  2096   0.271E-03
  20 F= -.19261364E+03 E0= -.19250139E+03  d E =-.109694E-02
       N       E                     dE             d eps       ncg     rms          rms(c)
DAV:   1    -0.192612780277E+03    0.85765E-03   -0.15928E+00  3672   0.195E+00    0.862E-02
RMM:   2    -0.192614538617E+03   -0.17583E-02   -0.17576E-02  3677   0.287E-01    0.126E-01
RMM:   3    -0.192614466116E+03    0.72500E-04   -0.11380E-03  3773   0.598E-02    0.857E-02
RMM:   4    -0.192614421586E+03    0.44530E-04   -0.94402E-05  3675   0.169E-02    0.743E-02
RMM:   5    -0.192614406331E+03    0.15255E-04   -0.35147E-05  3685   0.965E-03    0.742E-02
RMM:   6    -0.192614374606E+03    0.31725E-04   -0.16487E-04  3681   0.199E-02    0.630E-02
RMM:   7    -0.192614353396E+03    0.21210E-04   -0.24297E-04  3678   0.238E-02    0.265E-02
RMM:   8    -0.192614360512E+03   -0.71156E-05   -0.29530E-05  3672   0.847E-03    0.240E-02
RMM:   9    -0.192614356494E+03    0.40177E-05   -0.34397E-06  2579   0.319E-03    0.188E-02
RMM:  10    -0.192614351916E+03    0.45783E-05   -0.65835E-06  3436   0.403E-03    0.129E-02
RMM:  11    -0.192614349539E+03    0.23763E-05   -0.82807E-06  3652   0.436E-03    0.536E-03
RMM:  12    -0.192614349449E+03    0.90906E-07   -0.31167E-06  2217   0.282E-03
  21 F= -.19261435E+03 E0= -.19250202E+03  d E =-.180856E-02
       N       E                     dE             d eps       ncg     rms          rms(c)
DAV:   1    -0.192608306270E+03    0.60433E-02   -0.63709E+00  3672   0.389E+00    0.173E-01
RMM:   2    -0.192615392095E+03   -0.70858E-02   -0.70353E-02  3677   0.573E-01    0.252E-01
RMM:   3    -0.192615139841E+03    0.25225E-03   -0.45618E-03  3772   0.120E-01    0.172E-01
RMM:   4    -0.192614949866E+03    0.18998E-03   -0.38334E-04  3675   0.340E-02    0.149E-01
RMM:   5    -0.192614875862E+03    0.74004E-04   -0.14177E-04  3689   0.194E-02    0.147E-01
RMM:   6    -0.192614721222E+03    0.15464E-03   -0.65051E-04  3681   0.395E-02    0.125E-01
RMM:   7    -0.192614613740E+03    0.10748E-03   -0.95613E-04  3680   0.473E-02    0.526E-02
RMM:   8    -0.192614639748E+03   -0.26008E-04   -0.11789E-04  3678   0.169E-02    0.478E-02
RMM:   9    -0.192614623906E+03    0.15842E-04   -0.14465E-05  3679   0.636E-03    0.374E-02
RMM:  10    -0.192614606220E+03    0.17686E-04   -0.25411E-05  3674   0.773E-03    0.258E-02
RMM:  11    -0.192614596453E+03    0.97674E-05   -0.32480E-05  3680   0.848E-03    0.105E-02
RMM:  12    -0.192614596077E+03    0.37623E-06   -0.13772E-05  3672   0.551E-03    0.482E-03
RMM:  13    -0.192614596213E+03   -0.13680E-06   -0.11995E-06  2003   0.188E-03
  22 F= -.19261460E+03 E0= -.19250212E+03  d E =-.205532E-02
       N       E                     dE             d eps       ncg     rms          rms(c)
DAV:   1    -0.192613631486E+03    0.96459E-03   -0.10507E+00  3672   0.158E+00    0.712E-02
RMM:   2    -0.192614793918E+03   -0.11624E-02   -0.11652E-02  3676   0.233E-01    0.101E-01
RMM:   3    -0.192614751869E+03    0.42049E-04   -0.76108E-04  3763   0.488E-02    0.712E-02
RMM:   4    -0.192614721286E+03    0.30583E-04   -0.67311E-05  3676   0.142E-02    0.607E-02
RMM:   5    -0.192614708681E+03    0.12605E-04   -0.24846E-05  3683   0.812E-03    0.581E-02
RMM:   6    -0.192614693801E+03    0.14880E-04   -0.10447E-04  3681   0.158E-02    0.499E-02
RMM:   7    -0.192614682011E+03    0.11790E-04   -0.14734E-04  3676   0.186E-02    0.206E-02
RMM:   8    -0.192614686573E+03   -0.45622E-05   -0.18424E-05  3672   0.670E-03    0.188E-02
RMM:   9    -0.192614684154E+03    0.24184E-05   -0.21411E-06  2215   0.256E-03    0.145E-02
RMM:  10    -0.192614681514E+03    0.26401E-05   -0.38056E-06  2612   0.318E-03    0.101E-02
RMM:  11    -0.192614680083E+03    0.14312E-05   -0.53847E-06  3264   0.369E-03    0.420E-03
RMM:  12    -0.192614679927E+03    0.15584E-06   -0.19176E-06  1956   0.233E-03
  23 F= -.19261468E+03 E0= -.19250227E+03  d E =-.213903E-02
       N       E                     dE             d eps       ncg     rms          rms(c)
DAV:   1    -0.192614949286E+03   -0.26920E-03   -0.45205E-01  3684   0.104E+00    0.557E-02
RMM:   2    -0.192615436492E+03   -0.48721E-03   -0.51113E-03  3677   0.153E-01    0.534E-02
RMM:   3    -0.192615444897E+03   -0.84050E-05   -0.32628E-04  3737   0.318E-02    0.546E-02
RMM:   4    -0.192615420598E+03    0.24299E-04   -0.37795E-05  3678   0.106E-02    0.377E-02
RMM:   5    -0.192615420217E+03    0.38089E-06   -0.17405E-05  3677   0.656E-03    0.403E-02
RMM:   6    -0.192615414868E+03    0.53497E-05   -0.54642E-05  3683   0.114E-02    0.301E-02
RMM:   7    -0.192615411730E+03    0.31380E-05   -0.39907E-05  3676   0.981E-03    0.127E-02
RMM:   8    -0.192615411703E+03    0.26652E-07   -0.36369E-06  2649   0.319E-03
  24 F= -.19261541E+03 E0= -.19250294E+03  d E =-.731776E-03
       N       E                     dE             d eps       ncg     rms          rms(c)
DAV:   1    -0.192614212274E+03    0.11995E-02   -0.17014E+00  3672   0.202E+00    0.110E-01
RMM:   2    -0.192616062077E+03   -0.18498E-02   -0.19408E-02  3677   0.298E-01    0.104E-01
RMM:   3    -0.192616106641E+03   -0.44565E-04   -0.12472E-03  3735   0.621E-02    0.107E-01
RMM:   4    -0.192616012267E+03    0.94374E-04   -0.14874E-04  3679   0.211E-02    0.725E-02
RMM:   5    -0.192616009224E+03    0.30435E-05   -0.67081E-05  3689   0.128E-02    0.784E-02
RMM:   6    -0.192615981161E+03    0.28063E-04   -0.19770E-04  3679   0.217E-02    0.575E-02
RMM:   7    -0.192615967215E+03    0.13946E-04   -0.14031E-04  3683   0.184E-02    0.246E-02
RMM:   8    -0.192615966960E+03    0.25534E-06   -0.14122E-05  3670   0.612E-03    0.185E-02
RMM:   9    -0.192615962557E+03    0.44023E-05   -0.44549E-06  2803   0.347E-03    0.116E-02
RMM:  10    -0.192615960248E+03    0.23097E-05   -0.56552E-06  3408   0.369E-03    0.706E-03
RMM:  11    -0.192615959609E+03    0.63868E-06   -0.27392E-06  2058   0.271E-03
  25 F= -.19261596E+03 E0= -.19250339E+03  d E =-.127968E-02
       N       E                     dE             d eps       ncg     rms          rms(c)
DAV:   1    -0.192615813942E+03    0.14631E-03   -0.75882E-01  3672   0.134E+00    0.630E-02
RMM:   2    -0.192616632843E+03   -0.81890E-03   -0.83753E-03  3677   0.198E-01    0.729E-02
RMM:   3    -0.192616624955E+03    0.78877E-05   -0.53274E-04  3750   0.410E-02    0.597E-02
RMM:   4    -0.192616593664E+03    0.31290E-04   -0.47634E-05  3676   0.123E-02    0.436E-02
RMM:   5    -0.192616601433E+03   -0.77689E-05   -0.23536E-05  3683   0.764E-03    0.548E-02
RMM:   6    -0.192616581078E+03    0.20356E-04   -0.87102E-05  3678   0.143E-02    0.408E-02
RMM:   7    -0.192616576327E+03    0.47501E-05   -0.79708E-05  3680   0.138E-02    0.168E-02
RMM:   8    -0.192616577370E+03   -0.10425E-05   -0.73501E-06  3269   0.443E-03    0.137E-02
RMM:   9    -0.192616575411E+03    0.19585E-05   -0.17509E-06  2032   0.233E-03    0.100E-02
RMM:  10    -0.192616573821E+03    0.15909E-05   -0.29147E-06  2047   0.285E-03    0.645E-03
RMM:  11    -0.192616573289E+03    0.53158E-06   -0.27641E-06  1978   0.287E-03
  26 F= -.19261657E+03 E0= -.19250394E+03  d E =-.613680E-03
       N       E                     dE             d eps       ncg     rms          rms(c)
DAV:   1    -0.192616531972E+03    0.41849E-04   -0.22416E-01  3696   0.729E-01    0.341E-02
RMM:   2    -0.192616773726E+03   -0.24175E-03   -0.24725E-03  3676   0.108E-01    0.406E-02
RMM:   3    -0.192616769436E+03    0.42905E-05   -0.15788E-04  3755   0.223E-02    0.324E-02
RMM:   4    -0.192616760602E+03    0.88340E-05   -0.13647E-05  3667   0.657E-03    0.238E-02
RMM:   5    -0.192616763620E+03   -0.30184E-05   -0.72870E-06  3291   0.427E-03    0.305E-02
RMM:   6    -0.192616758338E+03    0.52820E-05   -0.26914E-05  3678   0.801E-03    0.230E-02
RMM:   7    -0.192616757259E+03    0.10788E-05   -0.24235E-05  3673   0.762E-03    0.948E-03
RMM:   8    -0.192616757601E+03   -0.34181E-06   -0.20414E-06  2119   0.247E-03
  27 F= -.19261676E+03 E0= -.19250410E+03  d E =-.797992E-03
       N       E                     dE             d eps       ncg     rms          rms(c)
DAV:   1    -0.192615920971E+03    0.83629E-03   -0.89593E-01  3672   0.146E+00    0.710E-02
RMM:   2    -0.192616895079E+03   -0.97411E-03   -0.99961E-03  3677   0.215E-01    0.782E-02
RMM:   3    -0.192616895930E+03   -0.85052E-06   -0.64478E-04  3744   0.450E-02    0.670E-02
RMM:   4    -0.192616855633E+03    0.40297E-04   -0.63058E-05  3677   0.140E-02    0.471E-02
RMM:   5    -0.192616860856E+03   -0.52231E-05   -0.25460E-05  3688   0.795E-03    0.556E-02
RMM:   6    -0.192616840415E+03    0.20442E-04   -0.95458E-05  3680   0.150E-02    0.404E-02
RMM:   7    -0.192616836439E+03    0.39755E-05   -0.82732E-05  3679   0.141E-02    0.173E-02
RMM:   8    -0.192616837862E+03   -0.14231E-05   -0.84251E-06  3507   0.471E-03    0.141E-02
RMM:   9    -0.192616835794E+03    0.20681E-05   -0.18596E-06  2082   0.237E-03    0.103E-02
RMM:  10    -0.192616834100E+03    0.16938E-05   -0.30337E-06  2085   0.291E-03    0.648E-03
RMM:  11    -0.192616833563E+03    0.53694E-06   -0.28338E-06  1998   0.291E-03
  28 F= -.19261683E+03 E0= -.19250410E+03  d E =-.873954E-03
       N       E                     dE             d eps       ncg     rms          rms(c)
DAV:   1    -0.192616710383E+03    0.12372E-03   -0.14521E-01  3696   0.588E-01    0.279E-02
RMM:   2    -0.192616865506E+03   -0.15512E-03   -0.16021E-03  3677   0.863E-02    0.314E-02
RMM:   3    -0.192616864200E+03    0.13050E-05   -0.10312E-04  3744   0.180E-02    0.267E-02
RMM:   4    -0.192616858177E+03    0.60232E-05   -0.98909E-06  3637   0.554E-03    0.197E-02
RMM:   5    -0.192616858281E+03   -0.10360E-06   -0.34757E-06  2511   0.305E-03
  29 F= -.19261686E+03 E0= -.19250418E+03  d E =-.898672E-03
       N       E                     dE             d eps       ncg     rms          rms(c)
DAV:   1    -0.192616850488E+03    0.76891E-05   -0.37035E-01  3672   0.937E-01    0.591E-02
RMM:   2    -0.192617288683E+03   -0.43819E-03   -0.42432E-03  3681   0.139E-01    0.767E-02
RMM:   3    -0.192617288112E+03    0.57040E-06   -0.31495E-04  3743   0.309E-02    0.687E-02
RMM:   4    -0.192617254753E+03    0.33359E-04   -0.56719E-05  3674   0.123E-02    0.504E-02
RMM:   5    -0.192617233361E+03    0.21392E-04   -0.21385E-05  3679   0.758E-03    0.292E-02
RMM:   6    -0.192617241092E+03   -0.77307E-05   -0.55180E-05  3682   0.116E-02    0.370E-02
RMM:   7    -0.192617228909E+03    0.12183E-04   -0.32847E-05  3676   0.896E-03    0.124E-02
RMM:   8    -0.192617228585E+03    0.32363E-06   -0.34511E-06  2626   0.312E-03
  30 F= -.19261723E+03 E0= -.19250455E+03  d E =-.370305E-03
