 vasp.5.4.1 24Jun15 (build Mar 14 2019 10:18:33) complex                        
  
 executed on INTEL-19.0.2+OPENMPI date 2022.07.15  18:49:04
 running on   36 total cores
 distrk:  each k-point on   36 cores,    1 groups
 distr:  one band on NCORES_PER_BAND=   6 cores,    6 groups


--------------------------------------------------------------------------------------------------------


 INCAR:
 POTCAR:    PAW_PBE Au 04Oct2007                  
 POTCAR:    PAW_PBE Pd 04Jan2005                  
 POTCAR:    PAW_PBE Au 04Oct2007                  
  local pseudopotential read in
  partial core-charges read in
  partial kinetic energy density read in
  atomic valenz-charges read in
  non local Contribution for L=           2  read in
    real space projection operators read in
  non local Contribution for L=           2  read in
    real space projection operators read in
  non local Contribution for L=           0  read in
    real space projection operators read in
  non local Contribution for L=           0  read in
    real space projection operators read in
  non local Contribution for L=           1  read in
    real space projection operators read in
  non local Contribution for L=           1  read in
    real space projection operators read in
    PAW grid and wavefunctions read in
 
   number of l-projection  operators is LMAX  =           6
   number of lm-projection operators is LMMAX =          18
 
 POTCAR:    PAW_PBE Pd 04Jan2005                  
  local pseudopotential read in
  partial core-charges read in
  partial kinetic energy density read in
  atomic valenz-charges read in
  non local Contribution for L=           2  read in
    real space projection operators read in
  non local Contribution for L=           2  read in
    real space projection operators read in
  non local Contribution for L=           0  read in
    real space projection operators read in
  non local Contribution for L=           0  read in
    real space projection operators read in
  non local Contribution for L=           1  read in
    real space projection operators read in
  non local Contribution for L=           1  read in
    real space projection operators read in
    PAW grid and wavefunctions read in
 
   number of l-projection  operators is LMAX  =           6
   number of lm-projection operators is LMMAX =          18
 
 Optimization of the real space projectors (new method)

 maximal supplied QI-value         = 15.12
 optimisation between [QCUT,QGAM] = [ 10.13, 20.41] = [ 28.73,116.64] Ry 
 Optimized for a Real-space Cutoff    1.51 Angstroem

   l    n(q)    QCUT    max X(q) W(low)/X(q) W(high)/X(q)  e(spline) 
   2      8    10.129    60.898    0.46E-03    0.46E-03    0.14E-06
   2      8    10.129    58.894    0.47E-03    0.47E-03    0.14E-06
   0      9    10.129   109.617    0.16E-03    0.11E-03    0.54E-07
   0      9    10.129    75.026    0.15E-03    0.11E-03    0.52E-07
   1      9    10.129    16.344    0.96E-04    0.15E-03    0.14E-06
   1      9    10.129    10.160    0.81E-04    0.12E-03    0.11E-06
 Optimization of the real space projectors (new method)

 maximal supplied QI-value         = 14.36
 optimisation between [QCUT,QGAM] = [ 10.20, 20.39] = [ 29.12,116.47] Ry 
 Optimized for a Real-space Cutoff    1.51 Angstroem

   l    n(q)    QCUT    max X(q) W(low)/X(q) W(high)/X(q)  e(spline) 
   2      8    10.197    59.108    0.26E-03    0.14E-03    0.96E-07
   2      8    10.197    58.101    0.27E-03    0.14E-03    0.98E-07
   0      9    10.197   102.235    0.54E-04    0.60E-05    0.72E-07
   0      9    10.197    58.388    0.52E-04    0.60E-05    0.68E-07
   1      9    10.197    22.191    0.18E-03    0.25E-03    0.79E-07
   1      9    10.197    15.590    0.15E-03    0.21E-03    0.69E-07
  PAW_PBE Au 04Oct2007                  :
 energy of atom  1       EATOM= -926.0867
 kinetic energy error for atom=    0.0062 (will be added to EATOM!!)
  PAW_PBE Pd 04Jan2005                  :
 energy of atom  2       EATOM= -809.7530
 kinetic energy error for atom=    0.0091 (will be added to EATOM!!)
 
 
 POSCAR: Au Pd                                   
  positions in cartesian coordinates
  No initial velocities read in
 exchange correlation table for  LEXCH =        8
   RHO(1)=    0.500       N(1)  =     2000
   RHO(2)=  100.500       N(2)  =     4000

 VTST: version 3.2, (02/03/18)

 CHAIN: initializing optimizer
 
 OPT: Using VASP Conjugate-Gradient optimizer
 CHAIN: Read ICHAIN            0
 
 POSCAR: Au Pd                                   
  positions in cartesian coordinates
  No initial velocities read in
 


--------------------------------------------------------------------------------------------------------


 ion  position               nearest neighbor table
   1  0.083  0.083  0.408-  21 2.75  14 2.75   4 2.75  24 2.75  27 2.75  22 2.75  30 2.75  13 2.75
                            29 2.75
   2  0.833  0.583  0.408-  18 2.75   7 2.75   4 2.75  27 2.75  33 2.75   9 2.75  37 2.75  26 2.75
                            31 2.75
   3  0.667  0.417  0.500-  10 2.75  34 2.75   8 2.75  29 2.75  31 2.75  25 2.75  38 2.75  26 2.75
                            41 2.75   9 2.75  32 2.75   4 2.75
   4  0.833  0.333  0.408-  26 2.75   2 2.75   9 2.75   1 2.75  30 2.75  27 2.75  10 2.75  29 2.75
                             3 2.75
   5  0.750  0.000  0.592-  25 2.75  44 2.75  17 2.75  34 2.75  40 2.75  23 2.75  42 2.75  28 2.75
                            12 2.75
   6  0.417  0.917  0.500-  14 2.75  35 2.75  19 2.75  31 2.75  21 2.75  38 2.75  43 2.75  13 2.75
                            12 2.75  22 2.75  42 2.75   7 2.75
   7  0.583  0.833  0.408-  12 2.75   9 2.75  11 2.75   2 2.75  22 2.75  14 2.75  33 2.75  31 2.75
                             6 2.75
   8  0.500  0.500  0.592-  38 2.75   3 2.75  35 2.75  34 2.75  40 2.75  48 2.75  45 2.75  32 2.75
                            41 2.75
   9  0.583  0.583  0.408-  31 2.75   7 2.75  10 2.75  14 2.75   4 2.75  15 2.75   2 2.75   3 2.75
                            38 2.75
  10  0.583  0.333  0.408-   3 2.75   9 2.75  11 2.75  15 2.75  30 2.75   4 2.75  36 2.75  25 2.75
                            41 2.75
  11  0.583  0.083  0.408-  25 2.75  10 2.75   7 2.75  33 2.75  36 2.75  22 2.75  30 2.75  12 2.75
                            43 2.75
  12  0.667  0.917  0.500-   7 2.75  17 2.75  42 2.75  25 2.75  31 2.75  18 2.75  43 2.75   6 2.75
                            44 2.75  11 2.75  33 2.75   5 2.75
  13  0.167  0.917  0.500-  24 2.75  48 2.75  28 2.75  29 2.75  38 2.75  46 2.75  21 2.75   6 2.75
                            44 2.75   1 2.75  14 2.75  19 2.75
  14  0.333  0.833  0.408-   6 2.75   1 2.75   9 2.75  15 2.75  22 2.75   7 2.75  24 2.75  38 2.75
                            13 2.75
  15  0.333  0.583  0.408-  38 2.75  14 2.75  24 2.75  36 2.75  10 2.75  37 2.75   9 2.75  41 2.75
                            46 2.75
  16  0.250  0.250  0.592-  20 2.75  43 2.75  39 2.75  42 2.75  19 2.75  45 2.75  40 2.75  47 2.75
                            21 2.75
  17  0.750  0.750  0.592-  12 2.75  18 2.75   5 2.75  32 2.75  39 2.75  42 2.75  23 2.75  35 2.75
                            31 2.75
  18  0.917  0.667  0.500-   2 2.75  39 2.75  17 2.75  20 2.75  26 2.75  12 2.75  44 2.75  31 2.75
                            46 2.75  33 2.75  37 2.75  23 2.75
  19  0.250  0.000  0.592-  21 2.75   6 2.75  16 2.75  35 2.75  47 2.75  48 2.75  28 2.75  42 2.75
                            13 2.75
  20  0.167  0.417  0.500-  27 2.75  16 2.75  39 2.75  18 2.75  21 2.75  43 2.75  46 2.75  26 2.75
                            41 2.75  37 2.75  45 2.75  36 2.75
  21  0.167  0.167  0.500-   1 2.75  19 2.75  47 2.75   6 2.75  20 2.75  26 2.75  13 2.75  43 2.75
                            29 2.75  27 2.75  22 2.75  16 2.75
  22  0.333  0.083  0.408-  43 2.75  14 2.75  27 2.75  36 2.75   7 2.75   1 2.75  11 2.75   6 2.75
                            21 2.75
  23  0.000  0.750  0.592-  44 2.75  46 2.75  39 2.75   5 2.75  45 2.75  28 2.75  17 2.75  48 2.75
                            18 2.75
  24  0.083  0.833  0.408-  13 2.75   1 2.75  15 2.75  30 2.75  37 2.75  33 2.75  14 2.75  46 2.75
                            44 2.75
  25  0.667  0.167  0.500-  11 2.75   5 2.75  40 2.75  12 2.75   3 2.75  41 2.75  44 2.75  43 2.75
                            29 2.75  10 2.75  30 2.75  34 2.75
  26  0.917  0.417  0.500-   4 2.75  47 2.75  32 2.75  29 2.75  31 2.75  18 2.75  21 2.75  20 2.75
                             3 2.75   2 2.75  39 2.75  27 2.75
  27  0.083  0.333  0.408-  20 2.75   2 2.75   1 2.75  22 2.75  37 2.75  36 2.75   4 2.75  21 2.75
                            26 2.75
  28  0.000  0.000  0.592-  29 2.75  13 2.75  23 2.75  34 2.75  47 2.75  48 2.75  19 2.75   5 2.75
                            44 2.75
  29  0.917  0.167  0.500-  30 2.75  28 2.75  34 2.75   3 2.75  13 2.75  26 2.75  44 2.75  25 2.75
                            21 2.75   4 2.75   1 2.75  47 2.75
  30  0.833  0.083  0.408-  29 2.75  10 2.75  24 2.75   4 2.75  33 2.75  11 2.75   1 2.75  44 2.75
                            25 2.75
  31  0.667  0.667  0.500-   9 2.75  32 2.75  35 2.75  12 2.75  26 2.75   6 2.75   3 2.75  18 2.75
                            38 2.75   7 2.75  17 2.75   2 2.75
  32  0.750  0.500  0.592-  31 2.75  26 2.75  17 2.75  34 2.75  35 2.75  47 2.75  39 2.75   8 2.75
                             3 2.75
  33  0.833  0.833  0.408-  44 2.75  11 2.75  30 2.75  37 2.75   2 2.75  24 2.75   7 2.75  18 2.75
                            12 2.75
  34  0.750  0.250  0.592-   3 2.75  29 2.75   8 2.75  28 2.75   5 2.75  32 2.75  40 2.75  47 2.75
                            25 2.75
  35  0.500  0.750  0.592-   6 2.75  31 2.75  19 2.75   8 2.75  32 2.75  42 2.75  17 2.75  48 2.75
                            38 2.75
  36  0.333  0.333  0.408-  41 2.75  15 2.75  22 2.75  37 2.75  11 2.75  10 2.75  27 2.75  43 2.75
                            20 2.75
  37  0.083  0.583  0.408-  46 2.75  27 2.75  33 2.75  36 2.75  24 2.75  15 2.75   2 2.75  20 2.75
                            18 2.75
  38  0.417  0.667  0.500-  15 2.75   8 2.75  48 2.75  13 2.75   6 2.75  41 2.75   3 2.75  46 2.75
                            31 2.75  14 2.75  35 2.75   9 2.75
  39  0.000  0.500  0.592-  18 2.75  20 2.75  16 2.75  17 2.75  23 2.75  47 2.75  45 2.75  32 2.75
                            26 2.75
  40  0.500  0.250  0.592-  41 2.75  25 2.75   5 2.75   8 2.75  42 2.75  45 2.75  34 2.75  16 2.75
                            43 2.75
  41  0.417  0.417  0.500-  36 2.75  40 2.75  45 2.75  25 2.75  43 2.75  38 2.75  46 2.75  20 2.75
                             3 2.75  15 2.75  10 2.75   8 2.75
  42  0.500  0.000  0.592-  43 2.75  12 2.75  17 2.75  35 2.75  40 2.75  16 2.75  19 2.75   5 2.75
                             6 2.75
  43  0.417  0.167  0.500-  22 2.75  42 2.75  16 2.75  20 2.75  12 2.75  41 2.75   6 2.75  21 2.75
                            25 2.75  36 2.75  11 2.75  40 2.75
  44  0.917  0.917  0.500-  33 2.75  23 2.75   5 2.75  25 2.75  29 2.75  18 2.75  46 2.75  12 2.75
                            13 2.75  30 2.75  24 2.75  28 2.75
  45  0.250  0.500  0.592-  46 2.75  41 2.75  40 2.75  16 2.75  23 2.75  48 2.75   8 2.75  39 2.75
                            20 2.75
  46  0.167  0.667  0.500-  37 2.75  45 2.75  23 2.75  20 2.75  41 2.75  44 2.75  13 2.75  38 2.75
                            18 2.75  24 2.75  15 2.75  48 2.75
  47  0.000  0.250  0.592-  26 2.75  21 2.75  19 2.75  28 2.75  32 2.75  39 2.75  34 2.75  16 2.75
                            29 2.75
  48  0.250  0.750  0.592-  13 2.75  38 2.75  19 2.75  28 2.75   8 2.75  45 2.75  23 2.75  35 2.75
                            46 2.75
 
  LATTYP: Found a hexagonal cell.
 ALAT       =    11.0025815153
 C/A-ratio  =     2.2260035120
  
  Lattice vectors:
  
 A1 = (   5.5012907576,  -9.5285150994,   0.0000000000)
 A2 = ( -11.0025815153,   0.0000000000,   0.0000000000)
 A3 = (   0.0000000000,   0.0000000000, -24.4917850943)


Analysis of symmetry for initial positions (statically):
=====================================================================
 Subroutine PRICEL returns:
 Original cell was already a primitive cell.
 

 Routine SETGRP: Setting up the symmetry group for a 
 hexagonal supercell.


 Subroutine GETGRP returns: Found  1 space group operations
 (whereof  1 operations were pure point group operations)
 out of a pool of 24 trial point group operations.


The static configuration has the point symmetry C_1 .


Analysis of symmetry for dynamics (positions and initial velocities):
=====================================================================
 Subroutine PRICEL returns:
 Original cell was already a primitive cell.
 

 Routine SETGRP: Setting up the symmetry group for a 
 hexagonal supercell.


 Subroutine GETGRP returns: Found  1 space group operations
 (whereof  1 operations were pure point group operations)
 out of a pool of 24 trial point group operations.


The dynamic configuration has the point symmetry C_1 .
 
 
 KPOINTS: Automatic mesh                          

Automatic generation of k-mesh.
Space group operators:
 irot       det(A)        alpha          n_x          n_y          n_z        tau_x        tau_y        tau_z
    1     1.000000     0.000000     1.000000     0.000000     0.000000     0.000000     0.000000     0.000000
 
 Subroutine IBZKPT returns following result:
 ===========================================
 
 Found      6 irreducible k-points:
 
 Following reciprocal coordinates:
            Coordinates               Weight
  0.250000  0.250000  0.000000     16.000000
  0.000000  0.250000  0.000000     16.000000
 -0.250000  0.000000  0.000000     16.000000
 -0.250000  0.250000  0.000000     16.000000
  0.500000 -0.250000  0.000000     16.000000
 -0.250000  0.500000  0.000000     16.000000
 
 Following cartesian coordinates:
            Coordinates               Weight
  0.022722  0.013119  0.000000     16.000000
  0.000000  0.026237  0.000000     16.000000
 -0.022722  0.013119  0.000000     16.000000
 -0.022722  0.039356  0.000000     16.000000
  0.045444 -0.052474  0.000000     16.000000
 -0.022722  0.065593  0.000000     16.000000
 


--------------------------------------------------------------------------------------------------------




 Dimension of arrays:
   k-points           NKPTS =      6   k-points in BZ     NKDIM =      6   number of bands    NBANDS=    306
   number of dos      NEDOS =    301   number of ions     NIONS =     48
   non local maximal  LDIM  =      6   non local SUM 2l+1 LMDIM =     18
   total plane-waves  NPLWV = 349920
   max r-space proj   IRMAX =   2009   max aug-charges    IRDMAX=   8532
   dimension x,y,z NGX =    54 NGY =   54 NGZ =  120
   dimension x,y,z NGXF=   108 NGYF=  108 NGZF=  240
   support grid    NGXF=   108 NGYF=  108 NGZF=  240
   ions per type =              24  24
 NGX,Y,Z   is equivalent  to a cutoff of   8.16,  8.16,  8.15 a.u.
 NGXF,Y,Z  is equivalent  to a cutoff of  16.32, 16.32, 16.29 a.u.


 I would recommend the setting:
   dimension x,y,z NGX =    54 NGY =   54 NGZ =  120
 SYSTEM =  unknown system                          
 POSCAR =  Au Pd                                   

 Startparameter for this run:
   NWRITE =      1    write-flag & timer
   PREC   = normal    normal or accurate (medium, high low for compatibility)
   ISTART =      0    job   : 0-new  1-cont  2-samecut
   ICHARG =      2    charge: 1-file 2-atom 10-const
   ISPIN  =      1    spin polarized calculation?
   LNONCOLLINEAR =      F non collinear calculations
   LSORBIT =      F    spin-orbit coupling
   INIWAV =      1    electr: 0-lowe 1-rand  2-diag
   LASPH  =      F    aspherical Exc in radial PAW
   METAGGA=      F    non-selfconsistent MetaGGA calc.

 Electronic Relaxation 1
   ENCUT  =  400.0 eV  29.40 Ry    5.42 a.u.  17.94 17.94 39.94*2*pi/ulx,y,z
   ENINI  =  400.0     initial cutoff
   ENAUG  =  416.2 eV  augmentation charge cutoff
   NELM   =    500;   NELMIN=  2; NELMDL= -5     # of ELM steps 
   EDIFF  = 0.1E-05   stopping-criterion for ELM
   LREAL  =      T    real-space projection
   NLSPLINE    = F    spline interpolate recip. space projectors
   LCOMPAT=      F    compatible to vasp.4.4
   GGA_COMPAT  = T    GGA compatible to vasp.4.4-vasp.4.6
   LMAXPAW     = -100 max onsite density
   LMAXMIX     =    2 max onsite mixed and CHGCAR
   VOSKOWN=      1    Vosko Wilk Nusair interpolation
   ROPT   =   -0.00050  -0.00050
 Ionic relaxation
   EDIFFG = -.2E-01   stopping-criterion for IOM
   NSW    =    500    number of steps for IOM
   NBLOCK =      1;   KBLOCK =    500    inner block; outer block 
   IBRION =      2    ionic relax: 0-MD 1-quasi-New 2-CG
   NFREE  =      2    steps in history (QN), initial steepest desc. (CG)
   ISIF   =      0    stress and relaxation
   IWAVPR =     11    prediction:  0-non 1-charg 2-wave 3-comb
   ISYM   =      2    0-nonsym 1-usesym 2-fastsym
   LCORR  =      T    Harris-Foulkes like correction to forces

   POTIM  = 0.3500    time-step for ionic-motion
   TEIN   =    0.0    initial temperature
   TEBEG  =    0.0;   TEEND  =   0.0 temperature during run
   SMASS  =  -3.00    Nose mass-parameter (am)
   estimated Nose-frequenzy (Omega)   =  0.10E-29 period in steps =****** mass=  -0.277E-26a.u.
   SCALEE = 1.0000    scale energy and forces
   NPACO  =    256;   APACO  = 16.0  distance and # of slots for P.C.
   PSTRESS=    0.0 pullay stress

  Mass of Ions in am
   POMASS = 196.97106.42
  Ionic Valenz
   ZVAL   =  11.00 10.00
  Atomic Wigner-Seitz radii
   RWIGS  =  -1.00 -1.00
  virtual crystal weights 
   VCA    =   1.00  1.00
   NELECT =     504.0000    total number of electrons
   NUPDOWN=      -1.0000    fix difference up-down

 DOS related values:
   EMIN   =  10.00;   EMAX   =-10.00  energy-range for DOS
   EFERMI =   0.00
   ISMEAR =     0;   SIGMA  =   0.10  broadening in eV -4-tet -1-fermi 0-gaus

 Electronic relaxation 2 (details)
   IALGO  =     68    algorithm
   LDIAG  =      T    sub-space diagonalisation (order eigenvalues)
   LSUBROT=      F    optimize rotation matrix (better conditioning)
   TURBO    =      0    0=normal 1=particle mesh
   IRESTART =      0    0=no restart 2=restart with 2 vectors
   NREBOOT  =      0    no. of reboots
   NMIN     =      0    reboot dimension
   EREF     =   0.00    reference energy to select bands
   IMIX   =      4    mixing-type and parameters
     AMIX     =   0.40;   BMIX     =  1.00
     AMIX_MAG =   1.60;   BMIX_MAG =  1.00
     AMIN     =   0.10
     WC   =   100.;   INIMIX=   1;  MIXPRE=   1;  MAXMIX= -45

 Intra band minimization:
   WEIMIN = 0.0010     energy-eigenvalue tresh-hold
   EBREAK =  0.82E-09  absolut break condition
   DEPER  =   0.30     relativ break condition  

   TIME   =   0.40     timestep for ELM

  volume/ion in A,a.u.               =      53.49       360.99
  Fermi-wavevector in a.u.,A,eV,Ry     =   0.951418  1.797920 12.315955  0.905197
  Thomas-Fermi vector in A             =   2.079887
 
 Write flags
   LWAVE  =      F    write WAVECAR
   LCHARG =      F    write CHGCAR
   LVTOT  =      F    write LOCPOT, total local potential
   LVHAR  =      F    write LOCPOT, Hartree potential only
   LELF   =      F    write electronic localiz. function (ELF)
   LORBIT =      0    0 simple, 1 ext, 2 COOP (PROOUT)


 Dipole corrections
   LMONO  =      F    monopole corrections only (constant potential shift)
   LDIPOL =      T    correct potential (dipole corrections)
   IDIPOL =      3    1-x, 2-y, 3-z, 4-all directions 
   EPSILON=  1.0000000 bulk dielectric constant

 Exchange correlation treatment:
   GGA     =    PE    GGA type
   LEXCH   =     8    internal setting for exchange type
   VOSKOWN=      1    Vosko Wilk Nusair interpolation
   LHFCALC =     F    Hartree Fock is set to
   LHFONE  =     F    Hartree Fock one center treatment
   AEXX    =    0.0000 exact exchange contribution

 Linear response parameters
   LEPSILON=     F    determine dielectric tensor
   LRPA    =     F    only Hartree local field effects (RPA)
   LNABLA  =     F    use nabla operator in PAW spheres
   LVEL    =     F    velocity operator in full k-point grid
   LINTERFAST=   F  fast interpolation
   KINTER  =     0    interpolate to denser k-point grid
   CSHIFT  =0.1000    complex shift for real part using Kramers Kronig
   OMEGAMAX=  -1.0    maximum frequency
   DEG_THRESHOLD= 0.2000000E-02 threshold for treating states as degnerate
   RTIME   =    0.100 relaxation time in fs

 Orbital magnetization related:
   ORBITALMAG=     F  switch on orbital magnetization
   LCHIMAG   =     F  perturbation theory with respect to B field
   DQ        =  0.001000  dq finite difference perturbation B field



--------------------------------------------------------------------------------------------------------


 conjugate gradient relaxation of ions
 charge density and potential will be updated during run
 non-spin polarized calculation
 RMM-DIIS sequential band-by-band and
  variant of blocked Davidson during initial phase
 perform sub-space diagonalisation
    before iterative eigenvector-optimisation
 modified Broyden-mixing scheme, WC =      100.0
 initial mixing is a Kerker type mixing with AMIX =  0.4000 and BMIX =      1.0000
 Hartree-type preconditioning will be used
 using additional bands           54
 real space projection scheme for non local part
 use partial core corrections
 calculate Harris-corrections to forces 
   (improved forces if not selfconsistent)
 use gradient corrections 
 use of overlap-Matrix (Vanderbilt PP)
 Gauss-broadening in eV      SIGMA  =   0.10


--------------------------------------------------------------------------------------------------------


  energy-cutoff  :      400.00
  volume of cell :     2567.68
      direct lattice vectors                 reciprocal lattice vectors
    11.002581515  0.000000000  0.000000000     0.090887761 -0.052474073  0.000000000
     5.501290758  9.528515099  0.000000000     0.000000000  0.104948147  0.000000000
     0.000000000  0.000000000 24.491785094     0.000000000  0.000000000  0.040830017

  length of vectors
    11.002581515 11.002581515 24.491785094     0.104948147  0.104948147  0.040830017


 
 k-points in units of 2pi/SCALE and weight: Automatic mesh                          
   0.02272194  0.01311852  0.00000000       0.167
   0.00000000  0.02623704  0.00000000       0.167
  -0.02272194  0.01311852  0.00000000       0.167
  -0.02272194  0.03935555  0.00000000       0.167
   0.04544388 -0.05247407  0.00000000       0.167
  -0.02272194  0.06559259  0.00000000       0.167
 
 k-points in reciprocal lattice and weights: Automatic mesh                          
   0.25000000  0.25000000  0.00000000       0.167
   0.00000000  0.25000000  0.00000000       0.167
  -0.25000000  0.00000000  0.00000000       0.167
  -0.25000000  0.25000000  0.00000000       0.167
   0.50000000 -0.25000000  0.00000000       0.167
  -0.25000000  0.50000000  0.00000000       0.167
 
 position of ions in fractional coordinates (direct lattice) 
   0.08333333  0.08333333  0.40830017
   0.83333333  0.58333333  0.40830017
   0.66666667  0.41666667  0.50000000
   0.83333333  0.33333333  0.40830017
   0.75000000  0.00000000  0.59169983
   0.41666667  0.91666667  0.50000000
   0.58333333  0.83333333  0.40830017
   0.50000000  0.50000000  0.59169983
   0.58333333  0.58333333  0.40830017
   0.58333333  0.33333333  0.40830017
   0.58333333  0.08333333  0.40830017
   0.66666667  0.91666667  0.50000000
   0.16666667  0.91666667  0.50000000
   0.33333333  0.83333333  0.40830017
   0.33333333  0.58333333  0.40830017
   0.25000000  0.25000000  0.59169983
   0.75000000  0.75000000  0.59169983
   0.91666667  0.66666667  0.50000000
   0.25000000  0.00000000  0.59169983
   0.16666667  0.41666667  0.50000000
   0.16666667  0.16666667  0.50000000
   0.33333333  0.08333333  0.40830017
   0.00000000  0.75000000  0.59169983
   0.08333333  0.83333333  0.40830017
   0.66666667  0.16666667  0.50000000
   0.91666667  0.41666667  0.50000000
   0.08333333  0.33333333  0.40830017
   0.00000000  0.00000000  0.59169983
   0.91666667  0.16666667  0.50000000
   0.83333333  0.08333333  0.40830017
   0.66666667  0.66666667  0.50000000
   0.75000000  0.50000000  0.59169983
   0.83333333  0.83333333  0.40830017
   0.75000000  0.25000000  0.59169983
   0.50000000  0.75000000  0.59169983
   0.33333333  0.33333333  0.40830017
   0.08333333  0.58333333  0.40830017
   0.41666667  0.66666667  0.50000000
   0.00000000  0.50000000  0.59169983
   0.50000000  0.25000000  0.59169983
   0.41666667  0.41666667  0.50000000
   0.50000000  0.00000000  0.59169983
   0.41666667  0.16666667  0.50000000
   0.91666667  0.91666667  0.50000000
   0.25000000  0.50000000  0.59169983
   0.16666667  0.66666667  0.50000000
   0.00000000  0.25000000  0.59169983
   0.25000000  0.75000000  0.59169983
 
 position of ions in cartesian coordinates  (Angst):
   1.37532269  0.79404292 10.00000000
  12.37790420  5.55830047 10.00000000
   9.62725883  3.97021462 12.24589255
  11.00258152  3.17617170 10.00000000
   8.25193614  0.00000000 14.49178509
   9.62725883  8.73447217 12.24589255
  11.00258152  7.94042925 10.00000000
   8.25193614  4.76425755 14.49178509
   9.62725883  5.55830047 10.00000000
   8.25193614  3.17617170 10.00000000
   6.87661345  0.79404292 10.00000000
  12.37790420  8.73447217 12.24589255
   6.87661345  8.73447217 12.24589255
   8.25193614  7.94042925 10.00000000
   6.87661345  5.55830047 10.00000000
   4.12596807  2.38212877 14.49178509
  12.37790420  7.14638632 14.49178509
  13.75322689  6.35234340 12.24589255
   2.75064538  0.00000000 14.49178509
   4.12596807  3.97021462 12.24589255
   2.75064538  1.58808585 12.24589255
   4.12596807  0.79404292 10.00000000
   4.12596807  7.14638632 14.49178509
   5.50129076  7.94042925 10.00000000
   8.25193614  1.58808585 12.24589255
  12.37790420  3.97021462 12.24589255
   2.75064538  3.17617170 10.00000000
   0.00000000  0.00000000 14.49178509
  11.00258152  1.58808585 12.24589255
   9.62725883  0.79404292 10.00000000
  11.00258152  6.35234340 12.24589255
  11.00258152  4.76425755 14.49178509
  13.75322689  7.94042925 10.00000000
   9.62725883  2.38212877 14.49178509
   9.62725883  7.14638632 14.49178509
   5.50129076  3.17617170 10.00000000
   4.12596807  5.55830047 10.00000000
   8.25193614  6.35234340 12.24589255
   2.75064538  4.76425755 14.49178509
   6.87661345  2.38212877 14.49178509
   6.87661345  3.97021462 12.24589255
   5.50129076  0.00000000 14.49178509
   5.50129076  1.58808585 12.24589255
  15.12854958  8.73447217 12.24589255
   5.50129076  4.76425755 14.49178509
   5.50129076  6.35234340 12.24589255
   1.37532269  2.38212877 14.49178509
   6.87661345  7.14638632 14.49178509
 


--------------------------------------------------------------------------------------------------------


 k-point  1 :   0.2500 0.2500 0.0000  plane waves:   46635
 k-point  2 :   0.0000 0.2500 0.0000  plane waves:   46635
 k-point  3 :  -0.2500 0.0000 0.0000  plane waves:   46635
 k-point  4 :  -0.2500 0.2500 0.0000  plane waves:   46644
 k-point  5 :   0.5000-0.2500 0.0000  plane waves:   46644
 k-point  6 :  -0.2500 0.5000 0.0000  plane waves:   46644

 maximum and minimum number of plane-waves per node :      7818     7732

 maximum number of plane-waves:     46644
 maximum index in each direction: 
   IXMAX=   18   IYMAX=   18   IZMAX=   39
   IXMIN=  -18   IYMIN=  -18   IZMIN=  -39

 WARNING: aliasing errors must be expected set NGX to  74 to avoid them
 WARNING: aliasing errors must be expected set NGY to  74 to avoid them
 WARNING: aliasing errors must be expected set NGZ to 158 to avoid them
 aliasing errors are usually negligible using standard VASP settings
 and one can safely disregard these warnings

 real space projection operators:
  total allocation   :      12803.06 KBytes
  max/ min on nodes  :       2145.66       2127.94


 parallel 3D FFT for wavefunctions:
    minimum data exchange during FFTs selected (reduces bandwidth)
 parallel 3D FFT for charge:
    minimum data exchange during FFTs selected (reduces bandwidth)


 total amount of memory used by VASP on root node    84353. kBytes
========================================================================

   base      :      30000. kBytes
   nonlr-proj:       4285. kBytes
   fftplans  :       4447. kBytes
   grid      :       6721. kBytes
   one-center:        124. kBytes
   wavefun   :      38776. kBytes
 
     INWAV:  cpu time    0.0000: real time    0.0000
 Broyden mixing: mesh for mixing (old mesh)
   NGX = 35   NGY = 35   NGZ = 79
  (NGX  =108   NGY  =108   NGZ  =240)
  gives a total of  96775 points

 initial charge density was supplied:
 charge density of overlapping atoms calculated
 number of electron     504.0000000 magnetization 
 keeping initial charge density in first step


--------------------------------------------------------------------------------------------------------


 Maximum index for non-local projection operator          355
 Maximum index for augmentation-charges          437 (set IRDMAX)


--------------------------------------------------------------------------------------------------------


 First call to EWALD:  gamma=   0.129
 Maximum number of real-space cells 4x 4x 2
 Maximum number of reciprocal cells 2x 2x 5

 FEWALD executed in parallel
    FEWALD:  cpu time    0.0028: real time    0.0029


----------------------------------------- Iteration    1(   1)  ---------------------------------------


    POTLOK:  cpu time    0.0454: real time    0.0456
    SETDIJ:  cpu time    0.0056: real time    0.0057
     EDDAV:  cpu time    7.1300: real time    7.1525
       DOS:  cpu time    0.0013: real time    0.0013
    --------------------------------------------
      LOOP:  cpu time    7.1853: real time    7.2132

 eigenvalue-minimisations  :  3672
 total energy-change (2. order) : 0.3201410E+04  (-0.1898393E+05)
 number of electron     504.0000000 magnetization 
 augmentation part      504.0000000 magnetization 

 DIPCOR: dipole corrections for dipol
 direction  3 min pos     1,
 dipolmoment           0.000000      0.000000      0.000004 electrons x Angstroem
 Tr[quadrupol]    -10249.579938

 energy correction for charged system         0.000000 eV
 dipol+quadrupol energy correction           -0.000000 eV
 added-field ion interaction          0.000003 eV  (added to PSCEN)


 Free energy of the ion-electron system (eV)
  ---------------------------------------------------
  alpha Z        PSCENC =       805.86936721
  Ewald energy   TEWEN  =    199939.04769968
  -Hartree energ DENC   =   -242352.55607208
  -exchange      EXHF   =         0.00000000
  -V(xc)+E(xc)   XCENC  =      -327.69152229
  PAW double counting   =     40340.05962942   -38292.62782345
  entropy T*S    EENTRO =        -0.12217138
  eigenvalues    EBANDS =      1429.64463045
  atomic energy  EATOM  =     41659.78587232
  Solvation  Ediel_sol  =         0.00000000
  ---------------------------------------------------
  free energy    TOTEN  =      3201.40960990 eV

  energy without entropy =     3201.53178127  energy(sigma->0) =     3201.47069558


--------------------------------------------------------------------------------------------------------




----------------------------------------- Iteration    1(   2)  ---------------------------------------


     EDDAV:  cpu time    8.3676: real time    8.3941
       DOS:  cpu time    0.0014: real time    0.0014
    --------------------------------------------
      LOOP:  cpu time    8.3697: real time    8.3987

 eigenvalue-minimisations  :  4368
 total energy-change (2. order) :-0.3187249E+04  (-0.2929075E+04)
 number of electron     504.0000000 magnetization 
 augmentation part      504.0000000 magnetization 

 DIPCOR: dipole corrections for dipol
 direction  3 min pos     1,
 dipolmoment           0.000000      0.000000      0.000004 electrons x Angstroem
 Tr[quadrupol]    -10249.579938

 energy correction for charged system         0.000000 eV
 dipol+quadrupol energy correction           -0.000000 eV
 added-field ion interaction          0.000003 eV  (added to PSCEN)


 Free energy of the ion-electron system (eV)
  ---------------------------------------------------
  alpha Z        PSCENC =       805.86936721
  Ewald energy   TEWEN  =    199939.04769968
  -Hartree energ DENC   =   -242352.55607208
  -exchange      EXHF   =         0.00000000
  -V(xc)+E(xc)   XCENC  =      -327.69152229
  PAW double counting   =     40340.05962942   -38292.62782345
  entropy T*S    EENTRO =        -0.11815627
  eigenvalues    EBANDS =     -1757.60798946
  atomic energy  EATOM  =     41659.78587232
  Solvation  Ediel_sol  =         0.00000000
  ---------------------------------------------------
  free energy    TOTEN  =        14.16100510 eV

  energy without entropy =       14.27916136  energy(sigma->0) =       14.22008323


--------------------------------------------------------------------------------------------------------




----------------------------------------- Iteration    1(   3)  ---------------------------------------


     EDDAV:  cpu time    8.2312: real time    8.2538
       DOS:  cpu time    0.0014: real time    0.0014
    --------------------------------------------
      LOOP:  cpu time    8.2337: real time    8.2589

 eigenvalue-minimisations  :  4164
 total energy-change (2. order) :-0.2155434E+03  (-0.2005535E+03)
 number of electron     504.0000000 magnetization 
 augmentation part      504.0000000 magnetization 

 DIPCOR: dipole corrections for dipol
 direction  3 min pos     1,
 dipolmoment           0.000000      0.000000      0.000004 electrons x Angstroem
 Tr[quadrupol]    -10249.579938

 energy correction for charged system         0.000000 eV
 dipol+quadrupol energy correction           -0.000000 eV
 added-field ion interaction          0.000003 eV  (added to PSCEN)


 Free energy of the ion-electron system (eV)
  ---------------------------------------------------
  alpha Z        PSCENC =       805.86936721
  Ewald energy   TEWEN  =    199939.04769968
  -Hartree energ DENC   =   -242352.55607208
  -exchange      EXHF   =         0.00000000
  -V(xc)+E(xc)   XCENC  =      -327.69152229
  PAW double counting   =     40340.05962942   -38292.62782345
  entropy T*S    EENTRO =        -0.17569434
  eigenvalues    EBANDS =     -1973.09381825
  atomic energy  EATOM  =     41659.78587232
  Solvation  Ediel_sol  =         0.00000000
  ---------------------------------------------------
  free energy    TOTEN  =      -201.38236177 eV

  energy without entropy =     -201.20666743  energy(sigma->0) =     -201.29451460


--------------------------------------------------------------------------------------------------------




----------------------------------------- Iteration    1(   4)  ---------------------------------------


     EDDAV:  cpu time    8.3456: real time    8.3670
       DOS:  cpu time    0.0015: real time    0.0015
    --------------------------------------------
      LOOP:  cpu time    8.3489: real time    8.3728

 eigenvalue-minimisations  :  4248
 total energy-change (2. order) :-0.5771817E+01  (-0.5701481E+01)
 number of electron     504.0000000 magnetization 
 augmentation part      504.0000000 magnetization 

 DIPCOR: dipole corrections for dipol
 direction  3 min pos     1,
 dipolmoment           0.000000      0.000000      0.000004 electrons x Angstroem
 Tr[quadrupol]    -10249.579938

 energy correction for charged system         0.000000 eV
 dipol+quadrupol energy correction           -0.000000 eV
 added-field ion interaction          0.000003 eV  (added to PSCEN)


 Free energy of the ion-electron system (eV)
  ---------------------------------------------------
  alpha Z        PSCENC =       805.86936721
  Ewald energy   TEWEN  =    199939.04769968
  -Hartree energ DENC   =   -242352.55607208
  -exchange      EXHF   =         0.00000000
  -V(xc)+E(xc)   XCENC  =      -327.69152229
  PAW double counting   =     40340.05962942   -38292.62782345
  entropy T*S    EENTRO =        -0.19079965
  eigenvalues    EBANDS =     -1978.85052969
  atomic energy  EATOM  =     41659.78587232
  Solvation  Ediel_sol  =         0.00000000
  ---------------------------------------------------
  free energy    TOTEN  =      -207.15417851 eV

  energy without entropy =     -206.96337887  energy(sigma->0) =     -207.05877869


--------------------------------------------------------------------------------------------------------




----------------------------------------- Iteration    1(   5)  ---------------------------------------


     EDDAV:  cpu time    8.6108: real time    8.7088
       DOS:  cpu time    0.0014: real time    0.0014
    CHARGE:  cpu time    0.2244: real time    0.2250
    MIXING:  cpu time    0.0021: real time    0.0022
    --------------------------------------------
      LOOP:  cpu time    8.8396: real time    8.9416

 eigenvalue-minimisations  :  4440
 total energy-change (2. order) :-0.1798018E+00  (-0.1792832E+00)
 number of electron     503.9998403 magnetization 
 augmentation part      191.2696364 magnetization 

 DIPCOR: dipole corrections for dipol
 direction  3 min pos     1,
 dipolmoment           0.000000      0.000000      0.000004 electrons x Angstroem
 Tr[quadrupol]    -10249.579938

 energy correction for charged system         0.000000 eV
 dipol+quadrupol energy correction           -0.000000 eV
 added-field ion interaction          0.000003 eV  (added to PSCEN)


 Broyden mixing:
  rms(total) = 0.62292E+01    rms(broyden)= 0.62292E+01
  rms(prec ) = 0.63805E+01
  weight for this iteration     100.00

 Free energy of the ion-electron system (eV)
  ---------------------------------------------------
  alpha Z        PSCENC =       805.86936721
  Ewald energy   TEWEN  =    199939.04769968
  -Hartree energ DENC   =   -242352.55607208
  -exchange      EXHF   =         0.00000000
  -V(xc)+E(xc)   XCENC  =      -327.69152229
  PAW double counting   =     40340.05962942   -38292.62782345
  entropy T*S    EENTRO =        -0.19035119
  eigenvalues    EBANDS =     -1979.03077990
  atomic energy  EATOM  =     41659.78587232
  Solvation  Ediel_sol  =         0.00000000
  ---------------------------------------------------
  free energy    TOTEN  =      -207.33398027 eV

  energy without entropy =     -207.14362908  energy(sigma->0) =     -207.23880467


--------------------------------------------------------------------------------------------------------




----------------------------------------- Iteration    1(   6)  ---------------------------------------


    POTLOK:  cpu time    0.0424: real time    0.0426
    SETDIJ:  cpu time    0.0061: real time    0.0062
    EDDIAG:  cpu time    1.3010: real time    1.3083
  RMM-DIIS:  cpu time    3.3694: real time    3.3776
    ORTHCH:  cpu time    0.3600: real time    0.3610
       DOS:  cpu time    0.0014: real time    0.0014
    CHARGE:  cpu time    0.2313: real time    0.2319
    MIXING:  cpu time    0.0019: real time    0.0020
    --------------------------------------------
      LOOP:  cpu time    5.3142: real time    5.3338

 eigenvalue-minimisations  :  3677
 total energy-change (2. order) :-0.4803032E+01  (-0.1092519E+02)
 number of electron     503.9998440 magnetization 
 augmentation part      189.9031389 magnetization 

 DIPCOR: dipole corrections for dipol
 direction  3 min pos     1,
 dipolmoment           0.000000      0.000000      1.690686 electrons x Angstroem
 Tr[quadrupol]    -10251.667407

 energy correction for charged system         0.000000 eV
 dipol+quadrupol energy correction           -0.100723 eV
 added-field ion interaction          1.337997 eV  (added to PSCEN)


 Broyden mixing:
  rms(total) = 0.60745E+01    rms(broyden)= 0.60743E+01
  rms(prec ) = 0.66451E+01
  weight for this iteration     100.00

 eigenvalues of (default mixing * dielectric matrix)
  average eigenvalue GAMMA=   0.5580
  0.5580

 Free energy of the ion-electron system (eV)
  ---------------------------------------------------
  alpha Z        PSCENC =       807.10663775
  Ewald energy   TEWEN  =    199939.04769968
  -Hartree energ DENC   =   -242123.37141593
  -exchange      EXHF   =         0.00000000
  -V(xc)+E(xc)   XCENC  =      -340.41657048
  PAW double counting   =     43906.14101353   -41918.14025399
  entropy T*S    EENTRO =        -0.29526408
  eigenvalues    EBANDS =     -2141.99473066
  atomic energy  EATOM  =     41659.78587232
  Solvation  Ediel_sol  =         0.00000000
  ---------------------------------------------------
  free energy    TOTEN  =      -212.13701185 eV

  energy without entropy =     -211.84174777  energy(sigma->0) =     -211.98937981


--------------------------------------------------------------------------------------------------------




----------------------------------------- Iteration    1(   7)  ---------------------------------------


    POTLOK:  cpu time    0.0406: real time    0.0415
    SETDIJ:  cpu time    0.0058: real time    0.0060
    EDDIAG:  cpu time    1.2956: real time    1.2997
  RMM-DIIS:  cpu time    3.3965: real time    3.4150
    ORTHCH:  cpu time    0.3575: real time    0.3584
       DOS:  cpu time    0.0014: real time    0.0014
    CHARGE:  cpu time    0.2277: real time    0.2282
    MIXING:  cpu time    0.0020: real time    0.0020
    --------------------------------------------
      LOOP:  cpu time    5.3277: real time    5.3556

 eigenvalue-minimisations  :  3678
 total energy-change (2. order) :-0.5387627E+01  (-0.5968265E+01)
 number of electron     503.9998376 magnetization 
 augmentation part      193.8930579 magnetization 

 DIPCOR: dipole corrections for dipol
 direction  3 min pos     1,
 dipolmoment           0.000000      0.000000     -1.358548 electrons x Angstroem
 Tr[quadrupol]    -10250.742928

 energy correction for charged system         0.000000 eV
 dipol+quadrupol energy correction           -0.065036 eV
 added-field ion interaction         -1.075145 eV  (added to PSCEN)


 Broyden mixing:
  rms(total) = 0.54450E+01    rms(broyden)= 0.54447E+01
  rms(prec ) = 0.65003E+01
  weight for this iteration     100.00

 eigenvalues of (default mixing * dielectric matrix)
  average eigenvalue GAMMA=   0.6731
  1.0734  0.2728

 Free energy of the ion-electron system (eV)
  ---------------------------------------------------
  alpha Z        PSCENC =       804.72918353
  Ewald energy   TEWEN  =    199939.04769968
  -Hartree energ DENC   =   -242002.91289335
  -exchange      EXHF   =         0.00000000
  -V(xc)+E(xc)   XCENC  =      -342.59144189
  PAW double counting   =     44899.49968145   -42932.56465881
  entropy T*S    EENTRO =        -0.18853880
  eigenvalues    EBANDS =     -2242.32954318
  atomic energy  EATOM  =     41659.78587232
  Solvation  Ediel_sol  =         0.00000000
  ---------------------------------------------------
  free energy    TOTEN  =      -217.52463906 eV

  energy without entropy =     -217.33610026  energy(sigma->0) =     -217.43036966


--------------------------------------------------------------------------------------------------------




----------------------------------------- Iteration    1(   8)  ---------------------------------------


    POTLOK:  cpu time    0.0411: real time    0.0413
    SETDIJ:  cpu time    0.0059: real time    0.0061
    EDDIAG:  cpu time    1.2962: real time    1.3005
  RMM-DIIS:  cpu time    3.4971: real time    3.5059
    ORTHCH:  cpu time    0.3572: real time    0.3581
       DOS:  cpu time    0.0014: real time    0.0014
    CHARGE:  cpu time    0.2290: real time    0.2296
    MIXING:  cpu time    0.0019: real time    0.0019
    --------------------------------------------
      LOOP:  cpu time    5.4305: real time    5.4481

 eigenvalue-minimisations  :  3676
 total energy-change (2. order) : 0.4469505E+01  (-0.9137496E+01)
 number of electron     503.9998350 magnetization 
 augmentation part      197.6568275 magnetization 

 DIPCOR: dipole corrections for dipol
 direction  3 min pos     1,
 dipolmoment           0.000000      0.000000      1.147516 electrons x Angstroem
 Tr[quadrupol]    -10250.873341

 energy correction for charged system         0.000000 eV
 dipol+quadrupol energy correction           -0.046400 eV
 added-field ion interaction          0.908135 eV  (added to PSCEN)


 Broyden mixing:
  rms(total) = 0.39247E+01    rms(broyden)= 0.39244E+01
  rms(prec ) = 0.43621E+01
  weight for this iteration     100.00

 eigenvalues of (default mixing * dielectric matrix)
  average eigenvalue GAMMA=   0.8231
  1.8258  0.4352  0.2083

 Free energy of the ion-electron system (eV)
  ---------------------------------------------------
  alpha Z        PSCENC =       806.73109921
  Ewald energy   TEWEN  =    199939.04769968
  -Hartree energ DENC   =   -241924.95752628
  -exchange      EXHF   =         0.00000000
  -V(xc)+E(xc)   XCENC  =      -344.73987714
  PAW double counting   =     46226.68878154   -44284.21629431
  entropy T*S    EENTRO =        -0.23718242
  eigenvalues    EBANDS =     -2291.15770663
  atomic energy  EATOM  =     41659.78587232
  Solvation  Ediel_sol  =         0.00000000
  ---------------------------------------------------
  free energy    TOTEN  =      -213.05513403 eV

  energy without entropy =     -212.81795162  energy(sigma->0) =     -212.93654282


--------------------------------------------------------------------------------------------------------




----------------------------------------- Iteration    1(   9)  ---------------------------------------


    POTLOK:  cpu time    0.0398: real time    0.0399
    SETDIJ:  cpu time    0.0050: real time    0.0050
    EDDIAG:  cpu time    1.2903: real time    1.2943
  RMM-DIIS:  cpu time    3.4522: real time    3.4606
    ORTHCH:  cpu time    0.3579: real time    0.3588
       DOS:  cpu time    0.0014: real time    0.0014
    CHARGE:  cpu time    0.2284: real time    0.2289
    MIXING:  cpu time    0.0021: real time    0.0021
    --------------------------------------------
      LOOP:  cpu time    5.3777: real time    5.3941

 eigenvalue-minimisations  :  3677
 total energy-change (2. order) : 0.1359313E+01  (-0.3941928E+01)
 number of electron     503.9998342 magnetization 
 augmentation part      197.8250169 magnetization 

 DIPCOR: dipole corrections for dipol
 direction  3 min pos     1,
 dipolmoment           0.000000      0.000000      0.239724 electrons x Angstroem
 Tr[quadrupol]    -10250.855845

 energy correction for charged system         0.000000 eV
 dipol+quadrupol energy correction           -0.002025 eV
 added-field ion interaction          0.189716 eV  (added to PSCEN)


 Broyden mixing:
  rms(total) = 0.37060E+01    rms(broyden)= 0.37058E+01
  rms(prec ) = 0.41773E+01
  weight for this iteration     100.00

 eigenvalues of (default mixing * dielectric matrix)
  average eigenvalue GAMMA=   0.7873
  2.1508  0.4007  0.3393  0.2586

 Free energy of the ion-electron system (eV)
  ---------------------------------------------------
  alpha Z        PSCENC =       806.05705482
  Ewald energy   TEWEN  =    199939.04769968
  -Hartree energ DENC   =   -241891.47700795
  -exchange      EXHF   =         0.00000000
  -V(xc)+E(xc)   XCENC  =      -346.07211247
  PAW double counting   =     48076.34613971   -46159.24827090
  entropy T*S    EENTRO =        -0.21001494
  eigenvalues    EBANDS =     -2295.92518131
  atomic energy  EATOM  =     41659.78587232
  Solvation  Ediel_sol  =         0.00000000
  ---------------------------------------------------
  free energy    TOTEN  =      -211.69582105 eV

  energy without entropy =     -211.48580611  energy(sigma->0) =     -211.59081358


--------------------------------------------------------------------------------------------------------




----------------------------------------- Iteration    1(  10)  ---------------------------------------


    POTLOK:  cpu time    0.0398: real time    0.0398
    SETDIJ:  cpu time    0.0051: real time    0.0051
    EDDIAG:  cpu time    1.2912: real time    1.2955
  RMM-DIIS:  cpu time    3.4249: real time    3.4331
    ORTHCH:  cpu time    0.3577: real time    0.3586
       DOS:  cpu time    0.0014: real time    0.0014
    CHARGE:  cpu time    0.2290: real time    0.2296
    MIXING:  cpu time    0.0022: real time    0.0022
    --------------------------------------------
      LOOP:  cpu time    5.3520: real time    5.3675

 eigenvalue-minimisations  :  3681
 total energy-change (2. order) : 0.8459558E+01  (-0.2065683E+01)
 number of electron     503.9998343 magnetization 
 augmentation part      198.2452646 magnetization 

 DIPCOR: dipole corrections for dipol
 direction  3 min pos     1,
 dipolmoment           0.000000      0.000000      0.588052 electrons x Angstroem
 Tr[quadrupol]    -10251.444024

 energy correction for charged system         0.000000 eV
 dipol+quadrupol energy correction           -0.012185 eV
 added-field ion interaction          0.465380 eV  (added to PSCEN)


 Broyden mixing:
  rms(total) = 0.24666E+01    rms(broyden)= 0.24663E+01
  rms(prec ) = 0.29137E+01
  weight for this iteration     100.00

 eigenvalues of (default mixing * dielectric matrix)
  average eigenvalue GAMMA=   0.7465
  2.2256  0.5005  0.5005  0.2229  0.2833

 Free energy of the ion-electron system (eV)
  ---------------------------------------------------
  alpha Z        PSCENC =       806.32255909
  Ewald energy   TEWEN  =    199939.04769968
  -Hartree energ DENC   =   -241911.69510443
  -exchange      EXHF   =         0.00000000
  -V(xc)+E(xc)   XCENC  =      -346.36226296
  PAW double counting   =     48859.70430265   -46951.94522106
  entropy T*S    EENTRO =        -0.22207975
  eigenvalues    EBANDS =     -2257.87202880
  atomic energy  EATOM  =     41659.78587232
  Solvation  Ediel_sol  =         0.00000000
  ---------------------------------------------------
  free energy    TOTEN  =      -203.23626326 eV

  energy without entropy =     -203.01418351  energy(sigma->0) =     -203.12522339


--------------------------------------------------------------------------------------------------------




----------------------------------------- Iteration    1(  11)  ---------------------------------------


    POTLOK:  cpu time    0.0400: real time    0.0401
    SETDIJ:  cpu time    0.0052: real time    0.0052
    EDDIAG:  cpu time    1.2873: real time    1.2914
  RMM-DIIS:  cpu time    3.4317: real time    3.4413
    ORTHCH:  cpu time    0.3560: real time    0.3569
       DOS:  cpu time    0.0014: real time    0.0015
    CHARGE:  cpu time    0.2249: real time    0.2260
    MIXING:  cpu time    0.0024: real time    0.0024
    --------------------------------------------
      LOOP:  cpu time    5.3495: real time    5.3685

 eigenvalue-minimisations  :  3678
 total energy-change (2. order) : 0.6265214E+01  (-0.1342322E+01)
 number of electron     503.9998344 magnetization 
 augmentation part      198.5300800 magnetization 

 DIPCOR: dipole corrections for dipol
 direction  3 min pos     1,
 dipolmoment           0.000000      0.000000      0.398531 electrons x Angstroem
 Tr[quadrupol]    -10251.797226

 energy correction for charged system         0.000000 eV
 dipol+quadrupol energy correction           -0.005597 eV
 added-field ion interaction          0.315395 eV  (added to PSCEN)


 Broyden mixing:
  rms(total) = 0.18356E+01    rms(broyden)= 0.18353E+01
  rms(prec ) = 0.21386E+01
  weight for this iteration     100.00

 eigenvalues of (default mixing * dielectric matrix)
  average eigenvalue GAMMA=   0.7201
  2.2620  0.6453  0.6453  0.2312  0.2683  0.2683

 Free energy of the ion-electron system (eV)
  ---------------------------------------------------
  alpha Z        PSCENC =       806.17916224
  Ewald energy   TEWEN  =    199939.04769968
  -Hartree energ DENC   =   -241937.15212179
  -exchange      EXHF   =         0.00000000
  -V(xc)+E(xc)   XCENC  =      -346.10919505
  PAW double counting   =     49054.49217621   -47147.34023759
  entropy T*S    EENTRO =        -0.19032477
  eigenvalues    EBANDS =     -2225.68408059
  atomic energy  EATOM  =     41659.78587232
  Solvation  Ediel_sol  =         0.00000000
  ---------------------------------------------------
  free energy    TOTEN  =      -196.97104934 eV

  energy without entropy =     -196.78072458  energy(sigma->0) =     -196.87588696


--------------------------------------------------------------------------------------------------------




----------------------------------------- Iteration    1(  12)  ---------------------------------------


    POTLOK:  cpu time    0.0408: real time    0.0409
    SETDIJ:  cpu time    0.0052: real time    0.0053
    EDDIAG:  cpu time    1.2772: real time    1.3526
  RMM-DIIS:  cpu time    3.4115: real time    3.4219
    ORTHCH:  cpu time    0.3550: real time    0.3562
       DOS:  cpu time    0.0014: real time    0.0014
    CHARGE:  cpu time    0.2248: real time    0.2253
    MIXING:  cpu time    0.0026: real time    0.0026
    --------------------------------------------
      LOOP:  cpu time    5.3193: real time    5.4092

 eigenvalue-minimisations  :  3679
 total energy-change (2. order) : 0.6386691E+01  (-0.6571867E+00)
 number of electron     503.9998351 magnetization 
 augmentation part      198.2657233 magnetization 

 DIPCOR: dipole corrections for dipol
 direction  3 min pos     1,
 dipolmoment           0.000000      0.000000      0.304438 electrons x Angstroem
 Tr[quadrupol]    -10251.902518

 energy correction for charged system         0.000000 eV
 dipol+quadrupol energy correction           -0.003266 eV
 added-field ion interaction          0.240930 eV  (added to PSCEN)


 Broyden mixing:
  rms(total) = 0.98709E+00    rms(broyden)= 0.98694E+00
  rms(prec ) = 0.11079E+01
  weight for this iteration     100.00

 eigenvalues of (default mixing * dielectric matrix)
  average eigenvalue GAMMA=   0.6759
  2.2467  0.6365  0.6365  0.4295  0.2225  0.2798  0.2798

 Free energy of the ion-electron system (eV)
  ---------------------------------------------------
  alpha Z        PSCENC =       806.10702799
  Ewald energy   TEWEN  =    199939.04769968
  -Hartree energ DENC   =   -241966.52518372
  -exchange      EXHF   =         0.00000000
  -V(xc)+E(xc)   XCENC  =      -345.42220328
  PAW double counting   =     49209.70397083   -47300.63589031
  entropy T*S    EENTRO =        -0.20947527
  eigenvalues    EBANDS =     -2192.43617639
  atomic energy  EATOM  =     41659.78587232
  Solvation  Ediel_sol  =         0.00000000
  ---------------------------------------------------
  free energy    TOTEN  =      -190.58435816 eV

  energy without entropy =     -190.37488288  energy(sigma->0) =     -190.47962052


--------------------------------------------------------------------------------------------------------




----------------------------------------- Iteration    1(  13)  ---------------------------------------


    POTLOK:  cpu time    0.0404: real time    0.0414
    SETDIJ:  cpu time    0.0053: real time    0.0054
    EDDIAG:  cpu time    1.2904: real time    1.2953
  RMM-DIIS:  cpu time    3.3999: real time    3.4100
    ORTHCH:  cpu time    0.3544: real time    0.3561
       DOS:  cpu time    0.0014: real time    0.0014
    CHARGE:  cpu time    0.2276: real time    0.2283
    MIXING:  cpu time    0.0026: real time    0.0026
    --------------------------------------------
      LOOP:  cpu time    5.3227: real time    5.3444

 eigenvalue-minimisations  :  3681
 total energy-change (2. order) : 0.7919110E+00  (-0.1542648E+00)
 number of electron     503.9998355 magnetization 
 augmentation part      197.9023945 magnetization 

 DIPCOR: dipole corrections for dipol
 direction  3 min pos     1,
 dipolmoment           0.000000      0.000000      0.241926 electrons x Angstroem
 Tr[quadrupol]    -10252.148677

 energy correction for charged system         0.000000 eV
 dipol+quadrupol energy correction           -0.002062 eV
 added-field ion interaction          0.191458 eV  (added to PSCEN)


 Broyden mixing:
  rms(total) = 0.79467E+00    rms(broyden)= 0.79459E+00
  rms(prec ) = 0.87955E+00
  weight for this iteration     100.00

 eigenvalues of (default mixing * dielectric matrix)
  average eigenvalue GAMMA=   0.6646
  2.2300  0.7364  0.7364  0.5326  0.2898  0.2898  0.2338  0.2678

 Free energy of the ion-electron system (eV)
  ---------------------------------------------------
  alpha Z        PSCENC =       806.05876013
  Ewald energy   TEWEN  =    199939.04769968
  -Hartree energ DENC   =   -241986.56807531
  -exchange      EXHF   =         0.00000000
  -V(xc)+E(xc)   XCENC  =      -345.10874627
  PAW double counting   =     49219.30372009   -47308.07062735
  entropy T*S    EENTRO =        -0.21888123
  eigenvalues    EBANDS =     -2174.02216923
  atomic energy  EATOM  =     41659.78587232
  Solvation  Ediel_sol  =         0.00000000
  ---------------------------------------------------
  free energy    TOTEN  =      -189.79244717 eV

  energy without entropy =     -189.57356594  energy(sigma->0) =     -189.68300656


--------------------------------------------------------------------------------------------------------




----------------------------------------- Iteration    1(  14)  ---------------------------------------


    POTLOK:  cpu time    0.0408: real time    0.0411
    SETDIJ:  cpu time    0.0052: real time    0.0052
    EDDIAG:  cpu time    1.2897: real time    1.2937
  RMM-DIIS:  cpu time    3.3823: real time    3.3906
    ORTHCH:  cpu time    0.3535: real time    0.3545
       DOS:  cpu time    0.0014: real time    0.0014
    CHARGE:  cpu time    0.2266: real time    0.2272
    MIXING:  cpu time    0.0027: real time    0.0027
    --------------------------------------------
      LOOP:  cpu time    5.3028: real time    5.3205

 eigenvalue-minimisations  :  3681
 total energy-change (2. order) : 0.2748967E+00  (-0.4068516E-01)
 number of electron     503.9998358 magnetization 
 augmentation part      197.6193794 magnetization 

 DIPCOR: dipole corrections for dipol
 direction  3 min pos     1,
 dipolmoment           0.000000      0.000000      0.237975 electrons x Angstroem
 Tr[quadrupol]    -10252.386924

 energy correction for charged system         0.000000 eV
 dipol+quadrupol energy correction           -0.001996 eV
 added-field ion interaction          0.188332 eV  (added to PSCEN)


 Broyden mixing:
  rms(total) = 0.64669E+00    rms(broyden)= 0.64665E+00
  rms(prec ) = 0.72552E+00
  weight for this iteration     100.00

 eigenvalues of (default mixing * dielectric matrix)
  average eigenvalue GAMMA=   0.7062
  2.2011  1.0246  1.0246  0.5902  0.3747  0.3747  0.2721  0.2721  0.2219

 Free energy of the ion-electron system (eV)
  ---------------------------------------------------
  alpha Z        PSCENC =       806.05570066
  Ewald energy   TEWEN  =    199939.04769968
  -Hartree energ DENC   =   -242003.67002109
  -exchange      EXHF   =         0.00000000
  -V(xc)+E(xc)   XCENC  =      -344.83413419
  PAW double counting   =     49221.86272860   -47308.57076463
  entropy T*S    EENTRO =        -0.21992469
  eigenvalues    EBANDS =     -2158.97470711
  atomic energy  EATOM  =     41659.78587232
  Solvation  Ediel_sol  =         0.00000000
  ---------------------------------------------------
  free energy    TOTEN  =      -189.51755045 eV

  energy without entropy =     -189.29762576  energy(sigma->0) =     -189.40758810


--------------------------------------------------------------------------------------------------------




----------------------------------------- Iteration    1(  15)  ---------------------------------------


    POTLOK:  cpu time    0.0397: real time    0.0398
    SETDIJ:  cpu time    0.0052: real time    0.0052
    EDDIAG:  cpu time    1.2889: real time    1.2920
  RMM-DIIS:  cpu time    3.4659: real time    3.4778
    ORTHCH:  cpu time    0.3535: real time    0.3544
       DOS:  cpu time    0.0014: real time    0.0014
    CHARGE:  cpu time    0.2255: real time    0.2261
    MIXING:  cpu time    0.0027: real time    0.0028
    --------------------------------------------
      LOOP:  cpu time    5.3836: real time    5.4020

 eigenvalue-minimisations  :  3678
 total energy-change (2. order) : 0.2033219E-01  (-0.4552008E-01)
 number of electron     503.9998360 magnetization 
 augmentation part      197.3579809 magnetization 

 DIPCOR: dipole corrections for dipol
 direction  3 min pos     1,
 dipolmoment           0.000000      0.000000      0.240768 electrons x Angstroem
 Tr[quadrupol]    -10252.689096

 energy correction for charged system         0.000000 eV
 dipol+quadrupol energy correction           -0.002043 eV
 added-field ion interaction          0.190542 eV  (added to PSCEN)


 Broyden mixing:
  rms(total) = 0.65195E+00    rms(broyden)= 0.65189E+00
  rms(prec ) = 0.75732E+00
  weight for this iteration     100.00

 eigenvalues of (default mixing * dielectric matrix)
  average eigenvalue GAMMA=   0.7577
  2.1783  1.3984  1.3984  0.6904  0.5199  0.3985  0.2706  0.2706  0.2257  0.2257

 Free energy of the ion-electron system (eV)
  ---------------------------------------------------
  alpha Z        PSCENC =       806.05786374
  Ewald energy   TEWEN  =    199939.04769968
  -Hartree energ DENC   =   -242023.78635786
  -exchange      EXHF   =         0.00000000
  -V(xc)+E(xc)   XCENC  =      -344.48322112
  PAW double counting   =     49227.02051101   -47311.07507052
  entropy T*S    EENTRO =        -0.22510542
  eigenvalues    EBANDS =     -2141.83941008
  atomic energy  EATOM  =     41659.78587232
  Solvation  Ediel_sol  =         0.00000000
  ---------------------------------------------------
  free energy    TOTEN  =      -189.49721826 eV

  energy without entropy =     -189.27211284  energy(sigma->0) =     -189.38466555


--------------------------------------------------------------------------------------------------------




----------------------------------------- Iteration    1(  16)  ---------------------------------------


    POTLOK:  cpu time    0.0399: real time    0.0400
    SETDIJ:  cpu time    0.0052: real time    0.0052
    EDDIAG:  cpu time    1.2905: real time    1.2936
  RMM-DIIS:  cpu time    3.4480: real time    3.4583
    ORTHCH:  cpu time    0.3536: real time    0.3545
       DOS:  cpu time    0.0014: real time    0.0014
    CHARGE:  cpu time    0.2252: real time    0.2258
    MIXING:  cpu time    0.0029: real time    0.0029
    --------------------------------------------
      LOOP:  cpu time    5.3674: real time    5.3840

 eigenvalue-minimisations  :  3681
 total energy-change (2. order) : 0.2256917E+00  (-0.4124415E-01)
 number of electron     503.9998361 magnetization 
 augmentation part      197.1527851 magnetization 

 DIPCOR: dipole corrections for dipol
 direction  3 min pos     1,
 dipolmoment           0.000000      0.000000      0.233673 electrons x Angstroem
 Tr[quadrupol]    -10253.196318

 energy correction for charged system         0.000000 eV
 dipol+quadrupol energy correction           -0.001924 eV
 added-field ion interaction          0.184927 eV  (added to PSCEN)


 Broyden mixing:
  rms(total) = 0.47477E+00    rms(broyden)= 0.47469E+00
  rms(prec ) = 0.56880E+00
  weight for this iteration     100.00

 eigenvalues of (default mixing * dielectric matrix)
  average eigenvalue GAMMA=   0.7498
  2.2096  1.5110  1.5110  0.6424  0.6424  0.4465  0.2864  0.2864  0.2658  0.2316
  0.2143

 Free energy of the ion-electron system (eV)
  ---------------------------------------------------
  alpha Z        PSCENC =       806.05236691
  Ewald energy   TEWEN  =    199939.04769968
  -Hartree energ DENC   =   -242053.39932286
  -exchange      EXHF   =         0.00000000
  -V(xc)+E(xc)   XCENC  =      -344.01391608
  PAW double counting   =     49258.18368498   -47338.78790181
  entropy T*S    EENTRO =        -0.23267143
  eigenvalues    EBANDS =     -2115.90733822
  atomic energy  EATOM  =     41659.78587232
  Solvation  Ediel_sol  =         0.00000000
  ---------------------------------------------------
  free energy    TOTEN  =      -189.27152651 eV

  energy without entropy =     -189.03885508  energy(sigma->0) =     -189.15519080


--------------------------------------------------------------------------------------------------------




----------------------------------------- Iteration    1(  17)  ---------------------------------------


    POTLOK:  cpu time    0.0400: real time    0.0401
    SETDIJ:  cpu time    0.0055: real time    0.0056
    EDDIAG:  cpu time    1.2872: real time    1.2914
  RMM-DIIS:  cpu time    3.4331: real time    3.4597
    ORTHCH:  cpu time    0.3537: real time    0.3545
       DOS:  cpu time    0.0015: real time    0.0015
    CHARGE:  cpu time    0.2251: real time    0.2256
    MIXING:  cpu time    0.0030: real time    0.0030
    --------------------------------------------
      LOOP:  cpu time    5.3498: real time    5.3848

 eigenvalue-minimisations  :  3678
 total energy-change (2. order) : 0.2373272E+00  (-0.2989888E-01)
 number of electron     503.9998361 magnetization 
 augmentation part      197.1335953 magnetization 

 DIPCOR: dipole corrections for dipol
 direction  3 min pos     1,
 dipolmoment           0.000000      0.000000      0.175385 electrons x Angstroem
 Tr[quadrupol]    -10253.489506

 energy correction for charged system         0.000000 eV
 dipol+quadrupol energy correction           -0.001084 eV
 added-field ion interaction          0.138798 eV  (added to PSCEN)


 Broyden mixing:
  rms(total) = 0.25079E+00    rms(broyden)= 0.25067E+00
  rms(prec ) = 0.29151E+00
  weight for this iteration     100.00

 eigenvalues of (default mixing * dielectric matrix)
  average eigenvalue GAMMA=   0.7424
  2.2200  1.5589  1.5589  0.7113  0.7113  0.5487  0.3330  0.2819  0.2819  0.2691
  0.2243  0.2097

 Free energy of the ion-electron system (eV)
  ---------------------------------------------------
  alpha Z        PSCENC =       806.00707863
  Ewald energy   TEWEN  =    199939.04769968
  -Hartree energ DENC   =   -242067.84991670
  -exchange      EXHF   =         0.00000000
  -V(xc)+E(xc)   XCENC  =      -343.86168299
  PAW double counting   =     49285.73069345   -47365.24634248
  entropy T*S    EENTRO =        -0.23408675
  eigenvalues    EBANDS =     -2102.41351449
  atomic energy  EATOM  =     41659.78587232
  Solvation  Ediel_sol  =         0.00000000
  ---------------------------------------------------
  free energy    TOTEN  =      -189.03419935 eV

  energy without entropy =     -188.80011259  energy(sigma->0) =     -188.91715597


--------------------------------------------------------------------------------------------------------




----------------------------------------- Iteration    1(  18)  ---------------------------------------


    POTLOK:  cpu time    0.0400: real time    0.0401
    SETDIJ:  cpu time    0.0052: real time    0.0052
    EDDIAG:  cpu time    1.2862: real time    1.2903
  RMM-DIIS:  cpu time    3.4413: real time    3.4497
    ORTHCH:  cpu time    0.3531: real time    0.3539
       DOS:  cpu time    0.0014: real time    0.0014
    CHARGE:  cpu time    0.2350: real time    0.2355
    MIXING:  cpu time    0.0032: real time    0.0032
    --------------------------------------------
      LOOP:  cpu time    5.3660: real time    5.3829

 eigenvalue-minimisations  :  3678
 total energy-change (2. order) : 0.6941854E-01  (-0.1211396E-01)
 number of electron     503.9998362 magnetization 
 augmentation part      197.0476159 magnetization 

 DIPCOR: dipole corrections for dipol
 direction  3 min pos     1,
 dipolmoment           0.000000      0.000000      0.127891 electrons x Angstroem
 Tr[quadrupol]    -10253.678346

 energy correction for charged system         0.000000 eV
 dipol+quadrupol energy correction           -0.000576 eV
 added-field ion interaction          0.101212 eV  (added to PSCEN)


 Broyden mixing:
  rms(total) = 0.15942E+00    rms(broyden)= 0.15937E+00
  rms(prec ) = 0.17888E+00
  weight for this iteration     100.00

 eigenvalues of (default mixing * dielectric matrix)
  average eigenvalue GAMMA=   0.7252
  2.2871  1.5775  1.5775  0.7715  0.7715  0.5548  0.3325  0.3325  0.2796  0.2796
  0.2291  0.2291  0.2049

 Free energy of the ion-electron system (eV)
  ---------------------------------------------------
  alpha Z        PSCENC =       805.97000023
  Ewald energy   TEWEN  =    199939.04769968
  -Hartree energ DENC   =   -242079.20991176
  -exchange      EXHF   =         0.00000000
  -V(xc)+E(xc)   XCENC  =      -343.70806477
  PAW double counting   =     49304.12805979   -47382.61881210
  entropy T*S    EENTRO =        -0.24962206
  eigenvalues    EBANDS =     -2092.11000214
  atomic energy  EATOM  =     41659.78587232
  Solvation  Ediel_sol  =         0.00000000
  ---------------------------------------------------
  free energy    TOTEN  =      -188.96478081 eV

  energy without entropy =     -188.71515875  energy(sigma->0) =     -188.83996978


--------------------------------------------------------------------------------------------------------




----------------------------------------- Iteration    1(  19)  ---------------------------------------


    POTLOK:  cpu time    0.0401: real time    0.0402
    SETDIJ:  cpu time    0.0052: real time    0.0052
    EDDIAG:  cpu time    1.2862: real time    1.2914
  RMM-DIIS:  cpu time    3.3520: real time    3.4518
    ORTHCH:  cpu time    0.3533: real time    0.3542
       DOS:  cpu time    0.0014: real time    0.0014
    CHARGE:  cpu time    0.2249: real time    0.2254
    MIXING:  cpu time    0.0035: real time    0.0035
    --------------------------------------------
      LOOP:  cpu time    5.2673: real time    5.3766

 eigenvalue-minimisations  :  3682
 total energy-change (2. order) : 0.1913307E-01  (-0.2308473E-02)
 number of electron     503.9998362 magnetization 
 augmentation part      197.0311610 magnetization 

 DIPCOR: dipole corrections for dipol
 direction  3 min pos     1,
 dipolmoment           0.000000      0.000000      0.107554 electrons x Angstroem
 Tr[quadrupol]    -10253.795309

 energy correction for charged system         0.000000 eV
 dipol+quadrupol energy correction           -0.000408 eV
 added-field ion interaction          0.085118 eV  (added to PSCEN)


 Broyden mixing:
  rms(total) = 0.89421E-01    rms(broyden)= 0.89391E-01
  rms(prec ) = 0.94799E-01
  weight for this iteration     100.00

 eigenvalues of (default mixing * dielectric matrix)
  average eigenvalue GAMMA=   0.7106
  2.3246  1.5799  1.5799  0.8233  0.8233  0.5615  0.3883  0.3883  0.2784  0.2784
  0.2655  0.2296  0.2296  0.1979

 Free energy of the ion-electron system (eV)
  ---------------------------------------------------
  alpha Z        PSCENC =       805.95407424
  Ewald energy   TEWEN  =    199939.04769968
  -Hartree energ DENC   =   -242083.81273432
  -exchange      EXHF   =         0.00000000
  -V(xc)+E(xc)   XCENC  =      -343.69473069
  PAW double counting   =     49317.12237470   -47395.56080646
  entropy T*S    EENTRO =        -0.24533871
  eigenvalues    EBANDS =     -2087.54205850
  atomic energy  EATOM  =     41659.78587232
  Solvation  Ediel_sol  =         0.00000000
  ---------------------------------------------------
  free energy    TOTEN  =      -188.94564774 eV

  energy without entropy =     -188.70030903  energy(sigma->0) =     -188.82297839


--------------------------------------------------------------------------------------------------------




----------------------------------------- Iteration    1(  20)  ---------------------------------------


    POTLOK:  cpu time    0.0404: real time    0.0404
    SETDIJ:  cpu time    0.0052: real time    0.0052
    EDDIAG:  cpu time    1.2882: real time    1.2929
  RMM-DIIS:  cpu time    3.4289: real time    3.4372
    ORTHCH:  cpu time    0.3528: real time    0.3543
       DOS:  cpu time    0.0014: real time    0.0014
    CHARGE:  cpu time    0.2245: real time    0.2250
    MIXING:  cpu time    0.0038: real time    0.0038
    --------------------------------------------
      LOOP:  cpu time    5.3458: real time    5.3641

 eigenvalue-minimisations  :  3682
 total energy-change (2. order) : 0.3520515E-02  (-0.4921585E-03)
 number of electron     503.9998363 magnetization 
 augmentation part      197.0183324 magnetization 

 DIPCOR: dipole corrections for dipol
 direction  3 min pos     1,
 dipolmoment           0.000000      0.000000      0.103674 electrons x Angstroem
 Tr[quadrupol]    -10253.873699

 energy correction for charged system         0.000000 eV
 dipol+quadrupol energy correction           -0.000379 eV
 added-field ion interaction          0.082047 eV  (added to PSCEN)


 Broyden mixing:
  rms(total) = 0.74819E-01    rms(broyden)= 0.74816E-01
  rms(prec ) = 0.79434E-01
  weight for this iteration     100.00

 eigenvalues of (default mixing * dielectric matrix)
  average eigenvalue GAMMA=   0.7596
  2.4191  1.6589  1.6589  1.0699  1.0699  0.6709  0.5268  0.5268  0.2838  0.2838
  0.2898  0.2898  0.2241  0.2241  0.1975

 Free energy of the ion-electron system (eV)
  ---------------------------------------------------
  alpha Z        PSCENC =       805.95103216
  Ewald energy   TEWEN  =    199939.04769968
  -Hartree energ DENC   =   -242087.05309007
  -exchange      EXHF   =         0.00000000
  -V(xc)+E(xc)   XCENC  =      -343.68019148
  PAW double counting   =     49325.81088631   -47404.23079531
  entropy T*S    EENTRO =        -0.24493526
  eigenvalues    EBANDS =     -2084.32860558
  atomic energy  EATOM  =     41659.78587232
  Solvation  Ediel_sol  =         0.00000000
  ---------------------------------------------------
  free energy    TOTEN  =      -188.94212723 eV

  energy without entropy =     -188.69719197  energy(sigma->0) =     -188.81965960


--------------------------------------------------------------------------------------------------------




----------------------------------------- Iteration    1(  21)  ---------------------------------------


    POTLOK:  cpu time    0.0406: real time    0.0408
    SETDIJ:  cpu time    0.0057: real time    0.0057
    EDDIAG:  cpu time    1.2880: real time    1.2922
  RMM-DIIS:  cpu time    3.4306: real time    3.4388
    ORTHCH:  cpu time    0.3536: real time    0.3544
       DOS:  cpu time    0.0014: real time    0.0014
    CHARGE:  cpu time    0.2254: real time    0.2260
    MIXING:  cpu time    0.0038: real time    0.0038
    --------------------------------------------
      LOOP:  cpu time    5.3499: real time    5.3667

 eigenvalue-minimisations  :  3679
 total energy-change (2. order) : 0.2213424E-03  (-0.8028347E-03)
 number of electron     503.9998363 magnetization 
 augmentation part      197.0158813 magnetization 

 DIPCOR: dipole corrections for dipol
 direction  3 min pos     1,
 dipolmoment           0.000000      0.000000      0.093928 electrons x Angstroem
 Tr[quadrupol]    -10254.085950

 energy correction for charged system         0.000000 eV
 dipol+quadrupol energy correction           -0.000311 eV
 added-field ion interaction          0.074334 eV  (added to PSCEN)


 Broyden mixing:
  rms(total) = 0.68208E-01    rms(broyden)= 0.68202E-01
  rms(prec ) = 0.76162E-01
  weight for this iteration     100.00

 eigenvalues of (default mixing * dielectric matrix)
  average eigenvalue GAMMA=   0.7683
  2.2985  1.6864  1.6864  1.2092  1.2092  0.8649  0.6039  0.6039  0.3358  0.3358
  0.2795  0.2795  0.2567  0.2233  0.2233  0.1972

 Free energy of the ion-electron system (eV)
  ---------------------------------------------------
  alpha Z        PSCENC =       805.94338741
  Ewald energy   TEWEN  =    199939.04769968
  -Hartree energ DENC   =   -242094.78668417
  -exchange      EXHF   =         0.00000000
  -V(xc)+E(xc)   XCENC  =      -343.66802555
  PAW double counting   =     49340.47851486   -47418.98413505
  entropy T*S    EENTRO =        -0.24460504
  eigenvalues    EBANDS =     -2076.51393035
  atomic energy  EATOM  =     41659.78587232
  Solvation  Ediel_sol  =         0.00000000
  ---------------------------------------------------
  free energy    TOTEN  =      -188.94190589 eV

  energy without entropy =     -188.69730085  energy(sigma->0) =     -188.81960337


--------------------------------------------------------------------------------------------------------




----------------------------------------- Iteration    1(  22)  ---------------------------------------


    POTLOK:  cpu time    0.0417: real time    0.0419
    SETDIJ:  cpu time    0.0052: real time    0.0052
    EDDIAG:  cpu time    1.2903: real time    1.2952
  RMM-DIIS:  cpu time    3.4741: real time    3.4829
    ORTHCH:  cpu time    0.3518: real time    0.3527
       DOS:  cpu time    0.0014: real time    0.0014
    CHARGE:  cpu time    0.2277: real time    0.2282
    MIXING:  cpu time    0.0038: real time    0.0038
    --------------------------------------------
      LOOP:  cpu time    5.3968: real time    5.4152

 eigenvalue-minimisations  :  3680
 total energy-change (2. order) : 0.3398466E-02  (-0.6675982E-03)
 number of electron     503.9998363 magnetization 
 augmentation part      197.0163349 magnetization 

 DIPCOR: dipole corrections for dipol
 direction  3 min pos     1,
 dipolmoment           0.000000      0.000000      0.092230 electrons x Angstroem
 Tr[quadrupol]    -10254.212832

 energy correction for charged system         0.000000 eV
 dipol+quadrupol energy correction           -0.000300 eV
 added-field ion interaction          0.072990 eV  (added to PSCEN)


 Broyden mixing:
  rms(total) = 0.40184E-01    rms(broyden)= 0.40175E-01
  rms(prec ) = 0.46848E-01
  weight for this iteration     100.00

 eigenvalues of (default mixing * dielectric matrix)
  average eigenvalue GAMMA=   0.7587
  2.2711  1.6938  1.6938  1.2378  1.2378  0.8533  0.6748  0.6748  0.4332  0.3618
  0.2811  0.2811  0.2933  0.2691  0.2223  0.2223  0.1968

 Free energy of the ion-electron system (eV)
  ---------------------------------------------------
  alpha Z        PSCENC =       805.94205464
  Ewald energy   TEWEN  =    199939.04769968
  -Hartree energ DENC   =   -242099.66509844
  -exchange      EXHF   =         0.00000000
  -V(xc)+E(xc)   XCENC  =      -343.65018953
  PAW double counting   =     49338.57011734   -47417.04119454
  entropy T*S    EENTRO =        -0.24332462
  eigenvalues    EBANDS =     -2071.68444426
  atomic energy  EATOM  =     41659.78587232
  Solvation  Ediel_sol  =         0.00000000
  ---------------------------------------------------
  free energy    TOTEN  =      -188.93850742 eV

  energy without entropy =     -188.69518280  energy(sigma->0) =     -188.81684511


--------------------------------------------------------------------------------------------------------




----------------------------------------- Iteration    1(  23)  ---------------------------------------


    POTLOK:  cpu time    0.0404: real time    0.0405
    SETDIJ:  cpu time    0.0051: real time    0.0051
    EDDIAG:  cpu time    1.2834: real time    1.2875
  RMM-DIIS:  cpu time    3.4287: real time    3.4370
    ORTHCH:  cpu time    0.3540: real time    0.3566
       DOS:  cpu time    0.0014: real time    0.0014
    CHARGE:  cpu time    0.2257: real time    0.2262
    MIXING:  cpu time    0.0042: real time    0.0042
    --------------------------------------------
      LOOP:  cpu time    5.3436: real time    5.3623

 eigenvalue-minimisations  :  3678
 total energy-change (2. order) : 0.1441932E-02  (-0.2176066E-03)
 number of electron     503.9998363 magnetization 
 augmentation part      197.0211071 magnetization 

 DIPCOR: dipole corrections for dipol
 direction  3 min pos     1,
 dipolmoment           0.000000      0.000000      0.086746 electrons x Angstroem
 Tr[quadrupol]    -10254.285950

 energy correction for charged system         0.000000 eV
 dipol+quadrupol energy correction           -0.000265 eV
[...]
    275       1.6985      0.00000
    276       1.8233      0.00000
    277       2.1072      0.00000
    278       2.2717      0.00000
    279       2.3079      0.00000
    280       2.3602      0.00000
    281       2.4373      0.00000
    282       2.5708      0.00000
    283       2.6911      0.00000
    284       2.9942      0.00000
    285       3.1207      0.00000
    286       3.2210      0.00000
    287       3.4931      0.00000
    288       3.6216      0.00000
    289       3.7389      0.00000
    290       4.0024      0.00000
    291       4.0891      0.00000
    292       4.1824      0.00000
    293       4.4589      0.00000
    294       4.5110      0.00000
    295       4.5744      0.00000
    296       4.6243      0.00000
    297       4.6570      0.00000
    298       4.8067      0.00000
    299       4.8326      0.00000
    300       4.8991      0.00000
    301       4.9512      0.00000
    302       4.9892      0.00000
    303       5.0773      0.00000
    304       5.1198      0.00000
    305       5.2268      0.00000
    306       5.2633      0.00000


--------------------------------------------------------------------------------------------------------


 soft charge-density along one line, spin component           1
         0         1         2         3         4         5         6         7         8         9
 total charge-density along one line
 
 pseudopotential strength for first ion, spin component:           1
 -8.059   0.001  -0.004  -0.003  -0.002  -8.206   0.001  -0.004
  0.001  -7.979   0.001   0.003  -0.000   0.001  -8.127   0.001
 -0.004   0.001  -7.971   0.001  -0.002  -0.004   0.001  -8.120
 -0.003   0.003   0.001  -7.976   0.004  -0.003   0.003   0.000
 -0.002  -0.000  -0.002   0.004  -8.057  -0.002  -0.000  -0.002
 -8.206   0.001  -0.004  -0.003  -0.002  -8.336   0.001  -0.004
  0.001  -8.127   0.001   0.003  -0.000   0.001  -8.259   0.001
 -0.004   0.001  -8.120   0.000  -0.002  -0.004   0.001  -8.252
 -0.003   0.003   0.000  -8.124   0.004  -0.003   0.003   0.000
 -0.002  -0.000  -0.002   0.004  -8.204  -0.002  -0.000  -0.002
 -0.003   0.001  -0.027  -0.002  -0.001  -0.003   0.001  -0.027
 -0.004   0.001  -0.039  -0.002  -0.001  -0.004   0.001  -0.039
  0.003  -0.003   0.002   0.000   0.003   0.003  -0.003   0.002
  0.000  -0.003  -0.005   0.003  -0.000   0.000  -0.003  -0.005
 -0.003   0.000  -0.002  -0.003   0.004  -0.003   0.000  -0.002
  0.003  -0.003   0.002   0.000   0.004   0.003  -0.002   0.002
  0.000  -0.003  -0.005   0.004  -0.000   0.000  -0.003  -0.005
 -0.003   0.000  -0.002  -0.003   0.005  -0.003   0.000  -0.002
 total augmentation occupancy for first ion, spin component:           1
  4.493  -0.028   0.181   0.033   0.078  -2.693   0.019  -0.190  -0.067  -0.107   0.160  -0.047   0.064  -0.016  -0.016   0.000
 -0.028   4.068   0.022   0.045   0.064   0.020  -1.797  -0.009  -0.025  -0.072  -0.022  -0.005  -0.138  -0.007  -0.016   0.005
  0.181   0.022   4.417   0.045   0.060  -0.191  -0.009  -2.301  -0.046  -0.067   1.129  -0.157  -0.015  -0.211   0.004   0.002
  0.033   0.045   0.045   4.040   0.053  -0.066  -0.025  -0.045  -1.766  -0.014   0.041   0.014  -0.017  -0.008  -0.156   0.000
  0.078   0.064   0.060   0.053   4.432  -0.107  -0.072  -0.067  -0.014  -2.605   0.070  -0.039  -0.021  -0.001  -0.071   0.004
 -2.693   0.020  -0.191  -0.066  -0.107   2.773  -0.012   0.198   0.090   0.130  -0.155   0.050  -0.058   0.016   0.017   0.002
  0.019  -1.797  -0.009  -0.025  -0.072  -0.012   1.501  -0.000   0.007   0.078   0.021   0.003   0.127   0.007   0.015  -0.006
 -0.190  -0.009  -2.301  -0.045  -0.067   0.198  -0.000   2.129   0.044   0.073  -1.057   0.180   0.010   0.212  -0.003  -0.001
 -0.067  -0.025  -0.046  -1.766  -0.014   0.090   0.007   0.044   1.468  -0.016  -0.038  -0.010   0.016   0.002   0.145  -0.001
 -0.107  -0.072  -0.067  -0.014  -2.605   0.130   0.078   0.073  -0.016   2.663  -0.067   0.037   0.017   0.003   0.058  -0.002
  0.160  -0.022   1.129   0.041   0.070  -0.155   0.021  -1.057  -0.038  -0.067   2.433  -0.524  -0.001   0.105  -0.003   0.000
 -0.047  -0.005  -0.157   0.014  -0.039   0.050   0.003   0.180  -0.010   0.037  -0.524   0.157   0.008  -0.051  -0.008  -0.000
  0.064  -0.138  -0.015  -0.017  -0.021  -0.058   0.127   0.010   0.016   0.017  -0.001   0.008   0.194   0.003  -0.008  -0.006
 -0.016  -0.007  -0.211  -0.008  -0.001   0.016   0.007   0.212   0.002   0.003   0.105  -0.051   0.003   0.086  -0.003  -0.000
 -0.016  -0.016   0.004  -0.156  -0.071   0.017   0.015  -0.003   0.145   0.058  -0.003  -0.008  -0.008  -0.003   0.189   0.000
  0.000   0.005   0.002   0.000   0.004   0.002  -0.006  -0.001  -0.001  -0.002   0.000  -0.000  -0.006  -0.000   0.000   0.000
  0.000  -0.003   0.001   0.005  -0.000  -0.000   0.001  -0.006  -0.001  -0.000  -0.007   0.002  -0.000  -0.003   0.000  -0.000
 -0.002   0.000  -0.001   0.005   0.007   0.000  -0.001  -0.000  -0.006  -0.003   0.000   0.000   0.000   0.000  -0.006  -0.000


------------------------ aborting loop because EDIFF is reached ----------------------------------------


    CHARGE:  cpu time    0.2143: real time    0.2148
    FORLOC:  cpu time    0.0159: real time    0.0160
    FORNL :  cpu time    1.3004: real time    1.3035
    FORCOR:  cpu time    0.0554: real time    0.0574
    FORHAR:  cpu time    0.0242: real time    0.0242
    MIXING:  cpu time    0.0026: real time    0.0026
    OFIELD:  cpu time    0.0000: real time    0.0000

 VOLUME and BASIS-vectors are now :
 -----------------------------------------------------------------------------
  energy-cutoff  :      400.00
  volume of cell :     2567.68
      direct lattice vectors                 reciprocal lattice vectors
    11.002581515  0.000000000  0.000000000     0.090887761 -0.052474073  0.000000000
     5.501290758  9.528515099  0.000000000     0.000000000  0.104948147  0.000000000
     0.000000000  0.000000000 24.491785094     0.000000000  0.000000000  0.040830017

  length of vectors
    11.002581515 11.002581515 24.491785094     0.104948147  0.104948147  0.040830017


 FORCES acting on ions
    electron-ion (+dipol)            ewald-force                    non-local-force                 convergence-correction
 -----------------------------------------------------------------------------------------------
   0.518E+01 -.206E+01 0.226E+04   -.577E+01 0.247E+01 -.226E+04   0.595E+00 -.419E+00 0.163E+00   -.489E-02 0.574E-02 -.188E-02
   -.267E+02 -.518E+01 0.223E+04   0.273E+02 0.498E+01 -.223E+04   -.623E+00 0.214E+00 -.247E+00   0.325E-02 -.129E-01 0.590E-02
   0.595E+01 -.529E+01 -.704E+01   -.556E+01 0.520E+01 0.808E+01   -.406E+00 0.949E-01 -.107E+01   0.864E-02 -.304E-03 0.207E-01
   -.183E+01 0.489E+01 0.225E+04   0.233E+01 -.560E+01 -.225E+04   -.499E+00 0.701E+00 -.144E+00   0.253E-02 0.196E-02 0.785E-02
   -.237E+01 -.170E+02 -.230E+04   0.256E+01 0.181E+02 0.230E+04   -.195E+00 -.112E+01 0.320E+00   0.710E-02 0.506E-04 0.908E-03
   0.620E+01 -.380E+01 -.164E+02   -.571E+01 0.314E+01 0.174E+02   -.494E+00 0.668E+00 -.105E+01   -.556E-02 -.832E-02 0.166E-01
   -.173E+02 -.403E+01 0.226E+04   0.178E+02 0.364E+01 -.226E+04   -.440E+00 0.388E+00 0.197E+00   -.621E-02 -.394E-02 -.690E-02
   -.995E+01 0.215E+01 -.226E+04   0.950E+01 -.197E+01 0.226E+04   0.461E+00 -.172E+00 0.458E+00   -.746E-02 -.782E-02 -.610E-02
   0.202E+01 0.237E+01 0.222E+04   -.215E+01 -.200E+01 -.222E+04   0.132E+00 -.368E+00 -.333E+00   -.387E-02 0.462E-03 0.304E-01
   0.111E+02 0.966E+01 0.222E+04   -.115E+02 -.102E+02 -.222E+04   0.382E+00 0.501E+00 -.253E+00   -.409E-02 0.852E-02 0.227E-02
   -.101E+02 -.602E+00 0.222E+04   0.107E+02 0.805E+00 -.222E+04   -.641E+00 -.212E+00 -.866E-01   0.578E-02 0.656E-02 -.171E-01
   0.300E+01 0.219E+01 -.626E+02   -.286E+01 -.169E+01 0.625E+02   -.142E+00 -.502E+00 0.281E-01   0.468E-02 -.645E-02 0.121E-01
   -.937E+01 -.196E+01 -.269E+02   0.842E+01 0.137E+01 0.280E+02   0.947E+00 0.591E+00 -.110E+01   0.589E-03 -.213E-02 0.895E-02
   0.658E+01 0.151E+01 0.224E+04   -.650E+01 -.160E+01 -.224E+04   -.828E-01 0.868E-01 0.169E+00   0.263E-02 -.701E-02 0.247E-01
   0.213E+02 0.694E+01 0.219E+04   -.219E+02 -.741E+01 -.219E+04   0.645E+00 0.480E+00 -.565E+00   -.317E-02 -.598E-02 -.966E-03
   -.483E+00 -.148E+01 -.231E+04   0.969E+00 0.184E+01 0.231E+04   -.482E+00 -.386E+00 -.326E-01   -.517E-02 0.221E-01 0.219E-02
   0.171E+02 0.955E+01 -.231E+04   -.182E+02 -.103E+02 0.231E+04   0.109E+01 0.727E+00 0.751E-01   0.128E-01 -.157E-01 -.229E-02
   0.601E+01 -.860E+01 -.850E+02   -.591E+01 0.850E+01 0.845E+02   -.935E-01 0.113E+00 0.555E+00   -.542E-02 -.169E-01 0.136E-01
   0.362E+01 0.625E+01 -.233E+04   -.392E+01 -.658E+01 0.233E+04   0.315E+00 0.328E+00 -.273E+00   -.117E-01 0.776E-02 0.122E-01
   -.812E+00 0.585E+01 -.749E+02   0.138E+01 -.568E+01 0.743E+02   -.573E+00 -.182E+00 0.522E+00   -.539E-02 0.471E-02 0.150E-01
   -.635E+01 0.166E+02 -.412E+02   0.575E+01 -.158E+02 0.410E+02   0.613E+00 -.793E+00 0.150E+00   -.752E-02 0.199E-01 0.140E-01
   -.513E+01 -.175E+02 0.223E+04   0.537E+01 0.185E+02 -.223E+04   -.243E+00 -.100E+01 0.760E-01   -.475E-02 0.463E-02 -.759E-02
   -.109E+02 0.366E+01 -.230E+04   0.120E+02 -.391E+01 0.230E+04   -.107E+01 0.262E+00 0.303E+00   -.438E-02 -.134E-01 -.275E-02
   0.242E+02 0.602E+01 0.221E+04   -.254E+02 -.616E+01 -.221E+04   0.119E+01 0.141E+00 -.188E+00   -.983E-04 -.579E-02 -.412E-02
   0.370E+01 0.128E+01 -.326E+02   -.349E+01 -.124E+01 0.330E+02   -.210E+00 -.514E-01 -.458E+00   0.261E-02 0.910E-02 0.193E-01
   0.513E+01 -.214E+01 0.765E+01   -.540E+01 0.197E+01 -.685E+01   0.271E+00 0.159E+00 -.815E+00   0.484E-02 0.593E-02 0.152E-01
   -.152E+02 -.115E+02 0.196E+04   0.154E+02 0.119E+02 -.196E+04   -.202E+00 -.396E+00 -.143E+01   -.412E-02 0.819E-02 0.164E-02
   -.553E+01 -.132E+02 -.200E+04   0.534E+01 0.135E+02 0.200E+04   0.189E+00 -.261E+00 0.176E+01   0.152E-02 0.204E-02 0.388E-02
   -.295E+01 0.913E+00 0.532E+01   0.252E+01 -.103E+01 -.451E+01   0.432E+00 0.107E+00 -.834E+00   0.887E-03 0.122E-01 0.161E-01
   0.925E+01 0.147E+02 0.192E+04   -.939E+01 -.148E+02 -.192E+04   0.129E+00 0.132E+00 -.171E+01   0.753E-02 0.332E-02 -.158E-01
   0.581E+00 -.472E+01 0.754E+01   -.101E+01 0.435E+01 -.662E+01   0.418E+00 0.385E+00 -.930E+00   0.111E-01 -.181E-01 0.957E-02
   0.830E+01 0.733E+01 -.198E+04   -.776E+01 -.748E+01 0.197E+04   -.532E+00 0.161E+00 0.183E+01   0.542E-02 -.494E-02 -.265E-02
   -.131E+02 0.316E+00 0.191E+04   0.136E+02 -.157E+00 -.191E+04   -.460E+00 -.155E+00 -.165E+01   0.111E-01 -.450E-02 -.140E-02
   -.482E+01 -.114E+02 -.199E+04   0.515E+01 0.110E+02 0.198E+04   -.338E+00 0.381E+00 0.181E+01   0.118E-02 -.367E-02 -.668E-02
   0.424E+01 0.119E+02 -.197E+04   -.422E+01 -.121E+02 0.197E+04   -.281E-01 0.145E+00 0.162E+01   0.303E-02 -.315E-02 0.151E-01
   0.636E+01 -.694E+01 0.194E+04   -.668E+01 0.700E+01 -.194E+04   0.315E+00 -.785E-01 -.174E+01   0.224E-02 0.116E-01 -.151E-01
   0.178E+01 0.686E-01 0.194E+04   -.162E+01 -.115E+00 -.194E+04   -.167E+00 0.476E-01 -.138E+01   0.668E-02 -.135E-02 -.535E-02
   -.189E+01 0.382E+00 0.814E+00   0.179E+01 -.288E+00 0.337E-01   0.105E+00 -.834E-01 -.850E+00   -.247E-02 -.600E-02 0.349E-02
   0.124E+02 0.117E+02 -.202E+04   -.127E+02 -.120E+02 0.202E+04   0.274E+00 0.222E+00 0.156E+01   0.505E-02 -.283E-02 0.211E-02
   -.788E+01 -.868E+01 -.197E+04   0.784E+01 0.849E+01 0.197E+04   0.491E-01 0.177E+00 0.184E+01   -.241E-02 0.119E-01 -.324E-02
   -.867E+01 -.334E+01 -.232E+02   0.828E+01 0.309E+01 0.236E+02   0.398E+00 0.252E+00 -.381E+00   -.615E-02 0.634E-03 0.102E-01
   0.577E+01 -.172E+01 -.200E+04   -.556E+01 0.197E+01 0.200E+04   -.207E+00 -.247E+00 0.159E+01   -.119E-02 0.226E-02 0.120E-01
   0.369E+01 0.690E+01 -.222E+02   -.304E+01 -.655E+01 0.226E+02   -.644E+00 -.364E+00 -.374E+00   0.892E-03 0.164E-01 0.848E-02
   0.126E+01 0.491E+01 -.756E+02   -.100E+01 -.431E+01 0.751E+02   -.257E+00 -.596E+00 0.459E+00   0.412E-02 -.606E-02 0.737E-02
   -.128E+02 0.886E+00 -.201E+04   0.129E+02 -.814E+00 0.201E+04   -.782E-01 -.733E-01 0.171E+01   -.552E-02 -.129E-02 0.201E-02
   -.381E+01 -.695E+01 -.370E+02   0.423E+01 0.680E+01 0.375E+02   -.401E+00 0.144E+00 -.450E+00   -.105E-01 -.531E-02 0.452E-02
   0.137E+02 -.791E+01 -.198E+04   -.144E+02 0.819E+01 0.198E+04   0.648E+00 -.287E+00 0.172E+01   0.864E-02 0.558E-02 0.375E-02
   -.107E+02 0.691E+01 -.199E+04   0.106E+02 -.711E+01 0.199E+04   0.140E+00 0.206E+00 0.179E+01   -.140E-01 -.672E-02 0.131E-01
 -----------------------------------------------------------------------------------------------
   -.220E+00 -.119E+00 -.261E+01   0.203E-12 -.543E-12 -.773E-11   0.228E+00 0.674E-01 0.239E+01   -.117E-02 0.983E-03 0.235E+00
 
 
 POSITION                                       TOTAL-FORCE (eV/Angst)
 -----------------------------------------------------------------------------------
      1.35843      0.80199      9.67995         0.001053      0.000804      0.000677
     12.40836      5.54888      9.74335         0.000882      0.003089     -0.002075
      9.63479      3.97078     12.23746        -0.001148      0.001636     -0.007389
     11.01423      3.15589      9.69763         0.005486     -0.001388     -0.000888
      8.25900      0.03067     14.81502         0.002008      0.002229      0.004365
      9.63339      8.72179     12.25829        -0.007493      0.002096     -0.005053
     11.02332      7.93835      9.66830        -0.001228     -0.003211      0.001660
      8.24702      4.76383     14.71983         0.001237     -0.002110      0.004770
      9.62607      5.55774      9.71720        -0.000386     -0.000063     -0.008907
      8.23407      3.15899      9.74540        -0.002547     -0.001164     -0.001377
      6.89222      0.79370      9.75904        -0.002670     -0.001867      0.003999
     12.38835      8.75481     12.29834         0.003390     -0.003815     -0.004276
      6.85950      8.72842     12.27016        -0.005108     -0.001969     -0.000479
      8.23529      7.94420      9.67071         0.002151     -0.000968     -0.017206
      6.84327      5.54716      9.78647         0.002763      0.001910     -0.002077
      4.14125      2.39046     14.82471        -0.001808     -0.002516      0.002327
     12.34522      7.12531     14.82063        -0.005886      0.002377      0.001911
     13.75621      6.35215     12.31537         0.003038     -0.001068      0.002456
      2.74104     -0.01094     14.84511         0.005459      0.003108     -0.002161
      4.14566      3.96588     12.30207        -0.006828     -0.003994     -0.000530
      2.73868      1.60159     12.26551         0.005158     -0.001296      0.002435
      4.13391      0.82092      9.71725        -0.002816      0.001283      0.000060
      4.15404      7.13679     14.81283         0.005176      0.003567      0.000577
      5.44950      7.93744      9.77106        -0.003104     -0.001754      0.000703
      8.25565      1.59342     12.26717         0.001018     -0.002077     -0.004583
     12.36501      3.97621     12.21529         0.000100      0.000487      0.000264
      2.76601      3.18106      9.87573        -0.001009     -0.005028      0.000143
      0.00318      0.01740     14.64496        -0.003467      0.003365      0.002319
     10.99660      1.59246     12.22180         0.003194     -0.000609     -0.000273
      9.61745      0.78484      9.91310        -0.001735     -0.006434      0.008378
     11.00369      6.35173     12.22117        -0.003125     -0.001153      0.002177
     11.01829      4.75089     14.58689         0.004658      0.001986      0.003309
     13.75656      7.93551      9.93924        -0.001314      0.000516     -0.000998
      9.64923      2.37703     14.59874        -0.004334      0.003660      0.009780
      9.62348      7.13490     14.59936         0.001657     -0.002408     -0.000046
      5.48083      3.18515      9.90601        -0.002884      0.000770      0.009050
      4.11792      5.54757      9.92555        -0.001006      0.000538     -0.002743
      8.24706      6.34351     12.22954         0.000501      0.006077      0.001210
      2.73853      4.74849     14.67235         0.000049      0.004394     -0.004332
      6.87883      2.38049     14.60357         0.005485     -0.000015      0.004505
      6.88779      3.97192     12.25136        -0.002744      0.002531      0.004497
      5.50024      0.00428     14.66054         0.000892      0.000739      0.001132
      5.51850      1.59967     12.25262         0.000595      0.003427     -0.000678
     15.13762      8.75820     12.31583         0.001771      0.004180     -0.001066
      5.50904      4.76548     14.65183        -0.000977     -0.001106      0.002267
      5.51496      6.35590     12.27306         0.002662     -0.004964      0.003770
      1.35810      2.39010     14.60898        -0.003767     -0.004695     -0.002230
      6.87781      7.14432     14.62645         0.006999      0.000903     -0.009375
 -----------------------------------------------------------------------------------
    total drift:                                0.007248     -0.050750      0.010472


--------------------------------------------------------------------------------------------------------



  FREE ENERGIE OF THE ION-ELECTRON SYSTEM (eV)
  ---------------------------------------------------
  free  energy   TOTEN  =      -192.61722859 eV

  energy  without entropy=     -192.39186483  energy(sigma->0) =     -192.50454671
 
 d Force = 0.3689782E-03[ 0.216E-03, 0.522E-03]  d Energy = 0.3703045E-03-0.133E-05
 d Force = 0.1329688E+01[ 0.134E+01, 0.132E+01]  d Ewald  = 0.1329690E+01-0.164E-05


--------------------------------------------------------------------------------------------------------


    POTLOK:  cpu time    0.0474: real time    0.0475


--------------------------------------------------------------------------------------------------------


 stress matrix after NEB project (eV)
      0.00000      0.00000      0.00000
      0.00000      0.00000      0.00000
      0.00000      0.00000      0.00000
  FORCES: max atom, RMS     0.017367    0.006424
  FORCE total and by dimension    0.044510    0.017206
  Stress total and by dimension    0.000000    0.000000
 Conjugate gradient step on ions:
 trial-energy change:   -0.000370  1 .order   -0.000369   -0.000522   -0.000216
  (g-gl).g = 0.147E-03      g.g   = 0.233E-03  gl.gl    = 0.452E-03
 g(Force)  = 0.233E-03   g(Stress)= 0.000E+00 ortho     = 0.525E-05
 gamma     =   0.32453
 trial     =   2.21887
 opt step  =   3.78862  (harmonic =   3.78862) maximal distance =0.00278256
 next E    =  -192.617304   (d E  =  -0.00045)


--------------------------------------------------------------------------------------------------------


  
 reached required accuracy - stopping structural energy minimisation
     LOOP+:  cpu time   45.3543: real time   45.6448
    4ORBIT:  cpu time    0.0000: real time    0.0000

 total amount of memory used by VASP on root node    84353. kBytes
========================================================================

   base      :      30000. kBytes
   nonlr-proj:       4285. kBytes
   fftplans  :       4447. kBytes
   grid      :       6721. kBytes
   one-center:        124. kBytes
   wavefun   :      38776. kBytes
 
  
  
 General timing and accounting informations for this job:
 ========================================================
  
                  Total CPU time used (sec):     2149.812
                            User time (sec):     2048.436
                          System time (sec):      101.376
                         Elapsed time (sec):     2163.284
  
                   Maximum memory used (kb):     1080628.
                   Average memory used (kb):           0.
  
                          Minor page faults:      1092743
                          Major page faults:            0
                 Voluntary context switches:        14035
