unknown system                          
           1
    11.002582    0.000000    0.000000
     5.501291    9.528515    0.000000
     0.000000    0.000000   24.491785
   Au   Pd
  24  24
Direct configuration=     1
   0.08333333  0.08333333  0.40830017
   0.83333333  0.58333333  0.40830017
   0.66666667  0.41666667  0.50000000
   0.83333333  0.33333333  0.40830017
   0.75000000  0.00000000  0.59169983
   0.41666667  0.91666667  0.50000000
   0.58333333  0.83333333  0.40830017
   0.50000000  0.50000000  0.59169983
   0.58333333  0.58333333  0.40830017
   0.58333333  0.33333333  0.40830017
   0.58333333  0.08333333  0.40830017
   0.66666667  0.91666667  0.50000000
   0.16666667  0.91666667  0.50000000
   0.33333333  0.83333333  0.40830017
   0.33333333  0.58333333  0.40830017
   0.25000000  0.25000000  0.59169983
   0.75000000  0.75000000  0.59169983
   0.91666667  0.66666667  0.50000000
   0.25000000  0.00000000  0.59169983
   0.16666667  0.41666667  0.50000000
   0.16666667  0.16666667  0.50000000
   0.33333333  0.08333333  0.40830017
   0.00000000  0.75000000  0.59169983
   0.08333333  0.83333333  0.40830017
   0.66666667  0.16666667  0.50000000
   0.91666667  0.41666667  0.50000000
   0.08333333  0.33333333  0.40830017
   0.00000000  0.00000000  0.59169983
   0.91666667  0.16666667  0.50000000
   0.83333333  0.08333333  0.40830017
   0.66666667  0.66666667  0.50000000
   0.75000000  0.50000000  0.59169983
   0.83333333  0.83333333  0.40830017
   0.75000000  0.25000000  0.59169983
   0.50000000  0.75000000  0.59169983
   0.33333333  0.33333333  0.40830017
   0.08333333  0.58333333  0.40830017
   0.41666667  0.66666667  0.50000000
   0.00000000  0.50000000  0.59169983
   0.50000000  0.25000000  0.59169983
   0.41666667  0.41666667  0.50000000
   0.50000000  0.00000000  0.59169983
   0.41666667  0.16666667  0.50000000
   0.91666667  0.91666667  0.50000000
   0.25000000  0.50000000  0.59169983
   0.16666667  0.66666667  0.50000000
   0.00000000  0.25000000  0.59169983
   0.25000000  0.75000000  0.59169983
Direct configuration=     2
   0.08184962  0.08446489  0.40608190
   0.83449378  0.58303424  0.40643895
   0.66755209  0.41617662  0.50086166
   0.83466709  0.33226280  0.40642135
   0.74945489  0.00187689  0.59359323
   0.41838950  0.91524810  0.50087398
   0.58444693  0.83279616  0.40603757
   0.49931793  0.50030341  0.59340660
   0.58316300  0.58374558  0.40636612
   0.58302417  0.33227215  0.40642873
   0.58385206  0.08395262  0.40646503
   0.66662104  0.91768093  0.50004599
   0.16531512  0.91548975  0.50085449
   0.33348859  0.83275622  0.40602960
   0.33259832  0.58261051  0.40670433
   0.25053162  0.25059166  0.59384952
   0.74902927  0.74887268  0.59388896
   0.91759366  0.66593772  0.49965645
   0.24997739 -0.00070744  0.59411040
   0.16723564  0.41723372  0.49969547
   0.16449909  0.16895460  0.50006869
   0.33292752  0.08516451  0.40605253
   0.00178459  0.74950761  0.59363777
   0.08160961  0.83307753  0.40642719
   0.66691938  0.16684353  0.50027607
   0.91646110  0.41640942  0.50047603
   0.08343438  0.33391378  0.40713541
  -0.00043975  0.00058940  0.59264883
   0.91579656  0.16659188  0.50049839
   0.83330405  0.08301121  0.40747629
   0.66646346  0.66580896  0.50054619
   0.75085398  0.49960499  0.59259425
   0.83409574  0.83345505  0.40712965
   0.75081403  0.24950063  0.59253455
   0.50018883  0.74970122  0.59268400
   0.33268567  0.33372382  0.40737061
   0.08361435  0.58308401  0.40724315
   0.41645369  0.66647669  0.50059265
  -0.00024921  0.49944488  0.59292363
   0.50006443  0.24987288  0.59248569
   0.41601763  0.41625773  0.50028092
   0.49992592  0.00034964  0.59295144
   0.41744791  0.16770901  0.50020450
   0.91651453  0.91788110  0.49977601
   0.25021031  0.50013354  0.59267956
   0.16748071  0.66609003  0.50021317
  -0.00143788  0.25059012  0.59264527
   0.24995765  0.74965302  0.59263723
Direct configuration=     3
   0.07739848  0.08785955  0.39942707
   0.83797510  0.58213694  0.40085530
   0.67020838  0.41470650  0.50344666
   0.83866835  0.32905120  0.40078488
   0.74781955  0.00750758  0.59927344
   0.42355798  0.91099240  0.50349592
   0.58778774  0.83118464  0.39924977
   0.49727171  0.50121365  0.59852692
   0.58265199  0.58498234  0.40056397
   0.58209667  0.32908860  0.40081440
   0.58540823  0.08581050  0.40095963
   0.66648416  0.92072372  0.50018397
   0.16126048  0.91195899  0.50341797
   0.33395436  0.83102490  0.39921790
   0.33039330  0.58044204  0.40191682
   0.25212647  0.25236664  0.60029861
   0.74611707  0.74549071  0.60045635
   0.92037464  0.66375090  0.49862580
   0.24990955 -0.00282977  0.60134209
   0.16894255  0.41893488  0.49878186
   0.15799636  0.17581838  0.50027475
   0.33171009  0.09065805  0.39930962
   0.00713836  0.74803046  0.59945159
   0.07643845  0.83231013  0.40080823
   0.66767754  0.16737411  0.50110427
   0.91584439  0.41563768  0.50190413
   0.08373753  0.33565512  0.40364112
  -0.00175899  0.00235761  0.59549581
   0.91318624  0.16636751  0.50199357
   0.83321621  0.08204483  0.40500464
   0.66585385  0.66323583  0.50218477
   0.75341593  0.49841994  0.59527751
   0.83638298  0.83382020  0.40361808
   0.75325614  0.24800253  0.59503872
   0.50075531  0.74880489  0.59563650
   0.33074267  0.33489527  0.40458191
   0.08445742  0.58233602  0.40407211
   0.41581478  0.66590675  0.50237061
  -0.00099683  0.49777951  0.59659503
   0.50025771  0.24949150  0.59484327
   0.41407052  0.41503093  0.50112369
   0.49970368  0.00139856  0.59670626
   0.41979163  0.17083605  0.50081799
   0.91605812  0.92152439  0.49910406
   0.25084126  0.50053417  0.59561873
   0.16992284  0.66436012  0.50085269
  -0.00575154  0.25236048  0.59548158
   0.24983061  0.74861210  0.59544942
Direct configuration=     4
   0.08076584  0.08448037  0.39788242
   0.83772342  0.58175433  0.39929649
   0.66782032  0.41544167  0.50254422
   0.83554461  0.33161049  0.39939378
   0.74885453  0.00477438  0.60113268
   0.41961065  0.91419584  0.50270948
   0.58729593  0.83274554  0.39762999
   0.49821751  0.50032397  0.60050708
   0.58386893  0.58243506  0.39937897
   0.58258381  0.33139186  0.39952442
   0.58533484  0.08389651  0.39926868
   0.66835616  0.91893478  0.50031579
   0.16362028  0.91410250  0.50255013
   0.33164095  0.83354600  0.39794144
   0.33112503  0.58080490  0.40065984
   0.25126452  0.25204998  0.60210355
   0.74766175  0.74690023  0.60219311
   0.91808884  0.66606433  0.49930972
   0.24924608 -0.00144972  0.60332160
   0.16856223  0.41784039  0.49932719
   0.16131498  0.17155880  0.50036738
   0.33213721  0.08869528  0.39803211
   0.00440343  0.74876959  0.60098033
   0.07850244  0.83258355  0.39912321
   0.66706042  0.16833102  0.50079143
   0.91471764  0.41740119  0.50121294
   0.08385126  0.33594551  0.40253660
  -0.00189109  0.00237005  0.59716138
   0.91420281  0.16610036  0.50123743
   0.83289297  0.08273414  0.40416275
   0.66748586  0.66317331  0.50149587
   0.75289567  0.49785058  0.59703064
   0.83476645  0.83375017  0.40266882
   0.75231199  0.24925242  0.59678385
   0.50017836  0.74813063  0.59741706
   0.33062158  0.33496977  0.40349686
   0.08430267  0.58210422  0.40270853
   0.41629528  0.66458426  0.50169756
  -0.00033650  0.49810698  0.59759835
   0.50033927  0.25028649  0.59604673
   0.41680634  0.41576177  0.50085865
   0.50005055  0.00144197  0.59810658
   0.41865517  0.16960752  0.50052596
   0.91468181  0.92013406  0.49953949
   0.25063066  0.49997231  0.59682672
   0.16947042  0.66468102  0.50050235
  -0.00415461  0.25132466  0.59690992
   0.25062069  0.74853494  0.59718992
Direct configuration=     5
   0.08227319  0.08296772  0.39719098
   0.83761076  0.58158306  0.39859870
   0.66675134  0.41577077  0.50214025
   0.83414631  0.33275613  0.39877107
   0.74931783  0.00355091  0.60196495
   0.41784369  0.91562982  0.50235744
   0.58707578  0.83344426  0.39690491
   0.49864088  0.49992572  0.60139347
   0.58441367  0.58129481  0.39884852
   0.58280186  0.33242289  0.39894697
   0.58530199  0.08303974  0.39851175
   0.66919414  0.91813398  0.50037479
   0.16467661  0.91506202  0.50216165
   0.33060539  0.83467454  0.39737005
   0.33145258  0.58096732  0.40009717
   0.25087868  0.25190824  0.60291150
   0.74835321  0.74753119  0.60297054
   0.91706564  0.66709991  0.49961587
   0.24894909 -0.00083197  0.60420770
   0.16839198  0.41735045  0.49957130
   0.16280052  0.16965206  0.50040885
   0.33232841  0.08781667  0.39746025
   0.00317918  0.74910045  0.60166464
   0.07942635  0.83270594  0.39836894
   0.66678418  0.16875937  0.50065140
   0.91421326  0.41819059  0.50090353
   0.08390218  0.33607550  0.40204218
  -0.00195022  0.00237563  0.59790695
   0.91465787  0.16598077  0.50089896
   0.83274828  0.08304270  0.40378589
   0.66821641  0.66314533  0.50118750
   0.75266278  0.49759571  0.59781541
   0.83404283  0.83371882  0.40224390
   0.75188936  0.24981191  0.59756503
   0.49992010  0.74782881  0.59821410
   0.33056738  0.33500312  0.40301115
   0.08423341  0.58200046  0.40209814
   0.41651036  0.66399227  0.50139628
  -0.00004091  0.49825357  0.59804747
   0.50037578  0.25064236  0.59658544
   0.41803100  0.41608892  0.50074000
   0.50020583  0.00146140  0.59873342
   0.41814646  0.16905759  0.50039523
   0.91406573  0.91951169  0.49973441
   0.25053640  0.49972080  0.59736746
   0.16926790  0.66482466  0.50034553
  -0.00343977  0.25086099  0.59754930
   0.25097436  0.74850040  0.59796904
Direct configuration=     6
   0.08156196  0.08415961  0.39693042
   0.83673824  0.58223144  0.39828271
   0.66697335  0.41608351  0.50183251
   0.83541607  0.33164367  0.39855658
   0.74938605  0.00289034  0.60241057
   0.41810614  0.91541935  0.50202097
   0.58570960  0.83282051  0.39667158
   0.49917969  0.49965205  0.60198775
   0.58342110  0.58326031  0.39872208
   0.58271126  0.33179259  0.39868446
   0.58471310  0.08392625  0.39820384
   0.66721789  0.91830313  0.50060003
   0.16495543  0.91521111  0.50188523
   0.33222228  0.83383704  0.39727650
   0.33160840  0.58191963  0.39990312
   0.25058010  0.25141460  0.60328964
   0.74852996  0.74794174  0.60329770
   0.91730917  0.66687102  0.49994366
   0.24908055 -0.00049844  0.60474322
   0.16808306  0.41688000  0.49995806
   0.16355030  0.16888901  0.50040560
   0.33255928  0.08691252  0.39735846
   0.00263831  0.74919876  0.60191261
   0.07957871  0.83261525  0.39815129
   0.66643950  0.16818599  0.50052981
   0.91473271  0.41755750  0.50048297
   0.08391273  0.33484845  0.40205348
  -0.00142564  0.00178746  0.59816393
   0.91520327  0.16630667  0.50046199
   0.83287752  0.08327905  0.40375085
   0.66710419  0.66498103  0.50091761
   0.75225399  0.49789644  0.59810614
   0.83445823  0.83322856  0.40213458
   0.75156457  0.24996112  0.59791775
   0.50007678  0.74820872  0.59831807
   0.33148367  0.33435515  0.40293446
   0.08377835  0.58255291  0.40202028
   0.41667573  0.66481064  0.50105283
   0.00003372  0.49855324  0.59810239
   0.50052737  0.25044067  0.59676473
   0.41803393  0.41615697  0.50050901
   0.50021411  0.00101650  0.59878032
   0.41807334  0.16817011  0.50023462
   0.91563541  0.91888268  0.50010511
   0.25017520  0.49985640  0.59749959
   0.16839669  0.66593103  0.50022767
  -0.00250565  0.25059861  0.59770525
   0.25045025  0.74905909  0.59819794
Direct configuration=     7
   0.08142257  0.08439321  0.39687936
   0.83656723  0.58235852  0.39822078
   0.66701687  0.41614481  0.50177219
   0.83566494  0.33142564  0.39851454
   0.74939942  0.00276087  0.60249791
   0.41815758  0.91537810  0.50195502
   0.58544184  0.83269825  0.39662585
   0.49928529  0.49959841  0.60210422
   0.58322657  0.58364553  0.39869730
   0.58269351  0.33166906  0.39863301
   0.58459768  0.08410000  0.39814349
   0.66683055  0.91833628  0.50064417
   0.16501007  0.91524034  0.50183106
   0.33253918  0.83367289  0.39725817
   0.33163894  0.58210628  0.39986509
   0.25052158  0.25131786  0.60336375
   0.74856460  0.74802220  0.60336182
   0.91735690  0.66682616  0.50000790
   0.24910632 -0.00043307  0.60484818
   0.16802251  0.41678779  0.50003386
   0.16369725  0.16873945  0.50040496
   0.33260453  0.08673531  0.39733851
   0.00253230  0.74921802  0.60196121
   0.07960858  0.83259747  0.39810864
   0.66637195  0.16807362  0.50050598
   0.91483452  0.41743342  0.50040055
   0.08391479  0.33460796  0.40205569
  -0.00132283  0.00167218  0.59821429
   0.91531016  0.16637055  0.50037635
   0.83290286  0.08332537  0.40374398
   0.66688620  0.66534082  0.50086471
   0.75217388  0.49795539  0.59816312
   0.83453964  0.83313247  0.40211316
   0.75150091  0.24999036  0.59798688
   0.50010749  0.74828318  0.59833845
   0.33166325  0.33422815  0.40291943
   0.08368917  0.58266119  0.40200502
   0.41670814  0.66497103  0.50098551
   0.00004835  0.49861197  0.59811315
   0.50055708  0.25040114  0.59679987
   0.41803451  0.41617031  0.50046374
   0.50021574  0.00092931  0.59878951
   0.41805901  0.16799618  0.50020314
   0.91594306  0.91875940  0.50017777
   0.25010441  0.49988298  0.59752549
   0.16822593  0.66614787  0.50020457
  -0.00232257  0.25054718  0.59773581
   0.25034753  0.74916859  0.59824281
Direct configuration=     8
   0.08152203  0.08428078  0.39670982
   0.83638531  0.58243824  0.39813246
   0.66740385  0.41632334  0.50165377
   0.83544366  0.33163547  0.39839974
   0.74926479  0.00298023  0.60266908
   0.41798655  0.91513468  0.50186904
   0.58528792  0.83299347  0.39646468
   0.49920218  0.49980010  0.60228274
   0.58343898  0.58343034  0.39867203
   0.58279573  0.33188143  0.39852953
   0.58471320  0.08376380  0.39805141
   0.66666470  0.91844427  0.50067322
   0.16520464  0.91523518  0.50173306
   0.33233564  0.83384689  0.39722903
   0.33163511  0.58222759  0.39983677
   0.25064585  0.25113940  0.60355568
   0.74845713  0.74788916  0.60351418
   0.91726786  0.66672176  0.50014570
   0.24936792 -0.00069170  0.60513490
   0.16825880  0.41659129  0.50018470
   0.16398529  0.16852881  0.50045687
   0.33267503  0.08647459  0.39731092
   0.00270820  0.74909877  0.60209326
   0.07958636  0.83297572  0.39806326
   0.66656773  0.16739547  0.50054889
   0.91491694  0.41720508  0.50017717
   0.08415771  0.33429664  0.40218866
  -0.00108405  0.00152842  0.59819088
   0.91534199  0.16658990  0.50027017
   0.83302489  0.08298727  0.40385865
   0.66665496  0.66585275  0.50083115
   0.75214373  0.49823303  0.59805681
   0.83422997  0.83327340  0.40231862
   0.75175070  0.24965608  0.59793217
   0.50014933  0.74858714  0.59818060
   0.33155715  0.33427588  0.40304164
   0.08369360  0.58243778  0.40220288
   0.41667270  0.66540389  0.50094833
  -0.00014960  0.49870995  0.59808399
   0.50048627  0.25012967  0.59673205
   0.41752198  0.41633803  0.50036345
   0.50007294  0.00074948  0.59872215
   0.41776445  0.16805400  0.50014485
   0.91619077  0.91875659  0.50042272
   0.25010907  0.49998932  0.59744861
   0.16813593  0.66636159  0.50017617
  -0.00226719  0.25064125  0.59763529
   0.25012132  0.74940379  0.59815823
Direct configuration=     9
   0.08160395  0.08418818  0.39657017
   0.83623546  0.58250390  0.39805971
   0.66772260  0.41647040  0.50155623
   0.83526140  0.33180830  0.39830518
   0.74915390  0.00316091  0.60281006
   0.41784567  0.91493418  0.50179821
   0.58516113  0.83323664  0.39633193
   0.49913373  0.49996623  0.60242979
   0.58361394  0.58325308  0.39865121
   0.58287994  0.33205635  0.39844430
   0.58480835  0.08348687  0.39797556
   0.66652808  0.91853321  0.50069715
   0.16536490  0.91523094  0.50165235
   0.33216799  0.83399020  0.39720503
   0.33163196  0.58232752  0.39981345
   0.25074821  0.25099241  0.60371376
   0.74836860  0.74777958  0.60363967
   0.91719453  0.66663576  0.50025920
   0.24958340 -0.00090474  0.60537108
   0.16845343  0.41642944  0.50030895
   0.16422255  0.16835531  0.50049963
   0.33273309  0.08625985  0.39728819
   0.00285308  0.74900054  0.60220203
   0.07956806  0.83328729  0.39802588
   0.66672900  0.16683689  0.50058424
   0.91498483  0.41701700  0.49999317
   0.08435780  0.33404021  0.40229818
  -0.00088737  0.00141000  0.59817159
   0.91536821  0.16677058  0.50018272
   0.83312540  0.08270877  0.40395311
   0.66646448  0.66627443  0.50080351
   0.75211889  0.49846172  0.59796923
   0.83397489  0.83338949  0.40248786
   0.75195645  0.24938073  0.59788711
   0.50018379  0.74883750  0.59805058
   0.33146975  0.33431520  0.40314230
   0.08369725  0.58225375  0.40236585
   0.41664350  0.66576043  0.50091770
  -0.00031264  0.49879066  0.59805997
   0.50042794  0.24990606  0.59667618
   0.41709982  0.41647619  0.50028084
   0.49995532  0.00060136  0.59866667
   0.41752182  0.16810163  0.50009684
   0.91639482  0.91875427  0.50062448
   0.25011291  0.50007691  0.59738529
   0.16806180  0.66653763  0.50015278
  -0.00222158  0.25071873  0.59755249
   0.24993499  0.74959752  0.59808857
Direct configuration=    10
   0.08146236  0.08434398  0.39632323
   0.83634865  0.58252456  0.39798882
   0.66739836  0.41657286  0.50154198
   0.83530749  0.33169761  0.39810664
   0.74912346  0.00310438  0.60304089
   0.41761974  0.91510715  0.50168590
   0.58518622  0.83327493  0.39609654
   0.49911695  0.50004164  0.60246525
   0.58363976  0.58328415  0.39861341
   0.58295355  0.33190305  0.39839233
   0.58483380  0.08358957  0.39788418
   0.66667612  0.91852838  0.50076940
   0.16523070  0.91550642  0.50156953
   0.33203993  0.83397207  0.39710072
   0.33149262  0.58239492  0.39979776
   0.25077873  0.25095749  0.60396990
   0.74834049  0.74786956  0.60384372
   0.91709328  0.66656706  0.50042815
   0.24968060 -0.00111323  0.60574058
   0.16833528  0.41648015  0.50051339
   0.16436340  0.16821296  0.50061758
   0.33276811  0.08630708  0.39722741
   0.00285038  0.74897155  0.60239933
   0.07932824  0.83332711  0.39799872
   0.66677661  0.16681356  0.50064671
   0.91517113  0.41706399  0.49973598
   0.08448778  0.33388886  0.40248850
  -0.00067509  0.00142389  0.59808797
   0.91543208  0.16678273  0.50008676
   0.83306703  0.08256710  0.40413081
   0.66659579  0.66640372  0.50074958
   0.75209361  0.49848668  0.59772085
   0.83403570  0.83329211  0.40285440
   0.75212393  0.24930983  0.59767363
   0.50012119  0.74890472  0.59785965
   0.33147431  0.33428923  0.40329487
   0.08361588  0.58223294  0.40271366
   0.41679252  0.66548197  0.50090903
  -0.00041076  0.49874942  0.59800294
   0.50030746  0.24985409  0.59650513
   0.41729354  0.41664924  0.50023176
   0.49992282  0.00044455  0.59855340
   0.41741662  0.16801160  0.50003256
   0.91643077  0.91870146  0.50094848
   0.25025480  0.50008253  0.59728071
   0.16800396  0.66665270  0.50010376
  -0.00221381  0.25077502  0.59735322
   0.24991387  0.74971268  0.59792026
Direct configuration=    11
   0.08124763  0.08458027  0.39594872
   0.83652032  0.58255589  0.39788132
   0.66690663  0.41672825  0.50152037
   0.83537739  0.33152974  0.39780555
   0.74907730  0.00301864  0.60339096
   0.41727710  0.91536949  0.50151558
   0.58522426  0.83333299  0.39573956
   0.49909152  0.50015600  0.60251903
   0.58367892  0.58333128  0.39855609
   0.58306520  0.33167055  0.39831352
   0.58487240  0.08374531  0.39774560
   0.66690064  0.91852104  0.50087897
   0.16502719  0.91592421  0.50144392
   0.33184573  0.83394456  0.39694252
   0.33128131  0.58249714  0.39977395
   0.25082502  0.25090454  0.60435835
   0.74829786  0.74800603  0.60415316
   0.91693975  0.66646288  0.50068438
   0.24982800 -0.00142942  0.60630096
   0.16815609  0.41655706  0.50082343
   0.16457702  0.16799707  0.50079646
   0.33282121  0.08637871  0.39713523
   0.00284629  0.74892757  0.60269854
   0.07896455  0.83338751  0.39795753
   0.66684881  0.16677818  0.50074146
   0.91545366  0.41713526  0.49934594
   0.08468490  0.33365932  0.40277713
  -0.00035315  0.00144494  0.59796114
   0.91552895  0.16680115  0.49994122
   0.83297851  0.08235225  0.40440031
   0.66679495  0.66659980  0.50066779
   0.75205526  0.49852454  0.59734418
   0.83412793  0.83314443  0.40341027
   0.75237792  0.24920232  0.59734988
   0.50002625  0.74900665  0.59757011
   0.33148122  0.33424985  0.40352625
   0.08349248  0.58220138  0.40324114
   0.41701852  0.66505967  0.50089589
  -0.00055955  0.49868687  0.59791646
   0.50012475  0.24977527  0.59624572
   0.41758733  0.41691170  0.50015732
   0.49987354  0.00020673  0.59838163
   0.41725708  0.16787505  0.49993507
   0.91648528  0.91862137  0.50143984
   0.25046998  0.50009104  0.59712211
   0.16791625  0.66682721  0.50002941
  -0.00220202  0.25086039  0.59705103
   0.24988184  0.74988731  0.59766501
Direct configuration=    12
   0.08117843  0.08465641  0.39582804
   0.83657564  0.58256599  0.39784667
   0.66674817  0.41677832  0.50151340
   0.83539991  0.33147564  0.39770852
   0.74906243  0.00299101  0.60350376
   0.41716669  0.91545402  0.50146069
   0.58523652  0.83335170  0.39562453
   0.49908332  0.50019285  0.60253636
   0.58369153  0.58334646  0.39853761
   0.58310118  0.33159563  0.39828812
   0.58488484  0.08379549  0.39770094
   0.66697299  0.91851868  0.50091428
   0.16496160  0.91605885  0.50140345
   0.33178314  0.83393570  0.39689155
   0.33121321  0.58253008  0.39976628
   0.25083994  0.25088747  0.60448352
   0.74828412  0.74805001  0.60425288
   0.91689027  0.66642931  0.50076695
   0.24987551 -0.00153132  0.60648154
   0.16809835  0.41658185  0.50092334
   0.16464586  0.16792750  0.50085411
   0.33283832  0.08640179  0.39710553
   0.00284497  0.74891340  0.60279496
   0.07884735  0.83340697  0.39794426
   0.66687207  0.16676678  0.50077199
   0.91554471  0.41715823  0.49922024
   0.08474843  0.33358535  0.40287014
  -0.00024940  0.00145173  0.59792027
   0.91556017  0.16680709  0.49989433
   0.83294999  0.08228302  0.40448716
   0.66685912  0.66666299  0.50064143
   0.75204290  0.49853674  0.59722279
   0.83415765  0.83309684  0.40358940
   0.75245977  0.24916767  0.59724555
   0.49999565  0.74903950  0.59747680
   0.33148345  0.33423716  0.40360082
   0.08345271  0.58219120  0.40341113
   0.41709135  0.66492359  0.50089165
  -0.00060751  0.49866672  0.59788859
   0.50006587  0.24974987  0.59616212
   0.41768201  0.41699627  0.50013334
   0.49985766  0.00013010  0.59832627
   0.41720566  0.16783105  0.49990365
   0.91650285  0.91859556  0.50159818
   0.25053932  0.50009379  0.59707101
   0.16788799  0.66688344  0.50000545
  -0.00219823  0.25088790  0.59695365
   0.24987152  0.74994359  0.59758275
Direct configuration=    13
   0.08122308  0.08448906  0.39552609
   0.83663625  0.58240082  0.39772463
   0.66717410  0.41656260  0.50133926
   0.83536059  0.33144385  0.39743969
   0.74911778  0.00293850  0.60385442
   0.41758068  0.91521279  0.50125126
   0.58531871  0.83323925  0.39532904
   0.49925628  0.49990620  0.60248862
   0.58358061  0.58345345  0.39849493
   0.58296278  0.33170105  0.39826394
   0.58483616  0.08377445  0.39763756
   0.66666442  0.91872984  0.50102707
   0.16502807  0.91591951  0.50123742
   0.33167219  0.83397960  0.39672218
   0.33123188  0.58237834  0.39971880
   0.25073988  0.25086149  0.60478494
   0.74833907  0.74809195  0.60454266
   0.91689696  0.66668738  0.50112499
   0.24971796 -0.00127274  0.60693717
   0.16859146  0.41635221  0.50123349
   0.16455973  0.16808303  0.50101636
   0.33284501  0.08630715  0.39699353
   0.00294360  0.74884121  0.60310941
   0.07872572  0.83328692  0.39795994
   0.66667236  0.16717462  0.50082648
   0.91501752  0.41715170  0.49893309
   0.08471746  0.33374578  0.40304467
  -0.00040075  0.00160857  0.59789575
   0.91540790  0.16712860  0.49965014
   0.83295659  0.08238489  0.40474998
   0.66683943  0.66652232  0.50045192
   0.75209853  0.49846062  0.59681539
   0.83421835  0.83298144  0.40408323
   0.75235594  0.24923263  0.59695076
   0.50007555  0.74879253  0.59724808
   0.33138889  0.33441073  0.40381187
   0.08352894  0.58216227  0.40384338
   0.41683470  0.66526856  0.50078424
  -0.00052281  0.49856114  0.59795106
   0.50012333  0.24982093  0.59594014
   0.41774766  0.41670973  0.50007144
   0.49976544  0.00031091  0.59825086
   0.41748070  0.16790330  0.49985001
   0.91644462  0.91854759  0.50198422
   0.25056670  0.50008986  0.59701800
   0.16781358  0.66700721  0.50002994
  -0.00206509  0.25081892  0.59670825
   0.24993148  0.74983727  0.59734969
Direct configuration=    14
   0.08123282  0.08445255  0.39546023
   0.83664947  0.58236479  0.39769801
   0.66726700  0.41651554  0.50130127
   0.83535201  0.33143691  0.39738106
   0.74912986  0.00292704  0.60393091
   0.41767099  0.91516017  0.50120558
   0.58533664  0.83321472  0.39526459
   0.49929400  0.49984368  0.60247821
   0.58355641  0.58347678  0.39848562
   0.58293259  0.33172404  0.39825867
   0.58482554  0.08376985  0.39762374
   0.66659711  0.91877590  0.50105167
   0.16504256  0.91588911  0.50120121
   0.33164799  0.83398918  0.39668524
   0.33123595  0.58234524  0.39970844
   0.25071806  0.25085583  0.60485068
   0.74835106  0.74810110  0.60460586
   0.91689842  0.66674367  0.50120309
   0.24968360 -0.00121633  0.60703656
   0.16869903  0.41630212  0.50130114
   0.16454094  0.16811696  0.50105176
   0.33284647  0.08628650  0.39696910
   0.00296511  0.74882546  0.60317800
   0.07869919  0.83326074  0.39796336
   0.66662879  0.16726358  0.50083836
   0.91490253  0.41715028  0.49887046
   0.08471070  0.33378077  0.40308274
  -0.00043376  0.00164278  0.59789040
   0.91537468  0.16719873  0.49959687
   0.83295803  0.08240711  0.40480731
   0.66683513  0.66649164  0.50041058
   0.75211066  0.49844402  0.59672652
   0.83423159  0.83295627  0.40419095
   0.75233330  0.24924680  0.59688645
   0.50009298  0.74873865  0.59719819
   0.33136826  0.33444860  0.40385791
   0.08354557  0.58215596  0.40393766
   0.41677872  0.66534381  0.50076081
  -0.00050434  0.49853811  0.59796469
   0.50013587  0.24983643  0.59589172
   0.41776198  0.41664723  0.50005794
   0.49974532  0.00035035  0.59823442
   0.41754069  0.16791906  0.49983831
   0.91643192  0.91853712  0.50206843
   0.25057267  0.50008900  0.59700644
   0.16779735  0.66703421  0.50003528
  -0.00203605  0.25080387  0.59665472
   0.24994456  0.74981407  0.59729886
Direct configuration=    15
   0.08139241  0.08428933  0.39539239
   0.83660714  0.58237488  0.39764865
   0.66708582  0.41671343  0.50102979
   0.83532073  0.33145328  0.39719308
   0.74910996  0.00300511  0.60409978
   0.41773285  0.91521603  0.50114611
   0.58545142  0.83311942  0.39514107
   0.49940658  0.49964047  0.60232075
   0.58338929  0.58351586  0.39843587
   0.58283675  0.33186427  0.39825934
   0.58483388  0.08359016  0.39766464
   0.66645298  0.91889111  0.50114778
   0.16509164  0.91603624  0.50113599
   0.33167292  0.83396043  0.39654483
   0.33135524  0.58235424  0.39966010
   0.25075221  0.25091212  0.60494575
   0.74825785  0.74797328  0.60469538
   0.91697961  0.66661032  0.50146674
   0.24964716 -0.00110757  0.60705487
   0.16863331  0.41618427  0.50142907
   0.16468076  0.16802037  0.50104115
   0.33269402  0.08632239  0.39692842
   0.00305612  0.74880872  0.60337873
   0.07883393  0.83315823  0.39802745
   0.66664517  0.16720250  0.50078106
   0.91480568  0.41736667  0.49882358
   0.08470462  0.33378806  0.40310964
  -0.00061511  0.00173900  0.59792353
   0.91566333  0.16694743  0.49944984
   0.83297676  0.08246454  0.40487790
   0.66683580  0.66637045  0.50023222
   0.75225802  0.49844976  0.59660422
   0.83408528  0.83299184  0.40440944
   0.75222878  0.24923451  0.59685068
   0.50016165  0.74865963  0.59712411
   0.33123532  0.33445699  0.40390762
   0.08354730  0.58214757  0.40405225
   0.41669907  0.66544851  0.50059325
  -0.00044215  0.49853858  0.59807890
   0.50023591  0.24983277  0.59591923
   0.41778726  0.41664400  0.50003951
   0.49966651  0.00055396  0.59826873
   0.41768451  0.16785815  0.49983217
   0.91618788  0.91887292  0.50214680
   0.25052510  0.50008248  0.59715702
   0.16787515  0.66692054  0.50013913
  -0.00203881  0.25072366  0.59664066
   0.25001238  0.74979907  0.59725076
Direct configuration=    16
   0.08147979  0.08419996  0.39535525
   0.83658396  0.58238041  0.39762162
   0.66698661  0.41682179  0.50088114
   0.83530360  0.33146224  0.39709015
   0.74909906  0.00304786  0.60419225
   0.41776672  0.91524662  0.50111354
   0.58551427  0.83306724  0.39507343
   0.49946822  0.49952920  0.60223454
   0.58329779  0.58353725  0.39840863
   0.58278427  0.33194105  0.39825970
   0.58483845  0.08349178  0.39768704
   0.66637406  0.91895419  0.50120041
   0.16511851  0.91611680  0.50110027
   0.33168657  0.83394469  0.39646795
   0.33142056  0.58235917  0.39963363
   0.25077092  0.25094295  0.60499781
   0.74820682  0.74790329  0.60474440
   0.91702406  0.66653730  0.50161110
   0.24962722 -0.00104801  0.60706489
   0.16859733  0.41611975  0.50149912
   0.16475732  0.16796748  0.50103535
   0.33261055  0.08634205  0.39690615
   0.00310594  0.74879955  0.60348864
   0.07890771  0.83310211  0.39806255
   0.66665413  0.16716906  0.50074969
   0.91475265  0.41748516  0.49879791
   0.08470129  0.33379206  0.40312437
  -0.00071441  0.00179168  0.59794167
   0.91582138  0.16680983  0.49936933
   0.83298702  0.08249598  0.40491655
   0.66683616  0.66630410  0.50013457
   0.75233871  0.49845289  0.59653726
   0.83400516  0.83301132  0.40452908
   0.75217155  0.24922778  0.59683110
   0.50019924  0.74861636  0.59708355
   0.33116253  0.33446159  0.40393485
   0.08354825  0.58214297  0.40411499
   0.41665546  0.66550584  0.50050150
  -0.00040810  0.49853883  0.59814143
   0.50029069  0.24983077  0.59593429
   0.41780111  0.41664223  0.50002942
   0.49962336  0.00066544  0.59828751
   0.41776325  0.16782480  0.49982880
   0.91605426  0.91905679  0.50218971
   0.25049905  0.50007890  0.59723947
   0.16791774  0.66685830  0.50019600
  -0.00204032  0.25067974  0.59663297
   0.25004951  0.74979086  0.59722442
Direct configuration=    17
   0.08145572  0.08424231  0.39532264
   0.83659927  0.58242172  0.39759826
   0.66704036  0.41669970  0.50065649
   0.83543053  0.33137723  0.39690935