  48  48   0   0
  0.5349325E+02  0.1100258E-08  0.1100258E-08  0.2449179E-08  0.3500000E-15
  1.000000000000000E-004
  CAR 
 unknown system                          
      6.43592466     -9.71116556  301     -1.08072940      1.00000000
     -9.711  0.0000E+00  0.0000E+00
     -9.657  0.0000E+00  0.0000E+00
     -9.604  0.0000E+00  0.0000E+00
     -9.550  0.0000E+00  0.0000E+00
     -9.496  0.0000E+00  0.0000E+00
     -9.442  0.0000E+00  0.0000E+00
     -9.388  0.0000E+00  0.0000E+00
     -9.334  0.0000E+00  0.0000E+00
     -9.281  0.6876E-17  0.3701E-18
     -9.227  0.2891E-14  0.1560E-15
     -9.173  0.6478E-12  0.3502E-13
     -9.119  0.8252E-10  0.4477E-11
     -9.065  0.5986E-08  0.3266E-09
     -9.011  0.2478E-06  0.1366E-07
     -8.958  0.5865E-05  0.3293E-06
     -8.904  0.7959E-04  0.4613E-05
     -8.850  0.6207E-03  0.3802E-04
     -8.796  0.2790E-02  0.1882E-03
     -8.742  0.7263E-02  0.5791E-03
     -8.689  0.1117E-01  0.1180E-02
     -8.635  0.1117E-01  0.1782E-02
     -8.581  0.1011E-01  0.2326E-02
     -8.527  0.1099E-01  0.2918E-02
     -8.473  0.1044E-01  0.3480E-02
     -8.419  0.6527E-02  0.3831E-02
     -8.366  0.2547E-02  0.3968E-02
     -8.312  0.9522E-03  0.4019E-02
     -8.258  0.1549E-02  0.4103E-02
     -8.204  0.3518E-02  0.4292E-02
     -8.150  0.5856E-02  0.4607E-02
     -8.096  0.8430E-02  0.5061E-02
     -8.043  0.1177E-01  0.5695E-02
     -7.989  0.1438E-01  0.6468E-02
     -7.935  0.1419E-01  0.7232E-02
     -7.881  0.1285E-01  0.7924E-02
     -7.827  0.1393E-01  0.8674E-02
     -7.774  0.1770E-01  0.9626E-02
     -7.720  0.1967E-01  0.1068E-01
     -7.666  0.1649E-01  0.1157E-01
     -7.612  0.1285E-01  0.1226E-01
     -7.558  0.1435E-01  0.1304E-01
     -7.504  0.1910E-01  0.1406E-01
     -7.451  0.2315E-01  0.1531E-01
     -7.397  0.2441E-01  0.1662E-01
     -7.343  0.2185E-01  0.1780E-01
     -7.289  0.1752E-01  0.1874E-01
     -7.235  0.1477E-01  0.1954E-01
     -7.181  0.1618E-01  0.2041E-01
     -7.128  0.2357E-01  0.2168E-01
     -7.074  0.3589E-01  0.2361E-01
     -7.020  0.5036E-01  0.2632E-01
     -6.966  0.6258E-01  0.2969E-01
     -6.912  0.6954E-01  0.3343E-01
     -6.859  0.7593E-01  0.3752E-01
     -6.805  0.8549E-01  0.4212E-01
     -6.751  0.9333E-01  0.4714E-01
     -6.697  0.9515E-01  0.5226E-01
     -6.643  0.9261E-01  0.5725E-01
     -6.589  0.8818E-01  0.6199E-01
     -6.536  0.8447E-01  0.6654E-01
     -6.482  0.8677E-01  0.7121E-01
     -6.428  0.9755E-01  0.7646E-01
     -6.374  0.1132E+00  0.8256E-01
     -6.320  0.1265E+00  0.8937E-01
     -6.266  0.1290E+00  0.9631E-01
     -6.213  0.1240E+00  0.1030E+00
     -6.159  0.1252E+00  0.1097E+00
     -6.105  0.1375E+00  0.1171E+00
     -6.051  0.1535E+00  0.1254E+00
     -5.997  0.1640E+00  0.1342E+00
     -5.944  0.1664E+00  0.1432E+00
     -5.890  0.1644E+00  0.1520E+00
     -5.836  0.1621E+00  0.1607E+00
     -5.782  0.1586E+00  0.1693E+00
     -5.728  0.1520E+00  0.1775E+00
     -5.674  0.1449E+00  0.1853E+00
     -5.621  0.1406E+00  0.1928E+00
     -5.567  0.1396E+00  0.2003E+00
     -5.513  0.1420E+00  0.2080E+00
     -5.459  0.1463E+00  0.2159E+00
     -5.405  0.1504E+00  0.2240E+00
     -5.351  0.1560E+00  0.2323E+00
     -5.298  0.1646E+00  0.2412E+00
     -5.244  0.1732E+00  0.2505E+00
     -5.190  0.1766E+00  0.2600E+00
     -5.136  0.1732E+00  0.2694E+00
     -5.082  0.1669E+00  0.2783E+00
     -5.029  0.1648E+00  0.2872E+00
     -4.975  0.1680E+00  0.2963E+00
     -4.921  0.1715E+00  0.3055E+00
     -4.867  0.1729E+00  0.3148E+00
     -4.813  0.1725E+00  0.3241E+00
     -4.759  0.1722E+00  0.3333E+00
     -4.706  0.1746E+00  0.3427E+00
     -4.652  0.1795E+00  0.3524E+00
     -4.598  0.1833E+00  0.3623E+00
     -4.544  0.1844E+00  0.3722E+00
     -4.490  0.1843E+00  0.3821E+00
     -4.436  0.1824E+00  0.3919E+00
     -4.383  0.1779E+00  0.4015E+00
     -4.329  0.1735E+00  0.4108E+00
     -4.275  0.1715E+00  0.4201E+00
     -4.221  0.1699E+00  0.4292E+00
     -4.167  0.1667E+00  0.4382E+00
     -4.114  0.1628E+00  0.4470E+00
     -4.060  0.1599E+00  0.4556E+00
     -4.006  0.1602E+00  0.4642E+00
     -3.952  0.1660E+00  0.4731E+00
     -3.898  0.1768E+00  0.4826E+00
     -3.844  0.1887E+00  0.4928E+00
     -3.791  0.1964E+00  0.5034E+00
     -3.737  0.2003E+00  0.5142E+00
     -3.683  0.2065E+00  0.5253E+00
     -3.629  0.2155E+00  0.5369E+00
     -3.575  0.2199E+00  0.5487E+00
     -3.521  0.2160E+00  0.5603E+00
     -3.468  0.2082E+00  0.5715E+00
     -3.414  0.2007E+00  0.5823E+00
     -3.360  0.1951E+00  0.5928E+00
     -3.306  0.1928E+00  0.6032E+00
     -3.252  0.1904E+00  0.6135E+00
     -3.199  0.1849E+00  0.6234E+00
     -3.145  0.1788E+00  0.6330E+00
     -3.091  0.1748E+00  0.6424E+00
     -3.037  0.1736E+00  0.6518E+00
     -2.983  0.1740E+00  0.6612E+00
     -2.929  0.1737E+00  0.6705E+00
     -2.876  0.1724E+00  0.6798E+00
     -2.822  0.1723E+00  0.6891E+00
     -2.768  0.1752E+00  0.6985E+00
     -2.714  0.1789E+00  0.7081E+00
     -2.660  0.1812E+00  0.7179E+00
     -2.606  0.1810E+00  0.7276E+00
     -2.553  0.1782E+00  0.7372E+00
     -2.499  0.1769E+00  0.7467E+00
     -2.445  0.1800E+00  0.7564E+00
     -2.391  0.1843E+00  0.7663E+00
     -2.337  0.1854E+00  0.7763E+00
     -2.284  0.1839E+00  0.7862E+00
     -2.230  0.1834E+00  0.7961E+00
     -2.176  0.1847E+00  0.8060E+00
     -2.122  0.1865E+00  0.8161E+00
     -2.068  0.1884E+00  0.8262E+00
     -2.014  0.1892E+00  0.8364E+00
     -1.961  0.1868E+00  0.8464E+00
     -1.907  0.1847E+00  0.8564E+00
     -1.853  0.1890E+00  0.8666E+00
     -1.799  0.1994E+00  0.8773E+00
     -1.745  0.2084E+00  0.8885E+00
     -1.691  0.2111E+00  0.8999E+00
     -1.638  0.2090E+00  0.9111E+00
     -1.584  0.2042E+00  0.9221E+00
     -1.530  0.2002E+00  0.9329E+00
     -1.476  0.1992E+00  0.9436E+00
     -1.422  0.1973E+00  0.9542E+00
     -1.369  0.1920E+00  0.9646E+00
     -1.315  0.1843E+00  0.9745E+00
     -1.261  0.1748E+00  0.9839E+00
     -1.207  0.1606E+00  0.9925E+00
     -1.153  0.1392E+00  0.1000E+01
     -1.099  0.1142E+00  0.1006E+01
     -1.046  0.9147E-01  0.1011E+01
     -0.992  0.7015E-01  0.1015E+01
     -0.938  0.4964E-01  0.1018E+01
     -0.884  0.3507E-01  0.1019E+01
     -0.830  0.2743E-01  0.1021E+01
     -0.776  0.2247E-01  0.1022E+01
     -0.723  0.1760E-01  0.1023E+01
     -0.669  0.1277E-01  0.1024E+01
     -0.615  0.1160E-01  0.1024E+01
     -0.561  0.1841E-01  0.1025E+01
     -0.507  0.3099E-01  0.1027E+01
     -0.454  0.4185E-01  0.1029E+01
     -0.400  0.4533E-01  0.1032E+01
     -0.346  0.4246E-01  0.1034E+01
     -0.292  0.3981E-01  0.1036E+01
     -0.238  0.4136E-01  0.1038E+01
     -0.184  0.4235E-01  0.1041E+01
     -0.131  0.3688E-01  0.1043E+01
     -0.077  0.2849E-01  0.1044E+01
     -0.023  0.2430E-01  0.1045E+01
      0.031  0.2542E-01  0.1047E+01
      0.085  0.2823E-01  0.1048E+01
      0.139  0.3065E-01  0.1050E+01
      0.192  0.3452E-01  0.1052E+01
      0.246  0.3977E-01  0.1054E+01
      0.300  0.4246E-01  0.1056E+01
      0.354  0.4100E-01  0.1059E+01
      0.408  0.3850E-01  0.1061E+01
      0.462  0.3779E-01  0.1063E+01
      0.515  0.3733E-01  0.1065E+01
      0.569  0.3565E-01  0.1067E+01
      0.623  0.3536E-01  0.1068E+01
      0.677  0.3899E-01  0.1071E+01
      0.731  0.4290E-01  0.1073E+01
      0.784  0.4115E-01  0.1075E+01
      0.838  0.3386E-01  0.1077E+01
      0.892  0.2615E-01  0.1078E+01
      0.946  0.2236E-01  0.1079E+01
      1.000  0.2141E-01  0.1081E+01
      1.054  0.1995E-01  0.1082E+01
      1.107  0.1877E-01  0.1083E+01
      1.161  0.1860E-01  0.1084E+01
      1.215  0.1704E-01  0.1085E+01
      1.269  0.1381E-01  0.1085E+01
      1.323  0.1121E-01  0.1086E+01
      1.377  0.1125E-01  0.1087E+01
      1.430  0.1529E-01  0.1087E+01
      1.484  0.2325E-01  0.1089E+01
      1.538  0.3169E-01  0.1090E+01
      1.592  0.3599E-01  0.1092E+01
      1.646  0.3717E-01  0.1094E+01
      1.699  0.4021E-01  0.1096E+01
      1.753  0.4342E-01  0.1099E+01
      1.807  0.4044E-01  0.1101E+01
      1.861  0.3017E-01  0.1103E+01
      1.915  0.1779E-01  0.1104E+01
      1.969  0.1031E-01  0.1104E+01
      2.022  0.1055E-01  0.1105E+01
      2.076  0.1425E-01  0.1105E+01
      2.130  0.1767E-01  0.1106E+01
      2.184  0.2330E-01  0.1108E+01
      2.238  0.3255E-01  0.1109E+01
      2.292  0.4191E-01  0.1112E+01
      2.345  0.4789E-01  0.1114E+01
      2.399  0.5086E-01  0.1117E+01
      2.453  0.5167E-01  0.1120E+01
      2.507  0.4831E-01  0.1122E+01
      2.561  0.4318E-01  0.1125E+01
      2.614  0.4265E-01  0.1127E+01
      2.668  0.4754E-01  0.1130E+01
      2.722  0.5172E-01  0.1132E+01
      2.776  0.4748E-01  0.1135E+01
      2.830  0.3409E-01  0.1137E+01
      2.884  0.2021E-01  0.1138E+01
      2.937  0.1376E-01  0.1139E+01
      2.991  0.1287E-01  0.1139E+01
      3.045  0.1285E-01  0.1140E+01
      3.099  0.1639E-01  0.1141E+01
      3.153  0.2478E-01  0.1142E+01
      3.207  0.2912E-01  0.1144E+01
      3.260  0.2405E-01  0.1145E+01
      3.314  0.1660E-01  0.1146E+01
      3.368  0.1315E-01  0.1147E+01
      3.422  0.1285E-01  0.1147E+01
      3.476  0.1374E-01  0.1148E+01
      3.529  0.1631E-01  0.1149E+01
      3.583  0.2162E-01  0.1150E+01
      3.637  0.2888E-01  0.1152E+01
      3.691  0.3525E-01  0.1154E+01
      3.745  0.3879E-01  0.1156E+01
      3.799  0.3936E-01  0.1158E+01
      3.852  0.3549E-01  0.1160E+01
      3.906  0.2827E-01  0.1161E+01
      3.960  0.2350E-01  0.1162E+01
      4.014  0.2493E-01  0.1164E+01
      4.068  0.2858E-01  0.1165E+01
      4.122  0.2841E-01  0.1167E+01
      4.175  0.2571E-01  0.1168E+01
      4.229  0.2467E-01  0.1170E+01
      4.283  0.2339E-01  0.1171E+01
      4.337  0.1991E-01  0.1172E+01
      4.391  0.1864E-01  0.1173E+01
      4.444  0.2224E-01  0.1174E+01
      4.498  0.2961E-01  0.1176E+01
      4.552  0.4083E-01  0.1178E+01
      4.606  0.5390E-01  0.1181E+01
      4.660  0.6066E-01  0.1184E+01
      4.714  0.5594E-01  0.1187E+01
      4.767  0.4744E-01  0.1190E+01
      4.821  0.4497E-01  0.1192E+01
      4.875  0.4752E-01  0.1195E+01
      4.929  0.4976E-01  0.1197E+01
      4.983  0.5413E-01  0.1200E+01
      5.037  0.6439E-01  0.1204E+01
      5.090  0.7254E-01  0.1208E+01
      5.144  0.6969E-01  0.1211E+01
      5.198  0.6164E-01  0.1215E+01
      5.252  0.5526E-01  0.1218E+01
      5.306  0.4542E-01  0.1220E+01
      5.359  0.3069E-01  0.1222E+01
      5.413  0.1937E-01  0.1223E+01
      5.467  0.1292E-01  0.1223E+01
      5.521  0.7143E-02  0.1224E+01
      5.575  0.2569E-02  0.1224E+01
      5.629  0.5509E-03  0.1224E+01
      5.682  0.6885E-04  0.1224E+01
      5.736  0.4979E-05  0.1224E+01
      5.790  0.2076E-06  0.1224E+01
      5.844  0.4973E-08  0.1224E+01
      5.898  0.6828E-10  0.1224E+01
      5.952  0.5359E-12  0.1224E+01
      6.005  0.2398E-14  0.1224E+01
      6.059  0.5501E-17  0.1224E+01
      6.113  0.0000E+00  0.1224E+01
      6.167  0.0000E+00  0.1224E+01
      6.221  0.0000E+00  0.1224E+01
      6.274  0.0000E+00  0.1224E+01
      6.328  0.0000E+00  0.1224E+01
      6.382  0.0000E+00  0.1224E+01
      6.436  0.0000E+00  0.1224E+01
