 vasp.5.4.1 24Jun15 (build Mar 14 2019 10:18:33) complex                        
  
 executed on INTEL-19.0.2+OPENMPI date 2022.07.15  15:19:39
 running on   36 total cores
 distrk:  each k-point on   36 cores,    1 groups
 distr:  one band on NCORES_PER_BAND=   6 cores,    6 groups


--------------------------------------------------------------------------------------------------------


 INCAR:
 POTCAR:    PAW_PBE Au 04Oct2007                  
 POTCAR:    PAW_PBE Pd 04Jan2005                  
 POTCAR:    PAW_PBE Au 04Oct2007                  
  local pseudopotential read in
  partial core-charges read in
  partial kinetic energy density read in
  atomic valenz-charges read in
  non local Contribution for L=           2  read in
    real space projection operators read in
  non local Contribution for L=           2  read in
    real space projection operators read in
  non local Contribution for L=           0  read in
    real space projection operators read in
  non local Contribution for L=           0  read in
    real space projection operators read in
  non local Contribution for L=           1  read in
    real space projection operators read in
  non local Contribution for L=           1  read in
    real space projection operators read in
    PAW grid and wavefunctions read in
 
   number of l-projection  operators is LMAX  =           6
   number of lm-projection operators is LMMAX =          18
 
 POTCAR:    PAW_PBE Pd 04Jan2005                  
  local pseudopotential read in
  partial core-charges read in
  partial kinetic energy density read in
  atomic valenz-charges read in
  non local Contribution for L=           2  read in
    real space projection operators read in
  non local Contribution for L=           2  read in
    real space projection operators read in
  non local Contribution for L=           0  read in
    real space projection operators read in
  non local Contribution for L=           0  read in
    real space projection operators read in
  non local Contribution for L=           1  read in
    real space projection operators read in
  non local Contribution for L=           1  read in
    real space projection operators read in
    PAW grid and wavefunctions read in
 
   number of l-projection  operators is LMAX  =           6
   number of lm-projection operators is LMMAX =          18
 
 Optimization of the real space projectors (new method)

 maximal supplied QI-value         = 15.12
 optimisation between [QCUT,QGAM] = [ 10.13, 20.41] = [ 28.73,116.64] Ry 
 Optimized for a Real-space Cutoff    1.51 Angstroem

   l    n(q)    QCUT    max X(q) W(low)/X(q) W(high)/X(q)  e(spline) 
   2      8    10.129    60.898    0.46E-03    0.46E-03    0.14E-06
   2      8    10.129    58.894    0.47E-03    0.47E-03    0.14E-06
   0      9    10.129   109.617    0.16E-03    0.11E-03    0.54E-07
   0      9    10.129    75.026    0.15E-03    0.11E-03    0.52E-07
   1      9    10.129    16.344    0.96E-04    0.15E-03    0.14E-06
   1      9    10.129    10.160    0.81E-04    0.12E-03    0.11E-06
 Optimization of the real space projectors (new method)

 maximal supplied QI-value         = 14.36
 optimisation between [QCUT,QGAM] = [ 10.20, 20.39] = [ 29.12,116.47] Ry 
 Optimized for a Real-space Cutoff    1.51 Angstroem

   l    n(q)    QCUT    max X(q) W(low)/X(q) W(high)/X(q)  e(spline) 
   2      8    10.197    59.108    0.26E-03    0.14E-03    0.96E-07
   2      8    10.197    58.101    0.27E-03    0.14E-03    0.98E-07
   0      9    10.197   102.235    0.54E-04    0.60E-05    0.72E-07
   0      9    10.197    58.388    0.52E-04    0.60E-05    0.68E-07
   1      9    10.197    22.191    0.18E-03    0.25E-03    0.79E-07
   1      9    10.197    15.590    0.15E-03    0.21E-03    0.69E-07
  PAW_PBE Au 04Oct2007                  :
 energy of atom  1       EATOM= -926.0867
 kinetic energy error for atom=    0.0062 (will be added to EATOM!!)
  PAW_PBE Pd 04Jan2005                  :
 energy of atom  2       EATOM= -809.7530
 kinetic energy error for atom=    0.0091 (will be added to EATOM!!)
 
 
 POSCAR: Au Pd                                   
  positions in cartesian coordinates
  No initial velocities read in
 exchange correlation table for  LEXCH =        8
   RHO(1)=    0.500       N(1)  =     2000
   RHO(2)=  100.500       N(2)  =     4000

 VTST: version 3.2, (02/03/18)

 CHAIN: initializing optimizer
 
 OPT: Using VASP Conjugate-Gradient optimizer
 CHAIN: Read ICHAIN            0
 
 POSCAR: Au Pd                                   
  positions in cartesian coordinates
  No initial velocities read in
 


--------------------------------------------------------------------------------------------------------


 ion  position               nearest neighbor table
   1  0.333  0.333  0.408-  34 2.75  19 2.75   7 2.75  38 2.75  43 2.75  22 2.75  35 2.75  37 2.75
                             9 2.75
   2  0.667  0.917  0.500-  25 2.75  48 2.75  36 2.75  28 2.75  18 2.75  37 2.75  16 2.75  24 2.75
                            15 2.75  38 2.75   3 2.75  29 2.75
   3  0.750  0.000  0.592-  28 2.75  15 2.75  14 2.75  10 2.75  12 2.75  48 2.75  46 2.75  36 2.75
                             2 2.75
   4  0.333  0.833  0.408-  24 2.75   7 2.75  27 2.75  33 2.75  43 2.75  25 2.75  44 2.75  47 2.75
                            39 2.75
   5  0.250  0.500  0.592-  40 2.75  34 2.75  32 2.75  10 2.75  14 2.75  41 2.75  17 2.75  31 2.75
                             9 2.75
   6  0.833  0.333  0.408-  21 2.75  13 2.75  27 2.75  30 2.75  33 2.75  22 2.75  35 2.75  23 2.75
                             8 2.75
   7  0.333  0.583  0.408-  47 2.75   4 2.75  35 2.75  44 2.75   1 2.75  33 2.75  19 2.75  34 2.75
                            40 2.75
   8  0.667  0.417  0.500-  35 2.75  12 2.75  31 2.75  28 2.75  16 2.75  23 2.75  47 2.75  21 2.75
                            34 2.75  33 2.75   6 2.75  20 2.75
   9  0.167  0.417  0.500-  22 2.75  41 2.75  17 2.75  37 2.75  40 2.75  18 2.75  42 2.75  21 2.75
                            34 2.75  19 2.75   1 2.75   5 2.75
  10  0.500  0.250  0.592-  34 2.75  28 2.75   3 2.75  31 2.75   5 2.75  36 2.75  12 2.75  41 2.75
                            37 2.75
  11  0.250  0.000  0.592-  42 2.75  24 2.75  32 2.75  41 2.75  26 2.75  45 2.75  36 2.75  46 2.75
                            39 2.75
  12  0.750  0.250  0.592-   8 2.75  23 2.75  20 2.75   3 2.75  31 2.75  46 2.75  45 2.75  10 2.75
                            28 2.75
  13  0.833  0.583  0.408-  18 2.75   6 2.75  22 2.75  25 2.75  29 2.75  19 2.75  33 2.75  21 2.75
                            16 2.75
  14  0.000  0.750  0.592-  15 2.75  40 2.75   3 2.75  17 2.75   5 2.75  46 2.75  32 2.75  48 2.75
                            18 2.75
  15  0.917  0.917  0.500-  29 2.75  14 2.75   3 2.75  23 2.75  28 2.75  18 2.75  40 2.75  39 2.75
                             2 2.75  30 2.75  44 2.75  46 2.75
  16  0.667  0.667  0.500-  33 2.75  20 2.75  26 2.75  21 2.75  24 2.75   8 2.75   2 2.75  18 2.75
                            47 2.75  25 2.75  13 2.75  48 2.75
  17  0.000  0.500  0.592-  18 2.75   9 2.75  14 2.75  41 2.75  45 2.75  48 2.75  20 2.75   5 2.75
                            21 2.75
  18  0.917  0.667  0.500-  13 2.75  17 2.75  48 2.75  15 2.75   9 2.75  21 2.75   2 2.75  40 2.75
                            16 2.75  29 2.75  14 2.75  19 2.75
  19  0.083  0.583  0.408-  40 2.75  22 2.75  29 2.75   1 2.75  44 2.75   7 2.75  13 2.75   9 2.75
                            18 2.75
  20  0.750  0.500  0.592-  16 2.75  21 2.75  12 2.75  26 2.75  45 2.75  48 2.75  17 2.75  31 2.75
                             8 2.75
  21  0.917  0.417  0.500-   6 2.75  45 2.75  20 2.75  16 2.75  23 2.75  42 2.75  18 2.75   8 2.75
                             9 2.75  13 2.75  22 2.75  17 2.75
  22  0.083  0.333  0.408-   9 2.75  13 2.75  19 2.75  27 2.75  43 2.75   6 2.75   1 2.75  42 2.75
                            21 2.75
  23  0.917  0.167  0.500-  30 2.75  46 2.75  12 2.75  21 2.75   8 2.75  39 2.75  15 2.75  42 2.75
                            28 2.75   6 2.75  45 2.75  27 2.75
  24  0.417  0.917  0.500-   4 2.75  26 2.75  11 2.75  16 2.75  37 2.75  42 2.75  47 2.75   2 2.75
                            39 2.75  43 2.75  36 2.75  25 2.75
  25  0.583  0.833  0.408-   2 2.75  13 2.75  33 2.75  38 2.75  43 2.75  29 2.75   4 2.75  16 2.75
                            24 2.75
  26  0.500  0.750  0.592-  24 2.75  16 2.75  20 2.75  11 2.75  31 2.75  36 2.75  32 2.75  48 2.75
                            47 2.75
  27  0.083  0.083  0.408-  42 2.75   6 2.75  22 2.75   4 2.75  44 2.75  43 2.75  30 2.75  39 2.75
                            23 2.75
  28  0.667  0.167  0.500-  38 2.75   3 2.75  10 2.75   2 2.75  15 2.75  34 2.75   8 2.75  37 2.75
                            23 2.75  35 2.75  12 2.75  30 2.75
  29  0.833  0.833  0.408-  15 2.75  13 2.75  19 2.75  30 2.75  38 2.75  25 2.75  44 2.75  18 2.75
                             2 2.75
  30  0.833  0.083  0.408-  23 2.75   6 2.75  29 2.75  35 2.75  44 2.75  38 2.75  27 2.75  15 2.75
                            28 2.75
  31  0.500  0.500  0.592-  47 2.75   8 2.75  12 2.75  26 2.75  32 2.75  10 2.75  20 2.75   5 2.75
                            34 2.75
  32  0.250  0.750  0.592-  39 2.75  47 2.75  31 2.75   5 2.75  46 2.75  11 2.75  14 2.75  26 2.75
                            40 2.75
  33  0.583  0.583  0.408-  16 2.75   6 2.75   4 2.75  25 2.75  35 2.75  13 2.75   7 2.75   8 2.75
                            47 2.75
  34  0.417  0.417  0.500-   1 2.75  10 2.75   5 2.75  28 2.75  37 2.75  40 2.75  47 2.75   9 2.75
                             8 2.75   7 2.75  35 2.75  31 2.75
  35  0.583  0.333  0.408-   8 2.75   7 2.75  30 2.75  33 2.75  38 2.75   6 2.75   1 2.75  28 2.75
                            34 2.75
  36  0.500  0.000  0.592-  37 2.75   2 2.75  26 2.75  10 2.75  41 2.75  48 2.75   3 2.75  11 2.75
                            24 2.75
  37  0.417  0.167  0.500-  43 2.75  36 2.75  41 2.75  34 2.75   2 2.75   9 2.75  24 2.75  42 2.75
                            28 2.75   1 2.75  38 2.75  10 2.75
  38  0.583  0.083  0.408-  28 2.75  25 2.75   1 2.75  29 2.75  35 2.75  30 2.75  43 2.75   2 2.75
                            37 2.75
  39  0.167  0.917  0.500-  44 2.75  32 2.75  46 2.75  42 2.75  23 2.75  40 2.75  47 2.75  15 2.75
                            24 2.75  27 2.75   4 2.75  11 2.75
  40  0.167  0.667  0.500-  19 2.75   5 2.75  14 2.75  15 2.75   9 2.75  34 2.75  39 2.75  18 2.75
                            47 2.75  44 2.75   7 2.75  32 2.75
  41  0.250  0.250  0.592-   9 2.75  37 2.75  11 2.75  17 2.75  36 2.75   5 2.75  10 2.75  45 2.75
                            42 2.75
  42  0.167  0.167  0.500-  27 2.75  11 2.75  45 2.75  24 2.75   9 2.75  39 2.75  21 2.75  23 2.75
                            37 2.75  22 2.75  43 2.75  41 2.75
  43  0.333  0.083  0.408-  37 2.75   4 2.75  22 2.75  25 2.75   1 2.75  27 2.75  38 2.75  24 2.75
                            42 2.75
  44  0.083  0.833  0.408-  39 2.75  19 2.75  27 2.75  30 2.75   7 2.75   4 2.75  29 2.75  40 2.75
                            15 2.75
  45  0.000  0.250  0.592-  21 2.75  42 2.75  20 2.75  11 2.75  17 2.75  46 2.75  12 2.75  41 2.75
                            23 2.75
  46  0.000  0.000  0.592-  23 2.75  39 2.75  12 2.75  32 2.75  14 2.75  45 2.75   3 2.75  11 2.75
                            15 2.75
  47  0.417  0.667  0.500-   7 2.75  31 2.75  32 2.75   8 2.75  24 2.75  34 2.75  39 2.75  16 2.75
                            40 2.75   4 2.75  33 2.75  26 2.75
  48  0.750  0.750  0.592-   2 2.75  18 2.75  17 2.75   3 2.75  20 2.75  36 2.75  26 2.75  14 2.75
                            16 2.75
 
  LATTYP: Found a hexagonal cell.
 ALAT       =    11.0025815153
 C/A-ratio  =     2.2260035120
  
  Lattice vectors:
  
 A1 = (   5.5012907576,  -9.5285150994,   0.0000000000)
 A2 = ( -11.0025815153,   0.0000000000,   0.0000000000)
 A3 = (   0.0000000000,   0.0000000000, -24.4917850943)


Analysis of symmetry for initial positions (statically):
=====================================================================
 Subroutine PRICEL returns:
 Original cell was already a primitive cell.
 

 Routine SETGRP: Setting up the symmetry group for a 
 hexagonal supercell.


 Subroutine GETGRP returns: Found  1 space group operations
 (whereof  1 operations were pure point group operations)
 out of a pool of 24 trial point group operations.


The static configuration has the point symmetry C_1 .


Analysis of symmetry for dynamics (positions and initial velocities):
=====================================================================
 Subroutine PRICEL returns:
 Original cell was already a primitive cell.
 

 Routine SETGRP: Setting up the symmetry group for a 
 hexagonal supercell.


 Subroutine GETGRP returns: Found  1 space group operations
 (whereof  1 operations were pure point group operations)
 out of a pool of 24 trial point group operations.


The dynamic configuration has the point symmetry C_1 .
 
 
 KPOINTS: Automatic mesh                          

Automatic generation of k-mesh.
Space group operators:
 irot       det(A)        alpha          n_x          n_y          n_z        tau_x        tau_y        tau_z
    1     1.000000     0.000000     1.000000     0.000000     0.000000     0.000000     0.000000     0.000000
 
 Subroutine IBZKPT returns following result:
 ===========================================
 
 Found      6 irreducible k-points:
 
 Following reciprocal coordinates:
            Coordinates               Weight
  0.250000  0.250000  0.000000     16.000000
  0.000000  0.250000  0.000000     16.000000
 -0.250000  0.000000  0.000000     16.000000
 -0.250000  0.250000  0.000000     16.000000
  0.500000 -0.250000  0.000000     16.000000
 -0.250000  0.500000  0.000000     16.000000
 
 Following cartesian coordinates:
            Coordinates               Weight
  0.022722  0.013119  0.000000     16.000000
  0.000000  0.026237  0.000000     16.000000
 -0.022722  0.013119  0.000000     16.000000
 -0.022722  0.039356  0.000000     16.000000
  0.045444 -0.052474  0.000000     16.000000
 -0.022722  0.065593  0.000000     16.000000
 


--------------------------------------------------------------------------------------------------------




 Dimension of arrays:
   k-points           NKPTS =      6   k-points in BZ     NKDIM =      6   number of bands    NBANDS=    306
   number of dos      NEDOS =    301   number of ions     NIONS =     48
   non local maximal  LDIM  =      6   non local SUM 2l+1 LMDIM =     18
   total plane-waves  NPLWV = 349920
   max r-space proj   IRMAX =   2009   max aug-charges    IRDMAX=   8532
   dimension x,y,z NGX =    54 NGY =   54 NGZ =  120
   dimension x,y,z NGXF=   108 NGYF=  108 NGZF=  240
   support grid    NGXF=   108 NGYF=  108 NGZF=  240
   ions per type =              24  24
 NGX,Y,Z   is equivalent  to a cutoff of   8.16,  8.16,  8.15 a.u.
 NGXF,Y,Z  is equivalent  to a cutoff of  16.32, 16.32, 16.29 a.u.


 I would recommend the setting:
   dimension x,y,z NGX =    54 NGY =   54 NGZ =  120
 SYSTEM =  unknown system                          
 POSCAR =  Au Pd                                   

 Startparameter for this run:
   NWRITE =      1    write-flag & timer
   PREC   = normal    normal or accurate (medium, high low for compatibility)
   ISTART =      0    job   : 0-new  1-cont  2-samecut
   ICHARG =      2    charge: 1-file 2-atom 10-const
   ISPIN  =      1    spin polarized calculation?
   LNONCOLLINEAR =      F non collinear calculations
   LSORBIT =      F    spin-orbit coupling
   INIWAV =      1    electr: 0-lowe 1-rand  2-diag
   LASPH  =      F    aspherical Exc in radial PAW
   METAGGA=      F    non-selfconsistent MetaGGA calc.

 Electronic Relaxation 1
   ENCUT  =  400.0 eV  29.40 Ry    5.42 a.u.  17.94 17.94 39.94*2*pi/ulx,y,z
   ENINI  =  400.0     initial cutoff
   ENAUG  =  416.2 eV  augmentation charge cutoff
   NELM   =    500;   NELMIN=  2; NELMDL= -5     # of ELM steps 
   EDIFF  = 0.1E-05   stopping-criterion for ELM
   LREAL  =      T    real-space projection
   NLSPLINE    = F    spline interpolate recip. space projectors
   LCOMPAT=      F    compatible to vasp.4.4
   GGA_COMPAT  = T    GGA compatible to vasp.4.4-vasp.4.6
   LMAXPAW     = -100 max onsite density
   LMAXMIX     =    2 max onsite mixed and CHGCAR
   VOSKOWN=      1    Vosko Wilk Nusair interpolation
   ROPT   =   -0.00050  -0.00050
 Ionic relaxation
   EDIFFG = -.2E-01   stopping-criterion for IOM
   NSW    =    500    number of steps for IOM
   NBLOCK =      1;   KBLOCK =    500    inner block; outer block 
   IBRION =      2    ionic relax: 0-MD 1-quasi-New 2-CG
   NFREE  =      2    steps in history (QN), initial steepest desc. (CG)
   ISIF   =      0    stress and relaxation
   IWAVPR =     11    prediction:  0-non 1-charg 2-wave 3-comb
   ISYM   =      2    0-nonsym 1-usesym 2-fastsym
   LCORR  =      T    Harris-Foulkes like correction to forces

   POTIM  = 0.3500    time-step for ionic-motion
   TEIN   =    0.0    initial temperature
   TEBEG  =    0.0;   TEEND  =   0.0 temperature during run
   SMASS  =  -3.00    Nose mass-parameter (am)
   estimated Nose-frequenzy (Omega)   =  0.10E-29 period in steps =****** mass=  -0.277E-26a.u.
   SCALEE = 1.0000    scale energy and forces
   NPACO  =    256;   APACO  = 16.0  distance and # of slots for P.C.
   PSTRESS=    0.0 pullay stress

  Mass of Ions in am
   POMASS = 196.97106.42
  Ionic Valenz
   ZVAL   =  11.00 10.00
  Atomic Wigner-Seitz radii
   RWIGS  =  -1.00 -1.00
  virtual crystal weights 
   VCA    =   1.00  1.00
   NELECT =     504.0000    total number of electrons
   NUPDOWN=      -1.0000    fix difference up-down

 DOS related values:
   EMIN   =  10.00;   EMAX   =-10.00  energy-range for DOS
   EFERMI =   0.00
   ISMEAR =     0;   SIGMA  =   0.10  broadening in eV -4-tet -1-fermi 0-gaus

 Electronic relaxation 2 (details)
   IALGO  =     68    algorithm
   LDIAG  =      T    sub-space diagonalisation (order eigenvalues)
   LSUBROT=      F    optimize rotation matrix (better conditioning)
   TURBO    =      0    0=normal 1=particle mesh
   IRESTART =      0    0=no restart 2=restart with 2 vectors
   NREBOOT  =      0    no. of reboots
   NMIN     =      0    reboot dimension
   EREF     =   0.00    reference energy to select bands
   IMIX   =      4    mixing-type and parameters
     AMIX     =   0.40;   BMIX     =  1.00
     AMIX_MAG =   1.60;   BMIX_MAG =  1.00
     AMIN     =   0.10
     WC   =   100.;   INIMIX=   1;  MIXPRE=   1;  MAXMIX= -45

 Intra band minimization:
   WEIMIN = 0.0010     energy-eigenvalue tresh-hold
   EBREAK =  0.82E-09  absolut break condition
   DEPER  =   0.30     relativ break condition  

   TIME   =   0.40     timestep for ELM

  volume/ion in A,a.u.               =      53.49       360.99
  Fermi-wavevector in a.u.,A,eV,Ry     =   0.951418  1.797920 12.315955  0.905197
  Thomas-Fermi vector in A             =   2.079887
 
 Write flags
   LWAVE  =      F    write WAVECAR
   LCHARG =      F    write CHGCAR
   LVTOT  =      F    write LOCPOT, total local potential
   LVHAR  =      F    write LOCPOT, Hartree potential only
   LELF   =      F    write electronic localiz. function (ELF)
   LORBIT =      0    0 simple, 1 ext, 2 COOP (PROOUT)


 Dipole corrections
   LMONO  =      F    monopole corrections only (constant potential shift)
   LDIPOL =      T    correct potential (dipole corrections)
   IDIPOL =      3    1-x, 2-y, 3-z, 4-all directions 
   EPSILON=  1.0000000 bulk dielectric constant

 Exchange correlation treatment:
   GGA     =    PE    GGA type
   LEXCH   =     8    internal setting for exchange type
   VOSKOWN=      1    Vosko Wilk Nusair interpolation
   LHFCALC =     F    Hartree Fock is set to
   LHFONE  =     F    Hartree Fock one center treatment
   AEXX    =    0.0000 exact exchange contribution

 Linear response parameters
   LEPSILON=     F    determine dielectric tensor
   LRPA    =     F    only Hartree local field effects (RPA)
   LNABLA  =     F    use nabla operator in PAW spheres
   LVEL    =     F    velocity operator in full k-point grid
   LINTERFAST=   F  fast interpolation
   KINTER  =     0    interpolate to denser k-point grid
   CSHIFT  =0.1000    complex shift for real part using Kramers Kronig
   OMEGAMAX=  -1.0    maximum frequency
   DEG_THRESHOLD= 0.2000000E-02 threshold for treating states as degnerate
   RTIME   =    0.100 relaxation time in fs

 Orbital magnetization related:
   ORBITALMAG=     F  switch on orbital magnetization
   LCHIMAG   =     F  perturbation theory with respect to B field
   DQ        =  0.001000  dq finite difference perturbation B field



--------------------------------------------------------------------------------------------------------


 conjugate gradient relaxation of ions
 charge density and potential will be updated during run
 non-spin polarized calculation
 RMM-DIIS sequential band-by-band and
  variant of blocked Davidson during initial phase
 perform sub-space diagonalisation
    before iterative eigenvector-optimisation
 modified Broyden-mixing scheme, WC =      100.0
 initial mixing is a Kerker type mixing with AMIX =  0.4000 and BMIX =      1.0000
 Hartree-type preconditioning will be used
 using additional bands           54
 real space projection scheme for non local part
 use partial core corrections
 calculate Harris-corrections to forces 
   (improved forces if not selfconsistent)
 use gradient corrections 
 use of overlap-Matrix (Vanderbilt PP)
 Gauss-broadening in eV      SIGMA  =   0.10


--------------------------------------------------------------------------------------------------------


  energy-cutoff  :      400.00
  volume of cell :     2567.68
      direct lattice vectors                 reciprocal lattice vectors
    11.002581515  0.000000000  0.000000000     0.090887761 -0.052474073  0.000000000
     5.501290758  9.528515099  0.000000000     0.000000000  0.104948147  0.000000000
     0.000000000  0.000000000 24.491785094     0.000000000  0.000000000  0.040830017

  length of vectors
    11.002581515 11.002581515 24.491785094     0.104948147  0.104948147  0.040830017


 
 k-points in units of 2pi/SCALE and weight: Automatic mesh                          
   0.02272194  0.01311852  0.00000000       0.167
   0.00000000  0.02623704  0.00000000       0.167
  -0.02272194  0.01311852  0.00000000       0.167
  -0.02272194  0.03935555  0.00000000       0.167
   0.04544388 -0.05247407  0.00000000       0.167
  -0.02272194  0.06559259  0.00000000       0.167
 
 k-points in reciprocal lattice and weights: Automatic mesh                          
   0.25000000  0.25000000  0.00000000       0.167
   0.00000000  0.25000000  0.00000000       0.167
  -0.25000000  0.00000000  0.00000000       0.167
  -0.25000000  0.25000000  0.00000000       0.167
   0.50000000 -0.25000000  0.00000000       0.167
  -0.25000000  0.50000000  0.00000000       0.167
 
 position of ions in fractional coordinates (direct lattice) 
   0.33333333  0.33333333  0.40830017
   0.66666667  0.91666667  0.50000000
   0.75000000  0.00000000  0.59169983
   0.33333333  0.83333333  0.40830017
   0.25000000  0.50000000  0.59169983
   0.83333333  0.33333333  0.40830017
   0.33333333  0.58333333  0.40830017
   0.66666667  0.41666667  0.50000000
   0.16666667  0.41666667  0.50000000
   0.50000000  0.25000000  0.59169983
   0.25000000  0.00000000  0.59169983
   0.75000000  0.25000000  0.59169983
   0.83333333  0.58333333  0.40830017
   0.00000000  0.75000000  0.59169983
   0.91666667  0.91666667  0.50000000
   0.66666667  0.66666667  0.50000000
   0.00000000  0.50000000  0.59169983
   0.91666667  0.66666667  0.50000000
   0.08333333  0.58333333  0.40830017
   0.75000000  0.50000000  0.59169983
   0.91666667  0.41666667  0.50000000
   0.08333333  0.33333333  0.40830017
   0.91666667  0.16666667  0.50000000
   0.41666667  0.91666667  0.50000000
   0.58333333  0.83333333  0.40830017
   0.50000000  0.75000000  0.59169983
   0.08333333  0.08333333  0.40830017
   0.66666667  0.16666667  0.50000000
   0.83333333  0.83333333  0.40830017
   0.83333333  0.08333333  0.40830017
   0.50000000  0.50000000  0.59169983
   0.25000000  0.75000000  0.59169983
   0.58333333  0.58333333  0.40830017
   0.41666667  0.41666667  0.50000000
   0.58333333  0.33333333  0.40830017
   0.50000000  0.00000000  0.59169983
   0.41666667  0.16666667  0.50000000
   0.58333333  0.08333333  0.40830017
   0.16666667  0.91666667  0.50000000
   0.16666667  0.66666667  0.50000000
   0.25000000  0.25000000  0.59169983
   0.16666667  0.16666667  0.50000000
   0.33333333  0.08333333  0.40830017
   0.08333333  0.83333333  0.40830017
   0.00000000  0.25000000  0.59169983
   0.00000000  0.00000000  0.59169983
   0.41666667  0.66666667  0.50000000
   0.75000000  0.75000000  0.59169983
 
 position of ions in cartesian coordinates  (Angst):
   5.50129076  3.17617170 10.00000000
  12.37790420  8.73447217 12.24589255
   8.25193614  0.00000000 14.49178509
   8.25193614  7.94042925 10.00000000
   5.50129076  4.76425755 14.49178509
  11.00258152  3.17617170 10.00000000
   6.87661345  5.55830047 10.00000000
   9.62725883  3.97021462 12.24589255
   4.12596807  3.97021462 12.24589255
   6.87661345  2.38212877 14.49178509
   2.75064538  0.00000000 14.49178509
   9.62725883  2.38212877 14.49178509
  12.37790420  5.55830047 10.00000000
   4.12596807  7.14638632 14.49178509
  15.12854958  8.73447217 12.24589255
  11.00258152  6.35234340 12.24589255
   2.75064538  4.76425755 14.49178509
  13.75322689  6.35234340 12.24589255
   4.12596807  5.55830047 10.00000000
  11.00258152  4.76425755 14.49178509
  12.37790420  3.97021462 12.24589255
   2.75064538  3.17617170 10.00000000
  11.00258152  1.58808585 12.24589255
   9.62725883  8.73447217 12.24589255
  11.00258152  7.94042925 10.00000000
   9.62725883  7.14638632 14.49178509
   1.37532269  0.79404292 10.00000000
   8.25193614  1.58808585 12.24589255
  13.75322689  7.94042925 10.00000000
   9.62725883  0.79404292 10.00000000
   8.25193614  4.76425755 14.49178509
   6.87661345  7.14638632 14.49178509
   9.62725883  5.55830047 10.00000000
   6.87661345  3.97021462 12.24589255
   8.25193614  3.17617170 10.00000000
   5.50129076  0.00000000 14.49178509
   5.50129076  1.58808585 12.24589255
   6.87661345  0.79404292 10.00000000
   6.87661345  8.73447217 12.24589255
   5.50129076  6.35234340 12.24589255
   4.12596807  2.38212877 14.49178509
   2.75064538  1.58808585 12.24589255
   4.12596807  0.79404292 10.00000000
   5.50129076  7.94042925 10.00000000
   1.37532269  2.38212877 14.49178509
   0.00000000  0.00000000 14.49178509
   8.25193614  6.35234340 12.24589255
  12.37790420  7.14638632 14.49178509
 


--------------------------------------------------------------------------------------------------------


 k-point  1 :   0.2500 0.2500 0.0000  plane waves:   46635
 k-point  2 :   0.0000 0.2500 0.0000  plane waves:   46635
 k-point  3 :  -0.2500 0.0000 0.0000  plane waves:   46635
 k-point  4 :  -0.2500 0.2500 0.0000  plane waves:   46644
 k-point  5 :   0.5000-0.2500 0.0000  plane waves:   46644
 k-point  6 :  -0.2500 0.5000 0.0000  plane waves:   46644

 maximum and minimum number of plane-waves per node :      7818     7732

 maximum number of plane-waves:     46644
 maximum index in each direction: 
   IXMAX=   18   IYMAX=   18   IZMAX=   39
   IXMIN=  -18   IYMIN=  -18   IZMIN=  -39

 WARNING: aliasing errors must be expected set NGX to  74 to avoid them
 WARNING: aliasing errors must be expected set NGY to  74 to avoid them
 WARNING: aliasing errors must be expected set NGZ to 158 to avoid them
 aliasing errors are usually negligible using standard VASP settings
 and one can safely disregard these warnings

 real space projection operators:
  total allocation   :      12803.06 KBytes
  max/ min on nodes  :       2145.66       2127.94


 parallel 3D FFT for wavefunctions:
    minimum data exchange during FFTs selected (reduces bandwidth)
 parallel 3D FFT for charge:
    minimum data exchange during FFTs selected (reduces bandwidth)


 total amount of memory used by VASP on root node    84353. kBytes
========================================================================

   base      :      30000. kBytes
   nonlr-proj:       4285. kBytes
   fftplans  :       4447. kBytes
   grid      :       6721. kBytes
   one-center:        124. kBytes
   wavefun   :      38776. kBytes
 
     INWAV:  cpu time    0.0000: real time    0.0000
 Broyden mixing: mesh for mixing (old mesh)
   NGX = 35   NGY = 35   NGZ = 79
  (NGX  =108   NGY  =108   NGZ  =240)
  gives a total of  96775 points

 initial charge density was supplied:
 charge density of overlapping atoms calculated
 number of electron     504.0000000 magnetization 
 keeping initial charge density in first step


--------------------------------------------------------------------------------------------------------


 Maximum index for non-local projection operator          355
 Maximum index for augmentation-charges          437 (set IRDMAX)


--------------------------------------------------------------------------------------------------------


 First call to EWALD:  gamma=   0.129
 Maximum number of real-space cells 4x 4x 2
 Maximum number of reciprocal cells 2x 2x 5

 FEWALD executed in parallel
    FEWALD:  cpu time    0.0021: real time    0.0021


----------------------------------------- Iteration    1(   1)  ---------------------------------------


    POTLOK:  cpu time    0.0465: real time    0.0468
    SETDIJ:  cpu time    0.0061: real time    0.0061
     EDDAV:  cpu time    6.8684: real time    6.8928
       DOS:  cpu time    0.0014: real time    0.0014
    --------------------------------------------
      LOOP:  cpu time    6.9252: real time    6.9522

 eigenvalue-minimisations  :  3672
 total energy-change (2. order) : 0.3200954E+04  (-0.1898060E+05)
 number of electron     504.0000000 magnetization 
 augmentation part      504.0000000 magnetization 

 DIPCOR: dipole corrections for dipol
 direction  3 min pos     1,
 dipolmoment           0.000000      0.000000     -0.000001 electrons x Angstroem
 Tr[quadrupol]    -10281.525473

 energy correction for charged system         0.000000 eV
 dipol+quadrupol energy correction           -0.000000 eV
 added-field ion interaction          0.000000 eV  (added to PSCEN)


 Free energy of the ion-electron system (eV)
  ---------------------------------------------------
  alpha Z        PSCENC =       805.86936440
  Ewald energy   TEWEN  =    200405.25784941
  -Hartree energ DENC   =   -242820.81488363
  -exchange      EXHF   =         0.00000000
  -V(xc)+E(xc)   XCENC  =      -327.56071709
  PAW double counting   =     40340.05962942   -38292.62782345
  entropy T*S    EENTRO =        -0.13779545
  eigenvalues    EBANDS =      1431.12235979
  atomic energy  EATOM  =     41659.78587232
  Solvation  Ediel_sol  =         0.00000000
  ---------------------------------------------------
  free energy    TOTEN  =      3200.95385574 eV

  energy without entropy =     3201.09165118  energy(sigma->0) =     3201.02275346


--------------------------------------------------------------------------------------------------------




----------------------------------------- Iteration    1(   2)  ---------------------------------------


     EDDAV:  cpu time    7.9088: real time    7.9333
       DOS:  cpu time    0.0015: real time    0.0015
    --------------------------------------------
      LOOP:  cpu time    7.9112: real time    7.9385

 eigenvalue-minimisations  :  4368
 total energy-change (2. order) :-0.3184928E+04  (-0.2930588E+04)
 number of electron     504.0000000 magnetization 
 augmentation part      504.0000000 magnetization 

 DIPCOR: dipole corrections for dipol
 direction  3 min pos     1,
 dipolmoment           0.000000      0.000000     -0.000001 electrons x Angstroem
 Tr[quadrupol]    -10281.525473

 energy correction for charged system         0.000000 eV
 dipol+quadrupol energy correction           -0.000000 eV
 added-field ion interaction          0.000000 eV  (added to PSCEN)


 Free energy of the ion-electron system (eV)
  ---------------------------------------------------
  alpha Z        PSCENC =       805.86936440
  Ewald energy   TEWEN  =    200405.25784941
  -Hartree energ DENC   =   -242820.81488363
  -exchange      EXHF   =         0.00000000
  -V(xc)+E(xc)   XCENC  =      -327.56071709
  PAW double counting   =     40340.05962942   -38292.62782345
  entropy T*S    EENTRO =        -0.13788555
  eigenvalues    EBANDS =     -1753.80509415
  atomic energy  EATOM  =     41659.78587232
  Solvation  Ediel_sol  =         0.00000000
  ---------------------------------------------------
  free energy    TOTEN  =        16.02631169 eV

  energy without entropy =       16.16419724  energy(sigma->0) =       16.09525447


--------------------------------------------------------------------------------------------------------




----------------------------------------- Iteration    1(   3)  ---------------------------------------


     EDDAV:  cpu time    7.8756: real time    7.8950
       DOS:  cpu time    0.0016: real time    0.0016
    --------------------------------------------
      LOOP:  cpu time    7.8785: real time    7.8995

 eigenvalue-minimisations  :  4128
 total energy-change (2. order) :-0.2163520E+03  (-0.2008835E+03)
 number of electron     504.0000000 magnetization 
 augmentation part      504.0000000 magnetization 

 DIPCOR: dipole corrections for dipol
 direction  3 min pos     1,
 dipolmoment           0.000000      0.000000     -0.000001 electrons x Angstroem
 Tr[quadrupol]    -10281.525473

 energy correction for charged system         0.000000 eV
 dipol+quadrupol energy correction           -0.000000 eV
 added-field ion interaction          0.000000 eV  (added to PSCEN)


 Free energy of the ion-electron system (eV)
  ---------------------------------------------------
  alpha Z        PSCENC =       805.86936440
  Ewald energy   TEWEN  =    200405.25784941
  -Hartree energ DENC   =   -242820.81488363
  -exchange      EXHF   =         0.00000000
  -V(xc)+E(xc)   XCENC  =      -327.56071709
  PAW double counting   =     40340.05962942   -38292.62782345
  entropy T*S    EENTRO =        -0.20757921
  eigenvalues    EBANDS =     -1970.08738294
  atomic energy  EATOM  =     41659.78587232
  Solvation  Ediel_sol  =         0.00000000
  ---------------------------------------------------
  free energy    TOTEN  =      -200.32567075 eV

  energy without entropy =     -200.11809155  energy(sigma->0) =     -200.22188115


--------------------------------------------------------------------------------------------------------




----------------------------------------- Iteration    1(   4)  ---------------------------------------


     EDDAV:  cpu time    8.0219: real time    8.0450
       DOS:  cpu time    0.0016: real time    0.0016
    --------------------------------------------
      LOOP:  cpu time    8.0244: real time    8.0509

 eigenvalue-minimisations  :  4224
 total energy-change (2. order) :-0.5814991E+01  (-0.5753198E+01)
 number of electron     504.0000000 magnetization 
 augmentation part      504.0000000 magnetization 

 DIPCOR: dipole corrections for dipol
 direction  3 min pos     1,
 dipolmoment           0.000000      0.000000     -0.000001 electrons x Angstroem
 Tr[quadrupol]    -10281.525473

 energy correction for charged system         0.000000 eV
 dipol+quadrupol energy correction           -0.000000 eV
 added-field ion interaction          0.000000 eV  (added to PSCEN)


 Free energy of the ion-electron system (eV)
  ---------------------------------------------------
  alpha Z        PSCENC =       805.86936440
  Ewald energy   TEWEN  =    200405.25784941
  -Hartree energ DENC   =   -242820.81488363
  -exchange      EXHF   =         0.00000000
  -V(xc)+E(xc)   XCENC  =      -327.56071709
  PAW double counting   =     40340.05962942   -38292.62782345
  entropy T*S    EENTRO =        -0.21631445
  eigenvalues    EBANDS =     -1975.89363896
  atomic energy  EATOM  =     41659.78587232
  Solvation  Ediel_sol  =         0.00000000
  ---------------------------------------------------
  free energy    TOTEN  =      -206.14066202 eV

  energy without entropy =     -205.92434757  energy(sigma->0) =     -206.03250480


--------------------------------------------------------------------------------------------------------




----------------------------------------- Iteration    1(   5)  ---------------------------------------


     EDDAV:  cpu time    8.3014: real time    8.4028
       DOS:  cpu time    0.0016: real time    0.0016
    CHARGE:  cpu time    0.2390: real time    0.2408
    MIXING:  cpu time    0.0022: real time    0.0022
    --------------------------------------------
      LOOP:  cpu time    8.5449: real time    8.6496

 eigenvalue-minimisations  :  4428
 total energy-change (2. order) :-0.1865223E+00  (-0.1859371E+00)
 number of electron     503.9998405 magnetization 
 augmentation part      191.3483791 magnetization 

 DIPCOR: dipole corrections for dipol
 direction  3 min pos     1,
 dipolmoment           0.000000      0.000000     -0.000001 electrons x Angstroem
 Tr[quadrupol]    -10281.525473

 energy correction for charged system         0.000000 eV
 dipol+quadrupol energy correction           -0.000000 eV
 added-field ion interaction          0.000000 eV  (added to PSCEN)


 Broyden mixing:
  rms(total) = 0.62596E+01    rms(broyden)= 0.62596E+01
  rms(prec ) = 0.63918E+01
  weight for this iteration     100.00

 Free energy of the ion-electron system (eV)
  ---------------------------------------------------
  alpha Z        PSCENC =       805.86936440
  Ewald energy   TEWEN  =    200405.25784941
  -Hartree energ DENC   =   -242820.81488363
  -exchange      EXHF   =         0.00000000
  -V(xc)+E(xc)   XCENC  =      -327.56071709
  PAW double counting   =     40340.05962942   -38292.62782345
  entropy T*S    EENTRO =        -0.21713319
  eigenvalues    EBANDS =     -1976.07934247
  atomic energy  EATOM  =     41659.78587232
  Solvation  Ediel_sol  =         0.00000000
  ---------------------------------------------------
  free energy    TOTEN  =      -206.32718427 eV

  energy without entropy =     -206.11005108  energy(sigma->0) =     -206.21861768


--------------------------------------------------------------------------------------------------------




----------------------------------------- Iteration    1(   6)  ---------------------------------------


    POTLOK:  cpu time    0.0425: real time    0.0433
    SETDIJ:  cpu time    0.0063: real time    0.0064
    EDDIAG:  cpu time    1.2244: real time    1.2338
  RMM-DIIS:  cpu time    3.4306: real time    3.4388
    ORTHCH:  cpu time    0.2969: real time    0.2976
       DOS:  cpu time    0.0014: real time    0.0014
    CHARGE:  cpu time    0.2379: real time    0.2385
    MIXING:  cpu time    0.0019: real time    0.0020
    --------------------------------------------
      LOOP:  cpu time    5.2426: real time    5.2653

 eigenvalue-minimisations  :  3678
 total energy-change (2. order) : 0.6713272E+01  (-0.9719011E+01)
 number of electron     503.9998424 magnetization 
 augmentation part      191.8138804 magnetization 

 DIPCOR: dipole corrections for dipol
 direction  3 min pos     1,
 dipolmoment           0.000000      0.000000     -0.333244 electrons x Angstroem
 Tr[quadrupol]    -10282.204032

 energy correction for charged system         0.000000 eV
 dipol+quadrupol energy correction           -0.003913 eV
 added-field ion interaction          0.052745 eV  (added to PSCEN)


 Broyden mixing:
  rms(total) = 0.55244E+01    rms(broyden)= 0.55243E+01
  rms(prec ) = 0.57108E+01
  weight for this iteration     100.00

 eigenvalues of (default mixing * dielectric matrix)
  average eigenvalue GAMMA=   0.7395
  0.7395

 Free energy of the ion-electron system (eV)
  ---------------------------------------------------
  alpha Z        PSCENC =       805.91819642
  Ewald energy   TEWEN  =    200405.25784941
  -Hartree energ DENC   =   -242545.66203286
  -exchange      EXHF   =         0.00000000
  -V(xc)+E(xc)   XCENC  =      -339.97719336
  PAW double counting   =     43930.20741299   -41941.94364264
  entropy T*S    EENTRO =        -0.28935697
  eigenvalues    EBANDS =     -2172.91101723
  atomic energy  EATOM  =     41659.78587232
  Solvation  Ediel_sol  =         0.00000000
  ---------------------------------------------------
  free energy    TOTEN  =      -199.61391191 eV

  energy without entropy =     -199.32455494  energy(sigma->0) =     -199.46923343


--------------------------------------------------------------------------------------------------------




----------------------------------------- Iteration    1(   7)  ---------------------------------------


    POTLOK:  cpu time    0.0416: real time    0.0426
    SETDIJ:  cpu time    0.0061: real time    0.0061
    EDDIAG:  cpu time    1.2255: real time    1.2286
  RMM-DIIS:  cpu time    3.3512: real time    3.3594
    ORTHCH:  cpu time    0.2964: real time    0.2977
       DOS:  cpu time    0.0015: real time    0.0015
    CHARGE:  cpu time    0.2353: real time    0.2359
    MIXING:  cpu time    0.0020: real time    0.0021
    --------------------------------------------
      LOOP:  cpu time    5.1604: real time    5.1772

 eigenvalue-minimisations  :  3683
 total energy-change (2. order) :-0.4223197E+01  (-0.4921727E+01)
 number of electron     503.9998372 magnetization 
 augmentation part      196.1460562 magnetization 

 DIPCOR: dipole corrections for dipol
 direction  3 min pos     1,
 dipolmoment           0.000000      0.000000      0.930006 electrons x Angstroem
 Tr[quadrupol]    -10281.266918

 energy correction for charged system         0.000000 eV
 dipol+quadrupol energy correction           -0.030477 eV
 added-field ion interaction         -0.147200 eV  (added to PSCEN)


 Broyden mixing:
  rms(total) = 0.41519E+01    rms(broyden)= 0.41516E+01
  rms(prec ) = 0.47159E+01
  weight for this iteration     100.00

 eigenvalues of (default mixing * dielectric matrix)
  average eigenvalue GAMMA=   0.9796
  1.5575  0.4016

 Free energy of the ion-electron system (eV)
  ---------------------------------------------------
  alpha Z        PSCENC =       805.69168714
  Ewald energy   TEWEN  =    200405.25784941
  -Hartree energ DENC   =   -242409.46131082
  -exchange      EXHF   =         0.00000000
  -V(xc)+E(xc)   XCENC  =      -342.35282809
  PAW double counting   =     45412.39971930   -43450.22464571
  entropy T*S    EENTRO =        -0.19169226
  eigenvalues    EBANDS =     -2284.74175985
  atomic energy  EATOM  =     41659.78587232
  Solvation  Ediel_sol  =         0.00000000
  ---------------------------------------------------
  free energy    TOTEN  =      -203.83710857 eV

  energy without entropy =     -203.64541630  energy(sigma->0) =     -203.74126243


--------------------------------------------------------------------------------------------------------




----------------------------------------- Iteration    1(   8)  ---------------------------------------


    POTLOK:  cpu time    0.0418: real time    0.0427
    SETDIJ:  cpu time    0.0056: real time    0.0063
    EDDIAG:  cpu time    1.2409: real time    1.2446
  RMM-DIIS:  cpu time    3.4108: real time    3.4198
    ORTHCH:  cpu time    0.2944: real time    0.2951
       DOS:  cpu time    0.0014: real time    0.0014
    CHARGE:  cpu time    0.2381: real time    0.2386
    MIXING:  cpu time    0.0020: real time    0.0020
    --------------------------------------------
      LOOP:  cpu time    5.2356: real time    5.2547

 eigenvalue-minimisations  :  3676
 total energy-change (2. order) :-0.2920859E+02  (-0.9809678E+01)
 number of electron     503.9998374 magnetization 
 augmentation part      194.6815090 magnetization 

 DIPCOR: dipole corrections for dipol
 direction  3 min pos     1,
 dipolmoment           0.000000      0.000000     -2.293701 electrons x Angstroem
 Tr[quadrupol]    -10283.483834

 energy correction for charged system         0.000000 eV
 dipol+quadrupol energy correction           -0.185386 eV
 added-field ion interaction          0.363044 eV  (added to PSCEN)


 Broyden mixing:
  rms(total) = 0.47966E+01    rms(broyden)= 0.47963E+01
  rms(prec ) = 0.60200E+01
  weight for this iteration     100.00

 eigenvalues of (default mixing * dielectric matrix)
  average eigenvalue GAMMA=   0.9462
  2.1182  0.4725  0.2479

 Free energy of the ion-electron system (eV)
  ---------------------------------------------------
  alpha Z        PSCENC =       806.04702199
  Ewald energy   TEWEN  =    200405.25784941
  -Hartree energ DENC   =   -242420.08512371
  -exchange      EXHF   =         0.00000000
  -V(xc)+E(xc)   XCENC  =      -344.45232943
  PAW double counting   =     47287.65346999   -45352.41269679
  entropy T*S    EENTRO =        -0.32948519
  eigenvalues    EBANDS =     -2274.51027724
  atomic energy  EATOM  =     41659.78587232
  Solvation  Ediel_sol  =         0.00000000
  ---------------------------------------------------
  free energy    TOTEN  =      -233.04569865 eV

  energy without entropy =     -232.71621346  energy(sigma->0) =     -232.88095606


--------------------------------------------------------------------------------------------------------




----------------------------------------- Iteration    1(   9)  ---------------------------------------


    POTLOK:  cpu time    0.0416: real time    0.0417
    SETDIJ:  cpu time    0.0055: real time    0.0055
    EDDIAG:  cpu time    1.2230: real time    1.2262
  RMM-DIIS:  cpu time    3.4229: real time    3.4318
    ORTHCH:  cpu time    0.2939: real time    0.2946
       DOS:  cpu time    0.0015: real time    0.0015
    CHARGE:  cpu time    0.2381: real time    0.2387
    MIXING:  cpu time    0.0022: real time    0.0022
    --------------------------------------------
      LOOP:  cpu time    5.2293: real time    5.2462

 eigenvalue-minimisations  :  3676
 total energy-change (2. order) : 0.1804731E+02  (-0.5319204E+01)
 number of electron     503.9998342 magnetization 
 augmentation part      197.9416916 magnetization 

 DIPCOR: dipole corrections for dipol
 direction  3 min pos     1,
 dipolmoment           0.000000      0.000000      0.470621 electrons x Angstroem
 Tr[quadrupol]    -10284.684034

 energy correction for charged system         0.000000 eV
 dipol+quadrupol energy correction           -0.007805 eV
 added-field ion interaction         -0.074489 eV  (added to PSCEN)


 Broyden mixing:
  rms(total) = 0.39155E+01    rms(broyden)= 0.39152E+01
  rms(prec ) = 0.43568E+01
  weight for this iteration     100.00

 eigenvalues of (default mixing * dielectric matrix)
  average eigenvalue GAMMA=   0.8261
  2.2786  0.4732  0.2763  0.2763

 Free energy of the ion-electron system (eV)
  ---------------------------------------------------
  alpha Z        PSCENC =       805.78707064
  Ewald energy   TEWEN  =    200405.25784941
  -Hartree energ DENC   =   -242411.66809025
  -exchange      EXHF   =         0.00000000
  -V(xc)+E(xc)   XCENC  =      -346.39179801
  PAW double counting   =     48668.96438457   -46756.28795090
  entropy T*S    EENTRO =        -0.22362151
  eigenvalues    EBANDS =     -2240.22210533
  atomic energy  EATOM  =     41659.78587232
  Solvation  Ediel_sol  =         0.00000000
  ---------------------------------------------------
  free energy    TOTEN  =      -214.99838907 eV

  energy without entropy =     -214.77476755  energy(sigma->0) =     -214.88657831


--------------------------------------------------------------------------------------------------------




----------------------------------------- Iteration    1(  10)  ---------------------------------------


    POTLOK:  cpu time    0.0423: real time    0.0425
    SETDIJ:  cpu time    0.0055: real time    0.0063
    EDDIAG:  cpu time    1.2214: real time    1.2244
  RMM-DIIS:  cpu time    3.4197: real time    3.4309
    ORTHCH:  cpu time    0.2936: real time    0.2945
       DOS:  cpu time    0.0015: real time    0.0015
    CHARGE:  cpu time    0.2357: real time    0.2363
    MIXING:  cpu time    0.0023: real time    0.0023
    --------------------------------------------
      LOOP:  cpu time    5.2227: real time    5.2421

 eigenvalue-minimisations  :  3681
 total energy-change (2. order) : 0.1752038E+02  (-0.2095198E+01)
 number of electron     503.9998331 magnetization 
 augmentation part      199.3998769 magnetization 

 DIPCOR: dipole corrections for dipol
 direction  3 min pos     1,
 dipolmoment           0.000000      0.000000     -0.314507 electrons x Angstroem
 Tr[quadrupol]    -10282.750133

 energy correction for charged system         0.000000 eV
 dipol+quadrupol energy correction           -0.003485 eV
 added-field ion interaction          0.049780 eV  (added to PSCEN)


 Broyden mixing:
  rms(total) = 0.23795E+01    rms(broyden)= 0.23793E+01
  rms(prec ) = 0.27712E+01
  weight for this iteration     100.00

 eigenvalues of (default mixing * dielectric matrix)
  average eigenvalue GAMMA=   0.7498
  2.3114  0.4080  0.4080  0.4048  0.2167

 Free energy of the ion-electron system (eV)
  ---------------------------------------------------
  alpha Z        PSCENC =       805.91565844
  Ewald energy   TEWEN  =    200405.25784941
  -Hartree energ DENC   =   -242354.52147559
  -exchange      EXHF   =         0.00000000
  -V(xc)+E(xc)   XCENC  =      -346.13365068
  PAW double counting   =     49163.53894521   -47256.41425689
  entropy T*S    EENTRO =        -0.13480359
  eigenvalues    EBANDS =     -2274.77214632
  atomic energy  EATOM  =     41659.78587232
  Solvation  Ediel_sol  =         0.00000000
  ---------------------------------------------------
  free energy    TOTEN  =      -197.47800768 eV

  energy without entropy =     -197.34320409  energy(sigma->0) =     -197.41060589


--------------------------------------------------------------------------------------------------------




----------------------------------------- Iteration    1(  11)  ---------------------------------------


    POTLOK:  cpu time    0.0417: real time    0.0419
    SETDIJ:  cpu time    0.0056: real time    0.0058
    EDDIAG:  cpu time    1.2223: real time    1.2252
  RMM-DIIS:  cpu time    3.4065: real time    3.4148
    ORTHCH:  cpu time    0.2944: real time    0.2951
       DOS:  cpu time    0.0015: real time    0.0015
    CHARGE:  cpu time    0.2322: real time    0.2328
    MIXING:  cpu time    0.0024: real time    0.0024
    --------------------------------------------
      LOOP:  cpu time    5.2072: real time    5.2227

 eigenvalue-minimisations  :  3682
 total energy-change (2. order) : 0.4764902E+01  (-0.1390302E+01)
 number of electron     503.9998340 magnetization 
 augmentation part      198.8370492 magnetization 

 DIPCOR: dipole corrections for dipol
 direction  3 min pos     1,
 dipolmoment           0.000000      0.000000     -0.100986 electrons x Angstroem
 Tr[quadrupol]    -10283.736714

 energy correction for charged system         0.000000 eV
 dipol+quadrupol energy correction           -0.000359 eV
 added-field ion interaction          0.015984 eV  (added to PSCEN)


 Broyden mixing:
  rms(total) = 0.14020E+01    rms(broyden)= 0.14017E+01
  rms(prec ) = 0.16018E+01
  weight for this iteration     100.00

 eigenvalues of (default mixing * dielectric matrix)
  average eigenvalue GAMMA=   0.7126
  2.2222  0.6130  0.6130  0.3070  0.3070  0.2135

 Free energy of the ion-electron system (eV)
  ---------------------------------------------------
  alpha Z        PSCENC =       805.88498885
  Ewald energy   TEWEN  =    200405.25784941
  -Hartree energ DENC   =   -242412.55593780
  -exchange      EXHF   =         0.00000000
  -V(xc)+E(xc)   XCENC  =      -345.62278548
  PAW double counting   =     49302.16576096   -47393.10582655
  entropy T*S    EENTRO =        -0.23902642
  eigenvalues    EBANDS =     -2214.28400057
  atomic energy  EATOM  =     41659.78587232
  Solvation  Ediel_sol  =         0.00000000
  ---------------------------------------------------
  free energy    TOTEN  =      -192.71310529 eV

  energy without entropy =     -192.47407887  energy(sigma->0) =     -192.59359208


--------------------------------------------------------------------------------------------------------




----------------------------------------- Iteration    1(  12)  ---------------------------------------


    POTLOK:  cpu time    0.0413: real time    0.0414
    SETDIJ:  cpu time    0.0063: real time    0.0063
    EDDIAG:  cpu time    1.2331: real time    1.2360
  RMM-DIIS:  cpu time    3.3659: real time    3.4629
    ORTHCH:  cpu time    0.2948: real time    0.2956
       DOS:  cpu time    0.0014: real time    0.0014
    CHARGE:  cpu time    0.2350: real time    0.2356
    MIXING:  cpu time    0.0025: real time    0.0025
    --------------------------------------------
      LOOP:  cpu time    5.1810: real time    5.2852

 eigenvalue-minimisations  :  3680
 total energy-change (2. order) : 0.3298256E+01  (-0.6223522E+00)
 number of electron     503.9998360 magnetization 
 augmentation part      197.5303511 magnetization 

 DIPCOR: dipole corrections for dipol
 direction  3 min pos     1,
 dipolmoment           0.000000      0.000000     -0.039043 electrons x Angstroem
 Tr[quadrupol]    -10283.994596

 energy correction for charged system         0.000000 eV
 dipol+quadrupol energy correction           -0.000054 eV
 added-field ion interaction          0.006180 eV  (added to PSCEN)


 Broyden mixing:
  rms(total) = 0.10260E+01    rms(broyden)= 0.10258E+01
  rms(prec ) = 0.11471E+01
  weight for this iteration     100.00

 eigenvalues of (default mixing * dielectric matrix)
  average eigenvalue GAMMA=   0.6615
  2.2343  0.5066  0.5066  0.5272  0.3222  0.3222  0.2113

 Free energy of the ion-electron system (eV)
  ---------------------------------------------------
  alpha Z        PSCENC =       805.87549025
  Ewald energy   TEWEN  =    200405.25784941
  -Hartree energ DENC   =   -242463.21258549
  -exchange      EXHF   =         0.00000000
  -V(xc)+E(xc)   XCENC  =      -344.49612725
  PAW double counting   =     49306.22372471   -47391.41275365
  entropy T*S    EENTRO =        -0.21141046
  eigenvalues    EBANDS =     -2167.22490957
  atomic energy  EATOM  =     41659.78587232
  Solvation  Ediel_sol  =         0.00000000
  ---------------------------------------------------
  free energy    TOTEN  =      -189.41484973 eV

  energy without entropy =     -189.20343927  energy(sigma->0) =     -189.30914450


--------------------------------------------------------------------------------------------------------




----------------------------------------- Iteration    1(  13)  ---------------------------------------


    POTLOK:  cpu time    0.0411: real time    0.0412
    SETDIJ:  cpu time    0.0054: real time    0.0054
    EDDIAG:  cpu time    1.2249: real time    1.2279
  RMM-DIIS:  cpu time    3.4078: real time    3.4160
    ORTHCH:  cpu time    0.2910: real time    0.2917
       DOS:  cpu time    0.0015: real time    0.0015
    CHARGE:  cpu time    0.2372: real time    0.2378
    MIXING:  cpu time    0.0028: real time    0.0028
    --------------------------------------------
      LOOP:  cpu time    5.2125: real time    5.2279

 eigenvalue-minimisations  :  3679
 total energy-change (2. order) : 0.5999050E+00  (-0.2126569E+00)
 number of electron     503.9998359 magnetization 
 augmentation part      197.3651348 magnetization 

 DIPCOR: dipole corrections for dipol
 direction  3 min pos     1,
 dipolmoment           0.000000      0.000000     -0.004911 electrons x Angstroem
 Tr[quadrupol]    -10284.090356

 energy correction for charged system         0.000000 eV
 dipol+quadrupol energy correction           -0.000001 eV
 added-field ion interaction          0.000777 eV  (added to PSCEN)


 Broyden mixing:
  rms(total) = 0.83310E+00    rms(broyden)= 0.83292E+00
  rms(prec ) = 0.94157E+00
  weight for this iteration     100.00

 eigenvalues of (default mixing * dielectric matrix)
  average eigenvalue GAMMA=   0.6762
  2.2915  0.7586  0.6550  0.6550  0.3053  0.3053  0.2390  0.1994

 Free energy of the ion-electron system (eV)
  ---------------------------------------------------
  alpha Z        PSCENC =       805.87014070
  Ewald energy   TEWEN  =    200405.25784941
  -Hartree energ DENC   =   -242471.71711341
  -exchange      EXHF   =         0.00000000
  -V(xc)+E(xc)   XCENC  =      -344.27510101
  PAW double counting   =     49338.60355441   -47422.93489626
  entropy T*S    EENTRO =        -0.25254949
  eigenvalues    EBANDS =     -2159.15270142
  atomic energy  EATOM  =     41659.78587232
  Solvation  Ediel_sol  =         0.00000000
  ---------------------------------------------------
  free energy    TOTEN  =      -188.81494475 eV

  energy without entropy =     -188.56239526  energy(sigma->0) =     -188.68867000


--------------------------------------------------------------------------------------------------------




----------------------------------------- Iteration    1(  14)  ---------------------------------------


    POTLOK:  cpu time    0.0419: real time    0.0420
    SETDIJ:  cpu time    0.0051: real time    0.0054
    EDDIAG:  cpu time    1.2289: real time    1.2336
  RMM-DIIS:  cpu time    3.4095: real time    3.4181
    ORTHCH:  cpu time    0.2897: real time    0.2904
       DOS:  cpu time    0.0016: real time    0.0016
    CHARGE:  cpu time    0.2355: real time    0.2361
    MIXING:  cpu time    0.0030: real time    0.0030
    --------------------------------------------
      LOOP:  cpu time    5.2159: real time    5.2346

 eigenvalue-minimisations  :  3679
 total energy-change (2. order) : 0.3900182E+00  (-0.1196420E+00)
 number of electron     503.9998358 magnetization 
 augmentation part      197.5771555 magnetization 

 DIPCOR: dipole corrections for dipol
 direction  3 min pos     1,
 dipolmoment           0.000000      0.000000      0.007622 electrons x Angstroem
 Tr[quadrupol]    -10284.360716

 energy correction for charged system         0.000000 eV
 dipol+quadrupol energy correction           -0.000002 eV
 added-field ion interaction         -0.001206 eV  (added to PSCEN)


 Broyden mixing:
  rms(total) = 0.57984E+00    rms(broyden)= 0.57971E+00
  rms(prec ) = 0.63052E+00
  weight for this iteration     100.00

 eigenvalues of (default mixing * dielectric matrix)
  average eigenvalue GAMMA=   0.6433
  2.2807  0.7207  0.7207  0.7537  0.3104  0.3104  0.2470  0.2470  0.1992

 Free energy of the ion-electron system (eV)
  ---------------------------------------------------
  alpha Z        PSCENC =       805.86815587
  Ewald energy   TEWEN  =    200405.25784941
  -Hartree energ DENC   =   -242479.20567178
  -exchange      EXHF   =         0.00000000
  -V(xc)+E(xc)   XCENC  =      -344.24496808
  PAW double counting   =     49398.09352351   -47482.54226950
  entropy T*S    EENTRO =        -0.25102468
  eigenvalues    EBANDS =     -2151.18639360
  atomic energy  EATOM  =     41659.78587232
  Solvation  Ediel_sol  =         0.00000000
  ---------------------------------------------------
  free energy    TOTEN  =      -188.42492654 eV

  energy without entropy =     -188.17390186  energy(sigma->0) =     -188.29941420


--------------------------------------------------------------------------------------------------------




----------------------------------------- Iteration    1(  15)  ---------------------------------------


    POTLOK:  cpu time    0.0418: real time    0.0419
    SETDIJ:  cpu time    0.0056: real time    0.0056
    EDDIAG:  cpu time    1.2233: real time    1.2272
  RMM-DIIS:  cpu time    3.4271: real time    3.4374
    ORTHCH:  cpu time    0.2900: real time    0.2907
       DOS:  cpu time    0.0016: real time    0.0016
    CHARGE:  cpu time    0.2315: real time    0.2320
    MIXING:  cpu time    0.0029: real time    0.0029
    --------------------------------------------
      LOOP:  cpu time    5.2246: real time    5.2429

 eigenvalue-minimisations  :  3679
 total energy-change (2. order) : 0.1804873E+00  (-0.2611673E-01)
 number of electron     503.9998358 magnetization 
 augmentation part      197.5747135 magnetization 

 DIPCOR: dipole corrections for dipol
 direction  3 min pos     1,
 dipolmoment           0.000000      0.000000      0.014787 electrons x Angstroem
 Tr[quadrupol]    -10284.428084

 energy correction for charged system         0.000000 eV
 dipol+quadrupol energy correction           -0.000008 eV
 added-field ion interaction         -0.002341 eV  (added to PSCEN)


 Broyden mixing:
  rms(total) = 0.45039E+00    rms(broyden)= 0.45036E+00
  rms(prec ) = 0.48037E+00
  weight for this iteration     100.00

 eigenvalues of (default mixing * dielectric matrix)
  average eigenvalue GAMMA=   0.6803
  2.2232  1.0358  1.0358  0.5823  0.4714  0.4714  0.2775  0.2775  0.2097  0.2184

 Free energy of the ion-electron system (eV)
  ---------------------------------------------------
  alpha Z        PSCENC =       805.86701605
  Ewald energy   TEWEN  =    200405.25784941
  -Hartree energ DENC   =   -242483.89606171
  -exchange      EXHF   =         0.00000000
  -V(xc)+E(xc)   XCENC  =      -344.16302922
  PAW double counting   =     49397.19472754   -47481.02501219
  entropy T*S    EENTRO =        -0.25843582
  eigenvalues    EBANDS =     -2147.00736564
  atomic energy  EATOM  =     41659.78587232
  Solvation  Ediel_sol  =         0.00000000
  ---------------------------------------------------
  free energy    TOTEN  =      -188.24443926 eV

  energy without entropy =     -187.98600344  energy(sigma->0) =     -188.11522135


--------------------------------------------------------------------------------------------------------




----------------------------------------- Iteration    1(  16)  ---------------------------------------


    POTLOK:  cpu time    0.0413: real time    0.0414
    SETDIJ:  cpu time    0.0054: real time    0.0055
    EDDIAG:  cpu time    1.2278: real time    1.2308
  RMM-DIIS:  cpu time    3.4347: real time    3.4432
    ORTHCH:  cpu time    0.2907: real time    0.2915
       DOS:  cpu time    0.0016: real time    0.0016
    CHARGE:  cpu time    0.2335: real time    0.2340
    MIXING:  cpu time    0.0030: real time    0.0030
    --------------------------------------------
      LOOP:  cpu time    5.2387: real time    5.2548

 eigenvalue-minimisations  :  3678
 total energy-change (2. order) :-0.2903211E-01  (-0.1574345E-01)
 number of electron     503.9998360 magnetization 
 augmentation part      197.3970647 magnetization 

 DIPCOR: dipole corrections for dipol
 direction  3 min pos     1,
 dipolmoment           0.000000      0.000000     -0.005618 electrons x Angstroem
 Tr[quadrupol]    -10284.757844

 energy correction for charged system         0.000000 eV
 dipol+quadrupol energy correction           -0.000001 eV
 added-field ion interaction          0.000889 eV  (added to PSCEN)


 Broyden mixing:
  rms(total) = 0.44202E+00    rms(broyden)= 0.44199E+00
  rms(prec ) = 0.49590E+00
  weight for this iteration     100.00

 eigenvalues of (default mixing * dielectric matrix)
  average eigenvalue GAMMA=   0.6967
  2.1824  1.2910  1.2910  0.6021  0.5208  0.5208  0.2990  0.2990  0.2268  0.2268
  0.2039

 Free energy of the ion-electron system (eV)
  ---------------------------------------------------
  alpha Z        PSCENC =       805.87025232
  Ewald energy   TEWEN  =    200405.25784941
  -Hartree energ DENC   =   -242501.12626558
  -exchange      EXHF   =         0.00000000
  -V(xc)+E(xc)   XCENC  =      -343.95619669
  PAW double counting   =     49380.05777355   -47462.01603245
  entropy T*S    EENTRO =        -0.25426837
  eigenvalues    EBANDS =     -2131.89245587
  atomic energy  EATOM  =     41659.78587232
  Solvation  Ediel_sol  =         0.00000000
  ---------------------------------------------------
  free energy    TOTEN  =      -188.27347137 eV

  energy without entropy =     -188.01920300  energy(sigma->0) =     -188.14633719


--------------------------------------------------------------------------------------------------------




----------------------------------------- Iteration    1(  17)  ---------------------------------------


    POTLOK:  cpu time    0.0419: real time    0.0421
    SETDIJ:  cpu time    0.0055: real time    0.0063
    EDDIAG:  cpu time    1.2197: real time    1.2227
  RMM-DIIS:  cpu time    3.4024: real time    3.4523
    ORTHCH:  cpu time    0.2891: real time    0.2898
       DOS:  cpu time    0.0015: real time    0.0015
    CHARGE:  cpu time    0.2356: real time    0.2362
    MIXING:  cpu time    0.0033: real time    0.0033
    --------------------------------------------
      LOOP:  cpu time    5.1996: real time    5.2574

 eigenvalue-minimisations  :  3680
 total energy-change (2. order) : 0.8938270E-01  (-0.1402260E-01)
 number of electron     503.9998360 magnetization 
 augmentation part      197.2968143 magnetization 

 DIPCOR: dipole corrections for dipol
 direction  3 min pos     1,
 dipolmoment           0.000000      0.000000     -0.026199 electrons x Angstroem
 Tr[quadrupol]    -10285.064264

 energy correction for charged system         0.000000 eV
 dipol+quadrupol energy correction           -0.000024 eV
 added-field ion interaction          0.004147 eV  (added to PSCEN)


 Broyden mixing:
  rms(total) = 0.33875E+00    rms(broyden)= 0.33871E+00
  rms(prec ) = 0.39315E+00
  weight for this iteration     100.00

 eigenvalues of (default mixing * dielectric matrix)
  average eigenvalue GAMMA=   0.7409
  2.1042  1.6178  1.6178  0.7741  0.6011  0.6011  0.3308  0.3308  0.2617  0.2445
  0.2037  0.2037

 Free energy of the ion-electron system (eV)
  ---------------------------------------------------
  alpha Z        PSCENC =       805.87348682
  Ewald energy   TEWEN  =    200405.25784941
  -Hartree energ DENC   =   -242516.83568151
  -exchange      EXHF   =         0.00000000
  -V(xc)+E(xc)   XCENC  =      -343.78023062
  PAW double counting   =     49379.04490576   -47459.61927598
  entropy T*S    EENTRO =        -0.25845387
  eigenvalues    EBANDS =     -2117.65256099
  atomic energy  EATOM  =     41659.78587232
  Solvation  Ediel_sol  =         0.00000000
  ---------------------------------------------------
  free energy    TOTEN  =      -188.18408867 eV

  energy without entropy =     -187.92563479  energy(sigma->0) =     -188.05486173


--------------------------------------------------------------------------------------------------------




----------------------------------------- Iteration    1(  18)  ---------------------------------------


    POTLOK:  cpu time    0.0416: real time    0.0417
    SETDIJ:  cpu time    0.0055: real time    0.0055
    EDDIAG:  cpu time    1.2254: real time    1.2284
  RMM-DIIS:  cpu time    3.4214: real time    3.4297
    ORTHCH:  cpu time    0.2896: real time    0.2903
       DOS:  cpu time    0.0016: real time    0.0016
    CHARGE:  cpu time    0.2358: real time    0.2364
    MIXING:  cpu time    0.0034: real time    0.0035
    --------------------------------------------
      LOOP:  cpu time    5.2250: real time    5.2406

 eigenvalue-minimisations  :  3679
 total energy-change (2. order) : 0.7993106E-01  (-0.1408793E-01)
 number of electron     503.9998363 magnetization 
 augmentation part      197.1974463 magnetization 

 DIPCOR: dipole corrections for dipol
 direction  3 min pos     1,
 dipolmoment           0.000000      0.000000     -0.024167 electrons x Angstroem
 Tr[quadrupol]    -10285.438239

 energy correction for charged system         0.000000 eV
 dipol+quadrupol energy correction           -0.000021 eV
 added-field ion interaction          0.003825 eV  (added to PSCEN)


 Broyden mixing:
  rms(total) = 0.22069E+00    rms(broyden)= 0.22064E+00
  rms(prec ) = 0.25849E+00
  weight for this iteration     100.00

 eigenvalues of (default mixing * dielectric matrix)
  average eigenvalue GAMMA=   0.7174
  2.1266  1.6502  1.6502  0.7926  0.6222  0.6222  0.3390  0.3390  0.2822  0.2822
  0.2201  0.2001  0.2001

 Free energy of the ion-electron system (eV)
  ---------------------------------------------------
  alpha Z        PSCENC =       805.87316880
  Ewald energy   TEWEN  =    200405.25784941
  -Hartree energ DENC   =   -242536.55112841
  -exchange      EXHF   =         0.00000000
  -V(xc)+E(xc)   XCENC  =      -343.51078299
  PAW double counting   =     49399.64423997   -47478.56910898
  entropy T*S    EENTRO =        -0.25360877
  eigenvalues    EBANDS =     -2099.78065896
  atomic energy  EATOM  =     41659.78587232
  Solvation  Ediel_sol  =         0.00000000
  ---------------------------------------------------
  free energy    TOTEN  =      -188.10415760 eV

  energy without entropy =     -187.85054883  energy(sigma->0) =     -187.97735322


--------------------------------------------------------------------------------------------------------




----------------------------------------- Iteration    1(  19)  ---------------------------------------


    POTLOK:  cpu time    0.0415: real time    0.0416
    SETDIJ:  cpu time    0.0060: real time    0.0063
    EDDIAG:  cpu time    1.2213: real time    1.2242
  RMM-DIIS:  cpu time    3.4460: real time    3.4545
    ORTHCH:  cpu time    0.2907: real time    0.2914
       DOS:  cpu time    0.0015: real time    0.0015
    CHARGE:  cpu time    0.2298: real time    0.2318
    MIXING:  cpu time    0.0035: real time    0.0035
    --------------------------------------------
      LOOP:  cpu time    5.2409: real time    5.2582

 eigenvalue-minimisations  :  3678
 total energy-change (2. order) : 0.5588659E-01  (-0.4470068E-02)
 number of electron     503.9998363 magnetization 
 augmentation part      197.1660202 magnetization 

 DIPCOR: dipole corrections for dipol
 direction  3 min pos     1,
 dipolmoment           0.000000      0.000000     -0.017450 electrons x Angstroem
 Tr[quadrupol]    -10285.554510

 energy correction for charged system         0.000000 eV
 dipol+quadrupol energy correction           -0.000011 eV
 added-field ion interaction          0.002762 eV  (added to PSCEN)


 Broyden mixing:
  rms(total) = 0.89932E-01    rms(broyden)= 0.89894E-01
  rms(prec ) = 0.10303E+00
  weight for this iteration     100.00

 eigenvalues of (default mixing * dielectric matrix)
  average eigenvalue GAMMA=   0.7088
  2.2216  1.6589  1.6589  0.6657  0.6657  0.5952  0.5952  0.3220  0.3220  0.3224
  0.2576  0.2354  0.2012  0.2012

 Free energy of the ion-electron system (eV)
  ---------------------------------------------------
  alpha Z        PSCENC =       805.87211558
  Ewald energy   TEWEN  =    200405.25784941
  -Hartree energ DENC   =   -242542.12258417
  -exchange      EXHF   =         0.00000000
  -V(xc)+E(xc)   XCENC  =      -343.44293000
  PAW double counting   =     49409.57028833   -47488.15617161
  entropy T*S    EENTRO =        -0.25576464
  eigenvalues    EBANDS =     -2094.55694624
  atomic energy  EATOM  =     41659.78587232
  Solvation  Ediel_sol  =         0.00000000
  ---------------------------------------------------
  free energy    TOTEN  =      -188.04827102 eV

  energy without entropy =     -187.79250637  energy(sigma->0) =     -187.92038869


--------------------------------------------------------------------------------------------------------




----------------------------------------- Iteration    1(  20)  ---------------------------------------


    POTLOK:  cpu time    0.0413: real time    0.0414
    SETDIJ:  cpu time    0.0055: real time    0.0055
    EDDIAG:  cpu time    1.2211: real time    1.2480
  RMM-DIIS:  cpu time    3.3300: real time    3.3945
    ORTHCH:  cpu time    0.2899: real time    0.2908
       DOS:  cpu time    0.0015: real time    0.0015
    CHARGE:  cpu time    0.2342: real time    0.2347
    MIXING:  cpu time    0.0038: real time    0.0038
    --------------------------------------------
      LOOP:  cpu time    5.1280: real time    5.2226

 eigenvalue-minimisations  :  3682
 total energy-change (2. order) : 0.3886578E-02  (-0.9113156E-03)
 number of electron     503.9998363 magnetization 
 augmentation part      197.1458897 magnetization 

 DIPCOR: dipole corrections for dipol
 direction  3 min pos     1,
 dipolmoment           0.000000      0.000000     -0.007261 electrons x Angstroem
 Tr[quadrupol]    -10285.661249

 energy correction for charged system         0.000000 eV
 dipol+quadrupol energy correction           -0.000002 eV
 added-field ion interaction          0.001149 eV  (added to PSCEN)


 Broyden mixing:
  rms(total) = 0.76699E-01    rms(broyden)= 0.76691E-01
  rms(prec ) = 0.88818E-01
  weight for this iteration     100.00

 eigenvalues of (default mixing * dielectric matrix)
  average eigenvalue GAMMA=   0.7001
  2.2217  1.6708  1.6708  0.7503  0.7503  0.6013  0.6013  0.4526  0.3198  0.3198
  0.2687  0.2476  0.2250  0.2008  0.2008

 Free energy of the ion-electron system (eV)
  ---------------------------------------------------
  alpha Z        PSCENC =       805.87051171
  Ewald energy   TEWEN  =    200405.25784941
  -Hartree energ DENC   =   -242546.30668946
  -exchange      EXHF   =         0.00000000
  -V(xc)+E(xc)   XCENC  =      -343.42140613
  PAW double counting   =     49416.89601325   -47495.37523040
  entropy T*S    EENTRO =        -0.25732871
  eigenvalues    EBANDS =     -2090.49397643
  atomic energy  EATOM  =     41659.78587232
  Solvation  Ediel_sol  =         0.00000000
  ---------------------------------------------------
  free energy    TOTEN  =      -188.04438444 eV

  energy without entropy =     -187.78705573  energy(sigma->0) =     -187.91572008


--------------------------------------------------------------------------------------------------------




----------------------------------------- Iteration    1(  21)  ---------------------------------------


    POTLOK:  cpu time    0.0419: real time    0.0420
    SETDIJ:  cpu time    0.0054: real time    0.0054
    EDDIAG:  cpu time    1.2141: real time    1.2171
  RMM-DIIS:  cpu time    3.4188: real time    3.4272
    ORTHCH:  cpu time    0.2897: real time    0.2904
       DOS:  cpu time    0.0015: real time    0.0015
    CHARGE:  cpu time    0.2358: real time    0.2364
    MIXING:  cpu time    0.0038: real time    0.0038
    --------------------------------------------
      LOOP:  cpu time    5.2118: real time    5.2278

 eigenvalue-minimisations  :  3680
 total energy-change (2. order) : 0.4650705E-02  (-0.3236058E-03)
 number of electron     503.9998363 magnetization 
 augmentation part      197.1256660 magnetization 

 DIPCOR: dipole corrections for dipol
 direction  3 min pos     1,
 dipolmoment           0.000000      0.000000     -0.003614 electrons x Angstroem
 Tr[quadrupol]    -10285.738943

 energy correction for charged system         0.000000 eV
 dipol+quadrupol energy correction           -0.000000 eV
 added-field ion interaction          0.000572 eV  (added to PSCEN)


 Broyden mixing:
  rms(total) = 0.52870E-01    rms(broyden)= 0.52866E-01
  rms(prec ) = 0.59943E-01
  weight for this iteration     100.00

 eigenvalues of (default mixing * dielectric matrix)
  average eigenvalue GAMMA=   0.7339
  2.3106  1.6982  1.6982  0.9709  0.9709  0.7800  0.6030  0.6030  0.3318  0.3318
  0.2869  0.2869  0.2425  0.2262  0.2009  0.2009

 Free energy of the ion-electron system (eV)
  ---------------------------------------------------
  alpha Z        PSCENC =       805.86993586
  Ewald energy   TEWEN  =    200405.25784941
  -Hartree energ DENC   =   -242549.64557196
  -exchange      EXHF   =         0.00000000
  -V(xc)+E(xc)   XCENC  =      -343.39896180
  PAW double counting   =     49419.98769407   -47498.35419354
  entropy T*S    EENTRO =        -0.25742536
  eigenvalues    EBANDS =     -2087.28493274
  atomic energy  EATOM  =     41659.78587232
  Solvation  Ediel_sol  =         0.00000000
  ---------------------------------------------------
  free energy    TOTEN  =      -188.03973373 eV

  energy without entropy =     -187.78230837  energy(sigma->0) =     -187.91102105


--------------------------------------------------------------------------------------------------------




----------------------------------------- Iteration    1(  22)  ---------------------------------------


    POTLOK:  cpu time    0.0414: real time    0.0415
    SETDIJ:  cpu time    0.0054: real time    0.0054
    EDDIAG:  cpu time    1.2187: real time    1.2216
  RMM-DIIS:  cpu time    3.3630: real time    3.3719
    ORTHCH:  cpu time    0.2881: real time    0.2887
       DOS:  cpu time    0.0015: real time    0.0015
    CHARGE:  cpu time    0.2351: real time    0.2361
    MIXING:  cpu time    0.0042: real time    0.0042
    --------------------------------------------
      LOOP:  cpu time    5.1580: real time    5.1739

 eigenvalue-minimisations  :  3680
 total energy-change (2. order) : 0.2292215E-02  (-0.2466702E-03)
 number of electron     503.9998364 magnetization 
 augmentation part      197.1148749 magnetization 

 DIPCOR: dipole corrections for dipol
 direction  3 min pos     1,
 dipolmoment           0.000000      0.000000     -0.004321 electrons x Angstroem
 Tr[quadrupol]    -10285.873163

 energy correction for charged system         0.000000 eV
 dipol+quadrupol energy correction           -0.000001 eV
 added-field ion interaction          0.000684 eV  (added to PSCEN)


 Broyden mixing:
  rms(total) = 0.39704E-01    rms(broyden)= 0.39699E-01
  rms(prec ) = 0.45664E-01
  weight for this iteration     100.00

 eigenvalues of (default mixing * dielectric matrix)
  average eigenvalue GAMMA=   0.7493
  2.3261  1.8360  1.8360  1.0173  1.0173  0.9768  0.6145  0.6145  0.3658  0.3658
  0.3228  0.3228  0.2492  0.2492  0.2012  0.2012  0.2211

 Free energy of the ion-electron system (eV)
  ---------------------------------------------------
  alpha Z        PSCENC =       805.87004755
  Ewald energy   TEWEN  =    200405.25784941
  -Hartree energ DENC   =   -242554.77847333
  -exchange      EXHF   =         0.00000000
  -V(xc)+E(xc)   XCENC  =      -343.37702260
  PAW double counting   =     49426.68994983   -47505.04374426
  entropy T*S    EENTRO =        -0.25761182
  eigenvalues    EBANDS =     -2082.18430862
  atomic energy  EATOM  =     41659.78587232
  Solvation  Ediel_sol  =         0.00000000
  ---------------------------------------------------
  free energy    TOTEN  =      -188.03744152 eV

  energy without entropy =     -187.77982970  energy(sigma->0) =     -187.90863561


--------------------------------------------------------------------------------------------------------




----------------------------------------- Iteration    1(  23)  ---------------------------------------


    POTLOK:  cpu time    0.0418: real time    0.0419
    SETDIJ:  cpu time    0.0054: real time    0.0055
    EDDIAG:  cpu time    1.2183: real time    1.2223
  RMM-DIIS:  cpu time    3.4356: real time    3.4464
    ORTHCH:  cpu time    0.2889: real time    0.2896
       DOS:  cpu time    0.0015: real time    0.0015
    CHARGE:  cpu time    0.2311: real time    0.2317
    MIXING:  cpu time    0.0042: real time    0.0042
    --------------------------------------------
      LOOP:  cpu time    5.2276: real time    5.2470

 eigenvalue-minimisations  :  3678
 total energy-change (2. order) : 0.1438551E-02  (-0.1676687E-03)
 number of electron     503.9998364 magnetization 
 augmentation part      197.1030521 magnetization 

 DIPCOR: dipole corrections for dipol
 direction  3 min pos     1,
 dipolmoment           0.000000      0.000000     -0.007087 electrons x Angstroem
 Tr[quadrupol]    -10286.006997

 energy correction for charged system         0.000000 eV
 dipol+quadrupol energy correction           -0.000002 eV
[...]
    275       1.7396      0.00000
    276       1.8077      0.00000
    277       2.1132      0.00000
    278       2.1698      0.00000
    279       2.2811      0.00000
    280       2.3672      0.00000
    281       2.4144      0.00000
    282       2.5645      0.00000
    283       2.6932      0.00000
    284       2.9381      0.00000
    285       3.1071      0.00000
    286       3.2908      0.00000
    287       3.4811      0.00000
    288       3.6006      0.00000
    289       3.7043      0.00000
    290       3.9147      0.00000
    291       4.0979      0.00000
    292       4.1454      0.00000
    293       4.4170      0.00000
    294       4.5425      0.00000
    295       4.5836      0.00000
    296       4.6282      0.00000
    297       4.7553      0.00000
    298       4.8040      0.00000
    299       4.8503      0.00000
    300       4.9185      0.00000
    301       4.9887      0.00000
    302       5.0119      0.00000
    303       5.0735      0.00000
    304       5.1011      0.00000
    305       5.1763      0.00000
    306       5.2222      0.00000


--------------------------------------------------------------------------------------------------------


 soft charge-density along one line, spin component           1
         0         1         2         3         4         5         6         7         8         9
 total charge-density along one line
 
 pseudopotential strength for first ion, spin component:           1
 -8.035  -0.004   0.000   0.002   0.000  -8.182  -0.004   0.000
 -0.004  -7.958  -0.001   0.000  -0.005  -0.004  -8.107  -0.001
  0.000  -0.001  -7.952  -0.001  -0.000   0.000  -0.001  -8.101
  0.002   0.000  -0.001  -7.957  -0.006   0.002   0.000  -0.001
  0.000  -0.005  -0.000  -0.006  -8.034   0.000  -0.005  -0.000
 -8.182  -0.004   0.000   0.002   0.000  -8.313  -0.004   0.000
 -0.004  -8.107  -0.001   0.000  -0.005  -0.004  -8.239  -0.001
  0.000  -0.001  -8.101  -0.001  -0.000   0.000  -0.001  -8.233
  0.002   0.000  -0.001  -8.105  -0.006   0.002   0.000  -0.001
  0.000  -0.005  -0.000  -0.006  -8.181   0.000  -0.005  -0.000
  0.001  -0.002  -0.025   0.003  -0.000   0.001  -0.002  -0.025
  0.001  -0.003  -0.036   0.004  -0.000   0.001  -0.003  -0.036
 -0.004  -0.006  -0.003  -0.000  -0.006  -0.004  -0.005  -0.003
 -0.000   0.006  -0.008  -0.004   0.000  -0.000   0.006  -0.008
  0.006  -0.000   0.002  -0.006  -0.004   0.006  -0.000   0.002
 -0.004  -0.006  -0.004  -0.000  -0.007  -0.004  -0.006  -0.004
 -0.000   0.007  -0.009  -0.005   0.000  -0.000   0.007  -0.008
  0.007  -0.000   0.003  -0.006  -0.005   0.007  -0.000   0.003
 total augmentation occupancy for first ion, spin component:           1
  4.256   0.000  -0.056   0.072  -0.015  -2.441  -0.011   0.057  -0.070   0.017  -0.033  -0.011  -0.021   0.009  -0.043  -0.003
  0.000   4.061  -0.027  -0.033   0.015  -0.011  -1.802   0.001   0.029  -0.064   0.061   0.005  -0.152   0.007   0.003   0.001
 -0.056  -0.027   4.397  -0.071   0.005   0.057   0.001  -2.281   0.083  -0.002   0.973  -0.132   0.026  -0.219  -0.008  -0.005
  0.072  -0.033  -0.071   4.123  -0.051  -0.070   0.029   0.083  -1.851   0.005  -0.074  -0.008   0.004   0.017  -0.137  -0.000
 -0.015   0.015   0.005  -0.051   4.281   0.017  -0.065  -0.002   0.005  -2.461  -0.003   0.004   0.014   0.003   0.048  -0.007
 -2.441  -0.011   0.057  -0.070   0.017   2.505   0.019  -0.058   0.069  -0.020   0.032   0.006   0.022  -0.006   0.031   0.000
 -0.011  -1.802   0.001   0.029  -0.065   0.019   1.514   0.018  -0.026   0.102  -0.056  -0.002   0.145  -0.009  -0.002  -0.005
  0.057   0.001  -2.281   0.083  -0.002  -0.058   0.018   2.109  -0.090  -0.001  -0.907   0.147  -0.018   0.228   0.005   0.001
 -0.070   0.029   0.083  -1.851   0.005   0.069  -0.026  -0.090   1.552   0.030   0.064   0.007  -0.003  -0.011   0.130   0.000
  0.017  -0.064  -0.002   0.005  -2.461  -0.020   0.102  -0.001   0.030   2.522   0.005  -0.005  -0.003  -0.004  -0.037   0.002
 -0.033   0.061   0.973  -0.074  -0.003   0.032  -0.056  -0.907   0.064   0.005   2.389  -0.493   0.004   0.118  -0.003  -0.000
 -0.011   0.005  -0.132  -0.008   0.004   0.006  -0.002   0.147   0.007  -0.005  -0.493   0.142  -0.022  -0.050   0.014   0.001
 -0.021  -0.152   0.026   0.004   0.014   0.022   0.145  -0.018  -0.003  -0.003   0.004  -0.022   0.189  -0.004   0.003  -0.006
  0.009   0.007  -0.219   0.017   0.003  -0.006  -0.009   0.228  -0.011  -0.004   0.118  -0.050  -0.004   0.090   0.005   0.000
 -0.043   0.003  -0.008  -0.137   0.048   0.031  -0.002   0.005   0.130  -0.037  -0.003   0.014   0.003   0.005   0.191  -0.000
 -0.003   0.001  -0.005  -0.000  -0.007   0.000  -0.005   0.001   0.000   0.002  -0.000   0.001  -0.006   0.000  -0.000   0.000
 -0.000   0.007  -0.003  -0.006   0.000   0.000  -0.001  -0.005   0.002   0.000  -0.008   0.002   0.000  -0.003  -0.000  -0.000
  0.008  -0.000   0.002   0.002  -0.006  -0.003   0.000  -0.000  -0.005   0.003   0.000  -0.001  -0.000  -0.000  -0.006  -0.000


------------------------ aborting loop because EDIFF is reached ----------------------------------------


    CHARGE:  cpu time    0.2313: real time    0.2318
    FORLOC:  cpu time    0.0165: real time    0.0165
    FORNL :  cpu time    1.3066: real time    1.3099
    FORCOR:  cpu time    0.0593: real time    0.0606
    FORHAR:  cpu time    0.0251: real time    0.0252
    MIXING:  cpu time    0.0031: real time    0.0031
    OFIELD:  cpu time    0.0000: real time    0.0000

 VOLUME and BASIS-vectors are now :
 -----------------------------------------------------------------------------
  energy-cutoff  :      400.00
  volume of cell :     2567.68
      direct lattice vectors                 reciprocal lattice vectors
    11.002581515  0.000000000  0.000000000     0.090887761 -0.052474073  0.000000000
     5.501290758  9.528515099  0.000000000     0.000000000  0.104948147  0.000000000
     0.000000000  0.000000000 24.491785094     0.000000000  0.000000000  0.040830017

  length of vectors
    11.002581515 11.002581515 24.491785094     0.104948147  0.104948147  0.040830017


 FORCES acting on ions
    electron-ion (+dipol)            ewald-force                    non-local-force                 convergence-correction
 -----------------------------------------------------------------------------------------------
   -.158E+02 0.140E+02 0.225E+04   0.166E+02 -.151E+02 -.225E+04   -.774E+00 0.118E+01 -.407E+00   -.610E-03 0.499E-02 -.275E-02
   -.712E+01 0.882E+00 -.153E+02   0.697E+01 -.953E-02 0.148E+02   0.165E+00 -.862E+00 0.461E+00   0.442E-02 -.423E-02 -.300E-02
   0.603E+01 0.391E+00 -.229E+04   -.625E+01 -.796E+00 0.229E+04   0.220E+00 0.404E+00 0.851E-01   0.540E-02 -.128E-02 -.252E-02
   -.135E+01 -.518E+01 0.228E+04   0.139E+01 0.558E+01 -.228E+04   -.298E-01 -.401E+00 -.501E+00   -.464E-02 -.702E-03 0.128E-02
   -.128E+02 0.515E+00 -.222E+04   0.138E+02 -.253E+00 0.222E+04   -.919E+00 -.264E+00 0.343E+00   0.104E-02 0.517E-02 -.336E-03
   0.196E+02 0.131E+02 0.231E+04   -.203E+02 -.136E+02 -.231E+04   0.749E+00 0.470E+00 0.163E+00   0.545E-03 -.500E-03 -.127E-02
   -.583E+01 0.107E+01 0.224E+04   0.640E+01 -.107E+01 -.224E+04   -.564E+00 -.143E-03 -.545E+00   -.179E-02 0.377E-02 0.134E-02
   -.176E+02 0.611E+01 0.334E+01   0.161E+02 -.582E+01 -.393E+01   0.143E+01 -.295E+00 0.595E+00   0.755E-03 0.283E-03 -.952E-03
   0.953E+01 -.126E+02 0.221E+02   -.905E+01 0.119E+02 -.215E+02   -.475E+00 0.692E+00 -.580E+00   -.453E-03 0.622E-02 -.123E-02
   0.109E+02 -.805E+01 -.223E+04   -.115E+02 0.799E+01 0.223E+04   0.602E+00 0.708E-01 0.606E+00   0.382E-02 0.200E-02 0.567E-03
   -.202E+01 0.394E+01 -.225E+04   0.176E+01 -.388E+01 0.225E+04   0.275E+00 -.605E-01 0.334E+00   -.705E-02 -.428E-02 0.106E-02
   -.468E+01 -.501E+01 -.227E+04   0.508E+01 0.496E+01 0.227E+04   -.404E+00 0.548E-01 0.582E-01   0.256E-02 -.206E-02 -.109E-02
   0.437E+01 -.177E+02 0.231E+04   -.498E+01 0.185E+02 -.231E+04   0.610E+00 -.835E+00 0.315E+00   0.125E-02 0.275E-03 -.555E-03
   -.153E+02 0.178E+00 -.229E+04   0.156E+02 0.318E+00 0.229E+04   -.348E+00 -.487E+00 -.100E+00   0.371E-02 0.140E-02 -.330E-02
   0.555E+01 0.605E+01 -.304E+02   -.476E+01 -.596E+01 0.293E+02   -.801E+00 -.881E-01 0.113E+01   0.498E-02 -.192E-02 -.324E-02
   -.122E+02 0.174E+02 0.120E+02   0.116E+02 -.173E+02 -.120E+02   0.611E+00 -.110E+00 -.309E-01   -.266E-03 -.116E-02 -.147E-02
   -.281E+01 0.125E+02 -.232E+04   0.236E+01 -.129E+02 0.232E+04   0.446E+00 0.393E+00 -.405E+00   -.397E-03 0.157E-02 0.113E-02
   -.293E+01 0.211E+02 -.173E+02   0.324E+01 -.210E+02 0.173E+02   -.306E+00 -.117E+00 0.525E-01   0.288E-02 0.144E-02 -.353E-02
   -.501E+01 -.147E+02 0.225E+04   0.514E+01 0.158E+02 -.225E+04   -.137E+00 -.109E+01 -.447E-01   0.892E-03 0.379E-02 0.557E-03
   0.104E+02 -.736E+01 -.230E+04   -.107E+02 0.788E+01 0.230E+04   0.328E+00 -.506E+00 -.350E+00   0.258E-03 -.122E-02 0.121E-02
   -.261E+01 -.133E+02 0.237E+02   0.305E+01 0.126E+02 -.230E+02   -.438E+00 0.768E+00 -.638E+00   -.104E-02 0.722E-03 -.420E-03
   -.384E+01 0.116E+02 0.230E+04   0.376E+01 -.127E+02 -.230E+04   0.807E-01 0.109E+01 0.254E+00   -.197E-02 0.214E-02 -.612E-03
   0.225E+01 -.153E+02 0.113E+02   -.176E+01 0.146E+02 -.113E+02   -.495E+00 0.654E+00 -.343E-01   -.250E-03 -.423E-02 -.802E-03
   0.670E+01 -.271E+00 0.134E+02   -.708E+01 0.783E+00 -.135E+02   0.378E+00 -.501E+00 0.701E-01   -.565E-02 -.537E-02 -.961E-03
   -.455E+01 -.143E+02 0.201E+04   0.478E+01 0.144E+02 -.201E+04   -.238E+00 -.760E-01 -.113E+01   0.145E-03 -.320E-02 -.964E-03
   0.120E+02 -.456E+01 -.198E+04   -.121E+02 0.443E+01 0.198E+04   0.110E+00 0.147E+00 0.150E+01   -.313E-02 -.140E-02 -.333E-03
   0.897E+01 0.126E+02 0.199E+04   -.885E+01 -.129E+02 -.199E+04   -.127E+00 0.269E+00 -.164E+01   -.275E-02 -.296E-02 -.353E-04
   -.238E+01 -.105E+01 -.508E+02   0.186E+01 0.138E+01 0.496E+02   0.520E+00 -.333E+00 0.120E+01   0.532E-02 -.101E-02 -.314E-03
   -.125E+01 -.217E+02 0.199E+04   0.121E+01 0.222E+02 -.199E+04   0.342E-01 -.447E+00 -.134E+01   0.437E-02 -.199E-02 0.420E-04
   0.129E+02 0.814E+01 0.198E+04   -.131E+02 -.811E+01 -.198E+04   0.213E+00 -.254E-01 -.157E+01   0.360E-02 -.294E-02 0.130E-04
   0.569E+01 -.144E+02 -.195E+04   -.582E+01 0.150E+02 0.195E+04   0.134E+00 -.622E+00 0.159E+01   -.899E-03 0.212E-02 -.351E-03
   -.129E+02 -.294E+01 -.194E+04   0.131E+02 0.281E+01 0.194E+04   -.262E+00 0.131E+00 0.197E+01   -.239E-02 0.239E-02 -.236E-02
   0.665E+01 -.170E+01 0.199E+04   -.669E+01 0.181E+01 -.199E+04   0.322E-01 -.107E+00 -.147E+01   -.426E-03 -.253E-04 -.556E-03
   0.896E+01 -.965E+00 0.121E+02   -.854E+01 0.968E+00 -.120E+02   -.419E+00 -.165E-01 -.171E-01   0.356E-03 0.529E-02 -.101E-02
   0.162E+01 0.139E+02 0.196E+04   -.163E+01 -.142E+02 -.196E+04   0.852E-02 0.361E+00 -.162E+01   0.198E-02 0.171E-02 -.140E-02
   0.176E+02 0.112E+01 -.200E+04   -.176E+02 -.123E+01 0.199E+04   -.615E-01 0.119E+00 0.153E+01   0.926E-03 -.271E-02 0.135E-02
   0.558E+00 -.707E+01 0.521E+01   -.505E+00 0.715E+01 -.523E+01   -.493E-01 -.869E-01 0.220E-01   0.729E-03 0.116E-02 -.120E-02
   -.912E+01 0.453E+01 0.198E+04   0.921E+01 -.450E+01 -.198E+04   -.901E-01 -.365E-01 -.191E+01   0.316E-02 -.139E-02 -.246E-02
   -.329E+01 0.535E+00 0.155E+02   0.310E+01 -.846E+00 -.156E+02   0.199E+00 0.315E+00 0.295E-01   -.404E-02 -.321E-02 -.170E-03
   0.102E+02 0.958E+01 0.123E+02   -.948E+01 -.924E+01 -.123E+02   -.764E+00 -.351E+00 0.391E-02   0.850E-03 0.449E-02 -.108E-02
   0.393E+01 0.124E+02 -.195E+04   -.414E+01 -.128E+02 0.195E+04   0.209E+00 0.413E+00 0.166E+01   -.208E-02 0.247E-02 0.160E-02
   0.852E+00 -.799E+01 0.311E+02   -.709E+00 0.789E+01 -.311E+02   -.136E+00 0.104E+00 -.119E-01   -.592E-02 -.150E-02 -.104E-02
   -.127E+02 0.859E+01 0.199E+04   0.126E+02 -.857E+01 -.199E+04   0.688E-01 -.169E-01 -.172E+01   -.379E-02 -.129E-02 -.292E-02
   0.583E+01 -.142E+02 0.198E+04   -.599E+01 0.145E+02 -.198E+04   0.172E+00 -.263E+00 -.171E+01   -.671E-04 -.107E-03 0.235E-02
   -.942E+01 0.120E+02 -.196E+04   0.979E+01 -.123E+02 0.196E+04   -.369E+00 0.371E+00 0.138E+01   -.377E-02 -.167E-02 0.855E-04
   -.210E+02 0.181E+01 -.199E+04   0.212E+02 -.197E+01 0.198E+04   -.258E+00 0.164E+00 0.140E+01   0.131E-02 -.211E-02 -.212E-02
   0.150E+01 0.583E-01 0.447E+02   -.203E+01 -.262E+00 -.440E+02   0.544E+00 0.205E+00 -.758E+00   -.386E-02 0.268E-02 -.411E-03
   0.156E+02 -.395E+01 -.199E+04   -.160E+02 0.417E+01 0.198E+04   0.415E+00 -.208E+00 0.115E+01   0.171E-02 -.138E-02 -.381E-03
 -----------------------------------------------------------------------------------------------
   -.744E-01 -.135E+00 0.662E+00   -.249E-12 0.199E-12 -.250E-11   0.862E-01 0.162E+00 -.616E+00   -.259E-03 0.240E-03 -.346E-01
 
 
 POSITION                                       TOTAL-FORCE (eV/Angst)
 -----------------------------------------------------------------------------------
      5.52342      3.13198      9.72804         0.001852     -0.006832      0.000536
     12.37842      8.76835     12.26559         0.018163      0.005154      0.006301
      8.24059     -0.01066     14.83034         0.002646     -0.002943      0.007543
      8.25435      7.95238      9.72387        -0.000639      0.001365     -0.001775
      5.51761      4.77529     14.72424         0.007555      0.002793      0.001865
     10.97173      3.15066      9.62874         0.005896     -0.002173      0.003314
      6.89232      5.54761      9.75327         0.005932     -0.003006     -0.002433
      9.59698      3.97779     12.23937        -0.007273     -0.007535      0.002082
      4.14401      3.95584     12.23115        -0.001308      0.003380     -0.007244
      6.85647      2.38233     14.72795        -0.003399      0.005760      0.004418
      2.73977      0.00816     14.71236         0.001685      0.001616     -0.001607
      9.64143      2.38430     14.80690        -0.001898     -0.002272      0.000815
     12.35888      5.57906      9.61266         0.002616     -0.003372      0.006852
      4.14600      7.15480     14.84012         0.002700      0.010372      0.008648
     15.15143      8.73310     12.27291        -0.002895      0.003767      0.005086
     10.98181      6.35798     12.23690         0.000855     -0.010769      0.005187
      2.74185      4.75069     14.89712        -0.003499      0.001013     -0.014999
     13.77069      6.35217     12.26655         0.002870     -0.001567      0.001761
      4.12733      5.57737      9.70154        -0.005502     -0.000930     -0.000314
     10.99018      4.78580     14.84569         0.000913      0.005542     -0.011056
     12.38827      3.95843     12.23332         0.002971      0.001317     -0.007557
      2.74217      3.13713      9.62294        -0.002957     -0.011011      0.000181
     11.01381      1.57913     12.23859        -0.002948     -0.000806     -0.004540
      9.60658      8.75886     12.23134        -0.006854      0.005029     -0.000707
     11.01628      7.95113      9.83785        -0.005172      0.002542      0.005181
      9.61909      7.15085     14.61598        -0.006863      0.011600     -0.003140
      1.36758      0.77835      9.85330        -0.001550     -0.006446      0.007907
      8.24119      1.60657     12.30842         0.004853     -0.003299      0.004414
     13.75240      7.94995      9.86339        -0.003002      0.000713      0.012624
      9.61437      0.77924      9.89055        -0.000679     -0.002095     -0.002682
      8.25619      4.79512     14.59212        -0.001751      0.003453     -0.001429
      6.89539      7.14638     14.56807         0.001485     -0.001156      0.003752
      9.63319      5.55263      9.83478        -0.004860      0.004298      0.007968
      6.87223      3.97543     12.23530        -0.000803     -0.008248      0.003297
      8.25604      3.14119      9.89821         0.000233     -0.001819     -0.006579
      5.48877     -0.00985     14.64270        -0.011717      0.000013     -0.003040
      5.51674      1.61266     12.24627         0.004355      0.002446     -0.003766
      6.89357      0.77840      9.89812         0.002808     -0.010851     -0.001724
      6.89099      8.72830     12.22652         0.003790     -0.000364     -0.007605
      5.52665      6.35218     12.22954         0.002194     -0.004482      0.002750
      4.11430      2.37534     14.60083        -0.000283     -0.001487     -0.005712
      2.76112      1.58797     12.21233         0.000110      0.001416      0.008686
      4.13149      0.78349      9.85751        -0.000154      0.000174      0.003855
      5.48862      7.95134      9.88086         0.006655      0.005209     -0.000853
      1.38127      2.38444     14.62873        -0.001103      0.003137     -0.006929
      0.01326     -0.00315     14.64796        -0.003875      0.001473     -0.005942
      8.21514      6.36266     12.19402         0.004579      0.002636     -0.001797
     12.36323      7.14816     14.66802        -0.006731      0.007244     -0.011595
 -----------------------------------------------------------------------------------
    total drift:                                0.011564      0.027703      0.011542


--------------------------------------------------------------------------------------------------------



  FREE ENERGIE OF THE ION-ELECTRON SYSTEM (eV)
  ---------------------------------------------------
  free  energy   TOTEN  =      -191.90546482 eV

  energy  without entropy=     -191.66504840  energy(sigma->0) =     -191.78525661
 
 d Force = 0.6212688E-03[ 0.294E-03, 0.948E-03]  d Energy = 0.6409719E-03-0.197E-04
 d Force =-0.1434632E+02[-0.143E+02,-0.144E+02]  d Ewald  =-0.1434632E+02 0.142E-05


--------------------------------------------------------------------------------------------------------


    POTLOK:  cpu time    0.0494: real time    0.0495


--------------------------------------------------------------------------------------------------------


 stress matrix after NEB project (eV)
      0.00000      0.00000      0.00000
      0.00000      0.00000      0.00000
      0.00000      0.00000      0.00000
  FORCES: max atom, RMS     0.019903    0.009119
  FORCE total and by dimension    0.063181    0.018163
  Stress total and by dimension    0.000000    0.000000
 Conjugate gradient step on ions:
 trial-energy change:   -0.000641  1 .order   -0.000621   -0.000948   -0.000294
  (g-gl).g = 0.283E-03      g.g   = 0.349E-03  gl.gl    = 0.554E-03
 g(Force)  = 0.349E-03   g(Stress)= 0.000E+00 ortho     = 0.429E-04
 gamma     =   0.50971
 trial     =   2.55632
 opt step  =   3.47935  (harmonic =   3.70644) maximal distance =0.00624847
 next E    =  -191.905519   (d E  =  -0.00070)


--------------------------------------------------------------------------------------------------------


  
 reached required accuracy - stopping structural energy minimisation
     LOOP+:  cpu time   62.2172: real time   62.6364
    4ORBIT:  cpu time    0.0000: real time    0.0000

 total amount of memory used by VASP on root node    84353. kBytes
========================================================================

   base      :      30000. kBytes
   nonlr-proj:       4285. kBytes
   fftplans  :       4447. kBytes
   grid      :       6721. kBytes
   one-center:        124. kBytes
   wavefun   :      38776. kBytes
 
  
  
 General timing and accounting informations for this job:
 ========================================================
  
                  Total CPU time used (sec):     1840.341
                            User time (sec):     1751.868
                          System time (sec):       88.473
                         Elapsed time (sec):     1852.086
  
                   Maximum memory used (kb):      973052.
                   Average memory used (kb):           0.
  
                          Minor page faults:       947263
                          Major page faults:            0
                 Voluntary context switches:        10793
