unknown system                          
           1
    11.002582    0.000000    0.000000
     5.501291    9.528515    0.000000
     0.000000    0.000000   24.491785
   Au   Pd
  24  24
Direct configuration=     1
   0.33333333  0.33333333  0.40830017
   0.66666667  0.91666667  0.50000000
   0.75000000  0.00000000  0.59169983
   0.33333333  0.83333333  0.40830017
   0.25000000  0.50000000  0.59169983
   0.83333333  0.33333333  0.40830017
   0.33333333  0.58333333  0.40830017
   0.66666667  0.41666667  0.50000000
   0.16666667  0.41666667  0.50000000
   0.50000000  0.25000000  0.59169983
   0.25000000  0.00000000  0.59169983
   0.75000000  0.25000000  0.59169983
   0.83333333  0.58333333  0.40830017
   0.00000000  0.75000000  0.59169983
   0.91666667  0.91666667  0.50000000
   0.66666667  0.66666667  0.50000000
   0.00000000  0.50000000  0.59169983
   0.91666667  0.66666667  0.50000000
   0.08333333  0.58333333  0.40830017
   0.75000000  0.50000000  0.59169983
   0.91666667  0.41666667  0.50000000
   0.08333333  0.33333333  0.40830017
   0.91666667  0.16666667  0.50000000
   0.41666667  0.91666667  0.50000000
   0.58333333  0.83333333  0.40830017
   0.50000000  0.75000000  0.59169983
   0.08333333  0.08333333  0.40830017
   0.66666667  0.16666667  0.50000000
   0.83333333  0.83333333  0.40830017
   0.83333333  0.08333333  0.40830017
   0.50000000  0.50000000  0.59169983
   0.25000000  0.75000000  0.59169983
   0.58333333  0.58333333  0.40830017
   0.41666667  0.41666667  0.50000000
   0.58333333  0.33333333  0.40830017
   0.50000000  0.00000000  0.59169983
   0.41666667  0.16666667  0.50000000
   0.58333333  0.08333333  0.40830017
   0.16666667  0.91666667  0.50000000
   0.16666667  0.66666667  0.50000000
   0.25000000  0.25000000  0.59169983
   0.16666667  0.16666667  0.50000000
   0.33333333  0.08333333  0.40830017
   0.08333333  0.83333333  0.40830017
   0.00000000  0.25000000  0.59169983
   0.00000000  0.00000000  0.59169983
   0.41666667  0.66666667  0.50000000
   0.75000000  0.75000000  0.59169983
Direct configuration=     2
   0.33546604  0.33150888  0.40645833
   0.66524360  0.91823504  0.49959365
   0.74959625 -0.00016468  0.59390919
   0.33289421  0.83390860  0.40651721
   0.25111393  0.50024908  0.59353502
   0.83261535  0.33247056  0.40579590
   0.33390538  0.58350462  0.40674832
   0.66323732  0.41739725  0.49964167
   0.16900005  0.41470458  0.50040260
   0.49921364  0.24995622  0.59326036
   0.24955265  0.00020108  0.59340625
   0.75044835  0.24976671  0.59386875
   0.83175526  0.58491206  0.40566529
   0.00064085  0.75050005  0.59396277
   0.91792451  0.91711558  0.49920979
   0.66435402  0.66802975  0.50004543
   0.00002158  0.49918938  0.59424888
   0.91629078  0.66815258  0.49993106
   0.08290179  0.58523736  0.40605793
   0.74918483  0.50081815  0.59422204
   0.91808592  0.41474190  0.50041630
   0.08445864  0.33112880  0.40600775
   0.91863894  0.16444757  0.49991331
   0.41591566  0.91754670  0.49995860
   0.58343214  0.83379297  0.40694275
   0.49984318  0.74981628  0.59288387
   0.08374610  0.08272244  0.40734556
   0.66535834  0.16730452  0.49928639
   0.83299404  0.83417298  0.40691793
   0.83309269  0.08304027  0.40717464
   0.49910697  0.50128446  0.59268357
   0.25074209  0.74974201  0.59236515
   0.58302308  0.58345767  0.40710389
   0.41757895  0.41659165  0.50001063
   0.58364250  0.33255879  0.40739757
   0.49985221 -0.00015235  0.59286644
   0.41685516  0.16656221  0.49997767
   0.58356641  0.08336615  0.40743779
   0.16660238  0.91612450  0.49997933
   0.16790968  0.66766111  0.50000636
   0.25028687  0.24915528  0.59265840
   0.16739517  0.16587459  0.50001968
   0.33326799  0.08328105  0.40736020
   0.08270816  0.83404532  0.40736249
   0.00087284  0.24933808  0.59293662
   0.00090714 -0.00021051  0.59285719
   0.41572267  0.66649494  0.50043398
   0.74903370  0.75041777  0.59321554
Direct configuration=     3
   0.34179293  0.32609643  0.40099432
   0.66102192  0.92288780  0.49838816
   0.74839849 -0.00065320  0.60046347
   0.33159149  0.83561518  0.40122788
   0.25441850  0.50098799  0.59897929
   0.83048538  0.32991106  0.39836672
   0.33560241  0.58401274  0.40214460
   0.65306380  0.41956461  0.49857865
   0.17592229  0.40888383  0.50159694
   0.49688084  0.24982635  0.59788983
   0.24822555  0.00079762  0.59846852
   0.75177841  0.24907465  0.60030307
   0.82707376  0.58959552  0.39784864
   0.00254199  0.75198351  0.60067601
   0.92165604  0.91844733  0.49686555
   0.65749330  0.67207350  0.50018021
   0.00008560  0.49678460  0.60181092
   0.91517568  0.67256070  0.49972656
   0.08162159  0.59088587  0.39940609
   0.74676653  0.50324527  0.60170444
   0.92229628  0.40903187  0.50165129
   0.08779700  0.32458883  0.39920706
   0.92448991  0.15786440  0.49965612
   0.41368773  0.92015742  0.49983579
   0.58372526  0.83515651  0.40291581
   0.49937794  0.74927125  0.59639645
   0.08497061  0.08091015  0.40451362
   0.66147704  0.16919678  0.49716938
   0.83198749  0.83666388  0.40281739
   0.83237880  0.08217087  0.40383563
   0.49645769  0.50509496  0.59560192
   0.25294356  0.74897665  0.59433888
   0.58210266  0.58382654  0.40355499
   0.42028532  0.41636909  0.50004218
   0.58455968  0.33026102  0.40471992
   0.49941379 -0.00060430  0.59632730
   0.41741434  0.16625233  0.49991141
   0.58425786  0.08346349  0.40487945
   0.16641168  0.91451611  0.49991800
   0.17159722  0.67061124  0.50002522
   0.25113790  0.24664931  0.59550210
   0.16955634  0.16352480  0.50007806
   0.33307414  0.08312594  0.40457167
   0.08085351  0.83615750  0.40458075
   0.00346223  0.24737441  0.59660568
   0.00359825 -0.00083500  0.59629062
   0.41292222  0.66598548  0.50172141
   0.74616705  0.75165713  0.59771205
Direct configuration=     4
   0.33978248  0.32790668  0.39942168
   0.66338672  0.92207159  0.49893460
   0.74909301 -0.00089335  0.60178024
   0.33227118  0.83535421  0.39972793
   0.25274212  0.50131603  0.60052095
   0.83090208  0.33059250  0.39672756
   0.33554843  0.58352389  0.40072484
   0.65979480  0.41803671  0.49897236
   0.17386924  0.41237236  0.50113886
   0.49800794  0.24943412  0.59920829
   0.24933190 -0.00029071  0.60007578
   0.75160625  0.24943618  0.60155988
   0.82866840  0.58768133  0.39622381
   0.00202168  0.75175077  0.60228636
   0.91864407  0.91751197  0.49778178
   0.66070546  0.66904055  0.50016201
   0.00037265  0.49780905  0.60367403
   0.91633535  0.67018309  0.49994674
   0.08218171  0.58856910  0.39807604
   0.74690059  0.50241937  0.60335543
   0.91949081  0.41160742  0.50123828
   0.08612632  0.32739342  0.39750445
   0.92074591  0.16262448  0.49977657
   0.41170795  0.91998698  0.49988733
   0.58273472  0.83598435  0.40161965
   0.49861366  0.75048517  0.59762213
   0.08442803  0.08067194  0.40338401
   0.66326209  0.16830884  0.49816354
   0.83117952  0.83718925  0.40151725
   0.83222916  0.08253690  0.40231460
   0.49822748  0.50403109  0.59689195
   0.25271041  0.75000519  0.59557231
   0.58228289  0.58424776  0.40248956
   0.41578590  0.41648716  0.50006031
   0.58475299  0.33034137  0.40301485
   0.49932023 -0.00138438  0.59734996
   0.41730926  0.16711509  0.50004822
   0.58507931  0.08209644  0.40325199
   0.17027227  0.91353912  0.49993891
   0.17090088  0.66799312  0.49994928
   0.25107962  0.24678477  0.59670484
   0.17010548  0.16297649  0.50000265
   0.33432347  0.08185538  0.40352798
   0.08155525  0.83639855  0.40299982
   0.00243046  0.24773486  0.59783329
   0.00291662 -0.00104939  0.59738813
   0.41152267  0.66858503  0.50115605
   0.74674056  0.75162816  0.59849296
Direct configuration=     5
   0.33898228  0.32862720  0.39879573
   0.66432796  0.92174673  0.49915210
   0.74936944 -0.00098893  0.60230435
   0.33254172  0.83525033  0.39913092
   0.25207489  0.50144660  0.60113457
   0.83106794  0.33086373  0.39607513
   0.33552694  0.58332932  0.40015974
   0.66247389  0.41742857  0.49912907
   0.17305207  0.41376087  0.50095653
   0.49845655  0.24927801  0.59973307
   0.24977225 -0.00072389  0.60071550
   0.75153773  0.24958008  0.60206012
   0.82930311  0.58691943  0.39557709
   0.00181458  0.75165814  0.60292731
   0.91744524  0.91713968  0.49814645
   0.66198397  0.66783337  0.50015477
   0.00048691  0.49821680  0.60441558
   0.91679693  0.66923675  0.50003437
   0.08240466  0.58764697  0.39754665
   0.74695396  0.50209064  0.60401255
   0.91837417  0.41263255  0.50107390
   0.08546136  0.32850971  0.39682677
   0.91925572  0.16451910  0.49982451
   0.41091995  0.91991915  0.49990784
   0.58234047  0.83631384  0.40110374
   0.49830945  0.75096834  0.59810997
   0.08421207  0.08057712  0.40293440
   0.66397258  0.16795542  0.49855924
   0.83085793  0.83739835  0.40099976
   0.83216961  0.08268258  0.40170919
   0.49893190  0.50360764  0.59740541
   0.25261761  0.75041457  0.59606324
   0.58235462  0.58441541  0.40206549
   0.41399502  0.41653416  0.50006753
   0.58482993  0.33037335  0.40233620
   0.49928299 -0.00169487  0.59775700
   0.41726743  0.16745849  0.50010268
   0.58540627  0.08155233  0.40260422
   0.17180887  0.91315026  0.49994723
   0.17062372  0.66695105  0.49991905
   0.25105642  0.24683868  0.59718355
   0.17032404  0.16275825  0.49997264
   0.33482073  0.08134967  0.40311256
   0.08183456  0.83649450  0.40237057
   0.00201980  0.24787832  0.59832190
   0.00264531 -0.00113473  0.59782496
   0.41096562  0.66961971  0.50093102
   0.74696882  0.75161662  0.59880378
Direct configuration=     6
   0.33759972  0.32934612  0.39825429
   0.66419255  0.92024807  0.49950964
   0.74974204 -0.00097282  0.60270229
   0.33307505  0.83465064  0.39842738
   0.25157953  0.50134554  0.60168516
   0.83163502  0.33136527  0.39547947
   0.33535116  0.58311638  0.39974453
   0.66263430  0.41713402  0.49929432
   0.16932205  0.41513512  0.50064415
   0.49903965  0.24935732  0.60011269
   0.24957794 -0.00036261  0.60142116
   0.75133473  0.24955422  0.60242232
   0.83026494  0.58609732  0.39512643
   0.00144255  0.75138100  0.60344032
   0.91828928  0.91717641  0.49867911
   0.66337867  0.66765236  0.50011372
   0.00032780  0.49853418  0.60504685
   0.91762200  0.66682191  0.50008480
   0.08234699  0.58655377  0.39724093
   0.74767644  0.50186414  0.60458948
   0.91867942  0.41447723  0.50082828
   0.08468827  0.32983709  0.39636773
   0.91863073  0.16449244  0.49979256
   0.41389626  0.91861673  0.49994115
   0.58259323  0.83586872  0.40096416
   0.49883299  0.75095883  0.59837964
   0.08353355  0.08130666  0.40271604
   0.66436939  0.16882634  0.49923145
   0.83135796  0.83638702  0.40070188
   0.83250744  0.08279302  0.40137450
   0.49949138  0.50275585  0.59748584
   0.25210580  0.75027273  0.59658673
   0.58269228  0.58440999  0.40191052
   0.41558571  0.41666369  0.50004000
   0.58478799  0.33073443  0.40206378
   0.49959829 -0.00191645  0.59791738
   0.41729324  0.16764233  0.50009131
   0.58520402  0.08156860  0.40205729
   0.16926142  0.91438944  0.49987707
   0.16903242  0.66685264  0.49982465
   0.25058936  0.24756482  0.59745223
   0.16861430  0.16503867  0.49991556
   0.33476609  0.08185963  0.40276906
   0.08183006  0.83609449  0.40210614
   0.00145697  0.24847843  0.59855377
   0.00191905 -0.00098614  0.59786998
   0.41254845  0.66796045  0.50040404
   0.74770152  0.75105396  0.59875826
Direct configuration=     7
   0.33746695  0.32941516  0.39820230
   0.66417954  0.92010416  0.49954397
   0.74977782 -0.00097127  0.60274050
   0.33312627  0.83459306  0.39835981
   0.25153196  0.50133583  0.60173804
   0.83168948  0.33141343  0.39542226
   0.33533428  0.58309593  0.39970465
   0.66264971  0.41710574  0.49931019
   0.16896385  0.41526709  0.50061415
   0.49909565  0.24936493  0.60014914
   0.24955928 -0.00032791  0.60148893
   0.75131524  0.24955173  0.60245710
   0.83035730  0.58601837  0.39508315
   0.00140682  0.75135439  0.60348958
   0.91837033  0.91717994  0.49873026
   0.66351260  0.66763498  0.50010978
   0.00031252  0.49856465  0.60510747
   0.91770123  0.66659000  0.50008964
   0.08234145  0.58644879  0.39721157
   0.74774582  0.50184239  0.60464489
   0.91870874  0.41465438  0.50080469
   0.08461403  0.32996456  0.39632365
   0.91857072  0.16448988  0.49978949
   0.41418208  0.91849166  0.49994435
   0.58261750  0.83582597  0.40095075
   0.49888327  0.75095792  0.59840554
   0.08346839  0.08137672  0.40269507
   0.66440750  0.16890998  0.49929600
   0.83140598  0.83628990  0.40067328
   0.83253988  0.08280362  0.40134235
   0.49954511  0.50267405  0.59749356
   0.25205665  0.75025910  0.59663701
   0.58272470  0.58440947  0.40189564
   0.41573846  0.41667613  0.50003736
   0.58478396  0.33076911  0.40203762
   0.49962857 -0.00193773  0.59793279
   0.41729571  0.16765999  0.50009022
   0.58518460  0.08157016  0.40200477
   0.16901678  0.91450844  0.49987033
   0.16887961  0.66684319  0.49981558
   0.25054451  0.24763456  0.59747803
   0.16845011  0.16525767  0.49991008
   0.33476084  0.08190861  0.40273607
   0.08182963  0.83605607  0.40208074
   0.00140292  0.24853606  0.59857603
   0.00184931 -0.00097187  0.59787431
   0.41270045  0.66780110  0.50035343
   0.74777188  0.75099993  0.59875389
Direct configuration=     8
   0.33735341  0.32936667  0.39809408
   0.66488300  0.91989526  0.49955586
   0.74981369 -0.00110609  0.60288478
   0.33299491  0.83469651  0.39817982
   0.25175026  0.50104485  0.60180700
   0.83175360  0.33157576  0.39516272
   0.33511661  0.58305752  0.39961220
   0.66248225  0.41732376  0.49932486
   0.16924886  0.41479370  0.50052168
   0.49890003  0.24948343  0.60024090
   0.24916997  0.00003780  0.60159908
   0.75141974  0.24958538  0.60265316
   0.83029778  0.58614455  0.39482526
   0.00125441  0.75121141  0.60371178
   0.91842776  0.91681507  0.49883311
   0.66391557  0.66725002  0.50009052
   0.00019835  0.49849779  0.60555177
   0.91742980  0.66713717  0.50005448
   0.08228568  0.58653029  0.39707708
   0.74808219  0.50183508  0.60488211
   0.91833406  0.41456705  0.50074032
   0.08464710  0.32980418  0.39606141
   0.91863287  0.16474935  0.49970524
   0.41408569  0.91845694  0.49993814
   0.58313613  0.83530149  0.40100434
   0.49925091  0.75056971  0.59834172
   0.08346970  0.08178691  0.40274138
   0.66431613  0.16872402  0.49952759
   0.83185526  0.83568754  0.40085449
   0.83260590  0.08274186  0.40145249
   0.49938563  0.50261577  0.59732647
   0.25201892  0.74989821  0.59662340
   0.58312828  0.58415734  0.40196034
   0.41612577  0.41676699  0.50000272
   0.58478793  0.33080379  0.40217342
   0.49978167 -0.00168627  0.59793671
   0.41690495  0.16838516  0.50002296
   0.58505515  0.08192111  0.40207287
   0.16848537  0.91500251  0.49981551
   0.16867942  0.66695031  0.49979487
   0.25037187  0.24808725  0.59738947
   0.16814232  0.16561245  0.49988395
   0.33425452  0.08241324  0.40275247
   0.08170747  0.83561047  0.40218182
   0.00117055  0.24885223  0.59847816
   0.00169249 -0.00082187  0.59779812
   0.41303328  0.66720385  0.50011371
   0.74816279  0.75066249  0.59864363
Direct configuration=     9
   0.33727501  0.32933318  0.39801936
   0.66536875  0.91975101  0.49956407
   0.74983846 -0.00119918  0.60298441
   0.33290421  0.83476795  0.39805553
   0.25190099  0.50084393  0.60185462
   0.83179787  0.33168785  0.39498351
   0.33496630  0.58303099  0.39954836
   0.66236662  0.41747431  0.49933499
   0.16944566  0.41446682  0.50045783
   0.49876496  0.24956526  0.60030425
   0.24890114  0.00029033  0.60167514
   0.75149189  0.24960861  0.60278854
   0.83025667  0.58623168  0.39464719
   0.00114917  0.75111267  0.60386522
   0.91846741  0.91656313  0.49890413
   0.66419383  0.66698420  0.50007722
   0.00011952  0.49845162  0.60585857
   0.91724237  0.66751499  0.50003020
   0.08224717  0.58658657  0.39698421
   0.74831446  0.50183003  0.60504591
   0.91807533  0.41450676  0.50069588
   0.08466993  0.32969343  0.39588034
   0.91867579  0.16492851  0.49964707
   0.41401912  0.91843297  0.49993386
   0.58349426  0.83493932  0.40104134
   0.49950477  0.75030164  0.59829765
   0.08347061  0.08207015  0.40277336
   0.66425303  0.16859561  0.49968751
   0.83216549  0.83527159  0.40097962
   0.83265149  0.08269921  0.40152854
   0.49927551  0.50257553  0.59721109
   0.25199286  0.74964901  0.59661401
   0.58340696  0.58398324  0.40200501
   0.41639321  0.41682973  0.49997880
   0.58479067  0.33082773  0.40226720
   0.49988739 -0.00151263  0.59793942
   0.41663512  0.16888591  0.49997653
   0.58496577  0.08216344  0.40211989
   0.16811841  0.91534368  0.49977765
   0.16854120  0.66702429  0.49978057
   0.25025266  0.24839985  0.59732831
   0.16792979  0.16585743  0.49986591
   0.33390490  0.08276169  0.40276379
   0.08162312  0.83530277  0.40225162
   0.00101010  0.24907056  0.59841057
   0.00158421 -0.00071829  0.59774552
   0.41326311  0.66679144  0.49994818
   0.74843272  0.75042949  0.59856750
Direct configuration=    10
   0.33726919  0.32938199  0.39788990
   0.66499543  0.92022588  0.49954510
   0.74978807 -0.00119796  0.60319348
   0.33274000  0.83494054  0.39792924
   0.25177654  0.50075322  0.60186126
   0.83174546  0.33171137  0.39463468
   0.33493219  0.58301178  0.39943085
   0.66258191  0.41722261  0.49937444
   0.16943741  0.41466925  0.50036221
   0.49878224  0.24952716  0.60041903
   0.24884636  0.00038335  0.60168456
   0.75146688  0.24971691  0.60302501
   0.83036947  0.58616111  0.39427980
   0.00126790  0.75082414  0.60415584
   0.91852862  0.91681521  0.49905223
   0.66417966  0.66698215  0.50008409
   0.00025916  0.49838877  0.60639607
   0.91757748  0.66718703  0.50002560
   0.08230130  0.58632587  0.39682029
   0.74832957  0.50179881  0.60534702
   0.91785288  0.41468028  0.50060330
   0.08450544  0.32983166  0.39551059
   0.91832626  0.16505344  0.49953870
   0.41374213  0.91857641  0.49992945
   0.58364203  0.83481017  0.40119930
   0.49953727  0.75014653  0.59811226
   0.08348355  0.08215602  0.40281658
   0.66437405  0.16836315  0.49997154
   0.83236287  0.83504670  0.40121019
   0.83270843  0.08259264  0.40178691
   0.49931996  0.50258408  0.59700500
   0.25202780  0.74952612  0.59641963
   0.58357439  0.58377830  0.40205319
   0.41630150  0.41695235  0.49990642
   0.58487687  0.33076762  0.40250203
   0.49987256 -0.00134067  0.59783074
   0.41673172  0.16893002  0.49989214
   0.58500947  0.08220968  0.40232628
   0.16826734  0.91540227  0.49972977
   0.16876163  0.66686631  0.49981166
   0.25004667  0.24870930  0.59718807
   0.16802323  0.16576573  0.49986612
   0.33382605  0.08276243  0.40286340
   0.08158257  0.83514597  0.40241743
   0.00089463  0.24931486  0.59827137
   0.00152149 -0.00070253  0.59762670
   0.41298298  0.66701889  0.49966058
   0.74866938  0.75022306  0.59843995
Direct configuration=    11
   0.33726024  0.32945705  0.39769082
   0.66442132  0.92095617  0.49951592
   0.74971057 -0.00119608  0.60351500
   0.33248748  0.83520595  0.39773502
   0.25158515  0.50061372  0.60187148
   0.83166486  0.33174753  0.39409824
   0.33487973  0.58298225  0.39925012
   0.66291299  0.41683554  0.49943510
   0.16942473  0.41498056  0.50021515
   0.49880881  0.24946857  0.60059553
   0.24876212  0.00052642  0.60169906
   0.75142841  0.24988345  0.60338868
   0.83054294  0.58605259  0.39371482
   0.00145050  0.75038040  0.60460277
   0.91862276  0.91720289  0.49927998
   0.66415787  0.66697899  0.50009465
   0.00047390  0.49829210  0.60722265
   0.91809283  0.66668268  0.50001851
   0.08238453  0.58592497  0.39656821
   0.74835280  0.50175079  0.60581007
   0.91751078  0.41494714  0.50046093
   0.08425249  0.33004424  0.39494199
   0.91778874  0.16524556  0.49937206
   0.41331614  0.91879700  0.49992266
   0.58386928  0.83461156  0.40144222
   0.49958725  0.74990799  0.59782715
   0.08350346  0.08228808  0.40288303
   0.66456016  0.16800565  0.50040835
   0.83266641  0.83470086  0.40156476
   0.83279600  0.08242876  0.40218425
   0.49938832  0.50259723  0.59668807
   0.25208154  0.74933713  0.59612071
   0.58383186  0.58346315  0.40212728
   0.41616045  0.41714093  0.49979511
   0.58500944  0.33067518  0.40286317
   0.49984976 -0.00107620  0.59766361
   0.41688027  0.16899787  0.49976237
   0.58507667  0.08228079  0.40264368
   0.16849638  0.91549238  0.49965613
   0.16910061  0.66662337  0.49985948
   0.24972988  0.24918519  0.59697239
   0.16816693  0.16562470  0.49986643
   0.33370479  0.08276355  0.40301660
   0.08152021  0.83490483  0.40267242
   0.00071707  0.24969056  0.59805730
   0.00142504 -0.00067830  0.59744397
   0.41255218  0.66736866  0.49921829
   0.74903333  0.74990559  0.59824379
Direct configuration=    12
   0.33725786  0.32947702  0.39763787
   0.66426862  0.92115040  0.49950816
   0.74968996 -0.00119558  0.60360052
   0.33242031  0.83527654  0.39768337
   0.25153425  0.50057662  0.60187420
   0.83164342  0.33175715  0.39395557
   0.33486578  0.58297439  0.39920205
   0.66300105  0.41673259  0.49945124
   0.16942135  0.41506336  0.50017604
   0.49881588  0.24945299  0.60064248
   0.24873972  0.00056447  0.60170292
   0.75141818  0.24992775  0.60348540
   0.83058907  0.58602373  0.39356456
   0.00149906  0.75026239  0.60472164
   0.91864780  0.91730599  0.49934056
   0.66415207  0.66697816  0.50009746
   0.00053102  0.49826639  0.60744250
   0.91822989  0.66654853  0.50001663
   0.08240667  0.58581834  0.39650117
   0.74835898  0.50173802  0.60593323
   0.91741979  0.41501811  0.50042307
   0.08418522  0.33010078  0.39479076
   0.91764577  0.16529666  0.49932774
   0.41320285  0.91885567  0.49992085
   0.58392973  0.83455874  0.40150683
   0.49960054  0.74984455  0.59775132
   0.08350875  0.08232321  0.40290071
   0.66460966  0.16791057  0.50052452
   0.83274714  0.83460888  0.40165907
   0.83281929  0.08238517  0.40228993
   0.49940651  0.50260073  0.59660377
   0.25209583  0.74928687  0.59604121
   0.58390034  0.58337933  0.40214698
   0.41612294  0.41719108  0.49976550
   0.58504470  0.33065060  0.40295922
   0.49984369 -0.00100586  0.59761916
   0.41691977  0.16901592  0.49972785
   0.58509454  0.08229970  0.40272810
   0.16855729  0.91551634  0.49963654
   0.16919077  0.66655875  0.49987219
   0.24964563  0.24931176  0.59691502
   0.16820515  0.16558719  0.49986651
   0.33367254  0.08276385  0.40305734
   0.08150362  0.83484070  0.40274024
   0.00066985  0.24979048  0.59800036
   0.00139939 -0.00067186  0.59739537
   0.41243760  0.66746169  0.49910066
   0.74913012  0.74982116  0.59819162
Direct configuration=    13
   0.33735561  0.32935720  0.39750367
   0.66435204  0.92068706  0.49962102
   0.74989506 -0.00139007  0.60388011
   0.33251711  0.83516008  0.39754200
   0.25160279  0.50056549  0.60185994
   0.83166725  0.33156128  0.39352231
   0.33496257  0.58298619  0.39901244
   0.66303746  0.41672138  0.49955353
   0.16913108  0.41510117  0.50003213
   0.49878789  0.24958510  0.60075696
   0.24887996  0.00048695  0.60165344
   0.75137629  0.24992689  0.60376245
   0.83054734  0.58592321  0.39313618
   0.00151076  0.75039716  0.60501133
   0.91882234  0.91678998  0.49966378
   0.66397703  0.66727511  0.50009186
   0.00043958  0.49826695  0.60800345
   0.91825870  0.66662192  0.50008636
   0.08254813  0.58554489  0.39630603
   0.74827038  0.50184348  0.60625137
   0.91780931  0.41504227  0.50030327
   0.08417941  0.33002905  0.39435568
   0.91765740  0.16562689  0.49928403
   0.41338158  0.91877693  0.49992996
   0.58374652  0.83463252  0.40169237
   0.49938414  0.75003275  0.59749827
   0.08337297  0.08228986  0.40290525
   0.66449594  0.16823214  0.50095636
   0.83269885  0.83465925  0.40189452
   0.83281895  0.08233813  0.40252690
   0.49940700  0.50265664  0.59635431
   0.25210495  0.74940813  0.59577281
   0.58381606  0.58341781  0.40216186
   0.41603834  0.41711840  0.49970354
   0.58516143  0.33048495  0.40324144
   0.49967156 -0.00111556  0.59748010
   0.41674441  0.16919512  0.49970058
   0.58524845  0.08218278  0.40291728
   0.16863456  0.91552256  0.49959673
   0.16910034  0.66666329  0.49989386
   0.24961450  0.24917933  0.59672781
   0.16782859  0.16606666  0.49983204
   0.33382707  0.08270682  0.40313027
   0.08161665  0.83481482  0.40294436
   0.00064977  0.24985672  0.59779877
   0.00145130 -0.00078501  0.59730642
   0.41248651  0.66770789  0.49878850
   0.74911409  0.74984745  0.59805234
Direct configuration=    14
   0.33741514  0.32928423  0.39742196
   0.66440284  0.92040490  0.49968974
   0.75001996 -0.00150851  0.60405037
   0.33257605  0.83508916  0.39745590
   0.25164452  0.50055871  0.60185126
   0.83168176  0.33144200  0.39325848
   0.33502151  0.58299338  0.39889697
   0.66305963  0.41671455  0.49961582
   0.16895432  0.41512419  0.49994449
   0.49877084  0.24966554  0.60082667
   0.24896536  0.00043975  0.60162331
   0.75135078  0.24992636  0.60393117
   0.83052193  0.58586200  0.39287532
   0.00151788  0.75047923  0.60518774
   0.91892864  0.91647575  0.49986061
   0.66387043  0.66745594  0.50008845
   0.00038389  0.49826729  0.60834505
   0.91827623  0.66666661  0.50012882
   0.08263427  0.58537836  0.39618720
   0.74821642  0.50190770  0.60644510
   0.91804651  0.41505699  0.50023032
   0.08417588  0.32998537  0.39409073
   0.91766448  0.16582799  0.49925742
   0.41349043  0.91872897  0.49993550
   0.58363495  0.83467745  0.40180536
   0.49925236  0.75014735  0.59734418
   0.08329028  0.08226956  0.40290802
   0.66442668  0.16842796  0.50121934
   0.83266943  0.83468993  0.40203790
   0.83281875  0.08230949  0.40267121
   0.49940731  0.50269069  0.59620240
   0.25211050  0.74948197  0.59560936
   0.58376473  0.58344125  0.40217092
   0.41598681  0.41707414  0.49966581
   0.58523251  0.33038408  0.40341329
   0.49956675 -0.00118235  0.59739542
   0.41663763  0.16930425  0.49968397
   0.58534218  0.08211158  0.40303248
   0.16868162  0.91552634  0.49957249
   0.16904528  0.66672695  0.49990706
   0.24959555  0.24909869  0.59661381
   0.16759928  0.16635864  0.49981105
   0.33392117  0.08267209  0.40317468
   0.08168549  0.83479907  0.40306866
   0.00063755  0.24989705  0.59767601
   0.00148291 -0.00085392  0.59725225
   0.41251628  0.66785781  0.49859841
   0.74910433  0.74986346  0.59796752
Direct configuration=    15
   0.33754384  0.32911814  0.39734922
   0.66483041  0.92020714  0.49986630
   0.74996675 -0.00151142  0.60421566
   0.33267897  0.83505567  0.39737094
   0.25159561  0.50070301  0.60178925
   0.83164793  0.33135452  0.39309688
   0.33507077  0.58288131  0.39877598
   0.66311887  0.41723305  0.49969215
   0.16883543  0.41525510  0.49986429
   0.49870645  0.24963557  0.60088831
   0.24888370  0.00042319  0.60153805
   0.75145257  0.24982101  0.60406224
   0.83030928  0.58590376  0.39272128
   0.00161737  0.75055702  0.60532561
   0.91871753  0.91643648  0.50010472
   0.66432841  0.66687076  0.50003137
   0.00025117  0.49832635  0.60852762
   0.91811087  0.66664491  0.50020757
   0.08260800  0.58550167  0.39611343
   0.74808310  0.50205665  0.60652774
   0.91794664  0.41546815  0.50012821
   0.08437288  0.32962724  0.39386128
   0.91786784  0.16571813  0.49930704
   0.41326527  0.91909802  0.49988084
   0.58352495  0.83474311  0.40180456
   0.49912985  0.75027605  0.59725715
   0.08327861  0.08213354  0.40286011
   0.66454600  0.16834924  0.50148359
   0.83260227  0.83471909  0.40210370
   0.83275493  0.08228248  0.40281465
   0.49931346  0.50286242  0.59607682
   0.25208744  0.74958833  0.59547358
   0.58382127  0.58345462  0.40211964
   0.41574871  0.41711412  0.49965072
   0.58524816  0.33028149  0.40353269
   0.49957405 -0.00128148  0.59737564
   0.41652325  0.16932144  0.49974038
   0.58549464  0.08196739  0.40315293
   0.16847570  0.91577212  0.49953281
   0.16900806  0.66665299  0.49986260
   0.24973249  0.24890408  0.59654139
   0.16761456  0.16641604  0.49967244
   0.33397495  0.08267141  0.40316284
   0.08175238  0.83480759  0.40317353
   0.00063862  0.24976424  0.59760931
   0.00161854 -0.00080652  0.59728701
   0.41278751  0.66766398  0.49846135
   0.74893993  0.74995682  0.59800459
Direct configuration=    16
   0.33757432  0.32907880  0.39733199
   0.66493168  0.92016029  0.49990813
   0.74995415 -0.00151211  0.60425481
   0.33270335  0.83504773  0.39735082
   0.25158402  0.50073719  0.60177456
   0.83163992  0.33133379  0.39305860
   0.33508244  0.58285477  0.39874732
   0.66313290  0.41735586  0.49971023
   0.16880727  0.41528610  0.49984529
   0.49869120  0.24962847  0.60090291
   0.24886436  0.00041927  0.60151786
   0.75147668  0.24979605  0.60409328
   0.83025891  0.58591365  0.39268480
   0.00164094  0.75057545  0.60535827
   0.91866752  0.91642718  0.50016254
   0.66443689  0.66673215  0.50001785
   0.00021973  0.49834034  0.60857086
   0.91807170  0.66663977  0.50022623
   0.08260177  0.58553088  0.39609596
   0.74805152  0.50209193  0.60654732
   0.91792299  0.41556554  0.50010402
   0.08441955  0.32954241  0.39380693
   0.91791601  0.16569210  0.49931879
   0.41321194  0.91918543  0.49986789
   0.58349890  0.83475866  0.40180437
   0.49910084  0.75030653  0.59723653
   0.08327584  0.08210132  0.40284876
   0.66457427  0.16833060  0.50154619
   0.83258636  0.83472599  0.40211928
   0.83273981  0.08227608  0.40284862
   0.49929123  0.50290310  0.59604707
   0.25208198  0.74961353  0.59544141
   0.58383466  0.58345779  0.40210749
   0.41569231  0.41712358  0.49964714
   0.58525187  0.33025719  0.40356098
   0.49957577 -0.00130496  0.59737095
   0.41649615  0.16932552  0.49975374
   0.58553076  0.08193324  0.40318147
   0.16842693  0.91583033  0.49952341
   0.16899925  0.66663547  0.49985207
   0.24976493  0.24885798  0.59652424
   0.16761818  0.16642964  0.49963960
   0.33398769  0.08267126  0.40316004
   0.08176822  0.83480961  0.40319837
   0.00063887  0.24973279  0.59759351
   0.00165067 -0.00079529  0.59729525
   0.41285176  0.66761807  0.49842888
   0.74890099  0.74997893  0.59801338
Direct configuration=    17
   0.33761063  0.32898956  0.39728845
   0.66491184  0.92016439  0.50005526
   0.74985761 -0.00145026  0.60440795
   0.33274977  0.83504087  0.39730035