  56  56   0   0
  0.4903395E+02  0.1100258E-08  0.1100258E-08  0.2619179E-08  0.3500000E-15
  1.000000000000000E-004
  CAR 
 unknown system                          
      6.47629046    -21.94233514  301     -1.33565480      1.00000000
    -21.942  0.0000E+00  0.0000E+00
    -21.848  0.0000E+00  0.0000E+00
    -21.753  0.0000E+00  0.0000E+00
    -21.658  0.0000E+00  0.0000E+00
    -21.563  0.0000E+00  0.0000E+00
    -21.469  0.0000E+00  0.0000E+00
    -21.374  0.0000E+00  0.0000E+00
    -21.279  0.0000E+00  0.0000E+00
    -21.185  0.7595E-15  0.7194E-16
    -21.090  0.9523E-11  0.9022E-12
    -20.995  0.2067E-07  0.1959E-08
    -20.900  0.7924E-05  0.7526E-06
    -20.806  0.5546E-03  0.5329E-04
    -20.711  0.7469E-02  0.7608E-03
    -20.616  0.2061E-01  0.2713E-02
    -20.521  0.1243E-01  0.3891E-02
    -20.427  0.7410E-02  0.4593E-02
    -20.332  0.2247E-01  0.6721E-02
    -20.237  0.3033E-01  0.9594E-02
    -20.142  0.3056E-01  0.1249E-01
    -20.048  0.4037E-01  0.1631E-01
    -19.953  0.4577E-01  0.2065E-01
    -19.858  0.3742E-01  0.2419E-01
    -19.764  0.2906E-01  0.2695E-01
    -19.669  0.1924E-01  0.2877E-01
    -19.574  0.2193E-01  0.3085E-01
    -19.479  0.1095E-01  0.3189E-01
    -19.385  0.1187E-02  0.3200E-01
    -19.290  0.2516E-04  0.3200E-01
    -19.195  0.9838E-07  0.3200E-01
    -19.100  0.6835E-10  0.3200E-01
    -19.006  0.8250E-14  0.3200E-01
    -18.911  0.0000E+00  0.3200E-01
    -18.816  0.0000E+00  0.3200E-01
    -18.722  0.0000E+00  0.3200E-01
    -18.627  0.0000E+00  0.3200E-01
    -18.532  0.0000E+00  0.3200E-01
    -18.437  0.0000E+00  0.3200E-01
    -18.343  0.0000E+00  0.3200E-01
    -18.248  0.0000E+00  0.3200E-01
    -18.153  0.0000E+00  0.3200E-01
    -18.058  0.0000E+00  0.3200E-01
    -17.964  0.0000E+00  0.3200E-01
    -17.869  0.0000E+00  0.3200E-01
    -17.774  0.0000E+00  0.3200E-01
    -17.680  0.0000E+00  0.3200E-01
    -17.585  0.0000E+00  0.3200E-01
    -17.490  0.0000E+00  0.3200E-01
    -17.395  0.0000E+00  0.3200E-01
    -17.301  0.0000E+00  0.3200E-01
    -17.206  0.0000E+00  0.3200E-01
    -17.111  0.0000E+00  0.3200E-01
    -17.016  0.0000E+00  0.3200E-01
    -16.922  0.0000E+00  0.3200E-01
    -16.827  0.0000E+00  0.3200E-01
    -16.732  0.0000E+00  0.3200E-01
    -16.638  0.0000E+00  0.3200E-01
    -16.543  0.0000E+00  0.3200E-01
    -16.448  0.0000E+00  0.3200E-01
    -16.353  0.0000E+00  0.3200E-01
    -16.259  0.0000E+00  0.3200E-01
    -16.164  0.0000E+00  0.3200E-01
    -16.069  0.0000E+00  0.3200E-01
    -15.974  0.0000E+00  0.3200E-01
    -15.880  0.0000E+00  0.3200E-01
    -15.785  0.0000E+00  0.3200E-01
    -15.690  0.0000E+00  0.3200E-01
    -15.596  0.0000E+00  0.3200E-01
    -15.501  0.0000E+00  0.3200E-01
    -15.406  0.0000E+00  0.3200E-01
    -15.311  0.0000E+00  0.3200E-01
    -15.217  0.0000E+00  0.3200E-01
    -15.122  0.0000E+00  0.3200E-01
    -15.027  0.0000E+00  0.3200E-01
    -14.932  0.0000E+00  0.3200E-01
    -14.838  0.0000E+00  0.3200E-01
    -14.743  0.0000E+00  0.3200E-01
    -14.648  0.0000E+00  0.3200E-01
    -14.553  0.0000E+00  0.3200E-01
    -14.459  0.0000E+00  0.3200E-01
    -14.364  0.0000E+00  0.3200E-01
    -14.269  0.0000E+00  0.3200E-01
    -14.175  0.0000E+00  0.3200E-01
    -14.080  0.0000E+00  0.3200E-01
    -13.985  0.0000E+00  0.3200E-01
    -13.890  0.0000E+00  0.3200E-01
    -13.796  0.0000E+00  0.3200E-01
    -13.701  0.0000E+00  0.3200E-01
    -13.606  0.0000E+00  0.3200E-01
    -13.511  0.0000E+00  0.3200E-01
    -13.417  0.0000E+00  0.3200E-01
    -13.322  0.0000E+00  0.3200E-01
    -13.227  0.0000E+00  0.3200E-01
    -13.133  0.0000E+00  0.3200E-01
    -13.038  0.0000E+00  0.3200E-01
    -12.943  0.0000E+00  0.3200E-01
    -12.848  0.0000E+00  0.3200E-01
    -12.754  0.0000E+00  0.3200E-01
    -12.659  0.0000E+00  0.3200E-01
    -12.564  0.0000E+00  0.3200E-01
    -12.469  0.0000E+00  0.3200E-01
    -12.375  0.0000E+00  0.3200E-01
    -12.280  0.0000E+00  0.3200E-01
    -12.185  0.0000E+00  0.3200E-01
    -12.091  0.0000E+00  0.3200E-01
    -11.996  0.0000E+00  0.3200E-01
    -11.901  0.0000E+00  0.3200E-01
    -11.806  0.0000E+00  0.3200E-01
    -11.712  0.0000E+00  0.3200E-01
    -11.617  0.0000E+00  0.3200E-01
    -11.522  0.0000E+00  0.3200E-01
    -11.427  0.0000E+00  0.3200E-01
    -11.333  0.0000E+00  0.3200E-01
    -11.238  0.0000E+00  0.3200E-01
    -11.143  0.0000E+00  0.3200E-01
    -11.049  0.0000E+00  0.3200E-01
    -10.954  0.0000E+00  0.3200E-01
    -10.859  0.0000E+00  0.3200E-01
    -10.764  0.0000E+00  0.3200E-01
    -10.670  0.0000E+00  0.3200E-01
    -10.575  0.0000E+00  0.3200E-01
    -10.480  0.0000E+00  0.3200E-01
    -10.385  0.0000E+00  0.3200E-01
    -10.291  0.0000E+00  0.3200E-01
    -10.196  0.0000E+00  0.3200E-01
    -10.101  0.0000E+00  0.3200E-01
    -10.007  0.0000E+00  0.3200E-01
     -9.912  0.0000E+00  0.3200E-01
     -9.817  0.0000E+00  0.3200E-01
     -9.722  0.0000E+00  0.3200E-01
     -9.628  0.4364E-15  0.3200E-01
     -9.533  0.5189E-11  0.3200E-01
     -9.438  0.1080E-07  0.3200E-01
     -9.343  0.4022E-05  0.3200E-01
     -9.249  0.2768E-03  0.3203E-01
     -9.154  0.3711E-02  0.3238E-01
     -9.059  0.1062E-01  0.3338E-01
     -8.964  0.1017E-01  0.3435E-01
     -8.870  0.1099E-01  0.3539E-01
     -8.775  0.8260E-02  0.3617E-01
     -8.680  0.1275E-01  0.3738E-01
     -8.586  0.2093E-01  0.3936E-01
     -8.491  0.1826E-01  0.4109E-01
     -8.396  0.1925E-01  0.4292E-01
     -8.301  0.2907E-01  0.4567E-01
     -8.207  0.3603E-01  0.4908E-01
     -8.112  0.3340E-01  0.5225E-01
     -8.017  0.3564E-01  0.5562E-01
     -7.922  0.3916E-01  0.5933E-01
     -7.828  0.4154E-01  0.6327E-01
     -7.733  0.5002E-01  0.6801E-01
     -7.638  0.6961E-01  0.7460E-01
     -7.544  0.7905E-01  0.8209E-01
     -7.449  0.8048E-01  0.8971E-01
     -7.354  0.9467E-01  0.9868E-01
     -7.259  0.1136E+00  0.1094E+00
     -7.165  0.1277E+00  0.1215E+00
     -7.070  0.1361E+00  0.1344E+00
     -6.975  0.1412E+00  0.1478E+00
     -6.880  0.1472E+00  0.1618E+00
     -6.786  0.1514E+00  0.1761E+00
     -6.691  0.1505E+00  0.1904E+00
     -6.596  0.1592E+00  0.2054E+00
     -6.502  0.1615E+00  0.2207E+00
     -6.407  0.1552E+00  0.2354E+00
     -6.312  0.1521E+00  0.2498E+00
     -6.217  0.1452E+00  0.2636E+00
     -6.123  0.1382E+00  0.2767E+00
     -6.028  0.1418E+00  0.2901E+00
     -5.933  0.1444E+00  0.3038E+00
     -5.838  0.1502E+00  0.3180E+00
     -5.744  0.1579E+00  0.3330E+00
     -5.649  0.1636E+00  0.3485E+00
     -5.554  0.1648E+00  0.3641E+00
     -5.460  0.1666E+00  0.3799E+00
     -5.365  0.1675E+00  0.3957E+00
     -5.270  0.1710E+00  0.4119E+00
     -5.175  0.1772E+00  0.4287E+00
     -5.081  0.1860E+00  0.4463E+00
     -4.986  0.1907E+00  0.4644E+00
     -4.891  0.1826E+00  0.4817E+00
     -4.796  0.1834E+00  0.4991E+00
     -4.702  0.1857E+00  0.5167E+00
     -4.607  0.1842E+00  0.5341E+00
     -4.512  0.1890E+00  0.5520E+00
     -4.418  0.1862E+00  0.5697E+00
     -4.323  0.1827E+00  0.5870E+00
     -4.228  0.1858E+00  0.6046E+00
     -4.133  0.1914E+00  0.6227E+00
     -4.039  0.1948E+00  0.6412E+00
     -3.944  0.2022E+00  0.6603E+00
     -3.849  0.2095E+00  0.6802E+00
     -3.754  0.2079E+00  0.6999E+00
     -3.660  0.2069E+00  0.7195E+00
     -3.565  0.1965E+00  0.7381E+00
     -3.470  0.1846E+00  0.7556E+00
     -3.375  0.1808E+00  0.7727E+00
     -3.281  0.1765E+00  0.7894E+00
     -3.186  0.1813E+00  0.8066E+00
     -3.091  0.1814E+00  0.8238E+00
     -2.997  0.1715E+00  0.8400E+00
     -2.902  0.1779E+00  0.8569E+00
     -2.807  0.1885E+00  0.8747E+00
     -2.712  0.1936E+00  0.8931E+00
     -2.618  0.2007E+00  0.9121E+00
     -2.523  0.1979E+00  0.9308E+00
     -2.428  0.1856E+00  0.9484E+00
     -2.333  0.1837E+00  0.9658E+00
     -2.239  0.1865E+00  0.9835E+00
     -2.144  0.1790E+00  0.1000E+01
     -2.049  0.1715E+00  0.1017E+01
     -1.955  0.1700E+00  0.1033E+01
     -1.860  0.1647E+00  0.1048E+01
     -1.765  0.1547E+00  0.1063E+01
     -1.670  0.1349E+00  0.1076E+01
     -1.576  0.1102E+00  0.1086E+01
     -1.481  0.9406E-01  0.1095E+01
     -1.386  0.6482E-01  0.1101E+01
     -1.291  0.5324E-01  0.1106E+01
     -1.197  0.5700E-01  0.1112E+01
     -1.102  0.6175E-01  0.1118E+01
     -1.007  0.5608E-01  0.1123E+01
     -0.913  0.6043E-01  0.1129E+01
     -0.818  0.6172E-01  0.1134E+01
     -0.723  0.5976E-01  0.1140E+01
     -0.628  0.6368E-01  0.1146E+01
     -0.534  0.6724E-01  0.1153E+01
     -0.439  0.5885E-01  0.1158E+01
     -0.344  0.4733E-01  0.1163E+01
     -0.249  0.3487E-01  0.1166E+01
     -0.155  0.1926E-01  0.1168E+01
     -0.060  0.1360E-01  0.1169E+01
      0.035  0.1896E-01  0.1171E+01
      0.129  0.2912E-01  0.1174E+01
      0.224  0.2920E-01  0.1176E+01
      0.319  0.2818E-01  0.1179E+01
      0.414  0.2733E-01  0.1182E+01
      0.508  0.3698E-01  0.1185E+01
      0.603  0.4369E-01  0.1189E+01
      0.698  0.3325E-01  0.1192E+01
      0.793  0.3036E-01  0.1195E+01
      0.887  0.3190E-01  0.1198E+01
      0.982  0.2657E-01  0.1201E+01
      1.077  0.2537E-01  0.1203E+01
      1.171  0.1978E-01  0.1205E+01
      1.266  0.2029E-01  0.1207E+01
      1.361  0.2715E-01  0.1210E+01
      1.456  0.2583E-01  0.1212E+01
      1.550  0.2646E-01  0.1215E+01
      1.645  0.2923E-01  0.1217E+01
      1.740  0.2980E-01  0.1220E+01
      1.835  0.3261E-01  0.1223E+01
      1.929  0.3798E-01  0.1227E+01
      2.024  0.4113E-01  0.1231E+01
      2.119  0.3104E-01  0.1234E+01
      2.213  0.2408E-01  0.1236E+01
      2.308  0.2732E-01  0.1239E+01
      2.403  0.2762E-01  0.1241E+01
      2.498  0.2435E-01  0.1243E+01
      2.592  0.1788E-01  0.1245E+01
      2.687  0.1950E-01  0.1247E+01
      2.782  0.2015E-01  0.1249E+01
      2.877  0.1660E-01  0.1250E+01
      2.971  0.1833E-01  0.1252E+01
      3.066  0.2017E-01  0.1254E+01
      3.161  0.2880E-01  0.1257E+01
      3.256  0.3923E-01  0.1261E+01
      3.350  0.3514E-01  0.1264E+01
      3.445  0.2955E-01  0.1267E+01
      3.540  0.3741E-01  0.1270E+01
      3.634  0.3546E-01  0.1274E+01
      3.729  0.2866E-01  0.1276E+01
      3.824  0.2733E-01  0.1279E+01
      3.919  0.3479E-01  0.1282E+01
      4.013  0.4025E-01  0.1286E+01
      4.108  0.4027E-01  0.1290E+01
      4.203  0.4193E-01  0.1294E+01
      4.298  0.3764E-01  0.1297E+01
      4.392  0.4043E-01  0.1301E+01
      4.487  0.4537E-01  0.1305E+01
      4.582  0.4595E-01  0.1310E+01
      4.676  0.5273E-01  0.1315E+01
      4.771  0.5662E-01  0.1320E+01
      4.866  0.6123E-01  0.1326E+01
      4.961  0.5869E-01  0.1332E+01
      5.055  0.5879E-01  0.1337E+01
      5.150  0.4733E-01  0.1342E+01
      5.245  0.2099E-01  0.1344E+01
      5.340  0.4096E-02  0.1344E+01
      5.434  0.2325E-03  0.1344E+01
      5.529  0.2880E-05  0.1344E+01
      5.624  0.6852E-08  0.1344E+01
      5.718  0.2957E-11  0.1344E+01
      5.813  0.2235E-15  0.1344E+01
      5.908  0.0000E+00  0.1344E+01
      6.003  0.0000E+00  0.1344E+01
      6.097  0.0000E+00  0.1344E+01
      6.192  0.0000E+00  0.1344E+01
      6.287  0.0000E+00  0.1344E+01
      6.382  0.0000E+00  0.1344E+01
      6.476  0.0000E+00  0.1344E+01
