unknown system                          
           1
    11.002582    0.000000    0.000000
     5.501291    9.528515    0.000000
     0.000000    0.000000   26.191785
   Au   O    Pd
  24   8  24
Direct configuration=     1
   0.91666667  0.91666667  0.46754708
   0.41666667  0.91666667  0.46754708
   0.91666667  0.16666667  0.46754708
   0.83333333  0.83333333  0.38179910
   0.66666667  0.66666667  0.46754708
   0.08333333  0.33333333  0.38179910
   0.83333333  0.33333333  0.38179910
   0.83333333  0.08333333  0.38179910
   0.08333333  0.58333333  0.38179910
   0.91666667  0.66666667  0.46754708
   0.00000000  0.50000000  0.55329505
   0.33333333  0.83333333  0.38179910
   0.50000000  0.75000000  0.55329505
   0.58333333  0.83333333  0.38179910
   0.50000000  0.50000000  0.55329505
   0.33333333  0.08333333  0.38179910
   0.16666667  0.16666667  0.46754708
   0.41666667  0.66666667  0.46754708
   0.58333333  0.58333333  0.38179910
   0.16666667  0.41666667  0.46754708
   0.25000000  0.25000000  0.55329505
   0.33333333  0.58333333  0.38179910
   0.25000000  0.75000000  0.55329505
   0.16666667  0.91666667  0.46754708
   0.08333333  0.58333333  0.61820090
   0.33333333  0.58333333  0.61820090
   0.08333333  0.08333333  0.61820090
   0.83333333  0.83333333  0.61820090
   0.33333333  0.83333333  0.61820090
   0.58333333  0.08333333  0.61820090
   0.58333333  0.33333333  0.61820090
   0.58333333  0.83333333  0.61820090
   0.58333333  0.08333333  0.38179910
   0.58333333  0.33333333  0.38179910
   0.41666667  0.41666667  0.46754708
   0.50000000  0.25000000  0.55329505
   0.33333333  0.33333333  0.38179910
   0.75000000  0.75000000  0.55329505
   0.16666667  0.66666667  0.46754708
   0.25000000  0.00000000  0.55329505
   0.08333333  0.08333333  0.38179910
   0.25000000  0.50000000  0.55329505
   0.00000000  0.75000000  0.55329505
   0.08333333  0.83333333  0.38179910
   0.00000000  0.25000000  0.55329505
   0.66666667  0.16666667  0.46754708
   0.75000000  0.00000000  0.55329505
   0.91666667  0.41666667  0.46754708
   0.66666667  0.41666667  0.46754708
   0.75000000  0.25000000  0.55329505
   0.83333333  0.58333333  0.38179910
   0.75000000  0.50000000  0.55329505
   0.00000000  0.00000000  0.55329505
   0.66666667  0.91666667  0.46754708
   0.41666667  0.16666667  0.46754708
   0.50000000  0.00000000  0.55329505
Direct configuration=     2
   0.91637015  0.91642992  0.46885113
   0.41712589  0.91886961  0.46852152
   0.91497278  0.16826190  0.46840945
   0.83333333  0.83333333  0.38179910
   0.66883868  0.66531336  0.46834797
   0.08333333  0.33333333  0.38179910
   0.83333333  0.33333333  0.38179910
   0.83333333  0.08333333  0.38179910
   0.08333333  0.58333333  0.38179910
   0.91556721  0.66726274  0.46793949
  -0.00098780  0.49929352  0.55588226
   0.33333333  0.83333333  0.38179910
   0.50212354  0.74949421  0.55656106
   0.58333333  0.83333333  0.38179910
   0.50232441  0.49754893  0.55609181
   0.33333333  0.08333333  0.38179910
   0.16629256  0.16656797  0.46802779
   0.41713187  0.66433417  0.46800918
   0.58333333  0.58333333  0.38179910
   0.16899359  0.41678093  0.46770163
   0.25106096  0.24915610  0.55496852
   0.33333333  0.58333333  0.38179910
   0.24702462  0.75119728  0.55652739
   0.16567313  0.91643822  0.46766939
   0.08357481  0.58334732  0.61460917
   0.33290685  0.58233379  0.61543011
   0.08235029  0.08411937  0.61373850
   0.83383660  0.83340053  0.61395686
   0.33309707  0.83420459  0.61546054
   0.58297349  0.08410450  0.61401172
   0.58510103  0.33173040  0.61466972
   0.58351588  0.83355848  0.61483114
   0.58333333  0.08333333  0.38179910
   0.58333333  0.33333333  0.38179910
   0.41722856  0.41479379  0.46795436
   0.50128465  0.24903535  0.55623861
   0.33333333  0.33333333  0.38179910
   0.74950461  0.75152118  0.55713384
   0.16671305  0.66654002  0.46808014
   0.24824857  0.00133693  0.55726018
   0.08333333  0.08333333  0.38179910
   0.24992380  0.50028224  0.55663639
  -0.00083566  0.75031740  0.55681351
   0.08333333  0.83333333  0.38179910
  -0.00034813  0.24894470  0.55561661
   0.66512729  0.16724855  0.46787891
   0.74900136  0.00009225  0.55677292
   0.91592244  0.41680876  0.46845230
   0.66664454  0.41585460  0.46806412
   0.74861288  0.25052255  0.55545127
   0.83333333  0.58333333  0.38179910
   0.75112421  0.49857805  0.55401482
  -0.00025478  0.00166057  0.55589426
   0.66600926  0.91807813  0.46765459
   0.41901446  0.16669102  0.46811482
   0.50108980  0.00038059  0.55664866
Direct configuration=     3
   0.91585944  0.91602215  0.47109722
   0.41791684  0.92266392  0.47019990
   0.91205524  0.17100951  0.46989480
   0.83333333  0.83333333  0.38179910
   0.67257973  0.66298245  0.46972741
   0.08333333  0.33333333  0.38179910
   0.83333333  0.33333333  0.38179910
   0.83333333  0.08333333  0.38179910
   0.08333333  0.58333333  0.38179910
   0.91367353  0.66828940  0.46861537
  -0.00268918  0.49807669  0.56033843
   0.33333333  0.83333333  0.38179910
   0.50578110  0.74862305  0.56218638
   0.58333333  0.83333333  0.38179910
   0.50632796  0.49332723  0.56090891
   0.33333333  0.08333333  0.38179910
   0.16564820  0.16639799  0.46885577
   0.41793312  0.66031670  0.46880509
   0.58333333  0.58333333  0.38179910
   0.17300145  0.41697773  0.46796783
   0.25288833  0.24770258  0.55785088
   0.33333333  0.58333333  0.38179910
   0.24189987  0.75325946  0.56209472
   0.16396188  0.91604476  0.46788007
   0.08399073  0.58337140  0.60842280
   0.33217229  0.58061220  0.61065773
   0.08065711  0.08547323  0.60605251
   0.83470342  0.83351627  0.60664698
   0.33269014  0.83570524  0.61074057
   0.58235370  0.08543275  0.60679633
   0.58814569  0.32896952  0.60858766
   0.58383029  0.83394626  0.60902710
   0.58333333  0.08333333  0.38179910
   0.58333333  0.33333333  0.38179910
   0.41819636  0.41156797  0.46865586
   0.50349731  0.24737384  0.56130855
   0.33333333  0.33333333  0.38179910
   0.74865137  0.75414124  0.56374574
   0.16679293  0.66632190  0.46899829
   0.24523193  0.00363965  0.56408966
   0.08333333  0.08333333  0.38179910
   0.24979255  0.50076836  0.56239149
  -0.00227499  0.75086409  0.56287368
   0.08333333  0.83333333  0.38179910
  -0.00094773  0.24712706  0.55961524
   0.66247588  0.16825077  0.46845045
   0.74728130  0.00025113  0.56276315
   0.91464060  0.41705349  0.47001145
   0.66660644  0.41445590  0.46895467
   0.74622372  0.25142258  0.55916511
   0.83333333  0.58333333  0.38179910
   0.75306054  0.49612889  0.55525454
  -0.00069360  0.00452071  0.56037112
   0.66487694  0.92050923  0.46783977
   0.42305828  0.16673298  0.46909270
   0.50296687  0.00103610  0.56242487
Direct configuration=     4
   0.91596190  0.91610396  0.47064658
   0.41775815  0.92190265  0.46986316
   0.91264060  0.17045825  0.46959679
   0.83333333  0.83333333  0.38179910
   0.67182915  0.66345011  0.46945064
   0.08333333  0.33333333  0.38179910
   0.83333333  0.33333333  0.38179910
   0.83333333  0.08333333  0.38179910
   0.08333333  0.58333333  0.38179910
   0.91405346  0.66808342  0.46847976
  -0.00234783  0.49832083  0.55944437
   0.33333333  0.83333333  0.38179910
   0.50504727  0.74879784  0.56105775
   0.58333333  0.83333333  0.38179910
   0.50552471  0.49417424  0.55994244
   0.33333333  0.08333333  0.38179910
   0.16577748  0.16643209  0.46868965
   0.41777236  0.66112274  0.46864540
   0.58333333  0.58333333  0.38179910
   0.17219733  0.41693824  0.46791442
   0.25252170  0.24799421  0.55727258
   0.33333333  0.58333333  0.38179910
   0.24292807  0.75284572  0.56097772
   0.16430521  0.91612370  0.46783780
   0.08390729  0.58336657  0.60966400
   0.33231967  0.58095761  0.61161523
   0.08099682  0.08520160  0.60759458
   0.83452951  0.83349305  0.60811359
   0.33277178  0.83540416  0.61168755
   0.58247805  0.08516626  0.60824398
   0.58753483  0.32952344  0.60980793
   0.58376721  0.83386845  0.61019159
   0.58333333  0.08333333  0.38179910
   0.58333333  0.33333333  0.38179910
   0.41800219  0.41221518  0.46851511
   0.50305338  0.24770720  0.56029134
   0.33333333  0.33333333  0.38179910
   0.74882256  0.75361556  0.56241917
   0.16677691  0.66636566  0.46881407
   0.24583718  0.00317764  0.56271944
   0.08333333  0.08333333  0.38179910
   0.24981888  0.50067083  0.56123682
  -0.00198621  0.75075440  0.56165780
   0.08333333  0.83333333  0.38179910
  -0.00082743  0.24749174  0.55881298
   0.66300784  0.16804969  0.46833578
   0.74762640  0.00021925  0.56156131
   0.91489778  0.41700439  0.46969863
   0.66661408  0.41473653  0.46877600
   0.74670306  0.25124201  0.55841999
   0.83333333  0.58333333  0.38179910
   0.75267204  0.49662028  0.55500581
  -0.00060556  0.00394687  0.55947291
   0.66510412  0.92002147  0.46780262
   0.42224695  0.16672456  0.46889650
   0.50259026  0.00090458  0.56126597
Direct configuration=     5
   0.91593269  0.91608064  0.47077505
   0.41780339  0.92211968  0.46995916
   0.91247372  0.17061540  0.46968174
   0.83333333  0.83333333  0.38179910
   0.67204313  0.66331679  0.46952955
   0.08333333  0.33333333  0.38179910
   0.83333333  0.33333333  0.38179910
   0.83333333  0.08333333  0.38179910
   0.08333333  0.58333333  0.38179910
   0.91394515  0.66814214  0.46851842
  -0.00244514  0.49825123  0.55969926
   0.33333333  0.83333333  0.38179910
   0.50525648  0.74874801  0.56137951
   0.58333333  0.83333333  0.38179910
   0.50575371  0.49393277  0.56021797
   0.33333333  0.08333333  0.38179910
   0.16574063  0.16642237  0.46873701
   0.41781819  0.66089295  0.46869093
   0.58333333  0.58333333  0.38179910
   0.17242658  0.41694950  0.46792965
   0.25262622  0.24791107  0.55743745
   0.33333333  0.58333333  0.38179910
   0.24263494  0.75296367  0.56129617
   0.16420733  0.91610119  0.46784985
   0.08393108  0.58336794  0.60931015
   0.33227765  0.58085914  0.61134226
   0.08089997  0.08527904  0.60715496
   0.83457909  0.83349967  0.60769548
   0.33274851  0.83548999  0.61141758
   0.58244260  0.08524223  0.60783127
   0.58770898  0.32936553  0.60946005
   0.58378519  0.83389064  0.60985961
   0.58333333  0.08333333  0.38179910
   0.58333333  0.33333333  0.38179910
   0.41805755  0.41203067  0.46855524
   0.50317994  0.24761216  0.56058134
   0.33333333  0.33333333  0.38179910
   0.74877375  0.75376543  0.56279735
   0.16678147  0.66635318  0.46886659
   0.24566463  0.00330936  0.56311007
   0.08333333  0.08333333  0.38179910
   0.24981138  0.50069863  0.56156600
  -0.00206854  0.75078567  0.56200443
   0.08333333  0.83333333  0.38179910
  -0.00086173  0.24738778  0.55904170
   0.66285619  0.16810702  0.46836847
   0.74752802  0.00022834  0.56190394
   0.91482446  0.41701838  0.46978781
   0.66661190  0.41465653  0.46882694
   0.74656641  0.25129349  0.55863241
   0.83333333  0.58333333  0.38179910
   0.75278280  0.49648019  0.55507672
  -0.00063066  0.00411047  0.55972898
   0.66503936  0.92016052  0.46781321
   0.42247825  0.16672696  0.46895244
   0.50269763  0.00094208  0.56159636
Direct configuration=     6
   0.91494294  0.91670994  0.47308233
   0.41812371  0.92164994  0.47253941
   0.91129383  0.17049655  0.47134336
   0.83333333  0.83333333  0.38179910
   0.67024492  0.66488612  0.47122242
   0.08333333  0.33333333  0.38179910
   0.83333333  0.33333333  0.38179910
   0.83333333  0.08333333  0.38179910
   0.08333333  0.58333333  0.38179910
   0.91472671  0.66780565  0.47038403
  -0.00490711  0.49358350  0.56066240
   0.33333333  0.83333333  0.38179910
   0.50734681  0.74092891  0.56138235
   0.58333333  0.83333333  0.38179910
   0.50701121  0.49978487  0.56033958
   0.33333333  0.08333333  0.38179910
   0.16555476  0.16683803  0.47032677
   0.41848692  0.66074210  0.47141695
   0.58333333  0.58333333  0.38179910
   0.17264125  0.41689570  0.46967402
   0.25299053  0.24793619  0.55856049
   0.33333333  0.58333333  0.38179910
   0.23675008  0.75671985  0.56230824
   0.16485716  0.91559085  0.46949549
   0.08483096  0.58289335  0.60810858
   0.33188772  0.57856709  0.61039437
   0.07746091  0.08778481  0.60596060
   0.83544262  0.83429837  0.60613113
   0.33166358  0.83726820  0.61053808
   0.58139260  0.08706716  0.60633478
   0.59211132  0.32504920  0.60878103
   0.58536633  0.83488144  0.60952544
   0.58333333  0.08333333  0.38179910
   0.58333333  0.33333333  0.38179910
   0.41919371  0.41143214  0.47016994
   0.49879587  0.24862099  0.56152154
   0.33333333  0.33333333  0.38179910
   0.75093162  0.74834118  0.56468671
   0.16663377  0.66632472  0.47067962
   0.24938092  0.00462818  0.56459658
   0.08333333  0.08333333  0.38179910
   0.25149979  0.49662173  0.56320587
  -0.00037541  0.75344782  0.56310706
   0.08333333  0.83333333  0.38179910
  -0.00303433  0.25214197  0.56007214
   0.66317200  0.16785337  0.46943915
   0.75182786  0.00270292  0.56319667
   0.91692680  0.41634889  0.47122969
   0.66561073  0.41414658  0.46986737
   0.75125049  0.24831806  0.55965127
   0.83333333  0.58333333  0.38179910
   0.75395038  0.49512549  0.55599993
  -0.00503749  0.00295329  0.56078025
   0.66519380  0.92076917  0.46907974
   0.42287213  0.16686457  0.47034635
   0.49603547  0.00467601  0.56273025
Direct configuration=     7
   0.91439033  0.91706131  0.47437056
   0.41830256  0.92138767  0.47398005
   0.91063505  0.17043019  0.47227110
   0.83333333  0.83333333  0.38179910
   0.66924092  0.66576234  0.47216761
   0.08333333  0.33333333  0.38179910
   0.83333333  0.33333333  0.38179910
   0.83333333  0.08333333  0.38179910
   0.08333333  0.58333333  0.38179910
   0.91516308  0.66761778  0.47142567
  -0.00628171  0.49097735  0.56120015
   0.33333333  0.83333333  0.38179910
   0.50851391  0.73656324  0.56138393
   0.58333333  0.83333333  0.38179910
   0.50771332  0.50305230  0.56040749
   0.33333333  0.08333333  0.38179910
   0.16545098  0.16707011  0.47121439
   0.41886029  0.66065788  0.47293898
   0.58333333  0.58333333  0.38179910
   0.17276110  0.41686566  0.47064796
   0.25319394  0.24795022  0.55918753
   0.33333333  0.58333333  0.38179910
   0.23346436  0.75881705  0.56287332
   0.16521998  0.91530590  0.47041430
   0.08533339  0.58262837  0.60743770
   0.33167000  0.57728736  0.60986513
   0.07554077  0.08918387  0.60529376
   0.83592476  0.83474431  0.60525770
   0.33105783  0.83826103  0.61004703
   0.58080635  0.08808607  0.60549924
   0.59456929  0.32263925  0.60840191
   0.58624913  0.83543464  0.60933887
   0.58333333  0.08333333  0.38179910
   0.58333333  0.33333333  0.38179910
   0.41982807  0.41109797  0.47107148
   0.49634809  0.24918426  0.56204648
   0.33333333  0.33333333  0.38179910
   0.75213643  0.74531263  0.56574161
   0.16655130  0.66630883  0.47169190
   0.25145585  0.00536453  0.56542654
   0.08333333  0.08333333  0.38179910
   0.25244249  0.49434546  0.56412146
   0.00056992  0.75493419  0.56372269
   0.08333333  0.83333333  0.38179910
  -0.00424736  0.25479640  0.56064747
   0.66334832  0.16771175  0.47003695
   0.75422860  0.00408456  0.56391845
   0.91810061  0.41597510  0.47203474
   0.66505175  0.41386185  0.47044827
   0.75386578  0.24665678  0.56022014
   0.83333333  0.58333333  0.38179910
   0.75460229  0.49436912  0.55651539
  -0.00749797  0.00230720  0.56136721
   0.66528003  0.92110900  0.46978688
   0.42309205  0.16694140  0.47112463
   0.49231576  0.00676080  0.56336333
Direct configuration=     8
   0.91405002  0.91715428  0.47508392
   0.41780464  0.92117675  0.47559632
   0.91121877  0.16986348  0.47308517
   0.83333333  0.83333333  0.38179910
   0.66909116  0.66634324  0.47280803
   0.08333333  0.33333333  0.38179910
   0.83333333  0.33333333  0.38179910
   0.83333333  0.08333333  0.38179910
   0.08333333  0.58333333  0.38179910
   0.91570661  0.66727026  0.47293282
  -0.00568772  0.49064503  0.56240073
   0.33333333  0.83333333  0.38179910
   0.51002277  0.73698995  0.56244204
   0.58333333  0.83333333  0.38179910
   0.51019251  0.49972007  0.56117465
   0.33333333  0.08333333  0.38179910
   0.16569187  0.16660867  0.47226041
   0.41744865  0.66209071  0.47392396
   0.58333333  0.58333333  0.38179910
   0.17261665  0.41699833  0.47189447
   0.25055463  0.24979159  0.56025408
   0.33333333  0.58333333  0.38179910
   0.22981786  0.76142922  0.56348006
   0.16561653  0.91562756  0.47160163
   0.08359690  0.58215121  0.60804549
   0.33219747  0.57651879  0.61029990
   0.07244685  0.09068657  0.60574434
   0.83521619  0.83529052  0.60693462
   0.33120050  0.83837103  0.61051307
   0.58150632  0.08715224  0.60666609
   0.59717407  0.32055163  0.60813138
   0.58456518  0.83648370  0.60968993
   0.58333333  0.08333333  0.38179910
   0.58333333  0.33333333  0.38179910
   0.41999773  0.41147987  0.47247919
   0.49351518  0.25490427  0.56138496
   0.33333333  0.33333333  0.38179910
   0.75468320  0.74026764  0.56596233
   0.16689044  0.66600701  0.47296058
   0.25158799  0.00831883  0.56563032
   0.08333333  0.08333333  0.38179910
   0.25505723  0.48929306  0.56376736
   0.00374542  0.75341279  0.56306585
   0.08333333  0.83333333  0.38179910
  -0.00452774  0.25548923  0.56118578
   0.66370379  0.16750952  0.47091701
   0.75299582  0.00828097  0.56369432
   0.91873505  0.41581608  0.47221457
   0.66516514  0.41363742  0.47109268
   0.75606034  0.24589813  0.56096746
   0.83333333  0.58333333  0.38179910
   0.75476360  0.49256803  0.55737064
  -0.00768995  0.00273821  0.56215820
   0.66554229  0.92107268  0.47109624
   0.42221878  0.16685607  0.47181227
   0.49075242  0.00495537  0.56375349
Direct configuration=     9
   0.91403938  0.91715718  0.47510622
   0.41778907  0.92117016  0.47564685
   0.91123702  0.16984576  0.47311062
   0.83333333  0.83333333  0.38179910
   0.66908647  0.66636140  0.47282806
   0.08333333  0.33333333  0.38179910
   0.83333333  0.33333333  0.38179910
   0.83333333  0.08333333  0.38179910
   0.08333333  0.58333333  0.38179910
   0.91572360  0.66725940  0.47297994
  -0.00566915  0.49063465  0.56243826
   0.33333333  0.83333333  0.38179910
   0.51006994  0.73700329  0.56247512
   0.58333333  0.83333333  0.38179910
   0.51027002  0.49961590  0.56119863
   0.33333333  0.08333333  0.38179910
   0.16569940  0.16659425  0.47229312
   0.41740452  0.66213550  0.47395475
   0.58333333  0.58333333  0.38179910
   0.17261213  0.41700248  0.47193344
   0.25047212  0.24984915  0.56028742
   0.33333333  0.58333333  0.38179910
   0.22970386  0.76151088  0.56349902
   0.16562893  0.91563761  0.47163875
   0.08354261  0.58213630  0.60806449
   0.33221396  0.57649476  0.61031349
   0.07235013  0.09073355  0.60575842
   0.83519404  0.83530760  0.60698705
   0.33120496  0.83837447  0.61052764
   0.58152820  0.08712304  0.60670257
   0.59725550  0.32048636  0.60812293
   0.58451253  0.83651649  0.60970091
   0.58333333  0.08333333  0.38179910
   0.58333333  0.33333333  0.38179910
   0.42000303  0.41149181  0.47252320
   0.49342662  0.25508309  0.56136428
   0.33333333  0.33333333  0.38179910
   0.75476282  0.74010992  0.56596923
   0.16690104  0.66599758  0.47300025
   0.25159213  0.00841119  0.56563669
   0.08333333  0.08333333  0.38179910
   0.25513898  0.48913511  0.56375629
   0.00384469  0.75336523  0.56304532
   0.08333333  0.83333333  0.38179910
  -0.00453650  0.25551089  0.56120261
   0.66371490  0.16750320  0.47094452
   0.75295728  0.00841216  0.56368731
   0.91875488  0.41581111  0.47222020
   0.66516869  0.41363041  0.47111283
   0.75612894  0.24587441  0.56099083
   0.83333333  0.58333333  0.38179910
   0.75476864  0.49251172  0.55739738
  -0.00769595  0.00275168  0.56218293
   0.66555049  0.92107154  0.47113717
   0.42219148  0.16685340  0.47183376
   0.49070355  0.00489893  0.56376569
Direct configuration=    10
   0.91425106  0.91705478  0.47512665
   0.41747471  0.92090451  0.47635200
   0.91221857  0.16941940  0.47338909
   0.83333333  0.83333333  0.38179910
   0.66952734  0.66612739  0.47301819
   0.08333333  0.33333333  0.38179910
   0.83333333  0.33333333  0.38179910
   0.83333333  0.08333333  0.38179910
   0.08333333  0.58333333  0.38179910
   0.91601111  0.66700106  0.47393136
  -0.00520783  0.49129093  0.56371061
   0.33333333  0.83333333  0.38179910
   0.51017269  0.73719096  0.56387523
   0.58333333  0.83333333  0.38179910
   0.51099756  0.49831286  0.56217228
   0.33333333  0.08333333  0.38179910
   0.16592646  0.16628021  0.47280499
   0.41642074  0.66315037  0.47456412
   0.58333333  0.58333333  0.38179910
   0.17245224  0.41706078  0.47248558
   0.24877777  0.25071490  0.56149221
   0.33333333  0.58333333  0.38179910
   0.23075044  0.76179729  0.56477941
   0.16548521  0.91620153  0.47231680
   0.08310198  0.58155751  0.60854072
   0.33256656  0.57595329  0.61030817
   0.07078446  0.09148505  0.60676255
   0.83549372  0.83548515  0.60737972
   0.33116493  0.83855104  0.61078074
   0.58090788  0.08807409  0.60689146
   0.59904099  0.31896947  0.60854560
   0.58392382  0.83676304  0.61016234
   0.58333333  0.08333333  0.38179910
   0.58333333  0.33333333  0.38179910
   0.41981907  0.41216864  0.47327246
   0.49428199  0.25436690  0.56132727
   0.33333333  0.33333333  0.38179910
   0.75660548  0.73917984  0.56692257
   0.16727804  0.66563011  0.47378518
   0.24949814  0.01021429  0.56631395
   0.08333333  0.08333333  0.38179910
   0.25544603  0.48849172  0.56414117
   0.00146889  0.75235484  0.56327529
   0.08333333  0.83333333  0.38179910
  -0.00439608  0.25524306  0.56162570
   0.66365345  0.16752036  0.47145819
   0.75027048  0.00899613  0.56417382
   0.91859405  0.41601919  0.47215287
   0.66558597  0.41385675  0.47143405
   0.75792058  0.24561278  0.56155251
   0.83333333  0.58333333  0.38179910
   0.75510442  0.49091680  0.55815312
  -0.00699812  0.00335116  0.56283999
   0.66546827  0.92094298  0.47219087
   0.42119793  0.16676421  0.47231578
   0.49209435  0.00482809  0.56446960
Direct configuration=    11
   0.91440899  0.91697837  0.47514189
   0.41724016  0.92070632  0.47687811
   0.91295090  0.16910130  0.47359685
   0.83333333  0.83333333  0.38179910
   0.66985626  0.66595279  0.47316004
   0.08333333  0.33333333  0.38179910
   0.83333333  0.33333333  0.38179910
   0.83333333  0.08333333  0.38179910
   0.08333333  0.58333333  0.38179910
   0.91622562  0.66680833  0.47464121
  -0.00486364  0.49178057  0.56465989
   0.33333333  0.83333333  0.38179910
   0.51024936  0.73733097  0.56491984
   0.58333333  0.83333333  0.38179910
   0.51154038  0.49734068  0.56289871
   0.33333333  0.08333333  0.38179910
   0.16609587  0.16604591  0.47318689
   0.41568676  0.66390755  0.47501877
   0.58333333  0.58333333  0.38179910
   0.17233295  0.41710428  0.47289753
   0.24751364  0.25136082  0.56239109
   0.33333333  0.58333333  0.38179910
   0.23153128  0.76201098  0.56573470
   0.16537798  0.91662226  0.47282269
   0.08277323  0.58112567  0.60889604
   0.33282962  0.57554931  0.61030421
   0.06961633  0.09204574  0.60751172
   0.83571731  0.83561763  0.60767269
   0.33113506  0.83868278  0.61096958
   0.58044507  0.08878365  0.60703239
   0.60037313  0.31783773  0.60886095
   0.58348458  0.83694699  0.61050661
   0.58333333  0.08333333  0.38179910
   0.58333333  0.33333333  0.38179910
   0.41968182  0.41267362  0.47383148
   0.49492017  0.25383255  0.56129965
   0.33333333  0.33333333  0.38179910
   0.75798026  0.73848592  0.56763385
   0.16755931  0.66535595  0.47437081
   0.24793584  0.01155957  0.56681924
   0.08333333  0.08333333  0.38179910
   0.25567512  0.48801170  0.56442832
  -0.00030367  0.75160100  0.56344687
   0.08333333  0.83333333  0.38179910
  -0.00429131  0.25504324  0.56194136
   0.66360760  0.16753317  0.47184143
   0.74826589  0.00943183  0.56453680
   0.91847406  0.41617444  0.47210264
   0.66589730  0.41402562  0.47167370
   0.75925730  0.24541758  0.56197158
   0.83333333  0.58333333  0.38179910
   0.75535495  0.48972685  0.55871697
  -0.00647747  0.00379843  0.56333022
   0.66540693  0.92084706  0.47297702
   0.42045665  0.16669767  0.47267540
   0.49313201  0.00477524  0.56499478
Direct configuration=    12
   0.91467173  0.91691211  0.47524518
   0.41736254  0.92025133  0.47744980
   0.91343047  0.16902310  0.47366814
   0.83333333  0.83333333  0.38179910
   0.66996997  0.66566093  0.47352804
   0.08333333  0.33333333  0.38179910
   0.83333333  0.33333333  0.38179910
   0.83333333  0.08333333  0.38179910
   0.08333333  0.58333333  0.38179910
   0.91632290  0.66658234  0.47513164
  -0.00559400  0.49091001  0.56559874
   0.33333333  0.83333333  0.38179910
   0.51126763  0.73565133  0.56595835
   0.58333333  0.83333333  0.38179910
   0.51212852  0.49755598  0.56370501
   0.33333333  0.08333333  0.38179910
   0.16626220  0.16623090  0.47351408
   0.41565274  0.66428339  0.47567989
   0.58333333  0.58333333  0.38179910
   0.17223305  0.41694901  0.47322433
   0.24715349  0.25140175  0.56358956
   0.33333333  0.58333333  0.38179910
   0.23086139  0.76163318  0.56681665
   0.16516938  0.91673368  0.47329013
   0.08340870  0.58081046  0.60981480
   0.33319541  0.57496383  0.61052495
   0.06857000  0.09288072  0.60893704
   0.83553418  0.83653129  0.60828136
   0.33091148  0.83963596  0.61165087
   0.57886018  0.09074443  0.60769167
   0.60204036  0.31630923  0.60960785
   0.58396806  0.83682689  0.61127695
   0.58333333  0.08333333  0.38179910
   0.58333333  0.33333333  0.38179910
   0.41959911  0.41311793  0.47429074
   0.49589835  0.25218602  0.56133142
   0.33333333  0.33333333  0.38179910
   0.75764803  0.73846185  0.56884333
   0.16768556  0.66543253  0.47508781
   0.24652323  0.01245012  0.56764199
   0.08333333  0.08333333  0.38179910
   0.25522627  0.48873408  0.56498347
  -0.00070964  0.75172540  0.56349753
   0.08333333  0.83333333  0.38179910
  -0.00410861  0.25543325  0.56231145
   0.66347797  0.16771268  0.47212038
   0.74842207  0.00820238  0.56478742
   0.91836690  0.41642748  0.47230436
   0.66610749  0.41440558  0.47194204
   0.76051063  0.24471102  0.56246687
   0.83333333  0.58333333  0.38179910
   0.75580776  0.48935065  0.55932133
  -0.00667415  0.00303728  0.56377369
   0.66521828  0.92062212  0.47375330
   0.41962055  0.16676008  0.47308685
   0.49294178  0.00562639  0.56538965
Direct configuration=    13
   0.91507234  0.91681107  0.47540267
   0.41754912  0.91955757  0.47832151
   0.91416170  0.16890385  0.47377683
   0.83333333  0.83333333  0.38179910
   0.67014335  0.66521591  0.47408915
   0.08333333  0.33333333  0.38179910
   0.83333333  0.33333333  0.38179910
   0.83333333  0.08333333  0.38179910
   0.08333333  0.58333333  0.38179910
   0.91647123  0.66623776  0.47587943
  -0.00670763  0.48958258  0.56703029
   0.33333333  0.83333333  0.38179910
   0.51282028  0.73309025  0.56754184
   0.58333333  0.83333333  0.38179910
   0.51302531  0.49788428  0.56493443
   0.33333333  0.08333333  0.38179910
   0.16651582  0.16651297  0.47401298
   0.41560087  0.66485646  0.47668796
   0.58333333  0.58333333  0.38179910
   0.17208074  0.41671226  0.47372262
   0.24660434  0.25146414  0.56541696
   0.33333333  0.58333333  0.38179910
   0.22983995  0.76105712  0.56846639
   0.16485132  0.91690357  0.47400288
   0.08437764  0.58032982  0.61121572
   0.33375316  0.57407110  0.61086152
   0.06697457  0.09415389  0.61111034
   0.83525496  0.83792443  0.60920944
   0.33057058  0.84108936  0.61268970
   0.57644356  0.09373420  0.60869692
   0.60458251  0.31397860  0.61074672
   0.58470527  0.83664377  0.61245154
   0.58333333  0.08333333  0.38179910
   0.58333333  0.33333333  0.38179910
   0.41947300  0.41379541  0.47499102
   0.49738987  0.24967542  0.56137988
   0.33333333  0.33333333  0.38179910
   0.75714146  0.73842516  0.57068752
   0.16787807  0.66554929  0.47618108
   0.24436932  0.01380803  0.56889650
   0.08333333  0.08333333  0.38179910
   0.25454186  0.48983556  0.56582995
  -0.00132866  0.75191508  0.56357477
   0.08333333  0.83333333  0.38179910
  -0.00383002  0.25602794  0.56287574
   0.66328031  0.16798639  0.47254571
   0.74866020  0.00632774  0.56516956
   0.91820351  0.41681330  0.47261194
   0.66642799  0.41498494  0.47235120
   0.76242169  0.24363366  0.56322208
   0.83333333  0.58333333  0.38179910
   0.75649820  0.48877703  0.56024285
  -0.00697403  0.00187671  0.56444990
   0.66493064  0.92027912  0.47493697
   0.41834567  0.16685524  0.47371421
   0.49265172  0.00692421  0.56599175
Direct configuration=    14
   0.91487444  0.91682797  0.47548811
   0.41775491  0.91911117  0.47902263
   0.91383321  0.16934716  0.47382965
   0.83333333  0.83333333  0.38179910
   0.66982267  0.66520488  0.47468479
   0.08333333  0.33333333  0.38179910
   0.83333333  0.33333333  0.38179910
   0.83333333  0.08333333  0.38179910
   0.08333333  0.58333333  0.38179910
   0.91628337  0.66609877  0.47601175
  -0.00695698  0.48978371  0.56812703
   0.33333333  0.83333333  0.38179910
   0.51357541  0.73252003  0.56884449
   0.58333333  0.83333333  0.38179910
   0.51469372  0.49620415  0.56583659
   0.33333333  0.08333333  0.38179910
   0.16671526  0.16687625  0.47431196
   0.41630403  0.66459724  0.47737429
   0.58333333  0.58333333  0.38179910
   0.17202673  0.41672548  0.47411883
   0.24757820  0.25155420  0.56655316
   0.33333333  0.58333333  0.38179910
   0.22799049  0.76189429  0.56966734
   0.16508967  0.91646964  0.47435417
   0.08469876  0.58081948  0.61199650
   0.33457328  0.57352572  0.61187249
   0.06541514  0.09506098  0.61189807
   0.83574387  0.83862477  0.61007850
   0.33027043  0.84217203  0.61347212
   0.57586312  0.09430393  0.60978858
   0.60598811  0.31260815  0.61123975
   0.58438365  0.83742758  0.61341864
   0.58333333  0.08333333  0.38179910
   0.58333333  0.33333333  0.38179910
   0.41949305  0.41378405  0.47536603
   0.49743035  0.25107860  0.56138065
   0.33333333  0.33333333  0.38179910
   0.75635441  0.73816393  0.57206356
   0.16785610  0.66575089  0.47664436
   0.24362952  0.01328063  0.57016271
   0.08333333  0.08333333  0.38179910
   0.25377526  0.48942469  0.56620763
  -0.00040159  0.75132069  0.56424616
   0.08333333  0.83333333  0.38179910
  -0.00310359  0.25395261  0.56358801