 vasp.5.4.1 24Jun15 (build Mar 14 2019 10:18:33) complex                        
  
 executed on INTEL-19.0.2+OPENMPI date 2022.07.15  15:19:41
 running on   36 total cores
 distrk:  each k-point on   36 cores,    1 groups
 distr:  one band on NCORES_PER_BAND=   6 cores,    6 groups


--------------------------------------------------------------------------------------------------------


 INCAR:
 POTCAR:    PAW_PBE Au 04Oct2007                  
 POTCAR:    PAW_PBE Pd 04Jan2005                  
 POTCAR:    PAW_PBE Au 04Oct2007                  
  local pseudopotential read in
  partial core-charges read in
  partial kinetic energy density read in
  atomic valenz-charges read in
  non local Contribution for L=           2  read in
    real space projection operators read in
  non local Contribution for L=           2  read in
    real space projection operators read in
  non local Contribution for L=           0  read in
    real space projection operators read in
  non local Contribution for L=           0  read in
    real space projection operators read in
  non local Contribution for L=           1  read in
    real space projection operators read in
  non local Contribution for L=           1  read in
    real space projection operators read in
    PAW grid and wavefunctions read in
 
   number of l-projection  operators is LMAX  =           6
   number of lm-projection operators is LMMAX =          18
 
 POTCAR:    PAW_PBE Pd 04Jan2005                  
  local pseudopotential read in
  partial core-charges read in
  partial kinetic energy density read in
  atomic valenz-charges read in
  non local Contribution for L=           2  read in
    real space projection operators read in
  non local Contribution for L=           2  read in
    real space projection operators read in
  non local Contribution for L=           0  read in
    real space projection operators read in
  non local Contribution for L=           0  read in
    real space projection operators read in
  non local Contribution for L=           1  read in
    real space projection operators read in
  non local Contribution for L=           1  read in
    real space projection operators read in
    PAW grid and wavefunctions read in
 
   number of l-projection  operators is LMAX  =           6
   number of lm-projection operators is LMMAX =          18
 
 Optimization of the real space projectors (new method)

 maximal supplied QI-value         = 15.12
 optimisation between [QCUT,QGAM] = [ 10.13, 20.41] = [ 28.73,116.64] Ry 
 Optimized for a Real-space Cutoff    1.51 Angstroem

   l    n(q)    QCUT    max X(q) W(low)/X(q) W(high)/X(q)  e(spline) 
   2      8    10.129    60.898    0.46E-03    0.46E-03    0.14E-06
   2      8    10.129    58.894    0.47E-03    0.47E-03    0.14E-06
   0      9    10.129   109.617    0.16E-03    0.11E-03    0.54E-07
   0      9    10.129    75.026    0.15E-03    0.11E-03    0.52E-07
   1      9    10.129    16.344    0.96E-04    0.15E-03    0.14E-06
   1      9    10.129    10.160    0.81E-04    0.12E-03    0.11E-06
 Optimization of the real space projectors (new method)

 maximal supplied QI-value         = 14.36
 optimisation between [QCUT,QGAM] = [ 10.20, 20.39] = [ 29.12,116.47] Ry 
 Optimized for a Real-space Cutoff    1.51 Angstroem

   l    n(q)    QCUT    max X(q) W(low)/X(q) W(high)/X(q)  e(spline) 
   2      8    10.197    59.108    0.26E-03    0.14E-03    0.96E-07
   2      8    10.197    58.101    0.27E-03    0.14E-03    0.98E-07
   0      9    10.197   102.235    0.54E-04    0.60E-05    0.72E-07
   0      9    10.197    58.388    0.52E-04    0.60E-05    0.68E-07
   1      9    10.197    22.191    0.18E-03    0.25E-03    0.79E-07
   1      9    10.197    15.590    0.15E-03    0.21E-03    0.69E-07
  PAW_PBE Au 04Oct2007                  :
 energy of atom  1       EATOM= -926.0867
 kinetic energy error for atom=    0.0062 (will be added to EATOM!!)
  PAW_PBE Pd 04Jan2005                  :
 energy of atom  2       EATOM= -809.7530
 kinetic energy error for atom=    0.0091 (will be added to EATOM!!)
 
 
 POSCAR: Au Pd                                   
  positions in cartesian coordinates
  No initial velocities read in
 exchange correlation table for  LEXCH =        8
   RHO(1)=    0.500       N(1)  =     2000
   RHO(2)=  100.500       N(2)  =     4000

 VTST: version 3.2, (02/03/18)

 CHAIN: initializing optimizer
 
 OPT: Using VASP Conjugate-Gradient optimizer
 CHAIN: Read ICHAIN            0
 
 POSCAR: Au Pd                                   
  positions in cartesian coordinates
  No initial velocities read in
 


--------------------------------------------------------------------------------------------------------


 ion  position               nearest neighbor table
   1  0.417  0.667  0.500-   5 2.75   8 2.75  33 2.75   9 2.75  20 2.75   7 2.75  37 2.75  19 2.75
                             4 2.75   2 2.75  24 2.75  47 2.75
   2  0.333  0.833  0.408-   7 2.75   5 2.75  11 2.75  25 2.75  47 2.75  14 2.75  17 2.75   1 2.75
                            37 2.75
   3  0.250  0.500  0.592-   4 2.75  20 2.75  12 2.75  21 2.75  33 2.75  38 2.75   8 2.75  15 2.75
                            39 2.75
   4  0.167  0.667  0.500-  43 2.75   3 2.75  12 2.75  37 2.75  39 2.75  42 2.75  20 2.75  16 2.75
                             1 2.75  14 2.75   5 2.75  33 2.75
   5  0.333  0.583  0.408-   1 2.75   2 2.75  14 2.75  34 2.75  40 2.75  43 2.75  47 2.75  20 2.75
                             4 2.75
   6  0.583  0.083  0.408-  31 2.75  30 2.75  17 2.75  34 2.75  40 2.75  11 2.75  23 2.75  36 2.75
                            35 2.75
   7  0.417  0.917  0.500-   2 2.75  24 2.75  41 2.75  19 2.75   1 2.75  35 2.75  10 2.75  37 2.75
                            36 2.75  11 2.75  13 2.75  17 2.75
   8  0.500  0.500  0.592-   1 2.75   9 2.75  21 2.75  24 2.75  27 2.75  33 2.75  29 2.75   3 2.75
                            20 2.75
   9  0.667  0.417  0.500-  34 2.75  27 2.75   8 2.75  22 2.75   1 2.75  31 2.75  19 2.75  20 2.75
                            44 2.75  47 2.75  32 2.75  29 2.75
  10  0.167  0.167  0.500-  25 2.75  41 2.75  18 2.75  37 2.75  39 2.75   7 2.75  44 2.75  22 2.75
                            35 2.75  45 2.75  11 2.75  38 2.75
  11  0.333  0.083  0.408-  35 2.75  17 2.75   2 2.75  40 2.75  45 2.75  25 2.75   6 2.75   7 2.75
                            10 2.75
  12  0.000  0.750  0.592-  42 2.75   4 2.75  15 2.75  26 2.75   3 2.75  46 2.75  33 2.75  48 2.75
                            16 2.75
  13  0.500  0.000  0.592-  35 2.75  36 2.75  21 2.75  24 2.75  38 2.75  48 2.75  41 2.75  26 2.75
                             7 2.75
  14  0.083  0.833  0.408-  37 2.75  23 2.75  25 2.75   5 2.75  43 2.75   2 2.75  30 2.75   4 2.75
                            42 2.75
  15  0.000  0.500  0.592-  16 2.75  39 2.75  18 2.75  38 2.75  12 2.75  48 2.75  29 2.75   3 2.75
                            44 2.75
  16  0.917  0.667  0.500-  28 2.75  15 2.75  48 2.75  39 2.75  42 2.75  44 2.75  36 2.75   4 2.75
                            19 2.75  30 2.75  12 2.75  43 2.75
  17  0.583  0.833  0.408-  36 2.75  11 2.75  28 2.75   6 2.75  47 2.75   2 2.75  30 2.75  19 2.75
                             7 2.75
  18  0.000  0.250  0.592-  44 2.75  10 2.75  29 2.75  41 2.75  15 2.75  46 2.75  38 2.75  27 2.75
                            22 2.75
  19  0.667  0.667  0.500-  47 2.75  29 2.75  24 2.75   9 2.75  36 2.75  44 2.75   7 2.75  16 2.75
                             1 2.75  17 2.75  28 2.75  48 2.75
  20  0.417  0.417  0.500-  40 2.75  21 2.75   3 2.75   1 2.75  31 2.75  35 2.75   4 2.75  39 2.75
                             9 2.75   5 2.75  34 2.75   8 2.75
  21  0.500  0.250  0.592-  20 2.75  31 2.75  13 2.75   3 2.75  26 2.75   8 2.75  27 2.75  38 2.75
                            35 2.75
  22  0.917  0.167  0.500-  23 2.75  46 2.75  27 2.75  37 2.75  42 2.75  44 2.75   9 2.75  10 2.75
                            31 2.75  32 2.75  25 2.75  18 2.75
  23  0.833  0.083  0.408-  22 2.75  14 2.75  30 2.75  32 2.75  34 2.75  25 2.75   6 2.75  42 2.75
                            31 2.75
  24  0.500  0.750  0.592-   7 2.75  19 2.75  13 2.75   8 2.75  29 2.75  41 2.75  33 2.75  48 2.75
                             1 2.75
  25  0.083  0.083  0.408-  10 2.75   2 2.75  14 2.75  32 2.75  45 2.75  11 2.75  23 2.75  37 2.75
                            22 2.75
  26  0.750  0.000  0.592-  31 2.75  42 2.75  27 2.75  12 2.75  21 2.75  48 2.75  46 2.75  13 2.75
                            36 2.75
  27  0.750  0.250  0.592-   9 2.75  22 2.75   8 2.75  26 2.75  29 2.75  46 2.75  18 2.75  21 2.75
                            31 2.75
  28  0.833  0.583  0.408-  16 2.75  17 2.75  30 2.75  32 2.75  45 2.75  43 2.75  47 2.75  44 2.75
                            19 2.75
  29  0.750  0.500  0.592-  19 2.75  44 2.75  24 2.75  27 2.75  18 2.75  48 2.75   8 2.75  15 2.75
                             9 2.75
  30  0.833  0.833  0.408-  42 2.75  23 2.75  28 2.75   6 2.75  43 2.75  14 2.75  17 2.75  16 2.75
                            36 2.75
  31  0.667  0.167  0.500-   6 2.75  26 2.75  21 2.75   9 2.75  20 2.75  36 2.75  42 2.75  22 2.75
                            35 2.75  34 2.75  23 2.75  27 2.75
  32  0.833  0.333  0.408-  44 2.75  25 2.75  28 2.75  23 2.75  47 2.75  45 2.75  34 2.75  22 2.75
                             9 2.75
  33  0.250  0.750  0.592-  37 2.75   1 2.75   8 2.75   3 2.75  41 2.75  46 2.75  24 2.75  12 2.75
                             4 2.75
  34  0.583  0.333  0.408-   9 2.75   6 2.75   5 2.75  23 2.75  47 2.75  40 2.75  32 2.75  31 2.75
                            20 2.75
  35  0.417  0.167  0.500-  11 2.75  13 2.75  38 2.75  20 2.75  36 2.75   7 2.75  39 2.75  31 2.75
                            10 2.75  40 2.75  21 2.75   6 2.75
  36  0.667  0.917  0.500-  17 2.75  48 2.75  13 2.75  19 2.75  31 2.75  35 2.75  16 2.75  42 2.75
                             7 2.75   6 2.75  26 2.75  30 2.75
  37  0.167  0.917  0.500-  14 2.75  33 2.75  46 2.75   1 2.75  22 2.75   4 2.75  10 2.75  42 2.75
                             7 2.75  25 2.75   2 2.75  41 2.75
  38  0.250  0.250  0.592-  39 2.75  35 2.75  15 2.75   3 2.75  13 2.75  41 2.75  21 2.75  18 2.75
                            10 2.75
  39  0.167  0.417  0.500-  45 2.75  38 2.75  15 2.75  16 2.75  35 2.75  10 2.75   4 2.75  44 2.75
                            20 2.75  43 2.75  40 2.75   3 2.75
  40  0.333  0.333  0.408-  20 2.75   6 2.75  11 2.75   5 2.75  43 2.75  34 2.75  45 2.75  35 2.75
                            39 2.75
  41  0.250  0.000  0.592-  10 2.75   7 2.75  18 2.75  24 2.75  33 2.75  38 2.75  13 2.75  46 2.75
                            37 2.75
  42  0.917  0.917  0.500-  30 2.75  12 2.75  26 2.75  22 2.75   4 2.75  16 2.75  31 2.75  36 2.75
                            37 2.75  23 2.75  14 2.75  46 2.75
  43  0.083  0.583  0.408-   4 2.75  14 2.75  30 2.75  40 2.75  45 2.75  28 2.75   5 2.75  39 2.75
                            16 2.75
  44  0.917  0.417  0.500-  32 2.75  18 2.75  29 2.75  19 2.75  22 2.75  16 2.75  10 2.75   9 2.75
                            39 2.75  28 2.75  15 2.75  45 2.75
  45  0.083  0.333  0.408-  39 2.75  25 2.75  28 2.75  11 2.75  43 2.75  40 2.75  32 2.75  10 2.75
                            44 2.75
  46  0.000  0.000  0.592-  22 2.75  37 2.75  12 2.75  27 2.75  33 2.75  18 2.75  26 2.75  41 2.75
                            42 2.75
  47  0.583  0.583  0.408-  19 2.75  17 2.75   2 2.75  32 2.75  34 2.75   5 2.75  28 2.75   9 2.75
                             1 2.75
  48  0.750  0.750  0.592-  36 2.75  16 2.75  13 2.75  26 2.75  29 2.75  15 2.75  24 2.75  12 2.75
                            19 2.75
 
  LATTYP: Found a hexagonal cell.
 ALAT       =    11.0025815153
 C/A-ratio  =     2.2260035120
  
  Lattice vectors:
  
 A1 = (   5.5012907576,  -9.5285150994,   0.0000000000)
 A2 = ( -11.0025815153,   0.0000000000,   0.0000000000)
 A3 = (   0.0000000000,   0.0000000000, -24.4917850943)


Analysis of symmetry for initial positions (statically):
=====================================================================
 Subroutine PRICEL returns:
 Original cell was already a primitive cell.
 

 Routine SETGRP: Setting up the symmetry group for a 
 hexagonal supercell.


 Subroutine GETGRP returns: Found  1 space group operations
 (whereof  1 operations were pure point group operations)
 out of a pool of 24 trial point group operations.


The static configuration has the point symmetry C_1 .


Analysis of symmetry for dynamics (positions and initial velocities):
=====================================================================
 Subroutine PRICEL returns:
 Original cell was already a primitive cell.
 

 Routine SETGRP: Setting up the symmetry group for a 
 hexagonal supercell.


 Subroutine GETGRP returns: Found  1 space group operations
 (whereof  1 operations were pure point group operations)
 out of a pool of 24 trial point group operations.


The dynamic configuration has the point symmetry C_1 .
 
 
 KPOINTS: Automatic mesh                          

Automatic generation of k-mesh.
Space group operators:
 irot       det(A)        alpha          n_x          n_y          n_z        tau_x        tau_y        tau_z
    1     1.000000     0.000000     1.000000     0.000000     0.000000     0.000000     0.000000     0.000000
 
 Subroutine IBZKPT returns following result:
 ===========================================
 
 Found      6 irreducible k-points:
 
 Following reciprocal coordinates:
            Coordinates               Weight
  0.250000  0.250000  0.000000     16.000000
  0.000000  0.250000  0.000000     16.000000
 -0.250000  0.000000  0.000000     16.000000
 -0.250000  0.250000  0.000000     16.000000
  0.500000 -0.250000  0.000000     16.000000
 -0.250000  0.500000  0.000000     16.000000
 
 Following cartesian coordinates:
            Coordinates               Weight
  0.022722  0.013119  0.000000     16.000000
  0.000000  0.026237  0.000000     16.000000
 -0.022722  0.013119  0.000000     16.000000
 -0.022722  0.039356  0.000000     16.000000
  0.045444 -0.052474  0.000000     16.000000
 -0.022722  0.065593  0.000000     16.000000
 


--------------------------------------------------------------------------------------------------------




 Dimension of arrays:
   k-points           NKPTS =      6   k-points in BZ     NKDIM =      6   number of bands    NBANDS=    306
   number of dos      NEDOS =    301   number of ions     NIONS =     48
   non local maximal  LDIM  =      6   non local SUM 2l+1 LMDIM =     18
   total plane-waves  NPLWV = 349920
   max r-space proj   IRMAX =   2009   max aug-charges    IRDMAX=   8532
   dimension x,y,z NGX =    54 NGY =   54 NGZ =  120
   dimension x,y,z NGXF=   108 NGYF=  108 NGZF=  240
   support grid    NGXF=   108 NGYF=  108 NGZF=  240
   ions per type =              24  24
 NGX,Y,Z   is equivalent  to a cutoff of   8.16,  8.16,  8.15 a.u.
 NGXF,Y,Z  is equivalent  to a cutoff of  16.32, 16.32, 16.29 a.u.


 I would recommend the setting:
   dimension x,y,z NGX =    54 NGY =   54 NGZ =  120
 SYSTEM =  unknown system                          
 POSCAR =  Au Pd                                   

 Startparameter for this run:
   NWRITE =      1    write-flag & timer
   PREC   = normal    normal or accurate (medium, high low for compatibility)
   ISTART =      0    job   : 0-new  1-cont  2-samecut
   ICHARG =      2    charge: 1-file 2-atom 10-const
   ISPIN  =      1    spin polarized calculation?
   LNONCOLLINEAR =      F non collinear calculations
   LSORBIT =      F    spin-orbit coupling
   INIWAV =      1    electr: 0-lowe 1-rand  2-diag
   LASPH  =      F    aspherical Exc in radial PAW
   METAGGA=      F    non-selfconsistent MetaGGA calc.

 Electronic Relaxation 1
   ENCUT  =  400.0 eV  29.40 Ry    5.42 a.u.  17.94 17.94 39.94*2*pi/ulx,y,z
   ENINI  =  400.0     initial cutoff
   ENAUG  =  416.2 eV  augmentation charge cutoff
   NELM   =    500;   NELMIN=  2; NELMDL= -5     # of ELM steps 
   EDIFF  = 0.1E-05   stopping-criterion for ELM
   LREAL  =      T    real-space projection
   NLSPLINE    = F    spline interpolate recip. space projectors
   LCOMPAT=      F    compatible to vasp.4.4
   GGA_COMPAT  = T    GGA compatible to vasp.4.4-vasp.4.6
   LMAXPAW     = -100 max onsite density
   LMAXMIX     =    2 max onsite mixed and CHGCAR
   VOSKOWN=      1    Vosko Wilk Nusair interpolation
   ROPT   =   -0.00050  -0.00050
 Ionic relaxation
   EDIFFG = -.2E-01   stopping-criterion for IOM
   NSW    =    500    number of steps for IOM
   NBLOCK =      1;   KBLOCK =    500    inner block; outer block 
   IBRION =      2    ionic relax: 0-MD 1-quasi-New 2-CG
   NFREE  =      2    steps in history (QN), initial steepest desc. (CG)
   ISIF   =      0    stress and relaxation
   IWAVPR =     11    prediction:  0-non 1-charg 2-wave 3-comb
   ISYM   =      2    0-nonsym 1-usesym 2-fastsym
   LCORR  =      T    Harris-Foulkes like correction to forces

   POTIM  = 0.3500    time-step for ionic-motion
   TEIN   =    0.0    initial temperature
   TEBEG  =    0.0;   TEEND  =   0.0 temperature during run
   SMASS  =  -3.00    Nose mass-parameter (am)
   estimated Nose-frequenzy (Omega)   =  0.10E-29 period in steps =****** mass=  -0.277E-26a.u.
   SCALEE = 1.0000    scale energy and forces
   NPACO  =    256;   APACO  = 16.0  distance and # of slots for P.C.
   PSTRESS=    0.0 pullay stress

  Mass of Ions in am
   POMASS = 196.97106.42
  Ionic Valenz
   ZVAL   =  11.00 10.00
  Atomic Wigner-Seitz radii
   RWIGS  =  -1.00 -1.00
  virtual crystal weights 
   VCA    =   1.00  1.00
   NELECT =     504.0000    total number of electrons
   NUPDOWN=      -1.0000    fix difference up-down

 DOS related values:
   EMIN   =  10.00;   EMAX   =-10.00  energy-range for DOS
   EFERMI =   0.00
   ISMEAR =     0;   SIGMA  =   0.10  broadening in eV -4-tet -1-fermi 0-gaus

 Electronic relaxation 2 (details)
   IALGO  =     68    algorithm
   LDIAG  =      T    sub-space diagonalisation (order eigenvalues)
   LSUBROT=      F    optimize rotation matrix (better conditioning)
   TURBO    =      0    0=normal 1=particle mesh
   IRESTART =      0    0=no restart 2=restart with 2 vectors
   NREBOOT  =      0    no. of reboots
   NMIN     =      0    reboot dimension
   EREF     =   0.00    reference energy to select bands
   IMIX   =      4    mixing-type and parameters
     AMIX     =   0.40;   BMIX     =  1.00
     AMIX_MAG =   1.60;   BMIX_MAG =  1.00
     AMIN     =   0.10
     WC   =   100.;   INIMIX=   1;  MIXPRE=   1;  MAXMIX= -45

 Intra band minimization:
   WEIMIN = 0.0010     energy-eigenvalue tresh-hold
   EBREAK =  0.82E-09  absolut break condition
   DEPER  =   0.30     relativ break condition  

   TIME   =   0.40     timestep for ELM

  volume/ion in A,a.u.               =      53.49       360.99
  Fermi-wavevector in a.u.,A,eV,Ry     =   0.951418  1.797920 12.315955  0.905197
  Thomas-Fermi vector in A             =   2.079887
 
 Write flags
   LWAVE  =      F    write WAVECAR
   LCHARG =      F    write CHGCAR
   LVTOT  =      F    write LOCPOT, total local potential
   LVHAR  =      F    write LOCPOT, Hartree potential only
   LELF   =      F    write electronic localiz. function (ELF)
   LORBIT =      0    0 simple, 1 ext, 2 COOP (PROOUT)


 Dipole corrections
   LMONO  =      F    monopole corrections only (constant potential shift)
   LDIPOL =      T    correct potential (dipole corrections)
   IDIPOL =      3    1-x, 2-y, 3-z, 4-all directions 
   EPSILON=  1.0000000 bulk dielectric constant

 Exchange correlation treatment:
   GGA     =    PE    GGA type
   LEXCH   =     8    internal setting for exchange type
   VOSKOWN=      1    Vosko Wilk Nusair interpolation
   LHFCALC =     F    Hartree Fock is set to
   LHFONE  =     F    Hartree Fock one center treatment
   AEXX    =    0.0000 exact exchange contribution

 Linear response parameters
   LEPSILON=     F    determine dielectric tensor
   LRPA    =     F    only Hartree local field effects (RPA)
   LNABLA  =     F    use nabla operator in PAW spheres
   LVEL    =     F    velocity operator in full k-point grid
   LINTERFAST=   F  fast interpolation
   KINTER  =     0    interpolate to denser k-point grid
   CSHIFT  =0.1000    complex shift for real part using Kramers Kronig
   OMEGAMAX=  -1.0    maximum frequency
   DEG_THRESHOLD= 0.2000000E-02 threshold for treating states as degnerate
   RTIME   =    0.100 relaxation time in fs

 Orbital magnetization related:
   ORBITALMAG=     F  switch on orbital magnetization
   LCHIMAG   =     F  perturbation theory with respect to B field
   DQ        =  0.001000  dq finite difference perturbation B field



--------------------------------------------------------------------------------------------------------


 conjugate gradient relaxation of ions
 charge density and potential will be updated during run
 non-spin polarized calculation
 RMM-DIIS sequential band-by-band and
  variant of blocked Davidson during initial phase
 perform sub-space diagonalisation
    before iterative eigenvector-optimisation
 modified Broyden-mixing scheme, WC =      100.0
 initial mixing is a Kerker type mixing with AMIX =  0.4000 and BMIX =      1.0000
 Hartree-type preconditioning will be used
 using additional bands           54
 real space projection scheme for non local part
 use partial core corrections
 calculate Harris-corrections to forces 
   (improved forces if not selfconsistent)
 use gradient corrections 
 use of overlap-Matrix (Vanderbilt PP)
 Gauss-broadening in eV      SIGMA  =   0.10


--------------------------------------------------------------------------------------------------------


  energy-cutoff  :      400.00
  volume of cell :     2567.68
      direct lattice vectors                 reciprocal lattice vectors
    11.002581515  0.000000000  0.000000000     0.090887761 -0.052474073  0.000000000
     5.501290758  9.528515099  0.000000000     0.000000000  0.104948147  0.000000000
     0.000000000  0.000000000 24.491785094     0.000000000  0.000000000  0.040830017

  length of vectors
    11.002581515 11.002581515 24.491785094     0.104948147  0.104948147  0.040830017


 
 k-points in units of 2pi/SCALE and weight: Automatic mesh                          
   0.02272194  0.01311852  0.00000000       0.167
   0.00000000  0.02623704  0.00000000       0.167
  -0.02272194  0.01311852  0.00000000       0.167
  -0.02272194  0.03935555  0.00000000       0.167
   0.04544388 -0.05247407  0.00000000       0.167
  -0.02272194  0.06559259  0.00000000       0.167
 
 k-points in reciprocal lattice and weights: Automatic mesh                          
   0.25000000  0.25000000  0.00000000       0.167
   0.00000000  0.25000000  0.00000000       0.167
  -0.25000000  0.00000000  0.00000000       0.167
  -0.25000000  0.25000000  0.00000000       0.167
   0.50000000 -0.25000000  0.00000000       0.167
  -0.25000000  0.50000000  0.00000000       0.167
 
 position of ions in fractional coordinates (direct lattice) 
   0.41666667  0.66666667  0.50000000
   0.33333333  0.83333333  0.40830017
   0.25000000  0.50000000  0.59169983
   0.16666667  0.66666667  0.50000000
   0.33333333  0.58333333  0.40830017
   0.58333333  0.08333333  0.40830017
   0.41666667  0.91666667  0.50000000
   0.50000000  0.50000000  0.59169983
   0.66666667  0.41666667  0.50000000
   0.16666667  0.16666667  0.50000000
   0.33333333  0.08333333  0.40830017
   0.00000000  0.75000000  0.59169983
   0.50000000  0.00000000  0.59169983
   0.08333333  0.83333333  0.40830017
   0.00000000  0.50000000  0.59169983
   0.91666667  0.66666667  0.50000000
   0.58333333  0.83333333  0.40830017
   0.00000000  0.25000000  0.59169983
   0.66666667  0.66666667  0.50000000
   0.41666667  0.41666667  0.50000000
   0.50000000  0.25000000  0.59169983
   0.91666667  0.16666667  0.50000000
   0.83333333  0.08333333  0.40830017
   0.50000000  0.75000000  0.59169983
   0.08333333  0.08333333  0.40830017
   0.75000000  0.00000000  0.59169983
   0.75000000  0.25000000  0.59169983
   0.83333333  0.58333333  0.40830017
   0.75000000  0.50000000  0.59169983
   0.83333333  0.83333333  0.40830017
   0.66666667  0.16666667  0.50000000
   0.83333333  0.33333333  0.40830017
   0.25000000  0.75000000  0.59169983
   0.58333333  0.33333333  0.40830017
   0.41666667  0.16666667  0.50000000
   0.66666667  0.91666667  0.50000000
   0.16666667  0.91666667  0.50000000
   0.25000000  0.25000000  0.59169983
   0.16666667  0.41666667  0.50000000
   0.33333333  0.33333333  0.40830017
   0.25000000  0.00000000  0.59169983
   0.91666667  0.91666667  0.50000000
   0.08333333  0.58333333  0.40830017
   0.91666667  0.41666667  0.50000000
   0.08333333  0.33333333  0.40830017
   0.00000000  0.00000000  0.59169983
   0.58333333  0.58333333  0.40830017
   0.75000000  0.75000000  0.59169983
 
 position of ions in cartesian coordinates  (Angst):
   8.25193614  6.35234340 12.24589255
   8.25193614  7.94042925 10.00000000
   5.50129076  4.76425755 14.49178509
   5.50129076  6.35234340 12.24589255
   6.87661345  5.55830047 10.00000000
   6.87661345  0.79404292 10.00000000
   9.62725883  8.73447217 12.24589255
   8.25193614  4.76425755 14.49178509
   9.62725883  3.97021462 12.24589255
   2.75064538  1.58808585 12.24589255
   4.12596807  0.79404292 10.00000000
   4.12596807  7.14638632 14.49178509
   5.50129076  0.00000000 14.49178509
   5.50129076  7.94042925 10.00000000
   2.75064538  4.76425755 14.49178509
  13.75322689  6.35234340 12.24589255
  11.00258152  7.94042925 10.00000000
   1.37532269  2.38212877 14.49178509
  11.00258152  6.35234340 12.24589255
   6.87661345  3.97021462 12.24589255
   6.87661345  2.38212877 14.49178509
  11.00258152  1.58808585 12.24589255
   9.62725883  0.79404292 10.00000000
   9.62725883  7.14638632 14.49178509
   1.37532269  0.79404292 10.00000000
   8.25193614  0.00000000 14.49178509
   9.62725883  2.38212877 14.49178509
  12.37790420  5.55830047 10.00000000
  11.00258152  4.76425755 14.49178509
  13.75322689  7.94042925 10.00000000
   8.25193614  1.58808585 12.24589255
  11.00258152  3.17617170 10.00000000
   6.87661345  7.14638632 14.49178509
   8.25193614  3.17617170 10.00000000
   5.50129076  1.58808585 12.24589255
  12.37790420  8.73447217 12.24589255
   6.87661345  8.73447217 12.24589255
   4.12596807  2.38212877 14.49178509
   4.12596807  3.97021462 12.24589255
   5.50129076  3.17617170 10.00000000
   2.75064538  0.00000000 14.49178509
  15.12854958  8.73447217 12.24589255
   4.12596807  5.55830047 10.00000000
  12.37790420  3.97021462 12.24589255
   2.75064538  3.17617170 10.00000000
   0.00000000  0.00000000 14.49178509
   9.62725883  5.55830047 10.00000000
  12.37790420  7.14638632 14.49178509
 


--------------------------------------------------------------------------------------------------------


 k-point  1 :   0.2500 0.2500 0.0000  plane waves:   46635
 k-point  2 :   0.0000 0.2500 0.0000  plane waves:   46635
 k-point  3 :  -0.2500 0.0000 0.0000  plane waves:   46635
 k-point  4 :  -0.2500 0.2500 0.0000  plane waves:   46644
 k-point  5 :   0.5000-0.2500 0.0000  plane waves:   46644
 k-point  6 :  -0.2500 0.5000 0.0000  plane waves:   46644

 maximum and minimum number of plane-waves per node :      7818     7732

 maximum number of plane-waves:     46644
 maximum index in each direction: 
   IXMAX=   18   IYMAX=   18   IZMAX=   39
   IXMIN=  -18   IYMIN=  -18   IZMIN=  -39

 WARNING: aliasing errors must be expected set NGX to  74 to avoid them
 WARNING: aliasing errors must be expected set NGY to  74 to avoid them
 WARNING: aliasing errors must be expected set NGZ to 158 to avoid them
 aliasing errors are usually negligible using standard VASP settings
 and one can safely disregard these warnings

 real space projection operators:
  total allocation   :      12803.06 KBytes
  max/ min on nodes  :       2145.66       2127.94


 parallel 3D FFT for wavefunctions:
    minimum data exchange during FFTs selected (reduces bandwidth)
 parallel 3D FFT for charge:
    minimum data exchange during FFTs selected (reduces bandwidth)


 total amount of memory used by VASP on root node    84353. kBytes
========================================================================

   base      :      30000. kBytes
   nonlr-proj:       4285. kBytes
   fftplans  :       4447. kBytes
   grid      :       6721. kBytes
   one-center:        124. kBytes
   wavefun   :      38776. kBytes
 
     INWAV:  cpu time    0.0000: real time    0.0000
 Broyden mixing: mesh for mixing (old mesh)
   NGX = 35   NGY = 35   NGZ = 79
  (NGX  =108   NGY  =108   NGZ  =240)
  gives a total of  96775 points

 initial charge density was supplied:
 charge density of overlapping atoms calculated
 number of electron     504.0000000 magnetization 
 keeping initial charge density in first step


--------------------------------------------------------------------------------------------------------


 Maximum index for non-local projection operator          355
 Maximum index for augmentation-charges          437 (set IRDMAX)


--------------------------------------------------------------------------------------------------------


 First call to EWALD:  gamma=   0.129
 Maximum number of real-space cells 4x 4x 2
 Maximum number of reciprocal cells 2x 2x 5

 FEWALD executed in parallel
    FEWALD:  cpu time    0.0024: real time    0.0024


----------------------------------------- Iteration    1(   1)  ---------------------------------------


    POTLOK:  cpu time    0.0510: real time    0.0514
    SETDIJ:  cpu time    0.0057: real time    0.0058
     EDDAV:  cpu time    9.5131: real time    9.6394
       DOS:  cpu time    0.0014: real time    0.0014
    --------------------------------------------
      LOOP:  cpu time    9.5750: real time    9.7053

 eigenvalue-minimisations  :  3672
 total energy-change (2. order) : 0.3201147E+04  (-0.1898037E+05)
 number of electron     504.0000000 magnetization 
 augmentation part      504.0000000 magnetization 

 DIPCOR: dipole corrections for dipol
 direction  3 min pos     1,
 dipolmoment           0.000000      0.000000     -0.000001 electrons x Angstroem
 Tr[quadrupol]    -10352.141940

 energy correction for charged system         0.000000 eV
 dipol+quadrupol energy correction           -0.000000 eV
 added-field ion interaction          0.000000 eV  (added to PSCEN)


 Free energy of the ion-electron system (eV)
  ---------------------------------------------------
  alpha Z        PSCENC =       805.86936440
  Ewald energy   TEWEN  =    200400.19806040
  -Hartree energ DENC   =   -242815.53913534
  -exchange      EXHF   =         0.00000000
  -V(xc)+E(xc)   XCENC  =      -327.56024237
  PAW double counting   =     40340.05962942   -38292.62782345
  entropy T*S    EENTRO =        -0.13049522
  eigenvalues    EBANDS =      1431.09217329
  atomic energy  EATOM  =     41659.78587232
  Solvation  Ediel_sol  =         0.00000000
  ---------------------------------------------------
  free energy    TOTEN  =      3201.14740346 eV

  energy without entropy =     3201.27789868  energy(sigma->0) =     3201.21265107


--------------------------------------------------------------------------------------------------------




----------------------------------------- Iteration    1(   2)  ---------------------------------------


     EDDAV:  cpu time   11.2449: real time   11.3091
       DOS:  cpu time    0.0014: real time    0.0014
    --------------------------------------------
      LOOP:  cpu time   11.2478: real time   11.3136

 eigenvalue-minimisations  :  4392
 total energy-change (2. order) :-0.3186428E+04  (-0.2930408E+04)
 number of electron     504.0000000 magnetization 
 augmentation part      504.0000000 magnetization 

 DIPCOR: dipole corrections for dipol
 direction  3 min pos     1,
 dipolmoment           0.000000      0.000000     -0.000001 electrons x Angstroem
 Tr[quadrupol]    -10352.141940

 energy correction for charged system         0.000000 eV
 dipol+quadrupol energy correction           -0.000000 eV
 added-field ion interaction          0.000000 eV  (added to PSCEN)


 Free energy of the ion-electron system (eV)
  ---------------------------------------------------
  alpha Z        PSCENC =       805.86936440
  Ewald energy   TEWEN  =    200400.19806040
  -Hartree energ DENC   =   -242815.53913534
  -exchange      EXHF   =         0.00000000
  -V(xc)+E(xc)   XCENC  =      -327.56024237
  PAW double counting   =     40340.05962942   -38292.62782345
  entropy T*S    EENTRO =        -0.13333067
  eigenvalues    EBANDS =     -1755.33277905
  atomic energy  EATOM  =     41659.78587232
  Solvation  Ediel_sol  =         0.00000000
  ---------------------------------------------------
  free energy    TOTEN  =        14.71961567 eV

  energy without entropy =       14.85294634  energy(sigma->0) =       14.78628101


--------------------------------------------------------------------------------------------------------




----------------------------------------- Iteration    1(   3)  ---------------------------------------


     EDDAV:  cpu time   10.8227: real time   10.8890
       DOS:  cpu time    0.0014: real time    0.0014
    --------------------------------------------
      LOOP:  cpu time   10.8256: real time   10.8962

 eigenvalue-minimisations  :  4164
 total energy-change (2. order) :-0.2150331E+03  (-0.2002469E+03)
 number of electron     504.0000000 magnetization 
 augmentation part      504.0000000 magnetization 

 DIPCOR: dipole corrections for dipol
 direction  3 min pos     1,
 dipolmoment           0.000000      0.000000     -0.000001 electrons x Angstroem
 Tr[quadrupol]    -10352.141940

 energy correction for charged system         0.000000 eV
 dipol+quadrupol energy correction           -0.000000 eV
 added-field ion interaction          0.000000 eV  (added to PSCEN)


 Free energy of the ion-electron system (eV)
  ---------------------------------------------------
  alpha Z        PSCENC =       805.86936440
  Ewald energy   TEWEN  =    200400.19806040
  -Hartree energ DENC   =   -242815.53913534
  -exchange      EXHF   =         0.00000000
  -V(xc)+E(xc)   XCENC  =      -327.56024237
  PAW double counting   =     40340.05962942   -38292.62782345
  entropy T*S    EENTRO =        -0.20307450
  eigenvalues    EBANDS =     -1970.29615734
  atomic energy  EATOM  =     41659.78587232
  Solvation  Ediel_sol  =         0.00000000
  ---------------------------------------------------
  free energy    TOTEN  =      -200.31350645 eV

  energy without entropy =     -200.11043195  energy(sigma->0) =     -200.21196920


--------------------------------------------------------------------------------------------------------




----------------------------------------- Iteration    1(   4)  ---------------------------------------


     EDDAV:  cpu time   11.0188: real time   11.0821
       DOS:  cpu time    0.0014: real time    0.0014
    --------------------------------------------
      LOOP:  cpu time   11.0212: real time   11.0862

 eigenvalue-minimisations  :  4308
 total energy-change (2. order) :-0.5680715E+01  (-0.5619404E+01)
 number of electron     504.0000000 magnetization 
 augmentation part      504.0000000 magnetization 

 DIPCOR: dipole corrections for dipol
 direction  3 min pos     1,
 dipolmoment           0.000000      0.000000     -0.000001 electrons x Angstroem
 Tr[quadrupol]    -10352.141940

 energy correction for charged system         0.000000 eV
 dipol+quadrupol energy correction           -0.000000 eV
 added-field ion interaction          0.000000 eV  (added to PSCEN)


 Free energy of the ion-electron system (eV)
  ---------------------------------------------------
  alpha Z        PSCENC =       805.86936440
  Ewald energy   TEWEN  =    200400.19806040
  -Hartree energ DENC   =   -242815.53913534
  -exchange      EXHF   =         0.00000000
  -V(xc)+E(xc)   XCENC  =      -327.56024237
  PAW double counting   =     40340.05962942   -38292.62782345
  entropy T*S    EENTRO =        -0.21629034
  eigenvalues    EBANDS =     -1975.96365620
  atomic energy  EATOM  =     41659.78587232
  Solvation  Ediel_sol  =         0.00000000
  ---------------------------------------------------
  free energy    TOTEN  =      -205.99422115 eV

  energy without entropy =     -205.77793081  energy(sigma->0) =     -205.88607598


--------------------------------------------------------------------------------------------------------




----------------------------------------- Iteration    1(   5)  ---------------------------------------


     EDDAV:  cpu time   11.2907: real time   11.4315
       DOS:  cpu time    0.0014: real time    0.0014
    CHARGE:  cpu time    0.2310: real time    0.2321
    MIXING:  cpu time    0.0025: real time    0.0025
    --------------------------------------------
      LOOP:  cpu time   11.5269: real time   11.6714

 eigenvalue-minimisations  :  4428
 total energy-change (2. order) :-0.1619718E+00  (-0.1615378E+00)
 number of electron     503.9998405 magnetization 
 augmentation part      191.3450105 magnetization 

 DIPCOR: dipole corrections for dipol
 direction  3 min pos     1,
 dipolmoment           0.000000      0.000000     -0.000001 electrons x Angstroem
 Tr[quadrupol]    -10352.141940

 energy correction for charged system         0.000000 eV
 dipol+quadrupol energy correction           -0.000000 eV
 added-field ion interaction          0.000000 eV  (added to PSCEN)


 Broyden mixing:
  rms(total) = 0.62566E+01    rms(broyden)= 0.62565E+01
  rms(prec ) = 0.63792E+01
  weight for this iteration     100.00

 Free energy of the ion-electron system (eV)
  ---------------------------------------------------
  alpha Z        PSCENC =       805.86936440
  Ewald energy   TEWEN  =    200400.19806040
  -Hartree energ DENC   =   -242815.53913534
  -exchange      EXHF   =         0.00000000
  -V(xc)+E(xc)   XCENC  =      -327.56024237
  PAW double counting   =     40340.05962942   -38292.62782345
  entropy T*S    EENTRO =        -0.21595918
  eigenvalues    EBANDS =     -1976.12595918
  atomic energy  EATOM  =     41659.78587232
  Solvation  Ediel_sol  =         0.00000000
  ---------------------------------------------------
  free energy    TOTEN  =      -206.15619296 eV

  energy without entropy =     -205.94023378  energy(sigma->0) =     -206.04821337


--------------------------------------------------------------------------------------------------------




----------------------------------------- Iteration    1(   6)  ---------------------------------------


    POTLOK:  cpu time    0.0470: real time    0.0473
    SETDIJ:  cpu time    0.0063: real time    0.0063
    EDDIAG:  cpu time    1.5930: real time    1.6010
  RMM-DIIS:  cpu time    4.8971: real time    4.9239
    ORTHCH:  cpu time    0.3823: real time    0.3840
       DOS:  cpu time    0.0014: real time    0.0014
    CHARGE:  cpu time    0.2358: real time    0.2369
    MIXING:  cpu time    0.0024: real time    0.0024
    --------------------------------------------
      LOOP:  cpu time    7.1659: real time    7.2070

 eigenvalue-minimisations  :  3678
 total energy-change (2. order) : 0.7430341E+01  (-0.9431950E+01)
 number of electron     503.9998423 magnetization 
 augmentation part      192.0492991 magnetization 

 DIPCOR: dipole corrections for dipol
 direction  3 min pos     1,
 dipolmoment           0.000000      0.000000     -0.331664 electrons x Angstroem
 Tr[quadrupol]    -10352.834926

 energy correction for charged system         0.000000 eV
 dipol+quadrupol energy correction           -0.003876 eV
 added-field ion interaction          0.052495 eV  (added to PSCEN)


 Broyden mixing:
  rms(total) = 0.54090E+01    rms(broyden)= 0.54089E+01
  rms(prec ) = 0.55875E+01
  weight for this iteration     100.00

 eigenvalues of (default mixing * dielectric matrix)
  average eigenvalue GAMMA=   0.7832
  0.7832

 Free energy of the ion-electron system (eV)
  ---------------------------------------------------
  alpha Z        PSCENC =       805.91798345
  Ewald energy   TEWEN  =    200400.19806040
  -Hartree energ DENC   =   -242541.95991807
  -exchange      EXHF   =         0.00000000
  -V(xc)+E(xc)   XCENC  =      -339.99130756
  PAW double counting   =     43930.25105158   -41941.96478831
  entropy T*S    EENTRO =        -0.28480744
  eigenvalues    EBANDS =     -2170.67799868
  atomic energy  EATOM  =     41659.78587232
  Solvation  Ediel_sol  =         0.00000000
  ---------------------------------------------------
  free energy    TOTEN  =      -198.72585231 eV

  energy without entropy =     -198.44104487  energy(sigma->0) =     -198.58344859


--------------------------------------------------------------------------------------------------------




----------------------------------------- Iteration    1(   7)  ---------------------------------------


    POTLOK:  cpu time    0.0457: real time    0.0469
    SETDIJ:  cpu time    0.0054: real time    0.0057
    EDDIAG:  cpu time    1.5560: real time    1.5656
  RMM-DIIS:  cpu time    4.9107: real time    4.9404
    ORTHCH:  cpu time    0.3822: real time    0.3839
       DOS:  cpu time    0.0014: real time    0.0014
    CHARGE:  cpu time    0.2378: real time    0.2389
    MIXING:  cpu time    0.0023: real time    0.0023
    --------------------------------------------
      LOOP:  cpu time    7.1424: real time    7.1891

 eigenvalue-minimisations  :  3682
 total energy-change (2. order) :-0.7260948E+01  (-0.5156634E+01)
 number of electron     503.9998369 magnetization 
 augmentation part      195.9336427 magnetization 

 DIPCOR: dipole corrections for dipol
 direction  3 min pos     1,
 dipolmoment           0.000000      0.000000      1.058344 electrons x Angstroem
 Tr[quadrupol]    -10352.325498

 energy correction for charged system         0.000000 eV
 dipol+quadrupol energy correction           -0.039469 eV
 added-field ion interaction         -0.167513 eV  (added to PSCEN)


 Broyden mixing:
  rms(total) = 0.41701E+01    rms(broyden)= 0.41698E+01
  rms(prec ) = 0.47820E+01
  weight for this iteration     100.00

 eigenvalues of (default mixing * dielectric matrix)
  average eigenvalue GAMMA=   0.9722
  1.5358  0.4086

 Free energy of the ion-electron system (eV)
  ---------------------------------------------------
  alpha Z        PSCENC =       805.66238217
  Ewald energy   TEWEN  =    200400.19806040
  -Hartree energ DENC   =   -242418.36061347
  -exchange      EXHF   =         0.00000000
  -V(xc)+E(xc)   XCENC  =      -342.47303901
  PAW double counting   =     45490.29279781   -43528.92539172
  entropy T*S    EENTRO =        -0.15932071
  eigenvalues    EBANDS =     -2272.00754771
  atomic energy  EATOM  =     41659.78587232
  Solvation  Ediel_sol  =         0.00000000
  ---------------------------------------------------
  free energy    TOTEN  =      -205.98679991 eV

  energy without entropy =     -205.82747920  energy(sigma->0) =     -205.90713956


--------------------------------------------------------------------------------------------------------




----------------------------------------- Iteration    1(   8)  ---------------------------------------


    POTLOK:  cpu time    0.0454: real time    0.0460
    SETDIJ:  cpu time    0.0053: real time    0.0053
    EDDIAG:  cpu time    1.5946: real time    1.6036
  RMM-DIIS:  cpu time    4.8449: real time    4.8694
    ORTHCH:  cpu time    0.3831: real time    0.3849
       DOS:  cpu time    0.0014: real time    0.0015
    CHARGE:  cpu time    0.2318: real time    0.2329
    MIXING:  cpu time    0.0024: real time    0.0024
    --------------------------------------------
      LOOP:  cpu time    7.1097: real time    7.1496

 eigenvalue-minimisations  :  3674
 total energy-change (2. order) :-0.2488986E+02  (-0.9361510E+01)
 number of electron     503.9998368 magnetization 
 augmentation part      195.0242480 magnetization 

 DIPCOR: dipole corrections for dipol
 direction  3 min pos     1,
 dipolmoment           0.000000      0.000000     -2.233636 electrons x Angstroem
 Tr[quadrupol]    -10354.030361

 energy correction for charged system         0.000000 eV
 dipol+quadrupol energy correction           -0.175804 eV
 added-field ion interaction          0.353537 eV  (added to PSCEN)


 Broyden mixing:
  rms(total) = 0.47332E+01    rms(broyden)= 0.47329E+01
  rms(prec ) = 0.59161E+01
  weight for this iteration     100.00

 eigenvalues of (default mixing * dielectric matrix)
  average eigenvalue GAMMA=   0.9432
  2.1053  0.4752  0.2490

 Free energy of the ion-electron system (eV)
  ---------------------------------------------------
  alpha Z        PSCENC =       806.04709724
  Ewald energy   TEWEN  =    200400.19806040
  -Hartree energ DENC   =   -242411.59531985
  -exchange      EXHF   =         0.00000000
  -V(xc)+E(xc)   XCENC  =      -344.50330858
  PAW double counting   =     47267.52916349   -45332.29503612
  entropy T*S    EENTRO =        -0.32992272
  eigenvalues    EBANDS =     -2275.71326947
  atomic energy  EATOM  =     41659.78587232
  Solvation  Ediel_sol  =         0.00000000
  ---------------------------------------------------
  free energy    TOTEN  =      -230.87666329 eV

  energy without entropy =     -230.54674057  energy(sigma->0) =     -230.71170193


--------------------------------------------------------------------------------------------------------




----------------------------------------- Iteration    1(   9)  ---------------------------------------


    POTLOK:  cpu time    0.0450: real time    0.0455
    SETDIJ:  cpu time    0.0055: real time    0.0055
    EDDIAG:  cpu time    1.5802: real time    1.5887
  RMM-DIIS:  cpu time    4.8564: real time    4.8864
    ORTHCH:  cpu time    0.3814: real time    0.3832
       DOS:  cpu time    0.0015: real time    0.0015
    CHARGE:  cpu time    0.2375: real time    0.2388
    MIXING:  cpu time    0.0027: real time    0.0027
    --------------------------------------------
      LOOP:  cpu time    7.1109: real time    7.1561

 eigenvalue-minimisations  :  3676
 total energy-change (2. order) : 0.1837346E+02  (-0.5439941E+01)
 number of electron     503.9998342 magnetization 
 augmentation part      198.3942091 magnetization 

 DIPCOR: dipole corrections for dipol
 direction  3 min pos     1,
 dipolmoment           0.000000      0.000000      0.402688 electrons x Angstroem
 Tr[quadrupol]    -10355.013524

 energy correction for charged system         0.000000 eV
 dipol+quadrupol energy correction           -0.005714 eV
 added-field ion interaction         -0.063737 eV  (added to PSCEN)


 Broyden mixing:
  rms(total) = 0.37064E+01    rms(broyden)= 0.37061E+01
  rms(prec ) = 0.40693E+01
  weight for this iteration     100.00

 eigenvalues of (default mixing * dielectric matrix)
  average eigenvalue GAMMA=   0.8250
  2.2690  0.4588  0.2860  0.2860

 Free energy of the ion-electron system (eV)
  ---------------------------------------------------
  alpha Z        PSCENC =       805.79991345
  Ewald energy   TEWEN  =    200400.19806040
  -Hartree energ DENC   =   -242395.77905597
  -exchange      EXHF   =         0.00000000
  -V(xc)+E(xc)   XCENC  =      -346.41314804
  PAW double counting   =     48659.16705344   -46746.59192476
  entropy T*S    EENTRO =        -0.21748443
  eigenvalues    EBANDS =     -2248.45249045
  atomic energy  EATOM  =     41659.78587232
  Solvation  Ediel_sol  =         0.00000000
  ---------------------------------------------------
  free energy    TOTEN  =      -212.50320406 eV

  energy without entropy =     -212.28571962  energy(sigma->0) =     -212.39446184


--------------------------------------------------------------------------------------------------------




----------------------------------------- Iteration    1(  10)  ---------------------------------------


    POTLOK:  cpu time    0.0476: real time    0.0479
    SETDIJ:  cpu time    0.0063: real time    0.0063
    EDDIAG:  cpu time    1.5602: real time    1.6036
  RMM-DIIS:  cpu time    4.8910: real time    4.9661
    ORTHCH:  cpu time    0.3753: real time    0.3773
       DOS:  cpu time    0.0015: real time    0.0015
    CHARGE:  cpu time    0.2355: real time    0.2366
    MIXING:  cpu time    0.0027: real time    0.0027
    --------------------------------------------
      LOOP:  cpu time    7.1209: real time    7.2465

 eigenvalue-minimisations  :  3682
 total energy-change (2. order) : 0.1668452E+02  (-0.1961642E+01)
 number of electron     503.9998336 magnetization 
 augmentation part      199.6299711 magnetization 

 DIPCOR: dipole corrections for dipol
 direction  3 min pos     1,
 dipolmoment           0.000000      0.000000     -0.275209 electrons x Angstroem
 Tr[quadrupol]    -10353.405913

 energy correction for charged system         0.000000 eV
 dipol+quadrupol energy correction           -0.002669 eV
 added-field ion interaction          0.043560 eV  (added to PSCEN)


 Broyden mixing:
  rms(total) = 0.20178E+01    rms(broyden)= 0.20176E+01
  rms(prec ) = 0.23100E+01
  weight for this iteration     100.00

 eigenvalues of (default mixing * dielectric matrix)
  average eigenvalue GAMMA=   0.7675
  2.3136  0.4432  0.4432  0.4088  0.2286

 Free energy of the ion-electron system (eV)
  ---------------------------------------------------
  alpha Z        PSCENC =       805.91025515
  Ewald energy   TEWEN  =    200400.19806040
  -Hartree energ DENC   =   -242352.87425752
  -exchange      EXHF   =         0.00000000
  -V(xc)+E(xc)   XCENC  =      -346.13051578
  PAW double counting   =     49149.33118357   -47241.75481939
  entropy T*S    EENTRO =        -0.17702324
  eigenvalues    EBANDS =     -2270.10743619
  atomic energy  EATOM  =     41659.78587232
  Solvation  Ediel_sol  =         0.00000000
  ---------------------------------------------------
  free energy    TOTEN  =      -195.81868069 eV

  energy without entropy =     -195.64165745  energy(sigma->0) =     -195.73016907


--------------------------------------------------------------------------------------------------------




----------------------------------------- Iteration    1(  11)  ---------------------------------------


    POTLOK:  cpu time    0.0465: real time    0.0467
    SETDIJ:  cpu time    0.0055: real time    0.0055
    EDDIAG:  cpu time    1.5559: real time    1.5668
  RMM-DIIS:  cpu time    4.9165: real time    4.9414
    ORTHCH:  cpu time    0.3732: real time    0.3749
       DOS:  cpu time    0.0015: real time    0.0015
    CHARGE:  cpu time    0.2364: real time    0.2375
    MIXING:  cpu time    0.0027: real time    0.0027
    --------------------------------------------
      LOOP:  cpu time    7.1390: real time    7.1807

 eigenvalue-minimisations  :  3679
 total energy-change (2. order) : 0.4158611E+01  (-0.1267372E+01)
 number of electron     503.9998342 magnetization 
 augmentation part      198.6133606 magnetization 

 DIPCOR: dipole corrections for dipol
 direction  3 min pos     1,
 dipolmoment           0.000000      0.000000     -0.025317 electrons x Angstroem
 Tr[quadrupol]    -10354.614623

 energy correction for charged system         0.000000 eV
 dipol+quadrupol energy correction           -0.000023 eV
 added-field ion interaction          0.004007 eV  (added to PSCEN)


 Broyden mixing:
  rms(total) = 0.13478E+01    rms(broyden)= 0.13475E+01
  rms(prec ) = 0.15481E+01
  weight for this iteration     100.00

 eigenvalues of (default mixing * dielectric matrix)
  average eigenvalue GAMMA=   0.7192
  2.2311  0.5811  0.5811  0.3888  0.3121  0.2212

 Free energy of the ion-electron system (eV)
  ---------------------------------------------------
  alpha Z        PSCENC =       805.87334885
  Ewald energy   TEWEN  =    200400.19806040
  -Hartree energ DENC   =   -242424.85420808
  -exchange      EXHF   =         0.00000000
  -V(xc)+E(xc)   XCENC  =      -345.48083552
  PAW double counting   =     49312.58536258   -47402.41919569
  entropy T*S    EENTRO =        -0.22270012
  eigenvalues    EBANDS =     -2197.12577456
  atomic energy  EATOM  =     41659.78587232
  Solvation  Ediel_sol  =         0.00000000
  ---------------------------------------------------
  free energy    TOTEN  =      -191.66006982 eV

  energy without entropy =     -191.43736970  energy(sigma->0) =     -191.54871976


--------------------------------------------------------------------------------------------------------




----------------------------------------- Iteration    1(  12)  ---------------------------------------


    POTLOK:  cpu time    0.0453: real time    0.0456
    SETDIJ:  cpu time    0.0056: real time    0.0056
    EDDIAG:  cpu time    1.5872: real time    1.5951
  RMM-DIIS:  cpu time    4.9073: real time    4.9356
    ORTHCH:  cpu time    0.3726: real time    0.3744
       DOS:  cpu time    0.0014: real time    0.0014
    CHARGE:  cpu time    0.2309: real time    0.2320
    MIXING:  cpu time    0.0028: real time    0.0028
    --------------------------------------------
      LOOP:  cpu time    7.1539: real time    7.1954

 eigenvalue-minimisations  :  3680
 total energy-change (2. order) : 0.2443594E+01  (-0.5234132E+00)
 number of electron     503.9998357 magnetization 
 augmentation part      197.5570679 magnetization 

 DIPCOR: dipole corrections for dipol
 direction  3 min pos     1,
 dipolmoment           0.000000      0.000000     -0.038933 electrons x Angstroem
 Tr[quadrupol]    -10354.592598

 energy correction for charged system         0.000000 eV
 dipol+quadrupol energy correction           -0.000053 eV
 added-field ion interaction          0.006162 eV  (added to PSCEN)


 Broyden mixing:
  rms(total) = 0.10309E+01    rms(broyden)= 0.10307E+01
  rms(prec ) = 0.11443E+01
  weight for this iteration     100.00

 eigenvalues of (default mixing * dielectric matrix)
  average eigenvalue GAMMA=   0.6617
  2.2495  0.5073  0.5073  0.5442  0.3035  0.3035  0.2166

 Free energy of the ion-electron system (eV)
  ---------------------------------------------------
  alpha Z        PSCENC =       805.87547317
  Ewald energy   TEWEN  =    200400.19806040
  -Hartree energ DENC   =   -242460.36383998
  -exchange      EXHF   =         0.00000000
  -V(xc)+E(xc)   XCENC  =      -344.45386919
  PAW double counting   =     49305.48400075   -47390.31048380
  entropy T*S    EENTRO =        -0.22376761
  eigenvalues    EBANDS =     -2165.20792192
  atomic energy  EATOM  =     41659.78587232
  Solvation  Ediel_sol  =         0.00000000
  ---------------------------------------------------
  free energy    TOTEN  =      -189.21647585 eV

  energy without entropy =     -188.99270824  energy(sigma->0) =     -189.10459204


--------------------------------------------------------------------------------------------------------




----------------------------------------- Iteration    1(  13)  ---------------------------------------


    POTLOK:  cpu time    0.0451: real time    0.0453
    SETDIJ:  cpu time    0.0054: real time    0.0054
    EDDIAG:  cpu time    1.5699: real time    1.5790
  RMM-DIIS:  cpu time    4.8984: real time    4.9364
    ORTHCH:  cpu time    0.3714: real time    0.3760
       DOS:  cpu time    0.0015: real time    0.0015
    CHARGE:  cpu time    0.2328: real time    0.2363
    MIXING:  cpu time    0.0030: real time    0.0030
    --------------------------------------------
      LOOP:  cpu time    7.1282: real time    7.1857

 eigenvalue-minimisations  :  3678
 total energy-change (2. order) : 0.6389666E+00  (-0.1797182E+00)
 number of electron     503.9998362 magnetization 
 augmentation part      197.3943515 magnetization 

 DIPCOR: dipole corrections for dipol
 direction  3 min pos     1,
 dipolmoment           0.000000      0.000000     -0.016677 electrons x Angstroem
 Tr[quadrupol]    -10354.762107

 energy correction for charged system         0.000000 eV
 dipol+quadrupol energy correction           -0.000010 eV
 added-field ion interaction          0.002640 eV  (added to PSCEN)


 Broyden mixing:
  rms(total) = 0.64015E+00    rms(broyden)= 0.63999E+00
  rms(prec ) = 0.70366E+00
  weight for this iteration     100.00

 eigenvalues of (default mixing * dielectric matrix)
  average eigenvalue GAMMA=   0.6881
  2.2988  0.6806  0.6806  0.7456  0.3256  0.3256  0.2357  0.2122

 Free energy of the ion-electron system (eV)
  ---------------------------------------------------
  alpha Z        PSCENC =       805.87199412
  Ewald energy   TEWEN  =    200400.19806040
  -Hartree energ DENC   =   -242470.05875945
  -exchange      EXHF   =         0.00000000
  -V(xc)+E(xc)   XCENC  =      -344.27067213
  PAW double counting   =     49340.66400333   -47424.78168144
  entropy T*S    EENTRO =        -0.24216736
  eigenvalues    EBANDS =     -2155.74415906
  atomic energy  EATOM  =     41659.78587232
  Solvation  Ediel_sol  =         0.00000000
  ---------------------------------------------------
  free energy    TOTEN  =      -188.57750925 eV

  energy without entropy =     -188.33534190  energy(sigma->0) =     -188.45642557


--------------------------------------------------------------------------------------------------------




----------------------------------------- Iteration    1(  14)  ---------------------------------------


    POTLOK:  cpu time    0.0453: real time    0.0463
    SETDIJ:  cpu time    0.0054: real time    0.0054
    EDDIAG:  cpu time    1.5726: real time    1.5981
  RMM-DIIS:  cpu time    4.8984: real time    4.9235
    ORTHCH:  cpu time    0.3721: real time    0.3738
       DOS:  cpu time    0.0015: real time    0.0015
    CHARGE:  cpu time    0.2344: real time    0.2355
    MIXING:  cpu time    0.0032: real time    0.0032
    --------------------------------------------
      LOOP:  cpu time    7.1339: real time    7.1903

 eigenvalue-minimisations  :  3678
 total energy-change (2. order) :-0.4703839E-01  (-0.1088534E+00)
 number of electron     503.9998361 magnetization 
 augmentation part      197.5074913 magnetization 

 DIPCOR: dipole corrections for dipol
 direction  3 min pos     1,
 dipolmoment           0.000000      0.000000     -0.051759 electrons x Angstroem
 Tr[quadrupol]    -10355.095538

 energy correction for charged system         0.000000 eV
 dipol+quadrupol energy correction           -0.000094 eV
 added-field ion interaction          0.008192 eV  (added to PSCEN)


 Broyden mixing:
  rms(total) = 0.61161E+00    rms(broyden)= 0.61151E+00
  rms(prec ) = 0.68256E+00
  weight for this iteration     100.00

 eigenvalues of (default mixing * dielectric matrix)
  average eigenvalue GAMMA=   0.6875
  2.2761  0.8381  0.8381  0.7583  0.3799  0.3799  0.2583  0.2583  0.2004

 Free energy of the ion-electron system (eV)
  ---------------------------------------------------
  alpha Z        PSCENC =       805.87746220
  Ewald energy   TEWEN  =    200400.19806040
  -Hartree energ DENC   =   -242481.05617264
  -exchange      EXHF   =         0.00000000
  -V(xc)+E(xc)   XCENC  =      -344.20853407
  PAW double counting   =     49393.71439020   -47477.60142669
  entropy T*S    EENTRO =        -0.25372360
  eigenvalues    EBANDS =     -2145.08047576
  atomic energy  EATOM  =     41659.78587232
  Solvation  Ediel_sol  =         0.00000000
  ---------------------------------------------------
  free energy    TOTEN  =      -188.62454764 eV

  energy without entropy =     -188.37082404  energy(sigma->0) =     -188.49768584


--------------------------------------------------------------------------------------------------------




----------------------------------------- Iteration    1(  15)  ---------------------------------------


    POTLOK:  cpu time    0.0466: real time    0.0469
    SETDIJ:  cpu time    0.0058: real time    0.0058
    EDDIAG:  cpu time    1.5524: real time    1.5620
  RMM-DIIS:  cpu time    4.8209: real time    4.9336
    ORTHCH:  cpu time    0.3746: real time    0.3763
       DOS:  cpu time    0.0015: real time    0.0015
    CHARGE:  cpu time    0.2355: real time    0.2368
    MIXING:  cpu time    0.0035: real time    0.0035
    --------------------------------------------
      LOOP:  cpu time    7.0416: real time    7.1700

 eigenvalue-minimisations  :  3680
 total energy-change (2. order) : 0.1126801E+00  (-0.3099025E-01)
 number of electron     503.9998359 magnetization 
 augmentation part      197.5091062 magnetization 

 DIPCOR: dipole corrections for dipol
 direction  3 min pos     1,
 dipolmoment           0.000000      0.000000     -0.003513 electrons x Angstroem
 Tr[quadrupol]    -10355.213277

 energy correction for charged system         0.000000 eV
 dipol+quadrupol energy correction           -0.000000 eV
 added-field ion interaction          0.000556 eV  (added to PSCEN)


 Broyden mixing:
  rms(total) = 0.48700E+00    rms(broyden)= 0.48695E+00
  rms(prec ) = 0.54030E+00
  weight for this iteration     100.00

 eigenvalues of (default mixing * dielectric matrix)
  average eigenvalue GAMMA=   0.7115
  2.2214  1.1407  1.1407  0.6825  0.4653  0.4653  0.2791  0.2602  0.2602  0.1996

 Free energy of the ion-electron system (eV)
  ---------------------------------------------------
  alpha Z        PSCENC =       805.86991993
  Ewald energy   TEWEN  =    200400.19806040
  -Hartree energ DENC   =   -242488.16266462
  -exchange      EXHF   =         0.00000000
  -V(xc)+E(xc)   XCENC  =      -344.07214612
  PAW double counting   =     49387.14540151   -47470.02103154
  entropy T*S    EENTRO =        -0.27056958
  eigenvalues    EBANDS =     -2138.98470983
  atomic energy  EATOM  =     41659.78587232
  Solvation  Ediel_sol  =         0.00000000
  ---------------------------------------------------
  free energy    TOTEN  =      -188.51186752 eV

  energy without entropy =     -188.24129794  energy(sigma->0) =     -188.37658273


--------------------------------------------------------------------------------------------------------




----------------------------------------- Iteration    1(  16)  ---------------------------------------


    POTLOK:  cpu time    0.0453: real time    0.0454
    SETDIJ:  cpu time    0.0055: real time    0.0056
    EDDIAG:  cpu time    1.5798: real time    1.5873
  RMM-DIIS:  cpu time    4.8860: real time    4.9107
    ORTHCH:  cpu time    0.3753: real time    0.3770
       DOS:  cpu time    0.0015: real time    0.0015
    CHARGE:  cpu time    0.2303: real time    0.2313
    MIXING:  cpu time    0.0036: real time    0.0036
    --------------------------------------------
      LOOP:  cpu time    7.1280: real time    7.1664

 eigenvalue-minimisations  :  3681
 total energy-change (2. order) : 0.1468745E+00  (-0.2325136E-01)
 number of electron     503.9998360 magnetization 
 augmentation part      197.4375718 magnetization 

 DIPCOR: dipole corrections for dipol
 direction  3 min pos     1,
 dipolmoment           0.000000      0.000000     -0.000235 electrons x Angstroem
 Tr[quadrupol]    -10355.623709

 energy correction for charged system         0.000000 eV
 dipol+quadrupol energy correction           -0.000000 eV
 added-field ion interaction          0.000037 eV  (added to PSCEN)


 Broyden mixing:
  rms(total) = 0.37323E+00    rms(broyden)= 0.37318E+00
  rms(prec ) = 0.42378E+00
  weight for this iteration     100.00

 eigenvalues of (default mixing * dielectric matrix)
  average eigenvalue GAMMA=   0.7201
  2.1335  1.4176  1.4176  0.5823  0.5154  0.5154  0.3339  0.3339  0.2378  0.2378
  0.1962

 Free energy of the ion-electron system (eV)
  ---------------------------------------------------
  alpha Z        PSCENC =       805.86940153
  Ewald energy   TEWEN  =    200400.19806040
  -Hartree energ DENC   =   -242508.38907530
  -exchange      EXHF   =         0.00000000
  -V(xc)+E(xc)   XCENC  =      -343.85207188
  PAW double counting   =     49380.26923586   -47461.37098872
  entropy T*S    EENTRO =        -0.26955678
  eigenvalues    EBANDS =     -2120.60587046
  atomic energy  EATOM  =     41659.78587232
  Solvation  Ediel_sol  =         0.00000000
  ---------------------------------------------------
  free energy    TOTEN  =      -188.36499303 eV

  energy without entropy =     -188.09543625  energy(sigma->0) =     -188.23021464


--------------------------------------------------------------------------------------------------------




----------------------------------------- Iteration    1(  17)  ---------------------------------------


    POTLOK:  cpu time    0.0457: real time    0.0460
    SETDIJ:  cpu time    0.0062: real time    0.0062
    EDDIAG:  cpu time    1.5717: real time    1.5815
  RMM-DIIS:  cpu time    4.9024: real time    4.9269
    ORTHCH:  cpu time    0.3731: real time    0.3751
       DOS:  cpu time    0.0015: real time    0.0015
    CHARGE:  cpu time    0.2373: real time    0.2384
    MIXING:  cpu time    0.0038: real time    0.0038
    --------------------------------------------
      LOOP:  cpu time    7.1424: real time    7.1835

 eigenvalue-minimisations  :  3679
 total energy-change (2. order) : 0.1078205E+00  (-0.1408158E-01)
 number of electron     503.9998361 magnetization 
 augmentation part      197.3162278 magnetization 

 DIPCOR: dipole corrections for dipol
 direction  3 min pos     1,
 dipolmoment           0.000000      0.000000     -0.010038 electrons x Angstroem
 Tr[quadrupol]    -10355.945226

 energy correction for charged system         0.000000 eV
 dipol+quadrupol energy correction           -0.000004 eV
 added-field ion interaction          0.001589 eV  (added to PSCEN)


 Broyden mixing:
  rms(total) = 0.23940E+00    rms(broyden)= 0.23936E+00
  rms(prec ) = 0.27143E+00
  weight for this iteration     100.00

 eigenvalues of (default mixing * dielectric matrix)
  average eigenvalue GAMMA=   0.7243
  1.9444  1.9444  1.4307  0.5700  0.5700  0.5162  0.3981  0.3981  0.2493  0.2493
  0.1974  0.2237

 Free energy of the ion-electron system (eV)
  ---------------------------------------------------
  alpha Z        PSCENC =       805.87094946
  Ewald energy   TEWEN  =    200400.19806040
  -Hartree energ DENC   =   -242525.47379970
  -exchange      EXHF   =         0.00000000
  -V(xc)+E(xc)   XCENC  =      -343.65158103
  PAW double counting   =     49384.32687351   -47464.00310192
  entropy T*S    EENTRO =        -0.27384334
  eigenvalues    EBANDS =     -2105.03660222
  atomic energy  EATOM  =     41659.78587232
  Solvation  Ediel_sol  =         0.00000000
  ---------------------------------------------------
  free energy    TOTEN  =      -188.25717251 eV

  energy without entropy =     -187.98332917  energy(sigma->0) =     -188.12025084


--------------------------------------------------------------------------------------------------------




----------------------------------------- Iteration    1(  18)  ---------------------------------------


    POTLOK:  cpu time    0.0463: real time    0.0465
    SETDIJ:  cpu time    0.0055: real time    0.0055
    EDDIAG:  cpu time    1.5822: real time    1.5899
  RMM-DIIS:  cpu time    4.8805: real time    4.9063
    ORTHCH:  cpu time    0.3726: real time    0.3743
       DOS:  cpu time    0.0015: real time    0.0015
    CHARGE:  cpu time    0.2367: real time    0.2378
    MIXING:  cpu time    0.0038: real time    0.0038
    --------------------------------------------
      LOOP:  cpu time    7.1299: real time    7.1687

 eigenvalue-minimisations  :  3678
 total energy-change (2. order) : 0.5686924E-01  (-0.5387918E-02)
 number of electron     503.9998363 magnetization 
 augmentation part      197.2100174 magnetization 

 DIPCOR: dipole corrections for dipol
 direction  3 min pos     1,
 dipolmoment           0.000000      0.000000     -0.017116 electrons x Angstroem
 Tr[quadrupol]    -10356.143731

 energy correction for charged system         0.000000 eV
 dipol+quadrupol energy correction           -0.000010 eV
 added-field ion interaction          0.002709 eV  (added to PSCEN)


 Broyden mixing:
  rms(total) = 0.12518E+00    rms(broyden)= 0.12516E+00
  rms(prec ) = 0.14420E+00
  weight for this iteration     100.00

 eigenvalues of (default mixing * dielectric matrix)
  average eigenvalue GAMMA=   0.7319
  2.1769  2.1769  1.3042  0.6144  0.6144  0.5049  0.4426  0.4426  0.2816  0.2816
  0.2515  0.1964  0.2268

 Free energy of the ion-electron system (eV)
  ---------------------------------------------------
  alpha Z        PSCENC =       805.87206301
  Ewald energy   TEWEN  =    200400.19806040
  -Hartree energ DENC   =   -242536.29910968
  -exchange      EXHF   =         0.00000000
  -V(xc)+E(xc)   XCENC  =      -343.51027740
  PAW double counting   =     49393.74861060   -47472.56236585
  entropy T*S    EENTRO =        -0.26858697
  eigenvalues    EBANDS =     -2095.16456971
  atomic energy  EATOM  =     41659.78587232
  Solvation  Ediel_sol  =         0.00000000
  ---------------------------------------------------
  free energy    TOTEN  =      -188.20030328 eV

  energy without entropy =     -187.93171630  energy(sigma->0) =     -188.06600979


--------------------------------------------------------------------------------------------------------




----------------------------------------- Iteration    1(  19)  ---------------------------------------


    POTLOK:  cpu time    0.0477: real time    0.0480
    SETDIJ:  cpu time    0.0055: real time    0.0055
    EDDIAG:  cpu time    1.5534: real time    1.5611
  RMM-DIIS:  cpu time    4.8910: real time    4.9169
    ORTHCH:  cpu time    0.3743: real time    0.3760
       DOS:  cpu time    0.0014: real time    0.0014
    CHARGE:  cpu time    0.2369: real time    0.2379
    MIXING:  cpu time    0.0040: real time    0.0041
    --------------------------------------------
      LOOP:  cpu time    7.1151: real time    7.1560

 eigenvalue-minimisations  :  3681
 total energy-change (2. order) : 0.1625064E-01  (-0.2564780E-02)
 number of electron     503.9998363 magnetization 
 augmentation part      197.1479484 magnetization 

 DIPCOR: dipole corrections for dipol
 direction  3 min pos     1,
 dipolmoment           0.000000      0.000000     -0.016018 electrons x Angstroem
 Tr[quadrupol]    -10356.333781

 energy correction for charged system         0.000000 eV
 dipol+quadrupol energy correction           -0.000009 eV
 added-field ion interaction          0.002535 eV  (added to PSCEN)


 Broyden mixing:
  rms(total) = 0.74353E-01    rms(broyden)= 0.74330E-01
  rms(prec ) = 0.85176E-01
  weight for this iteration     100.00

 eigenvalues of (default mixing * dielectric matrix)
  average eigenvalue GAMMA=   0.7150
  2.1542  2.1542  1.3683  0.6550  0.6550  0.5379  0.4802  0.4802  0.3149  0.3149
  0.2451  0.2451  0.1956  0.2094

 Free energy of the ion-electron system (eV)
  ---------------------------------------------------
  alpha Z        PSCENC =       805.87189058
  Ewald energy   TEWEN  =    200400.19806040
  -Hartree energ DENC   =   -242545.16829181
  -exchange      EXHF   =         0.00000000
  -V(xc)+E(xc)   XCENC  =      -343.41865658
  PAW double counting   =     49404.61458176   -47482.90539895
  entropy T*S    EENTRO =        -0.26717824
  eigenvalues    EBANDS =     -2086.89493211
  atomic energy  EATOM  =     41659.78587232
  Solvation  Ediel_sol  =         0.00000000
  ---------------------------------------------------
  free energy    TOTEN  =      -188.18405263 eV

  energy without entropy =     -187.91687439  energy(sigma->0) =     -188.05046351


--------------------------------------------------------------------------------------------------------




----------------------------------------- Iteration    1(  20)  ---------------------------------------


    POTLOK:  cpu time    0.0451: real time    0.0454
    SETDIJ:  cpu time    0.0055: real time    0.0055
    EDDIAG:  cpu time    1.5760: real time    1.5837
  RMM-DIIS:  cpu time    4.8892: real time    4.9134
    ORTHCH:  cpu time    0.3730: real time    0.3748
       DOS:  cpu time    0.0015: real time    0.0015
    CHARGE:  cpu time    0.2300: real time    0.2311
    MIXING:  cpu time    0.0042: real time    0.0042
    --------------------------------------------
      LOOP:  cpu time    7.1253: real time    7.1622

 eigenvalue-minimisations  :  3682
 total energy-change (2. order) : 0.4998801E-02  (-0.4595645E-03)
 number of electron     503.9998364 magnetization 
 augmentation part      197.1325001 magnetization 

 DIPCOR: dipole corrections for dipol
 direction  3 min pos     1,
 dipolmoment           0.000000      0.000000     -0.010059 electrons x Angstroem
 Tr[quadrupol]    -10356.406223

 energy correction for charged system         0.000000 eV
 dipol+quadrupol energy correction           -0.000004 eV
 added-field ion interaction          0.001592 eV  (added to PSCEN)


 Broyden mixing:
  rms(total) = 0.42046E-01    rms(broyden)= 0.42037E-01
  rms(prec ) = 0.46823E-01
  weight for this iteration     100.00

 eigenvalues of (default mixing * dielectric matrix)
  average eigenvalue GAMMA=   0.7073
  2.0638  2.0638  1.5220  0.7425  0.7425  0.5240  0.5240  0.5248  0.3615  0.3615
  0.2618  0.2523  0.2523  0.1963  0.2168

 Free energy of the ion-electron system (eV)
  ---------------------------------------------------
  alpha Z        PSCENC =       805.87095278
  Ewald energy   TEWEN  =    200400.19806040
  -Hartree energ DENC   =   -242548.14765200
  -exchange      EXHF   =         0.00000000
  -V(xc)+E(xc)   XCENC  =      -343.39625791
  PAW double counting   =     49409.15164317   -47487.36323352
  entropy T*S    EENTRO =        -0.26646927
  eigenvalues    EBANDS =     -2084.01196981
  atomic energy  EATOM  =     41659.78587232
  Solvation  Ediel_sol  =         0.00000000
  ---------------------------------------------------
  free energy    TOTEN  =      -188.17905383 eV

  energy without entropy =     -187.91258456  energy(sigma->0) =     -188.04581920


--------------------------------------------------------------------------------------------------------




----------------------------------------- Iteration    1(  21)  ---------------------------------------


    POTLOK:  cpu time    0.0452: real time    0.0456
    SETDIJ:  cpu time    0.0057: real time    0.0057
    EDDIAG:  cpu time    1.5693: real time    1.5767
  RMM-DIIS:  cpu time    4.8127: real time    4.9393
    ORTHCH:  cpu time    0.3733: real time    0.3750
       DOS:  cpu time    0.0015: real time    0.0015
    CHARGE:  cpu time    0.2367: real time    0.2378
    MIXING:  cpu time    0.0042: real time    0.0043
    --------------------------------------------
      LOOP:  cpu time    7.0493: real time    7.1886

 eigenvalue-minimisations  :  3683
 total energy-change (2. order) : 0.1035352E-02  (-0.1655563E-03)
 number of electron     503.9998364 magnetization 
 augmentation part      197.1269823 magnetization 

 DIPCOR: dipole corrections for dipol
 direction  3 min pos     1,
 dipolmoment           0.000000      0.000000     -0.005479 electrons x Angstroem
 Tr[quadrupol]    -10356.480882

 energy correction for charged system         0.000000 eV
 dipol+quadrupol energy correction           -0.000001 eV
 added-field ion interaction          0.000867 eV  (added to PSCEN)


 Broyden mixing:
  rms(total) = 0.32808E-01    rms(broyden)= 0.32804E-01
  rms(prec ) = 0.36704E-01
  weight for this iteration     100.00

 eigenvalues of (default mixing * dielectric matrix)
  average eigenvalue GAMMA=   0.7487
  2.3433  1.8360  1.8360  0.9615  0.9615  0.5939  0.5939  0.4978  0.4978  0.3893
  0.3077  0.2537  0.2537  0.2442  0.1961  0.2131

 Free energy of the ion-electron system (eV)
  ---------------------------------------------------
  alpha Z        PSCENC =       805.87023050
  Ewald energy   TEWEN  =    200400.19806040
  -Hartree energ DENC   =   -242550.96939976
  -exchange      EXHF   =         0.00000000
  -V(xc)+E(xc)   XCENC  =      -343.38214045
  PAW double counting   =     49412.88702278   -47491.07567629
  entropy T*S    EENTRO =        -0.26659110
  eigenvalues    EBANDS =     -2081.22539688
  atomic energy  EATOM  =     41659.78587232
  Solvation  Ediel_sol  =         0.00000000
  ---------------------------------------------------
  free energy    TOTEN  =      -188.17801848 eV

  energy without entropy =     -187.91142738  energy(sigma->0) =     -188.04472293


--------------------------------------------------------------------------------------------------------




----------------------------------------- Iteration    1(  22)  ---------------------------------------


    POTLOK:  cpu time    0.0456: real time    0.0459
    SETDIJ:  cpu time    0.0055: real time    0.0055
    EDDIAG:  cpu time    1.5871: real time    1.5949
  RMM-DIIS:  cpu time    4.8433: real time    4.9095
    ORTHCH:  cpu time    0.3713: real time    0.3731
       DOS:  cpu time    0.0015: real time    0.0015
    CHARGE:  cpu time    0.2384: real time    0.2396
    MIXING:  cpu time    0.0044: real time    0.0045
    --------------------------------------------
      LOOP:  cpu time    7.0982: real time    7.1777

 eigenvalue-minimisations  :  3680
 total energy-change (2. order) : 0.5470345E-03  (-0.1404543E-03)
 number of electron     503.9998364 magnetization 
 augmentation part      197.1148387 magnetization 

 DIPCOR: dipole corrections for dipol
 direction  3 min pos     1,
 dipolmoment           0.000000      0.000000     -0.006473 electrons x Angstroem
 Tr[quadrupol]    -10356.651859

 energy correction for charged system         0.000000 eV
 dipol+quadrupol energy correction           -0.000001 eV
 added-field ion interaction          0.001025 eV  (added to PSCEN)


 Broyden mixing:
  rms(total) = 0.29526E-01    rms(broyden)= 0.29522E-01
  rms(prec ) = 0.33863E-01
  weight for this iteration     100.00

 eigenvalues of (default mixing * dielectric matrix)
  average eigenvalue GAMMA=   0.7683
  2.4181  2.1011  2.1011  1.0592  0.9173  0.6135  0.6135  0.5177  0.4780  0.4780
  0.3101  0.3101  0.2508  0.2508  0.1960  0.2323  0.2133

 Free energy of the ion-electron system (eV)
  ---------------------------------------------------
  alpha Z        PSCENC =       805.87038733
  Ewald energy   TEWEN  =    200400.19806040
  -Hartree energ DENC   =   -242557.53112929
  -exchange      EXHF   =         0.00000000
  -V(xc)+E(xc)   XCENC  =      -343.35248043
  PAW double counting   =     49418.89432452   -47497.01444246
  entropy T*S    EENTRO =        -0.26704889
  eigenvalues    EBANDS =     -2074.76101494
  atomic energy  EATOM  =     41659.78587232
  Solvation  Ediel_sol  =         0.00000000
  ---------------------------------------------------
  free energy    TOTEN  =      -188.17747144 eV

  energy without entropy =     -187.91042255  energy(sigma->0) =     -188.04394700


--------------------------------------------------------------------------------------------------------




----------------------------------------- Iteration    1(  23)  ---------------------------------------


    POTLOK:  cpu time    0.0460: real time    0.0463
    SETDIJ:  cpu time    0.0054: real time    0.0054
    EDDIAG:  cpu time    1.5537: real time    1.5623
  RMM-DIIS:  cpu time    4.8610: real time    4.8868
    ORTHCH:  cpu time    0.3709: real time    0.3727
       DOS:  cpu time    0.0015: real time    0.0015
    CHARGE:  cpu time    0.2350: real time    0.2361
    MIXING:  cpu time    0.0046: real time    0.0046
    --------------------------------------------
      LOOP:  cpu time    7.0789: real time    7.1194

 eigenvalue-minimisations  :  3678
 total energy-change (2. order) : 0.8451831E-03  (-0.1360339E-03)
 number of electron     503.9998364 magnetization 
 augmentation part      197.0994602 magnetization 

 DIPCOR: dipole corrections for dipol
 direction  3 min pos     1,
 dipolmoment           0.000000      0.000000     -0.006800 electrons x Angstroem
 Tr[quadrupol]    -10356.799447

 energy correction for charged system         0.000000 eV
 dipol+quadrupol energy correction           -0.000002 eV
[...]
    275       1.7288      0.00000
    276       1.8209      0.00000
    277       2.1500      0.00000
    278       2.2093      0.00000
    279       2.2687      0.00000
    280       2.3547      0.00000
    281       2.4578      0.00000
    282       2.5579      0.00000
    283       2.6487      0.00000
    284       2.9684      0.00000
    285       3.1706      0.00000
    286       3.2814      0.00000
    287       3.4518      0.00000
    288       3.6563      0.00000
    289       3.7621      0.00000
    290       3.9627      0.00000
    291       4.1079      0.00000
    292       4.1554      0.00000
    293       4.4133      0.00000
    294       4.5261      0.00000
    295       4.6190      0.00000
    296       4.6372      0.00000
    297       4.7141      0.00000
    298       4.7979      0.00000
    299       4.8730      0.00000
    300       4.9580      0.00000
    301       4.9850      0.00000
    302       5.0515      0.00000
    303       5.0757      0.00000
    304       5.1361      0.00000
    305       5.2073      0.00000
    306       5.2376      0.00000


--------------------------------------------------------------------------------------------------------


 soft charge-density along one line, spin component           1
         0         1         2         3         4         5         6         7         8         9
 total charge-density along one line
 
 pseudopotential strength for first ion, spin component:           1
 -8.138   0.004   0.004  -0.003   0.000  -8.283   0.004   0.004
  0.004  -8.084  -0.006   0.001  -0.001   0.004  -8.230  -0.006
  0.004  -0.006  -8.104   0.008   0.002   0.004  -0.006  -8.249
 -0.003   0.001   0.008  -8.090   0.003  -0.003   0.001   0.008
  0.000  -0.001   0.002   0.003  -8.139   0.000  -0.001   0.002
 -8.283   0.004   0.004  -0.003   0.000  -8.411   0.004   0.004
  0.004  -8.230  -0.006   0.001  -0.001   0.004  -8.360  -0.005
  0.004  -0.006  -8.249   0.008   0.002   0.004  -0.005  -8.379
 -0.003   0.001   0.008  -8.235   0.003  -0.003   0.001   0.008
  0.000  -0.001   0.002   0.003  -8.284   0.000  -0.001   0.002
 -0.000   0.003  -0.012  -0.005   0.002  -0.000   0.003  -0.013
 -0.001   0.004  -0.018  -0.007   0.003  -0.001   0.004  -0.018
  0.002   0.000   0.002   0.000   0.003   0.002   0.000   0.002
  0.000  -0.003   0.000   0.002   0.000   0.000  -0.003   0.000
 -0.003   0.000  -0.001   0.000   0.002  -0.003   0.000  -0.001
  0.003   0.000   0.002  -0.000   0.004   0.003   0.000   0.002
 -0.000  -0.004   0.000   0.002   0.000  -0.000  -0.004   0.000
 -0.004  -0.000  -0.001   0.000   0.002  -0.004  -0.000  -0.001
 total augmentation occupancy for first ion, spin component:           1
  5.025  -0.059   0.039   0.230  -0.097  -3.115   0.067   0.000  -0.245   0.097  -0.016   0.068  -0.035   0.004   0.010   0.004
 -0.059   4.959  -0.167   0.022   0.102   0.067  -2.627   0.085   0.020  -0.134  -0.086  -0.022   0.007  -0.009   0.003  -0.000
  0.039  -0.167   4.724   0.273  -0.145  -0.001   0.086  -2.796  -0.164   0.133   0.605  -0.120  -0.016   0.006   0.008   0.003
  0.230   0.022   0.273   4.927  -0.102  -0.245   0.021  -0.163  -2.649   0.101   0.164   0.044   0.002   0.003  -0.007  -0.000
 -0.097   0.102  -0.145  -0.102   5.146   0.097  -0.135   0.133   0.100  -3.241  -0.113   0.031  -0.009  -0.010   0.024   0.004
 -3.115   0.067  -0.001  -0.245   0.097   3.112  -0.073  -0.031   0.255  -0.096   0.010  -0.055   0.028  -0.003  -0.005  -0.002
  0.067  -2.627   0.086   0.021  -0.135  -0.073   2.281  -0.021  -0.055   0.160   0.077   0.014  -0.005   0.011  -0.002   0.000
  0.000   0.085  -2.796  -0.163   0.133  -0.031  -0.021   2.763   0.074  -0.122  -0.600   0.134   0.011  -0.007  -0.005  -0.001
 -0.245   0.020  -0.164  -2.649   0.100   0.255  -0.055   0.074   2.350  -0.099  -0.154  -0.029  -0.001  -0.004   0.007   0.000
  0.097  -0.134   0.133   0.101  -3.241  -0.096   0.160  -0.122  -0.099   3.238   0.108  -0.033   0.004   0.009  -0.024  -0.001
 -0.016  -0.086   0.605   0.164  -0.113   0.010   0.077  -0.600  -0.154   0.108   2.679  -0.683   0.001  -0.001  -0.001  -0.000
  0.068  -0.022  -0.120   0.044   0.031  -0.055   0.014   0.134  -0.029  -0.033  -0.683   0.209   0.009   0.000  -0.006  -0.000
 -0.035   0.007  -0.016   0.002  -0.009   0.028  -0.005   0.011  -0.001   0.004   0.001   0.009   0.200   0.007  -0.005  -0.007
  0.004  -0.009   0.006   0.003  -0.010  -0.003   0.011  -0.007  -0.004   0.009  -0.001   0.000   0.007   0.147  -0.014  -0.000
  0.010   0.003   0.008  -0.007   0.024  -0.005  -0.002  -0.005   0.007  -0.024  -0.001  -0.006  -0.005  -0.014   0.210  -0.000
  0.004  -0.000   0.003  -0.000   0.004  -0.002   0.000  -0.001   0.000  -0.001  -0.000  -0.000  -0.007  -0.000  -0.000   0.000
 -0.000  -0.003   0.000   0.002   0.000   0.000   0.000   0.000  -0.000  -0.000   0.000   0.000  -0.000  -0.005   0.000  -0.000
 -0.004  -0.000  -0.002   0.000   0.001   0.001   0.000   0.001  -0.000   0.001   0.000   0.000  -0.000   0.000  -0.007   0.000


------------------------ aborting loop because EDIFF is reached ----------------------------------------


    CHARGE:  cpu time    0.2233: real time    0.2245
    FORLOC:  cpu time    0.0159: real time    0.0159
    FORNL :  cpu time    1.8563: real time    1.8654
    FORCOR:  cpu time    0.0585: real time    0.0617
    FORHAR:  cpu time    0.0257: real time    0.0258
    MIXING:  cpu time    0.0035: real time    0.0035
    OFIELD:  cpu time    0.0000: real time    0.0000

 VOLUME and BASIS-vectors are now :
 -----------------------------------------------------------------------------
  energy-cutoff  :      400.00
  volume of cell :     2567.68
      direct lattice vectors                 reciprocal lattice vectors
    11.002581515  0.000000000  0.000000000     0.090887761 -0.052474073  0.000000000
     5.501290758  9.528515099  0.000000000     0.000000000  0.104948147  0.000000000
     0.000000000  0.000000000 24.491785094     0.000000000  0.000000000  0.040830017

  length of vectors
    11.002581515 11.002581515 24.491785094     0.104948147  0.104948147  0.040830017


 FORCES acting on ions
    electron-ion (+dipol)            ewald-force                    non-local-force                 convergence-correction
 -----------------------------------------------------------------------------------------------
   0.288E+01 -.541E+00 0.289E+02   -.325E+01 0.114E+01 -.289E+02   0.376E+00 -.592E+00 0.993E-02   -.419E-02 0.158E-02 0.352E-03
   -.512E+01 0.453E+01 0.232E+04   0.485E+01 -.436E+01 -.232E+04   0.274E+00 -.176E+00 0.824E-01   -.129E-02 0.228E-02 0.766E-03
   -.304E+01 -.695E+01 -.229E+04   0.288E+01 0.665E+01 0.229E+04   0.159E+00 0.302E+00 -.319E-01   -.170E-02 -.255E-02 -.217E-02
   -.683E+01 0.241E+01 0.138E+02   0.669E+01 -.198E+01 -.138E+02   0.143E+00 -.412E+00 -.643E-01   -.651E-03 -.300E-02 -.183E-02
   0.614E+01 0.242E+02 0.233E+04   -.610E+01 -.252E+02 -.233E+04   -.412E-01 0.915E+00 0.345E+00   -.492E-02 0.178E-02 0.231E-02
   -.363E+01 -.103E+02 0.224E+04   0.384E+01 0.107E+02 -.224E+04   -.205E+00 -.429E+00 -.780E+00   -.340E-02 0.126E-03 -.190E-02
   -.268E+01 0.657E+01 0.506E+02   0.256E+01 -.608E+01 -.500E+02   0.111E+00 -.491E+00 -.604E+00   -.313E-02 0.379E-02 0.548E-03
   -.278E+01 -.223E+01 -.231E+04   0.332E+01 0.222E+01 0.231E+04   -.533E+00 0.144E-01 -.306E+00   -.370E-02 -.607E-03 -.756E-03
   0.896E+01 -.576E+01 -.385E+02   -.862E+01 0.525E+01 0.380E+02   -.345E+00 0.505E+00 0.448E+00   -.513E-03 0.128E-02 0.505E-03
   -.421E+00 0.366E+01 0.121E+02   0.816E+00 -.321E+01 -.120E+02   -.396E+00 -.476E+00 -.457E-01   0.323E-02 0.301E-02 0.257E-02
   0.592E+00 -.258E+02 0.230E+04   -.103E+01 0.269E+02 -.230E+04   0.435E+00 -.105E+01 0.593E-01   -.434E-03 0.146E-02 0.725E-03
   -.615E+01 -.298E+02 -.227E+04   0.610E+01 0.310E+02 0.227E+04   0.493E-01 -.122E+01 -.727E-01   0.295E-02 -.489E-02 -.683E-03
   -.342E+00 0.333E+00 -.221E+04   0.684E+00 -.128E+00 0.221E+04   -.327E+00 -.216E+00 0.327E+00   -.758E-02 0.428E-02 -.761E-04
   0.174E+02 0.757E+01 0.228E+04   -.179E+02 -.718E+01 -.228E+04   0.519E+00 -.384E+00 -.326E+00   0.194E-03 -.156E-02 0.353E-04
   0.504E+01 -.174E+01 -.229E+04   -.555E+01 0.150E+01 0.229E+04   0.513E+00 0.232E+00 0.388E+00   0.509E-02 -.396E-02 -.756E-03
   -.795E+01 0.101E+01 -.360E+02   0.778E+01 -.940E+00 0.350E+02   0.174E+00 -.626E-01 0.102E+01   0.293E-02 -.577E-02 -.197E-02
   -.170E+02 0.180E+02 0.228E+04   0.177E+02 -.188E+02 -.228E+04   -.704E+00 0.846E+00 -.130E+00   -.135E-02 0.217E-02 -.113E-02
   0.592E+01 0.266E+02 -.230E+04   -.623E+01 -.266E+02 0.230E+04   0.299E+00 0.722E-01 0.848E-01   0.584E-02 -.237E-02 -.628E-03
   0.118E+02 -.111E+02 -.257E+02   -.112E+02 0.108E+02 0.257E+02   -.695E+00 0.250E+00 -.296E-01   0.127E-02 0.555E-03 -.130E-02
   -.140E+01 -.128E+02 -.217E+02   0.768E+00 0.117E+02 0.205E+02   0.641E+00 0.106E+01 0.119E+01   -.668E-02 0.270E-02 0.663E-03
   -.519E+01 0.209E+02 -.223E+04   0.554E+01 -.216E+02 0.223E+04   -.349E+00 0.681E+00 0.158E+00   -.523E-02 0.318E-02 0.167E-02
   -.957E+00 0.142E+01 0.199E+02   0.718E+00 -.194E+01 -.199E+02   0.231E+00 0.525E+00 -.422E-02   0.481E-02 -.179E-02 -.800E-03
   0.101E+01 -.159E+02 0.228E+04   -.945E+00 0.162E+02 -.228E+04   -.664E-01 -.294E+00 -.204E+00   0.249E-02 -.209E-02 -.285E-02
   0.581E+01 -.181E+02 -.230E+04   -.585E+01 0.179E+02 0.230E+04   0.433E-01 0.166E+00 -.420E+00   -.308E-02 0.280E-02 -.134E-02
   0.164E+01 -.258E+02 0.201E+04   -.158E+01 0.260E+02 -.201E+04   -.613E-01 -.243E+00 -.161E+01   0.581E-03 -.843E-03 -.398E-03
   -.945E+01 0.150E+01 -.193E+04   0.971E+01 -.140E+01 0.193E+04   -.262E+00 -.103E+00 0.189E+01   0.741E-03 0.305E-03 0.201E-02
   -.505E+00 0.232E+02 -.199E+04   0.551E+00 -.234E+02 0.199E+04   -.458E-01 0.204E+00 0.158E+01   0.117E-02 -.122E-03 0.227E-02
   -.738E+01 0.184E+02 0.197E+04   0.749E+01 -.188E+02 -.197E+04   -.111E+00 0.455E+00 -.136E+01   0.353E-02 -.109E-02 0.163E-02
   0.178E+00 0.234E+01 -.200E+04   -.472E-01 -.243E+01 0.200E+04   -.133E+00 0.856E-01 0.139E+01   0.191E-02 -.329E-02 0.162E-02
   0.448E+01 0.172E+02 0.198E+04   -.438E+01 -.174E+02 -.198E+04   -.110E+00 0.195E+00 -.169E+01   0.177E-02 -.118E-02 -.141E-02
   0.202E+01 0.406E-01 0.260E+02   -.229E+01 -.599E+00 -.256E+02   0.279E+00 0.566E+00 -.411E+00   -.879E-03 0.993E-03 -.155E-05
   -.115E+02 -.148E+02 0.199E+04   0.118E+02 0.150E+02 -.199E+04   -.305E+00 -.226E+00 -.153E+01   0.273E-02 -.127E-02 -.919E-03
   0.200E+01 -.237E+02 -.193E+04   -.195E+01 0.243E+02 0.193E+04   -.454E-01 -.599E+00 0.155E+01   -.177E-03 -.192E-03 -.271E-02
   -.571E+01 -.346E+01 0.198E+04   0.585E+01 0.352E+01 -.197E+04   -.144E+00 -.530E-01 -.149E+01   -.150E-02 0.447E-03 -.319E-03
   -.736E+00 0.601E+01 0.139E+02   0.935E+00 -.563E+01 -.139E+02   -.196E+00 -.387E+00 0.274E-02   -.664E-02 0.487E-02 0.198E-02
   0.766E+01 -.257E+01 0.356E+02   -.701E+01 0.300E+01 -.353E+02   -.656E+00 -.417E+00 -.349E+00   -.150E-02 -.117E-02 -.248E-02
   -.203E+01 0.801E+01 0.841E+02   0.179E+01 -.791E+01 -.833E+02   0.237E+00 -.962E-01 -.816E+00   0.742E-03 0.739E-03 -.711E-03
   0.645E+00 0.194E+02 -.197E+04   -.650E+00 -.194E+02 0.197E+04   0.101E-01 0.206E-01 0.168E+01   -.500E-03 -.152E-02 -.251E-02
   -.270E+01 -.568E+01 -.558E+02   0.264E+01 0.514E+01 0.550E+02   0.517E-01 0.545E+00 0.764E+00   -.125E-02 -.153E-02 0.120E-02
   0.110E+02 -.741E+01 0.196E+04   -.113E+02 0.756E+01 -.195E+04   0.261E+00 -.152E+00 -.153E+01   -.466E-02 0.205E-02 0.272E-02
   0.120E+02 0.441E+01 -.195E+04   -.124E+02 -.448E+01 0.195E+04   0.376E+00 0.507E-01 0.140E+01   0.178E-02 0.332E-02 -.319E-02
   -.416E+01 0.191E+01 0.455E+02   0.383E+01 -.157E+01 -.450E+02   0.340E+00 -.333E+00 -.450E+00   0.297E-02 -.234E-02 -.439E-02
   0.184E+02 0.168E+02 0.197E+04   -.187E+02 -.172E+02 -.197E+04   0.311E+00 0.423E+00 -.176E+01   0.144E-02 -.172E-02 0.202E-02
   -.316E+01 0.297E+01 -.661E+02   0.338E+01 -.282E+01 0.653E+02   -.234E+00 -.151E+00 0.765E+00   0.778E-02 -.538E-03 0.112E-02
   0.519E+01 -.211E+02 0.196E+04   -.542E+01 0.214E+02 -.196E+04   0.226E+00 -.295E+00 -.182E+01   0.307E-02 0.245E-02 0.316E-02
   -.152E+01 0.478E+01 -.194E+04   0.135E+01 -.497E+01 0.194E+04   0.169E+00 0.176E+00 0.166E+01   0.453E-02 -.272E-03 -.101E-02
   -.164E+02 0.201E+02 0.198E+04   0.165E+02 -.205E+02 -.198E+04   -.169E+00 0.372E+00 -.139E+01   -.122E-02 0.231E-02 0.133E-02
   -.223E+01 -.186E+02 -.199E+04   0.222E+01 0.186E+02 0.199E+04   0.931E-02 -.323E-02 0.150E+01   0.137E-02 -.407E-02 0.147E-02
 -----------------------------------------------------------------------------------------------
   -.129E+00 0.203E+00 0.943E+00   0.959E-13 -.426E-13 -.227E-11   0.104E+00 -.209E+00 -.912E+00   -.127E-02 -.125E-02 -.551E-02
 
 
 POSITION                                       TOTAL-FORCE (eV/Angst)
 -----------------------------------------------------------------------------------
      8.24305      6.35791     12.21286         0.005919      0.010165      0.003085
      8.24119      7.95054      9.59538        -0.003243     -0.000576      0.003601
      5.50420      4.76012     14.85499         0.003300      0.000972      0.003152
      5.49291      6.36009     12.23170        -0.001996      0.016150     -0.001774
      6.86312      5.53178      9.61192        -0.004133      0.001982      0.002718
      6.87236      0.81877      9.74617         0.001904     -0.000344      0.005323
      9.62977      8.74417     12.19699        -0.008397      0.002060     -0.001264
      8.27301      4.75692     14.88090         0.004440      0.002700     -0.002156
      9.63052      3.94642     12.28692        -0.002355     -0.004418     -0.004801
      2.76610      1.60226     12.23642         0.003018     -0.013098     -0.004111
      4.10659      0.84402      9.65574        -0.001871      0.004891     -0.002142
      4.13458      7.18209     14.78762         0.003081      0.003111      0.000091
      5.51426     -0.00597     14.70023         0.008010     -0.006555      0.003049
      5.47743      7.94872      9.67058         0.001593     -0.001423     -0.001979
      2.74171      4.75792     14.83440         0.000552     -0.009159      0.000988
     13.75322      6.35358     12.28158         0.015043      0.005891      0.000166
     11.01584      7.91789      9.68812         0.003507      0.000903     -0.002808
      1.37008      2.35426     14.80806         0.003061      0.005613      0.006622
     11.01667      6.35020     12.27823        -0.017091      0.006219     -0.001574
      6.85947      3.94413     12.25987         0.006304     -0.005359     -0.001040
      6.90028      2.35830     14.74975        -0.004015     -0.012744      0.009516
     10.99676      1.56709     12.22399        -0.003151      0.001807      0.001633
      9.62646      0.82235      9.70349        -0.001149     -0.002745     -0.006658
      9.63033      7.14522     14.84720        -0.003572     -0.003752     -0.010028
      1.36860      0.83556      9.80565         0.003984      0.001604      0.002727
      8.27309     -0.00176     14.55030        -0.002918     -0.009661      0.003766
      9.64305      2.35515     14.64540         0.002378      0.000015     -0.002343
     12.37733      5.54781      9.91278        -0.002265      0.009802     -0.006933
     11.00482      4.75648     14.69329        -0.000159     -0.008083     -0.005470
     13.75080      7.92466      9.86015        -0.004689     -0.000278      0.001610
      8.23401      1.55213     12.21477         0.000505      0.008818     -0.000226
     11.00871      3.21130      9.88834        -0.002263      0.003147      0.000481
      6.88825      7.16060     14.58536         0.001257     -0.000461     -0.001325
      8.25566      3.19792      9.87612        -0.006714      0.003308      0.000754
      5.51428      1.58206     12.23285        -0.002934     -0.001098      0.002903
     12.38433      8.75430     12.20433        -0.004446      0.007991      0.000953
      6.87038      8.73381     12.14715        -0.001070      0.002656      0.001904
      4.12636      2.36663     14.63591         0.004723      0.001989      0.001369
      4.12840      3.96463     12.31463        -0.002135     -0.000740      0.001215
      5.47537      3.20224      9.90251        -0.000160      0.005624      0.003192
      2.74305     -0.01668     14.58111         0.002070     -0.014816     -0.003206
     15.12263      8.73353     12.18903         0.006844     -0.001075      0.002363
      4.10080      5.54568      9.89689        -0.000866     -0.000635     -0.002124
     12.39839      3.96209     12.33426        -0.007742     -0.006325      0.002249
      2.73003      3.20992      9.92397         0.005919      0.000394     -0.001149
      0.01271     -0.01684     14.55357         0.000700     -0.009138     -0.000732
      9.63025      5.54643      9.85776        -0.000487      0.003933      0.001284
     12.38397      7.15089     14.65358         0.001707      0.000734     -0.002871
 -----------------------------------------------------------------------------------
    total drift:                               -0.026134     -0.007960      0.025601


--------------------------------------------------------------------------------------------------------



  FREE ENERGIE OF THE ION-ELECTRON SYSTEM (eV)
  ---------------------------------------------------
  free  energy   TOTEN  =      -192.04757831 eV

  energy  without entropy=     -191.81461255  energy(sigma->0) =     -191.93109543
 
 d Force = 0.3628677E-03[ 0.425E-04, 0.683E-03]  d Energy = 0.3877863E-03-0.249E-04
 d Force = 0.6885557E+01[ 0.691E+01, 0.686E+01]  d Ewald  = 0.6885560E+01-0.271E-05


--------------------------------------------------------------------------------------------------------


    POTLOK:  cpu time    0.0510: real time    0.0522


--------------------------------------------------------------------------------------------------------


 stress matrix after NEB project (eV)
      0.00000      0.00000      0.00000
      0.00000      0.00000      0.00000
      0.00000      0.00000      0.00000
  FORCES: max atom, RMS     0.018255    0.008765
  FORCE total and by dimension    0.060723    0.017091
  Stress total and by dimension    0.000000    0.000000
 Conjugate gradient step on ions:
 trial-energy change:   -0.000388  1 .order   -0.000363   -0.000683   -0.000042
  (g-gl).g = 0.262E-03      g.g   = 0.234E-03  gl.gl    = 0.379E-03
 g(Force)  = 0.234E-03   g(Stress)= 0.000E+00 ortho     =-0.191E-04
 gamma     =   0.69327
 trial     =   3.10170
 opt step  =   3.26668  (harmonic =   3.30722) maximal distance =0.00608104
 next E    =  -192.047579   (d E  =  -0.00039)


--------------------------------------------------------------------------------------------------------


  
 reached required accuracy - stopping structural energy minimisation
     LOOP+:  cpu time   82.2343: real time   83.1821
    4ORBIT:  cpu time    0.0000: real time    0.0000

 total amount of memory used by VASP on root node    84353. kBytes
========================================================================

   base      :      30000. kBytes
   nonlr-proj:       4285. kBytes
   fftplans  :       4447. kBytes
   grid      :       6721. kBytes
   one-center:        124. kBytes
   wavefun   :      38776. kBytes
 
  
  
 General timing and accounting informations for this job:
 ========================================================
  
                  Total CPU time used (sec):     2488.519
                            User time (sec):     2376.486
                          System time (sec):      112.033
                         Elapsed time (sec):     2510.526
  
                   Maximum memory used (kb):      984856.
                   Average memory used (kb):           0.
  
                          Minor page faults:      1053875
                          Major page faults:            0
                 Voluntary context switches:        11692
