<?xml version="1.0" encoding="ISO-8859-1"?>
<modeling>
 <generator>
  <i name="program" type="string">vasp </i>
  <i name="version" type="string">5.4.1  </i>
  <i name="subversion" type="string">24Jun15 (build Mar 14 2019 10:18:33) complex                          parallel </i>
  <i name="platform" type="string">INTEL-19.0.2+OPENMPI-3.1.3 </i>
  <i name="date" type="string">2022 07 15 </i>
  <i name="time" type="string">15:19:41 </i>
 </generator>
 <incar>
  <i type="int" name="ISTART">     0</i>
  <i type="string" name="PREC">normal</i>
  <i type="string" name="ALGO"> Fast</i>
  <i type="int" name="NELM">   500</i>
  <i type="int" name="IBRION">     2</i>
  <i type="int" name="NFREE">     2</i>
  <i name="EDIFF">      0.00000100</i>
  <i name="EDIFFG">     -0.02000000</i>
  <i type="int" name="NSW">   500</i>
  <i type="int" name="ISIF">     0</i>
  <i type="int" name="ISYM">     2</i>
  <i name="ENCUT">    400.00000000</i>
  <i name="POTIM">      0.35000000</i>
  <i type="string" name="LREAL"> Auto</i>
  <i type="logical" name="LPLANE"> T  </i>
  <i type="int" name="ISMEAR">     0</i>
  <i name="SIGMA">      0.10000000</i>
  <i type="int" name="NWRITE">     1</i>
  <i type="logical" name="LWAVE"> F  </i>
  <i type="logical" name="LCHARG"> F  </i>
  <i type="logical" name="LVTOT"> F  </i>
  <i type="logical" name="LORBIT"> F  </i>
  <i type="logical" name="LAECHG"> F  </i>
  <v type="int" name="KPOINT_BSE">    -1     0     0     0</v>
  <i type="int" name="NELM">   500</i>
  <i type="string" name="GGA"> PE          ! optPBE-vdW XC-functional</i>
  <i type="int" name="VOSKOWN">     1</i>
  <i type="logical" name="LDIPOL"> T  </i>
  <i type="logical" name="LMONO"> F  </i>
  <i type="int" name="IDIPOL">     3</i>
  <v name="DIPOL">      0.00000000      0.00000000      0.50000000</v>
 </incar>
 <kpoints>
  <generation param="Monkhorst-Pack">
   <v type="int" name="divisions">       2        2        1 </v>
   <v name="usershift">      0.00000000       0.00000000       0.00000000 </v>
   <v name="genvec1">      0.50000000      -0.00000000       0.00000000 </v>
   <v name="genvec2">      0.00000000       0.50000000       0.00000000 </v>
   <v name="genvec3">      0.00000000       0.00000000       1.00000000 </v>
   <v name="shift">      0.50000000       0.50000000       0.00000000 </v>
  </generation>
  <varray name="kpointlist" >
   <v>       0.25000000       0.25000000       0.00000000 </v>
   <v>       0.00000000       0.25000000       0.00000000 </v>
   <v>      -0.25000000       0.00000000       0.00000000 </v>
   <v>      -0.25000000       0.25000000       0.00000000 </v>
   <v>       0.50000000      -0.25000000       0.00000000 </v>
   <v>      -0.25000000       0.50000000       0.00000000 </v>
  </varray>
  <varray name="weights" >
   <v>       0.16666667 </v>
   <v>       0.16666667 </v>
   <v>       0.16666667 </v>
   <v>       0.16666667 </v>
   <v>       0.16666667 </v>
   <v>       0.16666667 </v>
  </varray>
 </kpoints>
 <parameters>
  <separator name="general" >
   <i type="string" name="SYSTEM">unknown system</i>
   <i type="logical" name="LCOMPAT"> F  </i>
  </separator>
  <separator name="electronic" >
   <i type="string" name="PREC">normal</i>
   <i name="ENMAX">    400.00000000</i>
   <i name="ENAUG">    416.23000000</i>
   <i name="EDIFF">      0.00000100</i>
   <i type="int" name="IALGO">    68</i>
   <i type="int" name="IWAVPR">    11</i>
   <i type="int" name="NBANDS">   306</i>
   <i name="NELECT">    504.00000000</i>
   <i type="int" name="TURBO">     0</i>
   <i type="int" name="IRESTART">     0</i>
   <i type="int" name="NREBOOT">     0</i>
   <i type="int" name="NMIN">     0</i>
   <i name="EREF">      0.00000000</i>
   <separator name="electronic smearing" >
    <i type="int" name="ISMEAR">     0</i>
    <i name="SIGMA">      0.10000000</i>
    <i name="KSPACING">      0.50000000</i>
    <i type="logical" name="KGAMMA"> T  </i>
   </separator>
   <separator name="electronic projectors" >
    <i type="logical" name="LREAL"> T  </i>
    <v name="ROPT">     -0.00050000     -0.00050000</v>
    <i type="int" name="LMAXPAW">  -100</i>
    <i type="int" name="LMAXMIX">     2</i>
    <i type="logical" name="NLSPLINE"> F  </i>
   </separator>
   <separator name="electronic startup" >
    <i type="int" name="ISTART">     0</i>
    <i type="int" name="ICHARG">     2</i>
    <i type="int" name="INIWAV">     1</i>
   </separator>
   <separator name="electronic spin" >
    <i type="int" name="ISPIN">     1</i>
    <i type="logical" name="LNONCOLLINEAR"> F  </i>
    <v name="MAGMOM">      1.00000000      1.00000000      1.00000000      1.00000000      1.00000000      1.00000000      1.00000000      1.00000000      1.00000000      1.00000000      1.00000000      1.00000000      1.00000000      1.00000000      1.00000000      1.00000000      1.00000000      1.00000000      1.00000000      1.00000000
      1.00000000      1.00000000      1.00000000      1.00000000      1.00000000      1.00000000      1.00000000      1.00000000      1.00000000      1.00000000      1.00000000      1.00000000      1.00000000      1.00000000      1.00000000      1.00000000      1.00000000      1.00000000      1.00000000      1.00000000
      1.00000000      1.00000000      1.00000000      1.00000000      1.00000000      1.00000000      1.00000000      1.00000000</v>
    <i name="NUPDOWN">     -1.00000000</i>
    <i type="logical" name="LSORBIT"> F  </i>
    <v name="SAXIS">      0.00000000      0.00000000      1.00000000</v>
    <i type="logical" name="LSPIRAL"> F  </i>
    <v name="QSPIRAL">      0.00000000      0.00000000      0.00000000</v>
    <i type="logical" name="LZEROZ"> F  </i>
   </separator>
   <separator name="electronic exchange-correlation" >
    <i type="logical" name="LASPH"> F  </i>
    <i type="logical" name="LMETAGGA"> F  </i>
   </separator>
   <separator name="electronic convergence" >
    <i type="int" name="NELM">   500</i>
    <i type="int" name="NELMDL">    -5</i>
    <i type="int" name="NELMIN">     2</i>
    <i name="ENINI">    400.00000000</i>
    <separator name="electronic convergence detail" >
     <i type="logical" name="LDIAG"> T  </i>
     <i type="logical" name="LSUBROT"> F  </i>
     <i name="WEIMIN">      0.00100000</i>
     <i name="EBREAK">      0.00000000</i>
     <i name="DEPER">      0.30000000</i>
     <i type="int" name="NRMM">     4</i>
     <i name="TIME">      0.40000000</i>
    </separator>
   </separator>
   <separator name="electronic mixer" >
    <i name="AMIX">      0.40000000</i>
    <i name="BMIX">      1.00000000</i>
    <i name="AMIN">      0.10000000</i>
    <i name="AMIX_MAG">      1.60000000</i>
    <i name="BMIX_MAG">      1.00000000</i>
    <separator name="electronic mixer details" >
     <i type="int" name="IMIX">     4</i>
     <i type="logical" name="MIXFIRST"> F  </i>
     <i type="int" name="MAXMIX">   -45</i>
     <i name="WC">    100.00000000</i>
     <i type="int" name="INIMIX">     1</i>
     <i type="int" name="MIXPRE">     1</i>
     <i type="int" name="MREMOVE">     5</i>
    </separator>
   </separator>
   <separator name="electronic dipolcorrection" >
    <i type="logical" name="LDIPOL"> T  </i>
    <i type="logical" name="LMONO"> F  </i>
    <i type="int" name="IDIPOL">     3</i>
    <i name="EPSILON">      1.00000000</i>
    <v name="DIPOL">      0.00000000      0.00000000      0.50000000</v>
    <i name="EFIELD">      0.00000000</i>
   </separator>
  </separator>
  <separator name="grids" >
   <i type="int" name="NGX">    54</i>
   <i type="int" name="NGY">    54</i>
   <i type="int" name="NGZ">   120</i>
   <i type="int" name="NGXF">   108</i>
   <i type="int" name="NGYF">   108</i>
   <i type="int" name="NGZF">   240</i>
   <i type="logical" name="ADDGRID"> F  </i>
  </separator>
  <separator name="ionic" >
   <i type="int" name="NSW">   500</i>
   <i type="int" name="IBRION">     2</i>
   <i type="int" name="ISIF">     0</i>
   <i name="PSTRESS">      0.00000000</i>
   <i name="EDIFFG">     -0.02000000</i>
   <i type="int" name="NFREE">     2</i>
   <i name="POTIM">      0.35000000</i>
   <i name="SMASS">     -3.00000000</i>
   <i name="SCALEE">      1.00000000</i>
  </separator>
  <separator name="ionic md" >
   <i name="TEBEG">      0.00010000</i>
   <i name="TEEND">      0.00010000</i>
   <i type="int" name="NBLOCK">     1</i>
   <i type="int" name="KBLOCK">   500</i>
   <i type="int" name="NPACO">   256</i>
   <i name="APACO">     16.00000000</i>
  </separator>
  <separator name="symmetry" >
   <i type="int" name="ISYM">     2</i>
   <i name="SYMPREC">      0.00001000</i>
  </separator>
  <separator name="dos" >
   <i type="logical" name="LORBIT"> F  </i>
   <v name="RWIGS">     -1.00000000     -1.00000000</v>
   <i type="int" name="NEDOS">   301</i>
   <i name="EMIN">     10.00000000</i>
   <i name="EMAX">    -10.00000000</i>
   <i name="EFERMI">      0.00000000</i>
  </separator>
  <separator name="writing" >
   <i type="int" name="NWRITE">     1</i>
   <i type="logical" name="LWAVE"> F  </i>
   <i type="logical" name="LCHARG"> F  </i>
   <i type="logical" name="LPARD"> F  </i>
   <i type="logical" name="LVTOT"> F  </i>
   <i type="logical" name="LVHAR"> F  </i>
   <i type="logical" name="LELF"> F  </i>
   <i type="logical" name="LOPTICS"> F  </i>
   <v name="STM">      0.00000000      0.00000000      0.00000000      0.00000000      0.00000000      0.00000000      0.00000000</v>
  </separator>
  <separator name="performance" >
   <i type="int" name="NPAR">     6</i>
   <i type="int" name="NSIM">     4</i>
   <i type="int" name="NBLK">    -1</i>
   <i type="logical" name="LPLANE"> T  </i>
   <i type="logical" name="LSCALAPACK"> T  </i>
   <i type="logical" name="LSCAAWARE"> F  </i>
   <i type="logical" name="LSCALU"> F  </i>
   <i type="logical" name="LASYNC"> F  </i>
   <i type="logical" name="LORBITALREAL"> F  </i>
  </separator>
  <separator name="miscellaneous" >
   <i type="int" name="IDIOT">     3</i>
   <i type="logical" name="LMUSIC"> F  </i>
   <v name="POMASS">    196.96600000    106.42000000</v>
   <v name="DARWINR">      0.00000000      0.00000000</v>
   <v name="DARWINV">      1.00000000      1.00000000</v>
   <i type="logical" name="LCORR"> T  </i>
  </separator>
  <i type="logical" name="GGA_COMPAT"> T  </i>
  <i type="logical" name="LBERRY"> F  </i>
  <i type="int" name="ICORELEVEL">     0</i>
  <i type="logical" name="LDAU"> F  </i>
  <i type="int" name="I_CONSTRAINED_M">     0</i>
  <separator name="electronic exchange-correlation" >
   <i type="string" name="GGA">PE</i>
   <i type="int" name="VOSKOWN">     1</i>
   <i type="logical" name="LHFCALC"> F  </i>
   <i type="string" name="PRECFOCK"></i>
   <i type="logical" name="LSYMGRAD"> F  </i>
   <i type="logical" name="LHFONE"> F  </i>
   <i type="logical" name="LRHFCALC"> F  </i>
   <i type="logical" name="LTHOMAS"> F  </i>
   <i type="logical" name="LMODELHF"> F  </i>
   <i name="ENCUT4O">     -1.00000000</i>
   <i type="int" name="EXXOEP">     0</i>
   <i type="int" name="FOURORBIT">     0</i>
   <i name="AEXX">      0.00000000</i>
   <i name="HFALPHA">      0.00000000</i>
   <i name="MCALPHA">      0.00000000</i>
   <i name="ALDAX">      1.00000000</i>
   <i name="AGGAX">      1.00000000</i>
   <i name="ALDAC">      1.00000000</i>
   <i name="AGGAC">      1.00000000</i>
   <i type="int" name="NKREDX">     1</i>
   <i type="int" name="NKREDY">     1</i>
   <i type="int" name="NKREDZ">     1</i>
   <i type="logical" name="SHIFTRED"> F  </i>
   <i type="logical" name="ODDONLY"> F  </i>
   <i type="logical" name="EVENONLY"> F  </i>
   <i type="int" name="LMAXFOCK">     0</i>
   <i type="int" name="NMAXFOCKAE">     0</i>
   <i type="logical" name="LFOCKAEDFT"> F  </i>
   <i name="HFSCREEN">      0.00000000</i>
   <i name="HFSCREENC">      0.00000000</i>
   <i type="int" name="NBANDSGWLOW">     0</i>
  </separator>
  <separator name="vdW DFT" >
   <i type="logical" name="LUSE_VDW"> F  </i>
   <i name="Zab_VDW">     -0.84910000</i>
   <i name="PARAM1">      0.12340000</i>
   <i name="PARAM2">      1.00000000</i>
   <i name="PARAM3">      0.00000000</i>
  </separator>
  <separator name="model GW" >
   <i type="int" name="MODEL_GW">     0</i>
   <i name="MODEL_EPS0">     32.09595293</i>
   <i name="MODEL_ALPHA">      1.00000000</i>
  </separator>
  <separator name="linear response parameters" >
   <i type="logical" name="LEPSILON"> F  </i>
   <i type="logical" name="LRPA"> F  </i>
   <i type="logical" name="LNABLA"> F  </i>
   <i type="logical" name="LVEL"> F  </i>
   <i type="int" name="KINTER">     0</i>
   <i name="CSHIFT">      0.10000000</i>
   <i name="OMEGAMAX">     -1.00000000</i>
   <i name="DEG_THRESHOLD">      0.00200000</i>
  </separator>
  <separator name="orbital magnetization" >
   <i type="logical" name="NUCIND"> F  </i>
   <v name="MAGPOS">      0.00000000      0.00000000      0.00000000</v>
   <i type="logical" name="LNICSALL"> T  </i>
   <i type="logical" name="ORBITALMAG"> F  </i>
   <i type="logical" name="LMAGBLOCH"> F  </i>
   <i type="logical" name="LCHIMAG"> F  </i>
   <i type="logical" name="LGAUGE"> T  </i>
   <i type="int" name="MAGATOM">     0</i>
   <v name="MAGDIPOL">      0.00000000      0.00000000      0.00000000</v>
   <v name="AVECCONST">      0.00000000      0.00000000      0.00000000</v>
  </separator>
  <separator name="response functions" >
   <i type="logical" name="LADDER"> F  </i>
   <i type="logical" name="LFXC"> F  </i>
   <i type="logical" name="LHARTREE"> T  </i>
   <i type="int" name="IBSE">     0</i>
   <v type="int" name="KPOINT">    -1     0     0     0</v>
   <i type="logical" name="LTCTE"> F  </i>
   <i type="logical" name="LTETE"> F  </i>
   <i type="logical" name="LTRIPLET"> F  </i>
   <i type="logical" name="LFXCEPS"> F  </i>
   <i type="logical" name="LFXHEG"> F  </i>
   <i type="int" name="NATURALO">     0</i>
   <i type="logical" name="L2ORDER"> F  </i>
   <i type="logical" name="LUSEW"> F  </i>
   <i name="ENCUTGW">     -2.00000000</i>
   <i name="ENCUTGWSOFT">     -2.00000000</i>
   <i name="ENCUTLF">     -1.00000000</i>
   <i type="int" name="LMAXMP2">    -1</i>
   <i name="SCISSOR">      0.00000000</i>
   <i type="int" name="NOMEGA">     0</i>
   <i type="int" name="NOMEGAR">     0</i>
   <i type="int" name="NBANDSGW">    -1</i>
   <i type="int" name="NBANDSO">    -1</i>
   <i type="int" name="NBANDSV">    -1</i>
   <i type="int" name="NELM">   500</i>
   <i type="int" name="NELMHF">     1</i>
   <i type="int" name="DIM">     3</i>
   <i type="int" name="ANTIRES">     0</i>
   <i name="OMEGAMAX">    -30.00000000</i>
   <i name="OMEGAMIN">    -30.00000000</i>
   <i name="OMEGATL">   -200.00000000</i>
   <i type="int" name="OMEGAGRID">     0</i>
   <i name="CSHIFT">     -0.10000000</i>
   <i type="logical" name="SELFENERGY"> F  </i>
   <i type="logical" name="LSPECTRAL"> F  </i>
   <i type="logical" name="LSPECTRALGW"> F  </i>
   <i type="logical" name="LSINGLES"> F  </i>
   <i type="logical" name="LFERMIGW"> F  </i>
   <i type="logical" name="ODDONLYGW"> F  </i>
   <i type="logical" name="EVENONLYGW"> F  </i>
   <i type="int" name="NKREDLFX">     1</i>
   <i type="int" name="NKREDLFY">     1</i>
   <i type="int" name="NKREDLFZ">     1</i>
   <i type="int" name="MAXMEM">  1800</i>
   <i type="int" name="TELESCOPE">     0</i>
   <i type="int" name="TAUPAR">     1</i>
   <i type="int" name="OMEGAPAR">    -1</i>
   <i name="LAMBDA">      1.00000000</i>
  </separator>
  <separator name="External order field" >
   <i name="OFIELD_KAPPA">      0.00000000</i>
   <v name="OFIELD_K">      0.00000000      0.00000000      0.00000000</v>
   <i name="OFIELD_Q6_NEAR">      0.00000000</i>
   <i name="OFIELD_Q6_FAR">      0.00000000</i>
   <i name="OFIELD_A">      0.00000000</i>
  </separator>
 </parameters>
 <atominfo>
  <atoms>      48 </atoms>
  <types>       2 </types>
  <array name="atoms" >
   <dimension dim="1">ion</dimension>
   <field type="string">element</field>
   <field type="int">atomtype</field>
   <set>
    <rc><c>Au</c><c>   1</c></rc>
    <rc><c>Au</c><c>   1</c></rc>
    <rc><c>Au</c><c>   1</c></rc>
    <rc><c>Au</c><c>   1</c></rc>
    <rc><c>Au</c><c>   1</c></rc>
    <rc><c>Au</c><c>   1</c></rc>
    <rc><c>Au</c><c>   1</c></rc>
    <rc><c>Au</c><c>   1</c></rc>
    <rc><c>Au</c><c>   1</c></rc>
    <rc><c>Au</c><c>   1</c></rc>
    <rc><c>Au</c><c>   1</c></rc>
    <rc><c>Au</c><c>   1</c></rc>
    <rc><c>Au</c><c>   1</c></rc>
    <rc><c>Au</c><c>   1</c></rc>
    <rc><c>Au</c><c>   1</c></rc>
    <rc><c>Au</c><c>   1</c></rc>
    <rc><c>Au</c><c>   1</c></rc>
    <rc><c>Au</c><c>   1</c></rc>
    <rc><c>Au</c><c>   1</c></rc>
    <rc><c>Au</c><c>   1</c></rc>
    <rc><c>Au</c><c>   1</c></rc>
    <rc><c>Au</c><c>   1</c></rc>
    <rc><c>Au</c><c>   1</c></rc>
    <rc><c>Au</c><c>   1</c></rc>
    <rc><c>Pd</c><c>   2</c></rc>
    <rc><c>Pd</c><c>   2</c></rc>
    <rc><c>Pd</c><c>   2</c></rc>
    <rc><c>Pd</c><c>   2</c></rc>
    <rc><c>Pd</c><c>   2</c></rc>
    <rc><c>Pd</c><c>   2</c></rc>
    <rc><c>Pd</c><c>   2</c></rc>
    <rc><c>Pd</c><c>   2</c></rc>
    <rc><c>Pd</c><c>   2</c></rc>
    <rc><c>Pd</c><c>   2</c></rc>
    <rc><c>Pd</c><c>   2</c></rc>
    <rc><c>Pd</c><c>   2</c></rc>
    <rc><c>Pd</c><c>   2</c></rc>
    <rc><c>Pd</c><c>   2</c></rc>
    <rc><c>Pd</c><c>   2</c></rc>
    <rc><c>Pd</c><c>   2</c></rc>
    <rc><c>Pd</c><c>   2</c></rc>
    <rc><c>Pd</c><c>   2</c></rc>
    <rc><c>Pd</c><c>   2</c></rc>
    <rc><c>Pd</c><c>   2</c></rc>
    <rc><c>Pd</c><c>   2</c></rc>
    <rc><c>Pd</c><c>   2</c></rc>
    <rc><c>Pd</c><c>   2</c></rc>
    <rc><c>Pd</c><c>   2</c></rc>
   </set>
  </array>
  <array name="atomtypes" >
   <dimension dim="1">type</dimension>
   <field type="int">atomspertype</field>
   <field type="string">element</field>
   <field>mass</field>
   <field>valence</field>
   <field type="string">pseudopotential</field>
   <set>
    <rc><c>  24</c><c>Au</c><c>    196.96600000</c><c>     11.00000000</c><c>  PAW_PBE Au 04Oct2007                  </c></rc>
    <rc><c>  24</c><c>Pd</c><c>    106.42000000</c><c>     10.00000000</c><c>  PAW_PBE Pd 04Jan2005                  </c></rc>
   </set>
  </array>
 </atominfo>
 <structure name="initialpos" >
  <crystal>
   <varray name="basis" >
    <v>      11.00258152       0.00000000       0.00000000 </v>
    <v>       5.50129076       9.52851510       0.00000000 </v>
    <v>       0.00000000       0.00000000      24.49178509 </v>
   </varray>
   <i name="volume">   2567.67623402 </i>
   <varray name="rec_basis" >
    <v>       0.09088776      -0.05247407       0.00000000 </v>
    <v>       0.00000000       0.10494815       0.00000000 </v>
    <v>       0.00000000       0.00000000       0.04083002 </v>
   </varray>
  </crystal>
  <varray name="positions" >
   <v>       0.41666667       0.66666667       0.50000000 </v>
   <v>       0.33333333       0.83333333       0.40830017 </v>
   <v>       0.25000000       0.50000000       0.59169983 </v>
   <v>       0.16666667       0.66666667       0.50000000 </v>
   <v>       0.33333333       0.58333333       0.40830017 </v>
   <v>       0.58333333       0.08333333       0.40830017 </v>
   <v>       0.41666667       0.91666667       0.50000000 </v>
   <v>       0.50000000       0.50000000       0.59169983 </v>
   <v>       0.66666667       0.41666667       0.50000000 </v>
   <v>       0.16666667       0.16666667       0.50000000 </v>
   <v>       0.33333333       0.08333333       0.40830017 </v>
   <v>       0.00000000       0.75000000       0.59169983 </v>
   <v>       0.50000000       0.00000000       0.59169983 </v>
   <v>       0.08333333       0.83333333       0.40830017 </v>
   <v>       0.00000000       0.50000000       0.59169983 </v>
   <v>       0.91666667       0.66666667       0.50000000 </v>
   <v>       0.58333333       0.83333333       0.40830017 </v>
   <v>       0.00000000       0.25000000       0.59169983 </v>
   <v>       0.66666667       0.66666667       0.50000000 </v>
   <v>       0.41666667       0.41666667       0.50000000 </v>
   <v>       0.50000000       0.25000000       0.59169983 </v>
   <v>       0.91666667       0.16666667       0.50000000 </v>
   <v>       0.83333333       0.08333333       0.40830017 </v>
   <v>       0.50000000       0.75000000       0.59169983 </v>
   <v>       0.08333333       0.08333333       0.40830017 </v>
   <v>       0.75000000       0.00000000       0.59169983 </v>
   <v>       0.75000000       0.25000000       0.59169983 </v>
   <v>       0.83333333       0.58333333       0.40830017 </v>
   <v>       0.75000000       0.50000000       0.59169983 </v>
   <v>       0.83333333       0.83333333       0.40830017 </v>
   <v>       0.66666667       0.16666667       0.50000000 </v>
   <v>       0.83333333       0.33333333       0.40830017 </v>
   <v>       0.25000000       0.75000000       0.59169983 </v>
   <v>       0.58333333       0.33333333       0.40830017 </v>
   <v>       0.41666667       0.16666667       0.50000000 </v>
   <v>       0.66666667       0.91666667       0.50000000 </v>
   <v>       0.16666667       0.91666667       0.50000000 </v>
   <v>       0.25000000       0.25000000       0.59169983 </v>
   <v>       0.16666667       0.41666667       0.50000000 </v>
   <v>       0.33333333       0.33333333       0.40830017 </v>
   <v>       0.25000000       0.00000000       0.59169983 </v>
   <v>       0.91666667       0.91666667       0.50000000 </v>
   <v>       0.08333333       0.58333333       0.40830017 </v>
   <v>       0.91666667       0.41666667       0.50000000 </v>
   <v>       0.08333333       0.33333333       0.40830017 </v>
   <v>       0.00000000       0.00000000       0.59169983 </v>
   <v>       0.58333333       0.58333333       0.40830017 </v>
   <v>       0.75000000       0.75000000       0.59169983 </v>
  </varray>
 </structure>
 <calculation>
  <scstep>
   <time name="dav">    9.51    9.64</time>
   <time name="total">    9.58    9.71</time>
   <dipole>
    <v name="dipole">      0.00000000       0.00000000      -0.00000074 </v>
    <i name="Tr[quadrupol]"> -10352.14193999 </i>
    <i name="Echarged">      0.00000000 </i>
    <i name="Edipol_quadrupol">      0.00000000 </i>
    <i name="Eion">      0.00000000 </i>
   </dipole>
   <energy>
    <i name="alphaZ">    805.86936440 </i>
    <i name="ewald"> 200400.19806040 </i>
    <i name="hartreedc">-242815.53913534 </i>
    <i name="XCdc">   -327.56024237 </i>
    <i name="pawpsdc">  40340.05962942 </i>
    <i name="pawaedc"> -38292.62782345 </i>
    <i name="eentropy">     -0.13049522 </i>
    <i name="bandstr">   1431.09217329 </i>
    <i name="atom">  41659.78587232 </i>
    <i name="e_fr_energy">   3201.14740346 </i>
    <i name="e_wo_entrp">   3201.27789868 </i>
    <i name="e_0_energy">   3201.21265107 </i>
   </energy>
  </scstep>
  <scstep>
   <time name="dav">   11.24   11.31</time>
   <time name="total">   11.25   11.31</time>
   <dipole>
    <v name="dipole">      0.00000000       0.00000000      -0.00000074 </v>
    <i name="Tr[quadrupol]"> -10352.14193999 </i>
    <i name="Echarged">      0.00000000 </i>
    <i name="Edipol_quadrupol">      0.00000000 </i>
    <i name="Eion">      0.00000000 </i>
   </dipole>
   <energy>
    <i name="e_fr_energy">     14.71961567 </i>
    <i name="e_wo_entrp">     14.85294634 </i>
    <i name="e_0_energy">     14.78628101 </i>
   </energy>
  </scstep>
  <scstep>
   <time name="dav">   10.82   10.89</time>
   <time name="total">   10.83   10.90</time>
   <dipole>
    <v name="dipole">      0.00000000       0.00000000      -0.00000074 </v>
    <i name="Tr[quadrupol]"> -10352.14193999 </i>
    <i name="Echarged">      0.00000000 </i>
    <i name="Edipol_quadrupol">      0.00000000 </i>
    <i name="Eion">      0.00000000 </i>
   </dipole>
   <energy>
    <i name="e_fr_energy">   -200.31350645 </i>
    <i name="e_wo_entrp">   -200.11043195 </i>
    <i name="e_0_energy">   -200.21196920 </i>
   </energy>
  </scstep>
  <scstep>
   <time name="dav">   11.02   11.08</time>
   <time name="total">   11.02   11.09</time>
   <dipole>
    <v name="dipole">      0.00000000       0.00000000      -0.00000074 </v>
    <i name="Tr[quadrupol]"> -10352.14193999 </i>
    <i name="Echarged">      0.00000000 </i>
    <i name="Edipol_quadrupol">      0.00000000 </i>
    <i name="Eion">      0.00000000 </i>
   </dipole>
   <energy>
    <i name="e_fr_energy">   -205.99422115 </i>
    <i name="e_wo_entrp">   -205.77793081 </i>
    <i name="e_0_energy">   -205.88607598 </i>
   </energy>
  </scstep>
  <scstep>
   <time name="dav">   11.29   11.43</time>
   <time name="total">   11.53   11.67</time>
   <dipole>
    <v name="dipole">      0.00000000       0.00000000      -0.00000074 </v>
    <i name="Tr[quadrupol]"> -10352.14193999 </i>
    <i name="Echarged">      0.00000000 </i>
    <i name="Edipol_quadrupol">      0.00000000 </i>
    <i name="Eion">      0.00000000 </i>
   </dipole>
   <energy>
    <i name="e_fr_energy">   -206.15619296 </i>
    <i name="e_wo_entrp">   -205.94023378 </i>
    <i name="e_0_energy">   -206.04821337 </i>
   </energy>
  </scstep>
  <scstep>
   <time name="diag">    1.59    1.60</time>
   <time name="diis">    4.90    4.92</time>
   <time name="orth">    0.38    0.38</time>
   <time name="total">    7.17    7.21</time>
   <dipole>
    <v name="dipole">      0.00000000       0.00000000      -0.33166421 </v>
    <i name="Tr[quadrupol]"> -10352.83492610 </i>
    <i name="Echarged">      0.00000000 </i>
    <i name="Edipol_quadrupol">      0.00000000 </i>
    <i name="Eion">      0.00000000 </i>
   </dipole>
   <energy>
    <i name="e_fr_energy">   -198.72585231 </i>
    <i name="e_wo_entrp">   -198.44104487 </i>
    <i name="e_0_energy">   -198.58344859 </i>
   </energy>
  </scstep>
  <scstep>
   <time name="diag">    1.56    1.57</time>
   <time name="diis">    4.91    4.94</time>
   <time name="orth">    0.38    0.38</time>
   <time name="total">    7.14    7.19</time>
   <dipole>
    <v name="dipole">      0.00000000       0.00000000       1.05834387 </v>
    <i name="Tr[quadrupol]"> -10352.32549757 </i>
    <i name="Echarged">      0.00000000 </i>
    <i name="Edipol_quadrupol">      0.00000000 </i>
    <i name="Eion">      0.00000000 </i>
   </dipole>
   <energy>
    <i name="e_fr_energy">   -205.98679991 </i>
    <i name="e_wo_entrp">   -205.82747920 </i>
    <i name="e_0_energy">   -205.90713956 </i>
   </energy>
  </scstep>
  <scstep>
   <time name="diag">    1.59    1.60</time>
   <time name="diis">    4.84    4.87</time>
   <time name="orth">    0.38    0.38</time>
   <time name="total">    7.11    7.15</time>
   <dipole>
    <v name="dipole">      0.00000000       0.00000000      -2.23363599 </v>
    <i name="Tr[quadrupol]"> -10354.03036127 </i>
    <i name="Echarged">      0.00000000 </i>
    <i name="Edipol_quadrupol">      0.00000000 </i>
    <i name="Eion">      0.00000000 </i>
   </dipole>
   <energy>
    <i name="e_fr_energy">   -230.87666329 </i>
    <i name="e_wo_entrp">   -230.54674057 </i>
    <i name="e_0_energy">   -230.71170193 </i>
   </energy>
  </scstep>
  <scstep>
   <time name="diag">    1.58    1.59</time>
   <time name="diis">    4.86    4.89</time>
   <time name="orth">    0.38    0.38</time>
   <time name="total">    7.11    7.16</time>
   <dipole>
    <v name="dipole">      0.00000000       0.00000000       0.40268791 </v>
    <i name="Tr[quadrupol]"> -10355.01352417 </i>
    <i name="Echarged">      0.00000000 </i>
    <i name="Edipol_quadrupol">      0.00000000 </i>
    <i name="Eion">      0.00000000 </i>
   </dipole>
   <energy>
    <i name="e_fr_energy">   -212.50320406 </i>
    <i name="e_wo_entrp">   -212.28571962 </i>
    <i name="e_0_energy">   -212.39446184 </i>
   </energy>
  </scstep>
  <scstep>
   <time name="diag">    1.56    1.60</time>
   <time name="diis">    4.89    4.97</time>
   <time name="orth">    0.38    0.38</time>
   <time name="total">    7.12    7.25</time>
   <dipole>
    <v name="dipole">      0.00000000       0.00000000      -0.27520948 </v>
    <i name="Tr[quadrupol]"> -10353.40591305 </i>
    <i name="Echarged">      0.00000000 </i>
    <i name="Edipol_quadrupol">      0.00000000 </i>
    <i name="Eion">      0.00000000 </i>
   </dipole>
   <energy>
    <i name="e_fr_energy">   -195.81868069 </i>
    <i name="e_wo_entrp">   -195.64165745 </i>
    <i name="e_0_energy">   -195.73016907 </i>
   </energy>
  </scstep>
  <scstep>
   <time name="diag">    1.56    1.57</time>
   <time name="diis">    4.92    4.94</time>
   <time name="orth">    0.37    0.37</time>
   <time name="total">    7.14    7.18</time>
   <dipole>
    <v name="dipole">      0.00000000       0.00000000      -0.02531707 </v>
    <i name="Tr[quadrupol]"> -10354.61462313 </i>
    <i name="Echarged">      0.00000000 </i>
    <i name="Edipol_quadrupol">      0.00000000 </i>
    <i name="Eion">      0.00000000 </i>
   </dipole>
   <energy>
    <i name="e_fr_energy">   -191.66006982 </i>
    <i name="e_wo_entrp">   -191.43736970 </i>
    <i name="e_0_energy">   -191.54871976 </i>
   </energy>
  </scstep>
  <scstep>
   <time name="diag">    1.59    1.60</time>
   <time name="diis">    4.91    4.94</time>
   <time name="orth">    0.37    0.37</time>
   <time name="total">    7.15    7.20</time>
   <dipole>
    <v name="dipole">      0.00000000       0.00000000      -0.03893322 </v>
    <i name="Tr[quadrupol]"> -10354.59259820 </i>
    <i name="Echarged">      0.00000000 </i>
    <i name="Edipol_quadrupol">      0.00000000 </i>
    <i name="Eion">      0.00000000 </i>
   </dipole>
   <energy>
    <i name="e_fr_energy">   -189.21647585 </i>
    <i name="e_wo_entrp">   -188.99270824 </i>
    <i name="e_0_energy">   -189.10459204 </i>
   </energy>
  </scstep>
  <scstep>
   <time name="diag">    1.57    1.58</time>
   <time name="diis">    4.90    4.94</time>
   <time name="orth">    0.37    0.38</time>
   <time name="total">    7.13    7.19</time>
   <dipole>
    <v name="dipole">      0.00000000       0.00000000      -0.01667716 </v>
    <i name="Tr[quadrupol]"> -10354.76210691 </i>
    <i name="Echarged">      0.00000000 </i>
    <i name="Edipol_quadrupol">      0.00000000 </i>
    <i name="Eion">      0.00000000 </i>
   </dipole>
   <energy>
    <i name="e_fr_energy">   -188.57750925 </i>
    <i name="e_wo_entrp">   -188.33534190 </i>
    <i name="e_0_energy">   -188.45642557 </i>
   </energy>
  </scstep>
  <scstep>
   <time name="diag">    1.57    1.60</time>
   <time name="diis">    4.90    4.92</time>
   <time name="orth">    0.37    0.37</time>
   <time name="total">    7.13    7.19</time>
   <dipole>
    <v name="dipole">      0.00000000       0.00000000      -0.05175884 </v>
    <i name="Tr[quadrupol]"> -10355.09553844 </i>
    <i name="Echarged">      0.00000000 </i>
    <i name="Edipol_quadrupol">      0.00000000 </i>
    <i name="Eion">      0.00000000 </i>
   </dipole>
   <energy>
    <i name="e_fr_energy">   -188.62454764 </i>
    <i name="e_wo_entrp">   -188.37082404 </i>
    <i name="e_0_energy">   -188.49768584 </i>
   </energy>
  </scstep>
  <scstep>
   <time name="diag">    1.55    1.56</time>
   <time name="diis">    4.82    4.93</time>
   <time name="orth">    0.37    0.38</time>
   <time name="total">    7.04    7.17</time>
   <dipole>
    <v name="dipole">      0.00000000       0.00000000      -0.00351330 </v>
    <i name="Tr[quadrupol]"> -10355.21327665 </i>
    <i name="Echarged">      0.00000000 </i>
    <i name="Edipol_quadrupol">      0.00000000 </i>
    <i name="Eion">      0.00000000 </i>
   </dipole>
   <energy>
    <i name="e_fr_energy">   -188.51186752 </i>
    <i name="e_wo_entrp">   -188.24129794 </i>
    <i name="e_0_energy">   -188.37658273 </i>
   </energy>
  </scstep>
  <scstep>
   <time name="diag">    1.58    1.59</time>
   <time name="diis">    4.89    4.91</time>
   <time name="orth">    0.38    0.38</time>
   <time name="total">    7.13    7.17</time>
   <dipole>
    <v name="dipole">      0.00000000       0.00000000      -0.00023532 </v>
    <i name="Tr[quadrupol]"> -10355.62370877 </i>
    <i name="Echarged">      0.00000000 </i>
    <i name="Edipol_quadrupol">      0.00000000 </i>
    <i name="Eion">      0.00000000 </i>
   </dipole>
   <energy>
    <i name="e_fr_energy">   -188.36499303 </i>
    <i name="e_wo_entrp">   -188.09543625 </i>
    <i name="e_0_energy">   -188.23021464 </i>
   </energy>
  </scstep>
  <scstep>
   <time name="diag">    1.57    1.58</time>
   <time name="diis">    4.90    4.93</time>
   <time name="orth">    0.37    0.38</time>
   <time name="total">    7.14    7.18</time>
   <dipole>
    <v name="dipole">      0.00000000       0.00000000      -0.01003752 </v>
    <i name="Tr[quadrupol]"> -10355.94522621 </i>
    <i name="Echarged">      0.00000000 </i>
    <i name="Edipol_quadrupol">      0.00000000 </i>
    <i name="Eion">      0.00000000 </i>
   </dipole>
   <energy>
    <i name="e_fr_energy">   -188.25717251 </i>
    <i name="e_wo_entrp">   -187.98332917 </i>
    <i name="e_0_energy">   -188.12025084 </i>
   </energy>
  </scstep>
  <scstep>
   <time name="diag">    1.58    1.59</time>
   <time name="diis">    4.88    4.91</time>
   <time name="orth">    0.37    0.37</time>
   <time name="total">    7.13    7.17</time>
   <dipole>
    <v name="dipole">      0.00000000       0.00000000      -0.01711567 </v>
    <i name="Tr[quadrupol]"> -10356.14373145 </i>
    <i name="Echarged">      0.00000000 </i>
    <i name="Edipol_quadrupol">      0.00000000 </i>
    <i name="Eion">      0.00000000 </i>
   </dipole>
   <energy>
    <i name="e_fr_energy">   -188.20030328 </i>
    <i name="e_wo_entrp">   -187.93171630 </i>
    <i name="e_0_energy">   -188.06600979 </i>
   </energy>
  </scstep>
  <scstep>
   <time name="diag">    1.55    1.56</time>
   <time name="diis">    4.89    4.92</time>
   <time name="orth">    0.37    0.38</time>
   <time name="total">    7.12    7.16</time>
   <dipole>
    <v name="dipole">      0.00000000       0.00000000      -0.01601817 </v>
    <i name="Tr[quadrupol]"> -10356.33378076 </i>
    <i name="Echarged">      0.00000000 </i>
    <i name="Edipol_quadrupol">      0.00000000 </i>
    <i name="Eion">      0.00000000 </i>
   </dipole>
   <energy>
    <i name="e_fr_energy">   -188.18405263 </i>
    <i name="e_wo_entrp">   -187.91687439 </i>
    <i name="e_0_energy">   -188.05046351 </i>
   </energy>
  </scstep>
  <scstep>
   <time name="diag">    1.58    1.58</time>
   <time name="diis">    4.89    4.91</time>
   <time name="orth">    0.37    0.37</time>
   <time name="total">    7.13    7.16</time>
   <dipole>
    <v name="dipole">      0.00000000       0.00000000      -0.01005857 </v>
    <i name="Tr[quadrupol]"> -10356.40622306 </i>
    <i name="Echarged">      0.00000000 </i>
    <i name="Edipol_quadrupol">      0.00000000 </i>
    <i name="Eion">      0.00000000 </i>
   </dipole>
   <energy>
    <i name="e_fr_energy">   -188.17905383 </i>
    <i name="e_wo_entrp">   -187.91258456 </i>
    <i name="e_0_energy">   -188.04581920 </i>
   </energy>
  </scstep>
  <scstep>
   <time name="diag">    1.57    1.58</time>
   <time name="diis">    4.81    4.94</time>
   <time name="orth">    0.37    0.38</time>
   <time name="total">    7.05    7.19</time>
   <dipole>
    <v name="dipole">      0.00000000       0.00000000      -0.00547939 </v>
    <i name="Tr[quadrupol]"> -10356.48088174 </i>
    <i name="Echarged">      0.00000000 </i>
    <i name="Edipol_quadrupol">      0.00000000 </i>
    <i name="Eion">      0.00000000 </i>
   </dipole>
   <energy>
    <i name="e_fr_energy">   -188.17801848 </i>
    <i name="e_wo_entrp">   -187.91142738 </i>
    <i name="e_0_energy">   -188.04472293 </i>
   </energy>
  </scstep>
  <scstep>
   <time name="diag">    1.59    1.59</time>
   <time name="diis">    4.84    4.91</time>
   <time name="orth">    0.37    0.37</time>
   <time name="total">    7.10    7.18</time>
   <dipole>
    <v name="dipole">      0.00000000       0.00000000      -0.00647286 </v>
    <i name="Tr[quadrupol]"> -10356.65185894 </i>
    <i name="Echarged">      0.00000000 </i>
    <i name="Edipol_quadrupol">      0.00000000 </i>
    <i name="Eion">      0.00000000 </i>
   </dipole>
   <energy>
    <i name="e_fr_energy">   -188.17747144 </i>
    <i name="e_wo_entrp">   -187.91042255 </i>
    <i name="e_0_energy">   -188.04394700 </i>
   </energy>
  </scstep>
  <scstep>
   <time name="diag">    1.55    1.56</time>
   <time name="diis">    4.86    4.89</time>
   <time name="orth">    0.37    0.37</time>
   <time name="total">    7.08    7.12</time>
   <dipole>
    <v name="dipole">      0.00000000       0.00000000      -0.00679999 </v>
    <i name="Tr[quadrupol]"> -10356.79944732 </i>
    <i name="Echarged">      0.00000000 </i>
    <i name="Edipol_quadrupol">      0.00000000 </i>
    <i name="Eion">      0.00000000 </i>
   </dipole>
   <energy>
    <i name="e_fr_energy">   -188.17662626 </i>
    <i name="e_wo_entrp">   -187.91053044 </i>
    <i name="e_0_energy">   -188.04357835 </i>
   </energy>
  </scstep>
  <scstep>
   <time name="diag">    1.58    1.59</time>
   <time name="diis">    4.90    4.92</time>
   <time name="orth">    0.37    0.37</time>
   <time name="total">    7.13    7.17</time>
   <dipole>
    <v name="dipole">      0.00000000       0.00000000      -0.00646871 </v>
    <i name="Tr[quadrupol]"> -10356.89325076 </i>
    <i name="Echarged">      0.00000000 </i>
    <i name="Edipol_quadrupol">      0.00000000 </i>
    <i name="Eion">      0.00000000 </i>
   </dipole>
   <energy>
    <i name="e_fr_energy">   -188.17651552 </i>
    <i name="e_wo_entrp">   -187.91033378 </i>
    <i name="e_0_energy">   -188.04342465 </i>
   </energy>
  </scstep>
  <scstep>
   <time name="diag">    1.56    1.57</time>
   <time name="diis">    4.89    4.91</time>
   <time name="orth">    0.37    0.37</time>
   <time name="total">    7.12    7.16</time>
   <dipole>
    <v name="dipole">      0.00000000       0.00000000      -0.00547896 </v>
    <i name="Tr[quadrupol]"> -10356.94818039 </i>
    <i name="Echarged">      0.00000000 </i>
    <i name="Edipol_quadrupol">      0.00000000 </i>
    <i name="Eion">      0.00000000 </i>
   </dipole>
   <energy>
    <i name="e_fr_energy">   -188.17661601 </i>
    <i name="e_wo_entrp">   -187.91101146 </i>
    <i name="e_0_energy">   -188.04381374 </i>
   </energy>
  </scstep>
  <scstep>
   <time name="diag">    1.58    1.59</time>
   <time name="diis">    4.90    4.93</time>
   <time name="orth">    0.36    0.40</time>
   <time name="total">    7.14    7.24</time>
   <dipole>
    <v name="dipole">      0.00000000       0.00000000      -0.00444374 </v>
    <i name="Tr[quadrupol]"> -10357.03456393 </i>
    <i name="Echarged">      0.00000000 </i>
    <i name="Edipol_quadrupol">      0.00000000 </i>
    <i name="Eion">      0.00000000 </i>
   </dipole>
   <energy>
    <i name="e_fr_energy">   -188.17703488 </i>
    <i name="e_wo_entrp">   -187.91136831 </i>
    <i name="e_0_energy">   -188.04420159 </i>
   </energy>
  </scstep>
  <scstep>
   <time name="diag">    1.55    1.56</time>
   <time name="diis">    4.92    4.94</time>
   <time name="orth">    0.37    0.37</time>
   <time name="total">    7.13    7.18</time>
   <dipole>
    <v name="dipole">      0.00000000       0.00000000      -0.00336298 </v>
    <i name="Tr[quadrupol]"> -10357.13271084 </i>
    <i name="Echarged">      0.00000000 </i>
    <i name="Edipol_quadrupol">      0.00000000 </i>
    <i name="Eion">      0.00000000 </i>
   </dipole>
   <energy>
    <i name="e_fr_energy">   -188.17757210 </i>
    <i name="e_wo_entrp">   -187.91193425 </i>
    <i name="e_0_energy">   -188.04475317 </i>
   </energy>
  </scstep>
  <scstep>
   <time name="diag">    1.58    1.58</time>
   <time name="diis">    5.01    5.04</time>
   <time name="orth">    0.37    0.37</time>
   <time name="total">    7.25    7.29</time>
   <dipole>
    <v name="dipole">      0.00000000       0.00000000      -0.00267686 </v>
    <i name="Tr[quadrupol]"> -10357.19148532 </i>
    <i name="Echarged">      0.00000000 </i>
    <i name="Edipol_quadrupol">      0.00000000 </i>
    <i name="Eion">      0.00000000 </i>
   </dipole>
   <energy>
    <i name="e_fr_energy">   -188.17805328 </i>
    <i name="e_wo_entrp">   -187.91230122 </i>
    <i name="e_0_energy">   -188.04517725 </i>
   </energy>
  </scstep>
  <scstep>
   <time name="diag">    1.58    1.59</time>
   <time name="diis">    4.91    4.93</time>
   <time name="orth">    0.37    0.37</time>
   <time name="total">    7.15    7.19</time>
   <dipole>
    <v name="dipole">      0.00000000       0.00000000      -0.00227359 </v>
    <i name="Tr[quadrupol]"> -10357.24967473 </i>
    <i name="Echarged">      0.00000000 </i>
    <i name="Edipol_quadrupol">      0.00000000 </i>
    <i name="Eion">      0.00000000 </i>
   </dipole>
   <energy>
    <i name="e_fr_energy">   -188.17859916 </i>
    <i name="e_wo_entrp">   -187.91274159 </i>
    <i name="e_0_energy">   -188.04567038 </i>
   </energy>
  </scstep>
  <scstep>
   <time name="diag">    1.58    1.59</time>
   <time name="diis">    4.86    4.89</time>
   <time name="orth">    0.37    0.37</time>
   <time name="total">    7.10    7.15</time>
   <dipole>
    <v name="dipole">      0.00000000       0.00000000      -0.00105033 </v>
    <i name="Tr[quadrupol]"> -10357.33551137 </i>
    <i name="Echarged">      0.00000000 </i>
    <i name="Edipol_quadrupol">      0.00000000 </i>
    <i name="Eion">      0.00000000 </i>
   </dipole>
   <energy>
    <i name="e_fr_energy">   -188.17939755 </i>
    <i name="e_wo_entrp">   -187.91354608 </i>
    <i name="e_0_energy">   -188.04647181 </i>
   </energy>
  </scstep>
  <scstep>
   <time name="diag">    1.55    1.56</time>
   <time name="diis">    4.39    4.41</time>
   <time name="orth">    0.37    0.37</time>
   <time name="total">    6.61    6.65</time>
   <dipole>
    <v name="dipole">      0.00000000       0.00000000      -0.00043048 </v>
    <i name="Tr[quadrupol]"> -10357.37554983 </i>
    <i name="Echarged">      0.00000000 </i>
    <i name="Edipol_quadrupol">      0.00000000 </i>
    <i name="Eion">      0.00000000 </i>
   </dipole>
   <energy>
    <i name="e_fr_energy">   -188.17971753 </i>
    <i name="e_wo_entrp">   -187.91388866 </i>
    <i name="e_0_energy">   -188.04680309 </i>
   </energy>
  </scstep>
  <scstep>
   <time name="diag">    1.58    1.59</time>
   <time name="diis">    3.83    3.94</time>
   <time name="orth">    0.37    0.37</time>
   <time name="total">    6.07    6.19</time>
   <dipole>
    <v name="dipole">      0.00000000       0.00000000       0.00006333 </v>
    <i name="Tr[quadrupol]"> -10357.40056795 </i>
    <i name="Echarged">      0.00000000 </i>
    <i name="Edipol_quadrupol">      0.00000000 </i>
    <i name="Eion">      0.00000000 </i>
   </dipole>
   <energy>
    <i name="e_fr_energy">   -188.17992643 </i>
    <i name="e_wo_entrp">   -187.91407827 </i>
    <i name="e_0_energy">   -188.04700235 </i>
   </energy>
  </scstep>
  <scstep>
   <time name="diag">    1.56    1.57</time>
   <time name="diis">    3.39    3.41</time>
   <time name="orth">    0.37    0.37</time>
   <time name="total">    5.62    5.66</time>
   <dipole>
    <v name="dipole">      0.00000000       0.00000000       0.00022192 </v>
    <i name="Tr[quadrupol]"> -10357.40967853 </i>
    <i name="Echarged">      0.00000000 </i>
    <i name="Edipol_quadrupol">      0.00000000 </i>
    <i name="Eion">      0.00000000 </i>
   </dipole>
   <energy>
    <i name="e_fr_energy">   -188.17999501 </i>
    <i name="e_wo_entrp">   -187.91416838 </i>
    <i name="e_0_energy">   -188.04708170 </i>
   </energy>
  </scstep>
  <scstep>
   <time name="diag">    1.59    1.59</time>
   <time name="diis">    3.38    3.39</time>
   <time name="orth">    0.37    0.37</time>
   <time name="total">    5.63    5.66</time>
   <dipole>
    <v name="dipole">      0.00000000       0.00000000       0.00059608 </v>
    <i name="Tr[quadrupol]"> -10357.42393776 </i>
    <i name="Echarged">      0.00000000 </i>
    <i name="Edipol_quadrupol">      0.00000000 </i>
    <i name="Eion">      0.00000000 </i>
   </dipole>
   <energy>
    <i name="e_fr_energy">   -188.18011829 </i>
    <i name="e_wo_entrp">   -187.91428573 </i>
    <i name="e_0_energy">   -188.04720201 </i>
   </energy>
  </scstep>
  <scstep>
   <time name="diag">    1.55    1.56</time>
   <time name="diis">    3.02    3.04</time>
   <time name="orth">    0.37    0.37</time>
   <time name="total">    5.23    5.27</time>
   <dipole>
    <v name="dipole">      0.00000000       0.00000000       0.00077334 </v>
    <i name="Tr[quadrupol]"> -10357.43068022 </i>
    <i name="Echarged">      0.00000000 </i>
    <i name="Edipol_quadrupol">      0.00000000 </i>
    <i name="Eion">      0.00000000 </i>
   </dipole>
   <energy>
    <i name="e_fr_energy">   -188.18016885 </i>
    <i name="e_wo_entrp">   -187.91434395 </i>
    <i name="e_0_energy">   -188.04725640 </i>
   </energy>
  </scstep>
  <scstep>
   <time name="diag">    1.58    1.58</time>
   <time name="diis">    3.04    3.05</time>
   <time name="orth">    0.37    0.37</time>
   <time name="total">    5.27    5.30</time>
   <dipole>
    <v name="dipole">      0.00000000       0.00000000       0.00099355 </v>
    <i name="Tr[quadrupol]"> -10357.43880892 </i>
    <i name="Echarged">      0.00000000 </i>
    <i name="Edipol_quadrupol">      0.00000000 </i>
    <i name="Eion">      0.00000000 </i>
   </dipole>
   <energy>
    <i name="e_fr_energy">   -188.18021548 </i>
    <i name="e_wo_entrp">   -187.91439456 </i>
    <i name="e_0_energy">   -188.04730502 </i>
   </energy>
  </scstep>
  <scstep>
   <time name="diag">    1.57    1.57</time>
   <time name="diis">    2.90    2.92</time>
   <time name="orth">    0.37    0.37</time>
   <time name="total">    5.14    5.17</time>
   <dipole>
    <v name="dipole">      0.00000000       0.00000000       0.00111751 </v>
    <i name="Tr[quadrupol]"> -10357.44282875 </i>
    <i name="Echarged">      0.00000000 </i>
    <i name="Edipol_quadrupol">      0.00000000 </i>
    <i name="Eion">      0.00000000 </i>
   </dipole>
   <energy>
    <i name="e_fr_energy">   -188.18022926 </i>
    <i name="e_wo_entrp">   -187.91440750 </i>
    <i name="e_0_energy">   -188.04731838 </i>
   </energy>
  </scstep>
  <scstep>
   <time name="diag">    1.58    1.59</time>
   <time name="diis">    2.54    2.56</time>
   <time name="orth">    0.37    0.37</time>
   <time name="total">    4.79    4.82</time>
   <dipole>
    <v name="dipole">      0.00000000       0.00000000       0.00122779 </v>
    <i name="Tr[quadrupol]"> -10357.44654128 </i>
    <i name="Echarged">      0.00000000 </i>
    <i name="Edipol_quadrupol">      0.00000000 </i>
    <i name="Eion">      0.00000000 </i>
   </dipole>
   <energy>
    <i name="e_fr_energy">   -188.18023707 </i>
    <i name="e_wo_entrp">   -187.91441399 </i>
    <i name="e_0_energy">   -188.04732553 </i>
   </energy>
  </scstep>
  <scstep>
   <time name="diag">    1.55    1.56</time>
   <time name="diis">    2.52    2.53</time>
   <time name="orth">    0.37    0.37</time>
   <time name="total">    4.74    4.76</time>
   <dipole>
    <v name="dipole">      0.00000000       0.00000000       0.00131685 </v>
    <i name="Tr[quadrupol]"> -10357.45040558 </i>
    <i name="Echarged">      0.00000000 </i>
    <i name="Edipol_quadrupol">      0.00000000 </i>
    <i name="Eion">      0.00000000 </i>
   </dipole>
   <energy>
    <i name="e_fr_energy">   -188.18024070 </i>
    <i name="e_wo_entrp">   -187.91441801 </i>
    <i name="e_0_energy">   -188.04732935 </i>
   </energy>
  </scstep>
  <scstep>
   <time name="diag">    1.53    1.61</time>
   <time name="diis">    2.15    2.18</time>
   <time name="orth">    0.37    0.37</time>
   <time name="total">    4.35    4.46</time>
   <dipole>
    <v name="dipole">      0.00000000       0.00000000       0.00136956 </v>
    <i name="Tr[quadrupol]"> -10357.45272530 </i>
    <i name="Echarged">      0.00000000 </i>
    <i name="Edipol_quadrupol">      0.00000000 </i>
    <i name="Eion">      0.00000000 </i>
   </dipole>
   <energy>
    <i name="e_fr_energy">   -188.18024180 </i>
    <i name="e_wo_entrp">   -187.91441940 </i>
    <i name="e_0_energy">   -188.04733060 </i>
   </energy>
  </scstep>
  <scstep>
   <time name="diag">    1.57    1.58</time>
   <time name="diis">    2.05    2.06</time>
   <time name="orth">    0.37    0.37</time>
   <time name="total">    4.05    4.07</time>
   <dipole>
    <v name="dipole">      0.00000000       0.00000000       0.00140621 </v>
    <i name="Tr[quadrupol]"> -10357.45438728 </i>
    <i name="Echarged">      0.00000000 </i>
    <i name="Edipol_quadrupol">      0.00000000 </i>
    <i name="Eion">      0.00000000 </i>
   </dipole>
   <energy>
    <i name="alphaZ">    805.86914164 </i>
    <i name="ewald"> 200400.19806040 </i>
    <i name="hartreedc">-242585.81760541 </i>
    <i name="XCdc">   -343.25732557 </i>
    <i name="pawpsdc">  49415.66103267 </i>
    <i name="pawaedc"> -47493.63229015 </i>
    <i name="eentropy">     -0.26582361 </i>
    <i name="bandstr">  -2046.72130475 </i>
    <i name="atom">  41659.78587232 </i>
    <i name="e_fr_energy">   -188.18024246 </i>
    <i name="e_wo_entrp">   -187.91441885 </i>
    <i name="e_0_energy">   -188.04733065 </i>
   </energy>
  </scstep>
  <structure>
   <crystal>
    <varray name="basis" >
     <v>      11.00258152       0.00000000       0.00000000 </v>
     <v>       5.50129076       9.52851510       0.00000000 </v>
     <v>       0.00000000       0.00000000      24.49178509 </v>
    </varray>
    <i name="volume">   2567.67623402 </i>
    <varray name="rec_basis" >
     <v>       0.09088776      -0.05247407       0.00000000 </v>
     <v>       0.00000000       0.10494815       0.00000000 </v>
     <v>       0.00000000       0.00000000       0.04083002 </v>
    </varray>
   </crystal>
   <varray name="positions" >
    <v>       0.41666667       0.66666667       0.50000000 </v>
    <v>       0.33333333       0.83333333       0.40830017 </v>
    <v>       0.25000000       0.50000000       0.59169983 </v>
    <v>       0.16666667       0.66666667       0.50000000 </v>
    <v>       0.33333333       0.58333333       0.40830017 </v>
    <v>       0.58333333       0.08333333       0.40830017 </v>
    <v>       0.41666667       0.91666667       0.50000000 </v>
    <v>       0.50000000       0.50000000       0.59169983 </v>
    <v>       0.66666667       0.41666667       0.50000000 </v>
    <v>       0.16666667       0.16666667       0.50000000 </v>
    <v>       0.33333333       0.08333333       0.40830017 </v>
    <v>       0.00000000       0.75000000       0.59169983 </v>
    <v>       0.50000000       0.00000000       0.59169983 </v>
    <v>       0.08333333       0.83333333       0.40830017 </v>
    <v>       0.00000000       0.50000000       0.59169983 </v>
    <v>       0.91666667       0.66666667       0.50000000 </v>
    <v>       0.58333333       0.83333333       0.40830017 </v>
    <v>       0.00000000       0.25000000       0.59169983 </v>
    <v>       0.66666667       0.66666667       0.50000000 </v>
    <v>       0.41666667       0.41666667       0.50000000 </v>
    <v>       0.50000000       0.25000000       0.59169983 </v>
    <v>       0.91666667       0.16666667       0.50000000 </v>
    <v>       0.83333333       0.08333333       0.40830017 </v>
    <v>       0.50000000       0.75000000       0.59169983 </v>
    <v>       0.08333333       0.08333333       0.40830017 </v>
    <v>       0.75000000       0.00000000       0.59169983 </v>
    <v>       0.75000000       0.25000000       0.59169983 </v>
    <v>       0.83333333       0.58333333       0.40830017 </v>
    <v>       0.75000000       0.50000000       0.59169983 </v>
    <v>       0.83333333       0.83333333       0.40830017 </v>
    <v>       0.66666667       0.16666667       0.50000000 </v>
    <v>       0.83333333       0.33333333       0.40830017 </v>
    <v>       0.25000000       0.75000000       0.59169983 </v>
    <v>       0.58333333       0.33333333       0.40830017 </v>
    <v>       0.41666667       0.16666667       0.50000000 </v>
    <v>       0.66666667       0.91666667       0.50000000 </v>
    <v>       0.16666667       0.91666667       0.50000000 </v>
    <v>       0.25000000       0.25000000       0.59169983 </v>
    <v>       0.16666667       0.41666667       0.50000000 </v>
    <v>       0.33333333       0.33333333       0.40830017 </v>
    <v>       0.25000000       0.00000000       0.59169983 </v>
    <v>       0.91666667       0.91666667       0.50000000 </v>
    <v>       0.08333333       0.58333333       0.40830017 </v>
    <v>       0.91666667       0.41666667       0.50000000 </v>
    <v>       0.08333333       0.33333333       0.40830017 </v>
    <v>       0.00000000       0.00000000       0.59169983 </v>
    <v>       0.58333333       0.58333333       0.40830017 </v>
    <v>       0.75000000       0.75000000       0.59169983 </v>
   </varray>
  </structure>
  <varray name="forces" >
   <v>      -0.11910590       0.25210153       0.01351107 </v>
   <v>      -0.13622446       0.07508800      -1.66461697 </v>
   <v>      -0.14494850      -0.10649780       1.63616860 </v>
   <v>      -0.21748861       0.27139570      -0.03001436 </v>
   <v>      -0.02588752      -0.42338347      -1.83449298 </v>
   <v>       0.15488050       0.18064611      -1.12782418 </v>
   <v>      -0.07432250       0.38443613       0.32877688 </v>
   <v>       0.24863521      -0.03404461       1.86488300 </v>
   <v>       0.36933716      -0.40678767      -0.30508793 </v>
   <v>       0.15886016       0.27732889      -0.01142143 </v>
   <v>      -0.11140257       0.52225348      -1.58439130 </v>
   <v>       0.01366129       0.59675114       1.53892841 </v>
   <v>       0.19057442       0.09597488       1.30891703 </v>
   <v>      -0.24340416       0.17631331      -1.40365943 </v>
   <v>      -0.22564002      -0.17518754       1.40054616 </v>
   <v>      -0.22197981       0.08853365      -0.52625067 </v>
   <v>       0.36513461      -0.35224348      -1.60121850 </v>
   <v>      -0.08658970      -0.06452632       1.52679984 </v>
   <v>       0.55661014      -0.33035056      -0.06187068 </v>
   <v>      -0.31407560      -0.74992523      -0.57141046 </v>
   <v>       0.10747979      -0.39344249       1.36522876 </v>
   <v>      -0.16080806      -0.22670849       0.01507938 </v>
   <v>      -0.00928519       0.09752512      -1.33465032 </v>
   <v>      -0.00943990       0.04217776       1.81858116 </v>
   <v>      -0.02864885       0.21057464      -0.89855568 </v>
   <v>       0.11574457       0.05331890       0.52145718 </v>
   <v>       0.02852328      -0.18886349       0.87775122 </v>
   <v>       0.09908278      -0.20118962      -0.77438837 </v>
   <v>       0.08415583      -0.05618892       0.89598053 </v>
   <v>       0.04414821      -0.18693525      -0.68538244 </v>
   <v>      -0.09571372      -0.32869941       0.13106385 </v>
   <v>       0.11406646       0.19889055      -0.84083447 </v>
   <v>      -0.01138347       0.41713265       0.92110733 </v>
   <v>       0.06734341       0.04246097      -0.83843803 </v>
   <v>       0.10636161       0.22270384      -0.01249478 </v>
   <v>       0.46156541       0.23442260       0.17178285 </v>
   <v>      -0.20968853       0.17268364       0.36707057 </v>
   <v>      -0.03906099      -0.04689811       0.74317873 </v>
   <v>      -0.12139506      -0.34306970      -0.41735984 </v>
   <v>      -0.14353141       0.10847424      -0.67970254 </v>
   <v>      -0.21680314      -0.06546303       0.85847254 </v>
   <v>      -0.19623258       0.22784871       0.19697148 </v>
   <v>      -0.28636591      -0.24735437      -0.79291927 </v>
   <v>       0.11638088       0.08504936      -0.36396997 </v>
   <v>      -0.08285917       0.22027038      -0.62854913 </v>
   <v>      -0.04804344      -0.11577950       0.65870936 </v>
   <v>       0.17464483      -0.29414797      -1.05665467 </v>
   <v>       0.00313824       0.08333089       0.88519247 </v>
  </varray>
  <energy>
   <i name="e_fr_energy">   -188.18024246 </i>
   <i name="e_wo_entrp">   -188.04733065 </i>
   <i name="e_0_energy">     -0.26582361 </i>
  </energy>
  <time name="totalsc">  293.14  295.62</time>
 </calculation>
 <calculation>
  <scstep>
   <time name="dav">    9.48    9.53</time>
   <time name="total">    9.77    9.82</time>
   <dipole>
    <v name="dipole">      0.00000000       0.00000000       0.00146298 </v>
    <i name="Tr[quadrupol]"> -10334.45079981 </i>
    <i name="Echarged">      0.00000000 </i>
    <i name="Edipol_quadrupol">      0.00000000 </i>
    <i name="Eion">      0.00000000 </i>
   </dipole>
   <energy>
    <i name="alphaZ">    805.86913001 </i>
    <i name="ewald"> 197644.10875237 </i>
    <i name="hartreedc">-239846.53521112 </i>
    <i name="XCdc">   -345.53581455 </i>
    <i name="pawpsdc">  49415.65847930 </i>
    <i name="pawaedc"> -47493.62974232 </i>
    <i name="eentropy">     -0.25828226 </i>
    <i name="bandstr">  -2028.78174823 </i>
    <i name="atom">  41659.78587232 </i>
    <i name="e_fr_energy">   -189.31856449 </i>
    <i name="e_wo_entrp">   -189.06028223 </i>
    <i name="e_0_energy">   -189.18942336 </i>
   </energy>
  </scstep>
  <scstep>
   <time name="diag">    1.57    1.58</time>
   <time name="diis">    4.86    4.88</time>
   <time name="orth">    0.37    0.37</time>
   <time name="total">    7.09    7.13</time>
   <dipole>
    <v name="dipole">      0.00000000       0.00000000       0.00935060 </v>
    <i name="Tr[quadrupol]"> -10334.19161940 </i>
    <i name="Echarged">      0.00000000 </i>
    <i name="Edipol_quadrupol">      0.00000000 </i>
    <i name="Eion">      0.00000000 </i>
   </dipole>
   <energy>
    <i name="e_fr_energy">   -189.72005143 </i>
    <i name="e_wo_entrp">   -189.46642952 </i>
    <i name="e_0_energy">   -189.59324047 </i>
   </energy>
  </scstep>
  <scstep>
   <time name="diag">    1.55    1.57</time>
   <time name="diis">    4.89    4.91</time>
   <time name="orth">    0.37    0.37</time>
   <time name="total">    7.09    7.14</time>
   <dipole>
    <v name="dipole">      0.00000000       0.00000000      -0.04000925 </v>
    <i name="Tr[quadrupol]"> -10334.68580623 </i>
    <i name="Echarged">      0.00000000 </i>
    <i name="Edipol_quadrupol">      0.00000000 </i>
    <i name="Eion">      0.00000000 </i>
   </dipole>
   <energy>
    <i name="e_fr_energy">   -189.83241543 </i>
    <i name="e_wo_entrp">   -189.56382449 </i>
    <i name="e_0_energy">   -189.69811996 </i>
   </energy>
  </scstep>
  <scstep>
   <time name="diag">    1.58    1.58</time>
   <time name="diis">    4.78    4.90</time>
   <time name="orth">    0.37    0.37</time>
   <time name="total">    7.01    7.15</time>
   <dipole>
    <v name="dipole">      0.00000000       0.00000000       0.03973120 </v>
    <i name="Tr[quadrupol]"> -10334.55340466 </i>
    <i name="Echarged">      0.00000000 </i>
    <i name="Edipol_quadrupol">      0.00000000 </i>
    <i name="Eion">      0.00000000 </i>
   </dipole>
   <energy>
    <i name="e_fr_energy">   -189.72283635 </i>
    <i name="e_wo_entrp">   -189.46636921 </i>
    <i name="e_0_energy">   -189.59460278 </i>
   </energy>
  </scstep>
  <scstep>
   <time name="diag">    1.54    1.55</time>
   <time name="diis">    4.88    4.91</time>
   <time name="orth">    0.37    0.37</time>
   <time name="total">    7.08    7.12</time>
   <dipole>
    <v name="dipole">      0.00000000       0.00000000      -0.07548292 </v>
    <i name="Tr[quadrupol]"> -10334.51500522 </i>
    <i name="Echarged">      0.00000000 </i>
    <i name="Edipol_quadrupol">      0.00000000 </i>
    <i name="Eion">      0.00000000 </i>
   </dipole>
   <energy>
    <i name="e_fr_energy">   -189.81387374 </i>
    <i name="e_wo_entrp">   -189.57490833 </i>
    <i name="e_0_energy">   -189.69439103 </i>
   </energy>
  </scstep>
  <scstep>
   <time name="diag">    1.57    1.58</time>
   <time name="diis">    4.85    4.88</time>
   <time name="orth">    0.37    0.37</time>
   <time name="total">    7.08    7.12</time>
   <dipole>
    <v name="dipole">      0.00000000       0.00000000       0.01470192 </v>
    <i name="Tr[quadrupol]"> -10334.53107949 </i>
    <i name="Echarged">      0.00000000 </i>
    <i name="Edipol_quadrupol">      0.00000000 </i>
    <i name="Eion">      0.00000000 </i>
   </dipole>
   <energy>
    <i name="e_fr_energy">   -189.70178122 </i>
    <i name="e_wo_entrp">   -189.44392560 </i>
    <i name="e_0_energy">   -189.57285341 </i>
   </energy>
  </scstep>
  <scstep>
   <time name="diag">    1.54    1.55</time>
   <time name="diis">    4.85    4.88</time>
   <time name="orth">    0.37    0.37</time>
   <time name="total">    7.06    7.10</time>
   <dipole>
    <v name="dipole">      0.00000000       0.00000000       0.00243291 </v>
    <i name="Tr[quadrupol]"> -10334.51111289 </i>
    <i name="Echarged">      0.00000000 </i>
    <i name="Edipol_quadrupol">      0.00000000 </i>
    <i name="Eion">      0.00000000 </i>
   </dipole>
   <energy>
    <i name="e_fr_energy">   -189.69127618 </i>
    <i name="e_wo_entrp">   -189.42929945 </i>
    <i name="e_0_energy">   -189.56028781 </i>
   </energy>
  </scstep>
  <scstep>
   <time name="diag">    1.57    1.57</time>
   <time name="diis">    4.87    4.90</time>
   <time name="orth">    0.37    0.37</time>
   <time name="total">    7.09    7.14</time>
   <dipole>
    <v name="dipole">      0.00000000       0.00000000       0.00049231 </v>
    <i name="Tr[quadrupol]"> -10334.48343700 </i>
    <i name="Echarged">      0.00000000 </i>
    <i name="Edipol_quadrupol">      0.00000000 </i>
    <i name="Eion">      0.00000000 </i>
   </dipole>
   <energy>
    <i name="e_fr_energy">   -189.68973051 </i>
    <i name="e_wo_entrp">   -189.43029704 </i>
    <i name="e_0_energy">   -189.56001377 </i>
   </energy>
  </scstep>
  <scstep>
   <time name="diag">    1.54    1.55</time>
   <time name="diis">    4.84    4.87</time>
   <time name="orth">    0.37    0.37</time>
   <time name="total">    7.05    7.08</time>
   <dipole>
    <v name="dipole">      0.00000000       0.00000000       0.00406452 </v>
    <i name="Tr[quadrupol]"> -10334.47599741 </i>
    <i name="Echarged">      0.00000000 </i>
    <i name="Edipol_quadrupol">      0.00000000 </i>
    <i name="Eion">      0.00000000 </i>
   </dipole>
   <energy>
    <i name="e_fr_energy">   -189.68874835 </i>
    <i name="e_wo_entrp">   -189.42792573 </i>
    <i name="e_0_energy">   -189.55833704 </i>
   </energy>
  </scstep>
  <scstep>
   <time name="diag">    1.57    1.58</time>
   <time name="diis">    4.77    4.89</time>
   <time name="orth">    0.37    0.37</time>
   <time name="total">    7.00    7.13</time>
   <dipole>
    <v name="dipole">      0.00000000       0.00000000       0.00238604 </v>
    <i name="Tr[quadrupol]"> -10334.47272693 </i>
    <i name="Echarged">      0.00000000 </i>
    <i name="Edipol_quadrupol">      0.00000000 </i>
    <i name="Eion">      0.00000000 </i>
   </dipole>
   <energy>
    <i name="e_fr_energy">   -189.68864017 </i>
    <i name="e_wo_entrp">   -189.42810532 </i>
    <i name="e_0_energy">   -189.55837274 </i>
   </energy>
  </scstep>
  <scstep>
   <time name="diag">    1.54    1.55</time>
   <time name="diis">    4.93    4.95</time>
   <time name="orth">    0.37    0.37</time>
   <time name="total">    7.14    7.17</time>
   <dipole>
    <v name="dipole">      0.00000000       0.00000000       0.00349694 </v>
    <i name="Tr[quadrupol]"> -10334.47322300 </i>
    <i name="Echarged">      0.00000000 </i>
    <i name="Edipol_quadrupol">      0.00000000 </i>
    <i name="Eion">      0.00000000 </i>
   </dipole>
   <energy>
    <i name="e_fr_energy">   -189.68850929 </i>
    <i name="e_wo_entrp">   -189.42756976 </i>
    <i name="e_0_energy">   -189.55803953 </i>
   </energy>
  </scstep>
  <scstep>
   <time name="diag">    1.57    1.58</time>
   <time name="diis">    4.82    4.84</time>
   <time name="orth">    0.37    0.37</time>
   <time name="total">    7.04    7.08</time>
   <dipole>
    <v name="dipole">      0.00000000       0.00000000       0.00309874 </v>
    <i name="Tr[quadrupol]"> -10334.47711319 </i>
    <i name="Echarged">      0.00000000 </i>
    <i name="Edipol_quadrupol">      0.00000000 </i>
    <i name="Eion">      0.00000000 </i>
   </dipole>
   <energy>
    <i name="e_fr_energy">   -189.68850798 </i>
    <i name="e_wo_entrp">   -189.42763544 </i>
    <i name="e_0_energy">   -189.55807171 </i>
   </energy>
  </scstep>
  <scstep>
   <time name="diag">    1.54    1.55</time>
   <time name="diis">    4.87    4.89</time>
   <time name="orth">    0.37    0.37</time>
   <time name="total">    7.07    7.11</time>
   <dipole>
    <v name="dipole">      0.00000000       0.00000000       0.00309244 </v>
    <i name="Tr[quadrupol]"> -10334.48107426 </i>
    <i name="Echarged">      0.00000000 </i>
    <i name="Edipol_quadrupol">      0.00000000 </i>
    <i name="Eion">      0.00000000 </i>
   </dipole>
   <energy>
    <i name="e_fr_energy">   -189.68849677 </i>
    <i name="e_wo_entrp">   -189.42769853 </i>
    <i name="e_0_energy">   -189.55809765 </i>
   </energy>
  </scstep>
  <scstep>
   <time name="diag">    1.57    1.58</time>
   <time name="diis">    4.77    4.80</time>
   <time name="orth">    0.37    0.37</time>
   <time name="total">    7.01    7.04</time>
   <dipole>
    <v name="dipole">      0.00000000       0.00000000       0.00294314 </v>
    <i name="Tr[quadrupol]"> -10334.48472494 </i>
    <i name="Echarged">      0.00000000 </i>
    <i name="Edipol_quadrupol">      0.00000000 </i>
    <i name="Eion">      0.00000000 </i>
   </dipole>
   <energy>
    <i name="e_fr_energy">   -189.68849341 </i>
    <i name="e_wo_entrp">   -189.42774337 </i>
    <i name="e_0_energy">   -189.55811839 </i>
   </energy>
  </scstep>
  <scstep>
   <time name="diag">    1.55    1.56</time>
   <time name="diis">    3.66    3.68</time>
   <time name="orth">    0.37    0.37</time>
   <time name="total">    5.64    5.67</time>
   <dipole>
    <v name="dipole">      0.00000000       0.00000000       0.00297285 </v>
    <i name="Tr[quadrupol]"> -10334.48697900 </i>
    <i name="Echarged">      0.00000000 </i>
    <i name="Edipol_quadrupol">      0.00000000 </i>
    <i name="Eion">      0.00000000 </i>
   </dipole>
   <energy>
    <i name="alphaZ">    805.86888806 </i>
    <i name="ewald"> 197644.10875237 </i>
    <i name="hartreedc">-239848.44195735 </i>
    <i name="XCdc">   -345.47209368 </i>
    <i name="pawpsdc">  48952.11547387 </i>
    <i name="pawaedc"> -47026.87100095 </i>
    <i name="eentropy">     -0.26071996 </i>
    <i name="bandstr">  -2030.52170718 </i>
    <i name="atom">  41659.78587232 </i>
    <i name="e_fr_energy">   -189.68849251 </i>
    <i name="e_wo_entrp">   -189.42777255 </i>
    <i name="e_0_energy">   -189.55813253 </i>
   </energy>
  </scstep>
  <structure>
   <crystal>
    <varray name="basis" >
     <v>      11.00258152       0.00000000       0.00000000 </v>
     <v>       5.50129076       9.52851510       0.00000000 </v>
     <v>       0.00000000       0.00000000      24.49178509 </v>
    </varray>
    <i name="volume">   2567.67623402 </i>
    <varray name="rec_basis" >
     <v>       0.09088776      -0.05247407       0.00000000 </v>
     <v>       0.00000000       0.10494815       0.00000000 </v>
     <v>       0.00000000       0.00000000       0.04083002 </v>
    </varray>
   </crystal>
   <varray name="positions" >
    <v>       0.41585436       0.66756014       0.50001863 </v>
    <v>       0.33278217       0.83359945       0.40600496 </v>
    <v>       0.24974383       0.49962256       0.59395582 </v>
    <v>       0.16551821       0.66762852       0.49995862 </v>
    <v>       0.33400413       0.58183283       0.40577073 </v>
    <v>       0.58348859       0.08397356       0.40674510 </v>
    <v>       0.41575731       0.91802914       0.50045333 </v>
    <v>       0.50082346       0.49987934       0.59427118 </v>
    <v>       0.66852111       0.41522498       0.49957934 </v>
    <v>       0.16666281       0.16764954       0.49998425 </v>
    <v>       0.33206595       0.08518424       0.40611557 </v>
    <v>      -0.00101554       0.75211494       0.59382174 </v>
    <v>       0.50041485       0.00034014       0.59350460 </v>
    <v>       0.08227383       0.83395820       0.40636477 </v>
    <v>      -0.00038211       0.49937912       0.59363094 </v>
    <v>       0.91582847       0.66698044       0.49927439 </v>
    <v>       0.58507822       0.83208495       0.40609237 </v>
    <v>      -0.00015142       0.24977131       0.59380502 </v>
    <v>       0.66896045       0.66549588       0.49991469 </v>
    <v>       0.41703158       0.41400887       0.49921213 </v>
    <v>       0.50102708       0.24860561       0.59358224 </v>
    <v>       0.91657484       0.16586319       0.50002079 </v>
    <v>       0.83313202       0.08367897       0.40645992 </v>
    <v>       0.49989629       0.75014948       0.59420733 </v>
    <v>       0.08287226       0.08407963       0.40706122 </v>
    <v>       0.75026077       0.00018897       0.59241883 </v>
    <v>       0.75042222       0.24933065       0.59291010 </v>
    <v>       0.83399396       0.58262030       0.40723242 </v>
    <v>       0.75035787       0.49980086       0.59293523 </v>
    <v>       0.83380009       0.83267082       0.40735515 </v>
    <v>       0.66695536       0.16550173       0.50018071 </v>
    <v>       0.83333099       0.33403822       0.40714081 </v>
    <v>       0.24922588       0.75147835       0.59296988 </v>
    <v>       0.58346479       0.33348382       0.40714411 </v>
    <v>       0.41659848       0.16745595       0.49998277 </v>
    <v>       0.66766793       0.91749748       0.50023686 </v>
    <v>       0.16571707       0.91727867       0.50050613 </v>
    <v>       0.24996322       0.24983379       0.59272454 </v>
    <v>       0.16690201       0.41545080       0.49942453 </v>
    <v>       0.33270058       0.33371778       0.40736298 </v>
    <v>       0.24945058      -0.00023201       0.59288351 </v>
    <v>       0.91566062       0.91747418       0.50027159 </v>
    <v>       0.08289272       0.58245669       0.40720687 </v>
    <v>       0.91687316       0.41696809       0.49949815 </v>
    <v>       0.08268869       0.33411399       0.40743351 </v>
    <v>       0.00005771      -0.00041033       0.59260807 </v>
    <v>       0.58439061       0.58229085       0.40684323 </v>
    <v>       0.74986197       0.75029533       0.59292036 </v>
   </varray>
  </structure>
  <varray name="forces" >
   <v>      -0.03661561       0.01394049      -0.00276274 </v>
   <v>      -0.02944654       0.05294925      -1.12407072 </v>
   <v>      -0.04558401      -0.03160853       1.06872312 </v>
   <v>      -0.11894704       0.05240440      -0.00006685 </v>
   <v>      -0.03661139      -0.19496112      -1.29235772 </v>
   <v>       0.04187225       0.08389267      -0.85690548 </v>
   <v>       0.08236140       0.13339975       0.04564399 </v>
   <v>       0.08758250      -0.05817494       1.15992199 </v>
   <v>       0.04410528      -0.15924515      -0.05203488 </v>
   <v>       0.02569051       0.15536354       0.01701919 </v>
   <v>      -0.03661531       0.23650523      -1.14691201 </v>
   <v>      -0.04377296       0.25457625       1.09527500 </v>
   <v>       0.07524939       0.01789115       0.98337131 </v>
   <v>      -0.13265682       0.06104147      -1.00912281 </v>
   <v>      -0.08661092      -0.00792201       0.93959110 </v>
   <v>       0.04654310       0.01496885      -0.09136187 </v>
   <v>       0.14493074      -0.14733039      -1.05681565 </v>
   <v>      -0.08853464      -0.07844294       1.09167100 </v>
   <v>       0.10706038      -0.01484558       0.01274796 </v>
   <v>      -0.07459368      -0.22563992      -0.11432083 </v>
   <v>       0.09571325      -0.14076390       1.02731924 </v>
   <v>      -0.02532425      -0.13611490       0.00678661 </v>
   <v>       0.00594314       0.10157588      -1.01312370 </v>
   <v>       0.02877143       0.01639989       1.26326155 </v>
   <v>      -0.01941539       0.16547472      -0.65726758 </v>
   <v>       0.08812067       0.03752338       0.50597818 </v>
   <v>       0.03757804      -0.10552186       0.67654215 </v>
   <v>       0.05443799      -0.15891203      -0.73077070 </v>
   <v>       0.02749928      -0.04198756       0.65432240 </v>
   <v>       0.04273612      -0.09407547      -0.57745140 </v>
   <v>      -0.06579313      -0.20707940       0.04411632 </v>
   <v>       0.08617579       0.08817029      -0.70513141 </v>
   <v>      -0.00956142       0.18603808       0.70284134 </v>
   <v>       0.09101380       0.00916447      -0.69136014 </v>
   <v>       0.05706264      -0.01261741      -0.01343996 </v>
   <v>       0.11840487       0.17760916       0.03093195 </v>
   <v>      -0.11523860       0.10492970       0.06583757 </v>
   <v>      -0.03150925      -0.04928280       0.57889909 </v>
   <v>      -0.06512467      -0.06202837      -0.08717734 </v>
   <v>      -0.11510512       0.06137163      -0.65836852 </v>
   <v>      -0.12148902       0.00132353       0.69832851 </v>
   <v>      -0.08983851       0.09653869       0.03583421 </v>
   <v>      -0.13848865      -0.14253250      -0.64644490 </v>
   <v>       0.13789705      -0.06433936      -0.08642905 </v>
   <v>      -0.09302470       0.13383925      -0.58496316 </v>
   <v>      -0.01733120      -0.00951657       0.58488455 </v>
   <v>       0.08594444      -0.14413480      -0.75258451 </v>
   <v>       0.02453874       0.03018579       0.66139561 </v>
  </varray>
  <energy>
   <i name="e_fr_energy">   -189.68849251 </i>
   <i name="e_wo_entrp">   -189.55813253 </i>
   <i name="e_0_energy">     -0.26071996 </i>
  </energy>
  <time name="totalsc">  110.41  111.34</time>
 </calculation>
 <calculation>
  <scstep>
   <time name="dav">    9.46    9.55</time>
   <time name="total">    9.74    9.84</time>
   <dipole>
    <v name="dipole">      0.00000000       0.00000000       0.00296401 </v>
    <i name="Tr[quadrupol]"> -10266.61797449 </i>
    <i name="Echarged">      0.00000000 </i>
    <i name="Edipol_quadrupol">      0.00000000 </i>
    <i name="Eion">      0.00000000 </i>
   </dipole>
   <energy>
    <i name="alphaZ">    805.86887338 </i>
    <i name="ewald"> 189505.30406226 </i>
    <i name="hartreedc">-231753.12587645 </i>
    <i name="XCdc">   -351.14766378 </i>
    <i name="pawpsdc">  48951.96499906 </i>
    <i name="pawaedc"> -47026.72026168 </i>
    <i name="eentropy">     -0.23696259 </i>
    <i name="bandstr">  -1979.82423988 </i>
    <i name="atom">  41659.78587232 </i>
    <i name="e_fr_energy">   -188.13119735 </i>
    <i name="e_wo_entrp">   -187.89423476 </i>
    <i name="e_0_energy">   -188.01271606 </i>
   </energy>
  </scstep>
  <scstep>
   <time name="diag">    1.57    1.58</time>
   <time name="diis">    4.83    4.86</time>
   <time name="orth">    0.37    0.37</time>
   <time name="total">    7.06    7.10</time>
   <dipole>
    <v name="dipole">      0.00000000       0.00000000       0.01944440 </v>
    <i name="Tr[quadrupol]"> -10265.77848558 </i>
    <i name="Echarged">      0.00000000 </i>
    <i name="Edipol_quadrupol">      0.00000000 </i>
    <i name="Eion">      0.00000000 </i>
   </dipole>
   <energy>
    <i name="e_fr_energy">   -191.69499929 </i>
    <i name="e_wo_entrp">   -191.47460265 </i>
    <i name="e_0_energy">   -191.58480097 </i>
   </energy>
  </scstep>
  <scstep>
   <time name="diag">    1.54    1.55</time>
   <time name="diis">    4.90    4.93</time>
   <time name="orth">    0.37    0.37</time>
   <time name="total">    7.10    7.14</time>
   <dipole>
    <v name="dipole">      0.00000000       0.00000000      -0.04113363 </v>
    <i name="Tr[quadrupol]"> -10266.99034532 </i>
    <i name="Echarged">      0.00000000 </i>
    <i name="Edipol_quadrupol">      0.00000000 </i>
    <i name="Eion">      0.00000000 </i>
   </dipole>
   <energy>
    <i name="e_fr_energy">   -192.27961124 </i>
    <i name="e_wo_entrp">   -192.05342720 </i>
    <i name="e_0_energy">   -192.16651922 </i>
   </energy>
  </scstep>
  <scstep>
   <time name="diag">    1.57    1.57</time>
   <time name="diis">    4.85    4.88</time>
   <time name="orth">    0.37    0.37</time>
   <time name="total">    7.07    7.11</time>
   <dipole>
    <v name="dipole">      0.00000000       0.00000000       0.00802364 </v>
    <i name="Tr[quadrupol]"> -10266.66575658 </i>
    <i name="Echarged">      0.00000000 </i>
    <i name="Edipol_quadrupol">      0.00000000 </i>
    <i name="Eion">      0.00000000 </i>
   </dipole>
   <energy>
    <i name="e_fr_energy">   -191.49349137 </i>
    <i name="e_wo_entrp">   -191.26607049 </i>
    <i name="e_0_energy">   -191.37978093 </i>
   </energy>
  </scstep>
  <scstep>
   <time name="diag">    1.55    1.56</time>
   <time name="diis">    4.80    4.82</time>
   <time name="orth">    0.37    0.37</time>
   <time name="total">    7.01    7.05</time>
   <dipole>
    <v name="dipole">      0.00000000       0.00000000       0.05413095 </v>
    <i name="Tr[quadrupol]"> -10266.84511522 </i>
    <i name="Echarged">      0.00000000 </i>
    <i name="Edipol_quadrupol">      0.00000000 </i>
    <i name="Eion">      0.00000000 </i>
   </dipole>
   <energy>
    <i name="e_fr_energy">   -191.62932333 </i>
    <i name="e_wo_entrp">   -191.38083683 </i>
    <i name="e_0_energy">   -191.50508008 </i>
   </energy>
  </scstep>
  <scstep>
   <time name="diag">    1.51    1.60</time>
   <time name="diis">    4.84    4.86</time>
   <time name="orth">    0.37    0.37</time>
   <time name="total">    7.00    7.13</time>
   <dipole>
    <v name="dipole">      0.00000000       0.00000000      -0.08561852 </v>
    <i name="Tr[quadrupol]"> -10266.79219240 </i>
    <i name="Echarged">      0.00000000 </i>
    <i name="Edipol_quadrupol">      0.00000000 </i>
    <i name="Eion">      0.00000000 </i>
   </dipole>
   <energy>
    <i name="e_fr_energy">   -191.59560341 </i>
    <i name="e_wo_entrp">   -191.36327029 </i>
    <i name="e_0_energy">   -191.47943685 </i>
   </energy>
  </scstep>
  <scstep>
   <time name="diag">    1.54    1.55</time>
   <time name="diis">    4.86    4.88</time>
   <time name="orth">    0.37    0.37</time>
   <time name="total">    7.06    7.09</time>
   <dipole>
    <v name="dipole">      0.00000000       0.00000000       0.05746169 </v>
    <i name="Tr[quadrupol]"> -10266.75346482 </i>
    <i name="Echarged">      0.00000000 </i>
    <i name="Edipol_quadrupol">      0.00000000 </i>
    <i name="Eion">      0.00000000 </i>
   </dipole>
   <energy>
    <i name="e_fr_energy">   -191.45489935 </i>
    <i name="e_wo_entrp">   -191.21545037 </i>
    <i name="e_0_energy">   -191.33517486 </i>
   </energy>
  </scstep>
  <scstep>
   <time name="diag">    1.57    1.58</time>
   <time name="diis">    4.83    4.86</time>
   <time name="orth">    0.37    0.37</time>
   <time name="total">    7.06    7.10</time>
   <dipole>
    <v name="dipole">      0.00000000       0.00000000      -0.00631929 </v>
    <i name="Tr[quadrupol]"> -10266.65686519 </i>
    <i name="Echarged">      0.00000000 </i>
    <i name="Edipol_quadrupol">      0.00000000 </i>
    <i name="Eion">      0.00000000 </i>
   </dipole>
   <energy>
    <i name="e_fr_energy">   -191.40636436 </i>
    <i name="e_wo_entrp">   -191.16553320 </i>
    <i name="e_0_energy">   -191.28594878 </i>
   </energy>
  </scstep>
  <scstep>
   <time name="diag">    1.54    1.55</time>
   <time name="diis">    4.79    4.82</time>
   <time name="orth">    0.37    0.38</time>
   <time name="total">    6.99    7.05</time>
   <dipole>
    <v name="dipole">      0.00000000       0.00000000       0.01182935 </v>
    <i name="Tr[quadrupol]"> -10266.62187240 </i>
    <i name="Echarged">      0.00000000 </i>
    <i name="Edipol_quadrupol">      0.00000000 </i>
    <i name="Eion">      0.00000000 </i>
[...]
       <r>    2.2687    0.0000 </r>
       <r>    2.3547    0.0000 </r>
       <r>    2.4578    0.0000 </r>
       <r>    2.5579    0.0000 </r>
       <r>    2.6487    0.0000 </r>
       <r>    2.9684    0.0000 </r>
       <r>    3.1706    0.0000 </r>
       <r>    3.2814    0.0000 </r>
       <r>    3.4518    0.0000 </r>
       <r>    3.6563    0.0000 </r>
       <r>    3.7621    0.0000 </r>
       <r>    3.9627    0.0000 </r>
       <r>    4.1079    0.0000 </r>
       <r>    4.1554    0.0000 </r>
       <r>    4.4133    0.0000 </r>
       <r>    4.5261    0.0000 </r>
       <r>    4.6190    0.0000 </r>
       <r>    4.6372    0.0000 </r>
       <r>    4.7141    0.0000 </r>
       <r>    4.7979    0.0000 </r>
       <r>    4.8730    0.0000 </r>
       <r>    4.9580    0.0000 </r>
       <r>    4.9850    0.0000 </r>
       <r>    5.0515    0.0000 </r>
       <r>    5.0757    0.0000 </r>
       <r>    5.1361    0.0000 </r>
       <r>    5.2073    0.0000 </r>
       <r>    5.2376    0.0000 </r>
      </set>
     </set>
    </set>
   </array>
  </eigenvalues>
  <separator name="orbital magnetization" >
   <v name="MAGDIPOLOUT">      0.00000000      0.00000000      0.00000000</v>
  </separator>
  <dos>
   <i name="efermi">     -1.10559374 </i>
   <total>
    <array>
     <dimension dim="1">gridpoints</dimension>
     <dimension dim="2">spin</dimension>
     <field>energy</field>
     <field>total</field>
     <field>integrated</field>
     <set>
      <set comment="spin 1">
       <r>    -9.8212     0.0000     0.0000 </r>
       <r>    -9.7673     0.0000     0.0000 </r>
       <r>    -9.7134     0.0000     0.0000 </r>
       <r>    -9.6595     0.0000     0.0000 </r>
       <r>    -9.6056     0.0000     0.0000 </r>
       <r>    -9.5516     0.0000     0.0000 </r>
       <r>    -9.4977     0.0000     0.0000 </r>
       <r>    -9.4438     0.0000     0.0000 </r>
       <r>    -9.3899     0.0000     0.0000 </r>
       <r>    -9.3360     0.0000     0.0000 </r>
       <r>    -9.2820     0.0000     0.0000 </r>
       <r>    -9.2281     0.0000     0.0000 </r>
       <r>    -9.1742     0.0000     0.0000 </r>
       <r>    -9.1203     0.0001     0.0000 </r>
       <r>    -9.0663     0.0034     0.0002 </r>
       <r>    -9.0124     0.0448     0.0026 </r>
       <r>    -8.9585     0.3414     0.0210 </r>
       <r>    -8.9046     1.4949     0.1016 </r>
       <r>    -8.8507     3.7775     0.3053 </r>
       <r>    -8.7967     5.6124     0.6079 </r>
       <r>    -8.7428     5.4250     0.9005 </r>
       <r>    -8.6889     4.9135     1.1654 </r>
       <r>    -8.6350     5.5426     1.4643 </r>
       <r>    -8.5811     5.3048     1.7503 </r>
       <r>    -8.5271     3.2117     1.9235 </r>
       <r>    -8.4732     1.1485     1.9854 </r>
       <r>    -8.4193     0.2397     1.9983 </r>
       <r>    -8.3654     0.0323     2.0001 </r>
       <r>    -8.3115     0.0420     2.0023 </r>
       <r>    -8.2575     0.2880     2.0179 </r>
       <r>    -8.2036     1.2202     2.0837 </r>
       <r>    -8.1497     3.1080     2.2512 </r>
       <r>    -8.0958     5.0110     2.5214 </r>
       <r>    -8.0419     5.9202     2.8407 </r>
       <r>    -7.9879     6.9604     3.2160 </r>
       <r>    -7.9340     9.1508     3.7094 </r>
       <r>    -7.8801    10.3275     4.2663 </r>
       <r>    -7.8262     8.5970     4.7298 </r>
       <r>    -7.7722     5.7910     5.0421 </r>
       <r>    -7.7183     4.3553     5.2769 </r>
       <r>    -7.6644     4.8821     5.5402 </r>
       <r>    -7.6105     6.8070     5.9072 </r>
       <r>    -7.5566     9.0730     6.3964 </r>
       <r>    -7.5026    11.3849     7.0103 </r>
       <r>    -7.4487    13.6348     7.7455 </r>
       <r>    -7.3948    14.6098     8.5333 </r>
       <r>    -7.3409    14.1251     9.2949 </r>
       <r>    -7.2870    13.2270    10.0081 </r>
       <r>    -7.2330    12.2904    10.6709 </r>
       <r>    -7.1791    12.9352    11.3683 </r>
       <r>    -7.1252    16.8475    12.2768 </r>
       <r>    -7.0713    21.6532    13.4443 </r>
       <r>    -7.0174    24.8694    14.7853 </r>
       <r>    -6.9634    27.2944    16.2570 </r>
       <r>    -6.9095    29.3677    17.8406 </r>
       <r>    -6.8556    29.6814    19.4410 </r>
       <r>    -6.8017    28.5176    20.9787 </r>
       <r>    -6.7478    29.1273    22.5493 </r>
       <r>    -6.6938    33.9273    24.3787 </r>
       <r>    -6.6399    41.3347    26.6075 </r>
       <r>    -6.5860    47.6397    29.1762 </r>
       <r>    -6.5321    52.3099    31.9968 </r>
       <r>    -6.4781    56.3666    35.0362 </r>
       <r>    -6.4242    59.1034    38.2231 </r>
       <r>    -6.3703    61.1063    41.5180 </r>
       <r>    -6.3164    65.1300    45.0298 </r>
       <r>    -6.2625    71.9634    48.9102 </r>
       <r>    -6.2085    78.0868    53.1207 </r>
       <r>    -6.1546    80.0941    57.4394 </r>
       <r>    -6.1007    79.1549    61.7075 </r>
       <r>    -6.0468    78.5061    65.9406 </r>
       <r>    -5.9929    79.7254    70.2395 </r>
       <r>    -5.9389    82.0154    74.6618 </r>
       <r>    -5.8850    82.8095    79.1270 </r>
       <r>    -5.8311    80.4565    83.4653 </r>
       <r>    -5.7772    75.8662    87.5561 </r>
       <r>    -5.7233    71.0888    91.3892 </r>
       <r>    -5.6693    68.1302    95.0629 </r>
       <r>    -5.6154    67.4404    98.6993 </r>
       <r>    -5.5615    66.7134   102.2966 </r>
       <r>    -5.5076    65.0378   105.8034 </r>
       <r>    -5.4537    65.2324   109.3208 </r>
       <r>    -5.3997    68.0181   112.9884 </r>
       <r>    -5.3458    70.7589   116.8038 </r>
       <r>    -5.2919    72.7444   120.7263 </r>
       <r>    -5.2380    76.0458   124.8267 </r>
       <r>    -5.1840    81.1871   129.2044 </r>
       <r>    -5.1301    85.6785   133.8242 </r>
       <r>    -5.0762    87.6890   138.5525 </r>
       <r>    -5.0223    88.0240   143.2988 </r>
       <r>    -4.9684    88.1844   148.0538 </r>
       <r>    -4.9144    88.3020   152.8151 </r>
       <r>    -4.8605    87.5722   157.5371 </r>
       <r>    -4.8066    86.2593   162.1883 </r>
       <r>    -4.7527    85.9814   166.8245 </r>
       <r>    -4.6988    86.7261   171.5008 </r>
       <r>    -4.6448    86.3752   176.1582 </r>
       <r>    -4.5909    85.2550   180.7553 </r>
       <r>    -4.5370    85.7778   185.3805 </r>
       <r>    -4.4831    87.5067   190.0989 </r>
       <r>    -4.4292    87.8467   194.8357 </r>
       <r>    -4.3752    86.9815   199.5258 </r>
       <r>    -4.3213    87.0684   204.2206 </r>
       <r>    -4.2674    87.8471   208.9574 </r>
       <r>    -4.2135    87.7840   213.6908 </r>
       <r>    -4.1596    87.1748   218.3913 </r>
       <r>    -4.1056    86.6461   223.0634 </r>
       <r>    -4.0517    86.3243   227.7180 </r>
       <r>    -3.9978    87.4211   232.4319 </r>
       <r>    -3.9439    90.5714   237.3156 </r>
       <r>    -3.8899    93.9134   242.3794 </r>
       <r>    -3.8360    95.8186   247.5461 </r>
       <r>    -3.7821    97.0110   252.7770 </r>
       <r>    -3.7282    98.2939   258.0771 </r>
       <r>    -3.6743    99.5043   263.4424 </r>
       <r>    -3.6203   100.3694   268.8544 </r>
       <r>    -3.5664   100.9391   274.2972 </r>
       <r>    -3.5125   101.1845   279.7531 </r>
       <r>    -3.4586    99.8878   285.1391 </r>
       <r>    -3.4047    96.3845   290.3363 </r>
       <r>    -3.3507    92.3110   295.3138 </r>
       <r>    -3.2968    89.9744   300.1653 </r>
       <r>    -3.2429    90.1503   305.0263 </r>
       <r>    -3.1890    91.8740   309.9802 </r>
       <r>    -3.1351    93.7709   315.0364 </r>
       <r>    -3.0811    95.4372   320.1824 </r>
       <r>    -3.0272    96.4631   325.3838 </r>
       <r>    -2.9733    96.0873   330.5649 </r>
       <r>    -2.9194    95.0326   335.6892 </r>
       <r>    -2.8654    94.4870   340.7840 </r>
       <r>    -2.8115    94.6509   345.8876 </r>
       <r>    -2.7576    95.4275   351.0332 </r>
       <r>    -2.7037    97.0494   356.2662 </r>
       <r>    -2.6498    99.4823   361.6303 </r>
       <r>    -2.5958   101.5387   367.1054 </r>
       <r>    -2.5419   101.4484   372.5756 </r>
       <r>    -2.4880    99.0775   377.9179 </r>
       <r>    -2.4341    96.7586   383.1352 </r>
       <r>    -2.3802    95.4510   388.2820 </r>
       <r>    -2.3262    93.8974   393.3451 </r>
       <r>    -2.2723    91.9328   398.3022 </r>
       <r>    -2.2184    90.1899   403.1653 </r>
       <r>    -2.1645    89.5193   407.9922 </r>
       <r>    -2.1106    91.0998   412.9044 </r>
       <r>    -2.0566    93.6939   417.9565 </r>
       <r>    -2.0027    94.9061   423.0739 </r>
       <r>    -1.9488    95.1106   428.2023 </r>
       <r>    -1.8949    95.4133   433.3471 </r>
       <r>    -1.8410    95.3801   438.4901 </r>
       <r>    -1.7870    94.6095   443.5915 </r>
       <r>    -1.7331    94.1461   448.6679 </r>
       <r>    -1.6792    95.1456   453.7983 </r>
       <r>    -1.6253    97.0396   459.0307 </r>
       <r>    -1.5713    98.2959   464.3309 </r>
       <r>    -1.5174    98.1274   469.6220 </r>
       <r>    -1.4635    97.5577   474.8824 </r>
       <r>    -1.4096    97.7489   480.1531 </r>
       <r>    -1.3557    97.2750   485.3983 </r>
       <r>    -1.3017    93.5634   490.4433 </r>
       <r>    -1.2478    85.4879   495.0529 </r>
       <r>    -1.1939    73.6739   499.0255 </r>
       <r>    -1.1400    60.2840   502.2760 </r>
       <r>    -1.0861    48.1621   504.8730 </r>
       <r>    -1.0321    37.5395   506.8971 </r>
       <r>    -0.9782    26.1918   508.3094 </r>
       <r>    -0.9243    16.1074   509.1779 </r>
       <r>    -0.8704    11.2512   509.7846 </r>
       <r>    -0.8165    10.4073   510.3458 </r>
       <r>    -0.7625     9.9940   510.8847 </r>
       <r>    -0.7086     9.6976   511.4076 </r>
       <r>    -0.6547    11.2143   512.0123 </r>
       <r>    -0.6008    14.7508   512.8076 </r>
       <r>    -0.5469    18.8241   513.8226 </r>
       <r>    -0.4929    21.4049   514.9768 </r>
       <r>    -0.4390    21.2343   516.1218 </r>
       <r>    -0.3851    18.6169   517.1256 </r>
       <r>    -0.3312    16.4014   518.0100 </r>
       <r>    -0.2772    18.1203   518.9871 </r>
       <r>    -0.2233    21.7980   520.1624 </r>
       <r>    -0.1694    21.3520   521.3138 </r>
       <r>    -0.1155    16.4721   522.2019 </r>
       <r>    -0.0616    12.1804   522.8587 </r>
       <r>    -0.0076    10.7861   523.4403 </r>
       <r>     0.0463    11.4997   524.0604 </r>
       <r>     0.1002    13.4159   524.7838 </r>
       <r>     0.1541    14.7633   525.5798 </r>
       <r>     0.2080    15.0515   526.3914 </r>
       <r>     0.2620    16.2178   527.2659 </r>
       <r>     0.3159    17.8841   528.2302 </r>
       <r>     0.3698    19.3913   529.2758 </r>
       <r>     0.4237    21.5174   530.4361 </r>
       <r>     0.4776    22.5119   531.6499 </r>
       <r>     0.5316    20.9490   532.7795 </r>
       <r>     0.5855    19.1604   533.8127 </r>
       <r>     0.6394    19.5464   534.8666 </r>
       <r>     0.6933    21.5163   536.0268 </r>
       <r>     0.7472    21.9350   537.2096 </r>
       <r>     0.8012    18.5785   538.2113 </r>
       <r>     0.8551    13.8445   538.9578 </r>
       <r>     0.9090    11.8292   539.5957 </r>
       <r>     0.9629    12.4460   540.2668 </r>
       <r>     1.0169    12.7831   540.9561 </r>
       <r>     1.0708    12.0068   541.6035 </r>
       <r>     1.1247    10.2939   542.1585 </r>
       <r>     1.1786     8.0296   542.5915 </r>
       <r>     1.2325     6.8115   542.9588 </r>
       <r>     1.2865     6.9491   543.3335 </r>
       <r>     1.3404     6.8060   543.7004 </r>
       <r>     1.3943     6.6178   544.0573 </r>
       <r>     1.4482     9.4978   544.5694 </r>
       <r>     1.5021    15.3680   545.3981 </r>
       <r>     1.5561    18.8879   546.4165 </r>
       <r>     1.6100    17.1141   547.3393 </r>
       <r>     1.6639    13.1638   548.0491 </r>
       <r>     1.7178    11.3775   548.6626 </r>
       <r>     1.7717    12.9200   549.3593 </r>
       <r>     1.8257    15.5617   550.1984 </r>
       <r>     1.8796    16.5993   551.0934 </r>
       <r>     1.9335    15.7602   551.9432 </r>
       <r>     1.9874    14.0081   552.6986 </r>
       <r>     2.0413    12.9346   553.3960 </r>
       <r>     2.0953    14.0509   554.1536 </r>
       <r>     2.1492    16.2972   555.0324 </r>
       <r>     2.2031    18.1638   556.0118 </r>
       <r>     2.2570    19.5158   557.0641 </r>
       <r>     2.3110    20.2028   558.1535 </r>
       <r>     2.3649    20.3821   559.2525 </r>
       <r>     2.4188    20.7831   560.3731 </r>
       <r>     2.4727    21.1878   561.5156 </r>
       <r>     2.5266    21.2803   562.6630 </r>
       <r>     2.5806    21.8993   563.8439 </r>
       <r>     2.6345    23.1574   565.0925 </r>
       <r>     2.6884    23.0590   566.3359 </r>
       <r>     2.7423    19.6988   567.3981 </r>
       <r>     2.7962    14.3479   568.1717 </r>
       <r>     2.8502     9.5034   568.6841 </r>
       <r>     2.9041     6.5674   569.0383 </r>
       <r>     2.9580     6.1104   569.3677 </r>
       <r>     3.0119     6.4850   569.7174 </r>
       <r>     3.0658     6.0170   570.0419 </r>
       <r>     3.1198     5.8344   570.3565 </r>
       <r>     3.1737     6.8737   570.7271 </r>
       <r>     3.2276     8.4822   571.1845 </r>
       <r>     3.2815    10.0356   571.7256 </r>
       <r>     3.3354    11.1160   572.3250 </r>
       <r>     3.3894    12.1770   572.9816 </r>
       <r>     3.4433    14.1603   573.7451 </r>
       <r>     3.4972    16.2374   574.6206 </r>
       <r>     3.5511    17.1451   575.5451 </r>
       <r>     3.6051    17.2649   576.4761 </r>
       <r>     3.6590    17.4148   577.4151 </r>
       <r>     3.7129    17.7834   578.3740 </r>
       <r>     3.7668    17.2788   579.3057 </r>
       <r>     3.8207    14.6038   580.0931 </r>
       <r>     3.8747    11.5725   580.7171 </r>
       <r>     3.9286    11.1046   581.3159 </r>
       <r>     3.9825    12.8013   582.0061 </r>
       <r>     4.0364    14.1590   582.7696 </r>
       <r>     4.0903    14.0351   583.5264 </r>
       <r>     4.1443    13.2702   584.2419 </r>
       <r>     4.1982    12.4376   584.9126 </r>
       <r>     4.2521    10.5708   585.4826 </r>
       <r>     4.3060     8.0912   585.9188 </r>
       <r>     4.3599     8.0436   586.3526 </r>
       <r>     4.4139    11.1955   586.9562 </r>
       <r>     4.4678    14.4677   587.7363 </r>
       <r>     4.5217    17.1235   588.6597 </r>
       <r>     4.5756    21.3213   589.8093 </r>
       <r>     4.6296    26.0007   591.2113 </r>
       <r>     4.6835    27.6459   592.7020 </r>
       <r>     4.7374    26.3490   594.1228 </r>
       <r>     4.7913    24.8309   595.4617 </r>
       <r>     4.8452    24.0737   596.7597 </r>
       <r>     4.8992    24.7073   598.0920 </r>
       <r>     4.9531    28.1036   599.6073 </r>
       <r>     5.0070    33.4076   601.4087 </r>
       <r>     5.0609    37.0328   603.4055 </r>
       <r>     5.1148    35.9410   605.3435 </r>
       <r>     5.1688    31.8173   607.0591 </r>
       <r>     5.2227    28.5480   608.5985 </r>
       <r>     5.2766    25.2252   609.9586 </r>
       <r>     5.3305    19.2338   610.9957 </r>
       <r>     5.3844    11.5825   611.6203 </r>
       <r>     5.4384     5.1417   611.8975 </r>
       <r>     5.4923     1.5595   611.9816 </r>
       <r>     5.5462     0.3027   611.9979 </r>
       <r>     5.6001     0.0360   611.9999 </r>
       <r>     5.6540     0.0025   612.0000 </r>
       <r>     5.7080     0.0001   612.0000 </r>
       <r>     5.7619     0.0000   612.0000 </r>
       <r>     5.8158     0.0000   612.0000 </r>
       <r>     5.8697     0.0000   612.0000 </r>
       <r>     5.9237     0.0000   612.0000 </r>
       <r>     5.9776     0.0000   612.0000 </r>
       <r>     6.0315     0.0000   612.0000 </r>
       <r>     6.0854     0.0000   612.0000 </r>
       <r>     6.1393     0.0000   612.0000 </r>
       <r>     6.1933     0.0000   612.0000 </r>
       <r>     6.2472     0.0000   612.0000 </r>
       <r>     6.3011     0.0000   612.0000 </r>
       <r>     6.3550     0.0000   612.0000 </r>
      </set>
     </set>
    </array>
   </total>
  </dos>
 </calculation>
 <structure name="finalpos" >
  <crystal>
   <varray name="basis" >
    <v>      11.00258152       0.00000000       0.00000000 </v>
    <v>       5.50129076       9.52851510       0.00000000 </v>
    <v>       0.00000000       0.00000000      24.49178509 </v>
   </varray>
   <i name="volume">   2567.67623402 </i>
   <varray name="rec_basis" >
    <v>       0.09088776      -0.05247407       0.00000000 </v>
    <v>       0.00000000       0.10494815       0.00000000 </v>
    <v>       0.00000000       0.00000000       0.04083002 </v>
   </varray>
  </crystal>
  <varray name="positions" >
   <v>       0.41556690       0.66725122       0.49865142 </v>
   <v>       0.33182606       0.83439470       0.39177947 </v>
   <v>       0.25048113       0.49956591       0.60652961 </v>
   <v>       0.16549850       0.66747978       0.49942046 </v>
   <v>       0.33349904       0.58054985       0.39245490 </v>
   <v>       0.58164901       0.08592846       0.39793638 </v>
   <v>       0.41638658       0.91768403       0.49800348 </v>
   <v>       0.50230069       0.49922943       0.60758739 </v>
   <v>       0.66821167       0.41416921       0.50167524 </v>
   <v>       0.16732790       0.16815419       0.49961325 </v>
   <v>       0.32894959       0.08857820       0.39424415 </v>
   <v>      -0.00109041       0.75374708       0.60377873 </v>
   <v>       0.50149183      -0.00062680       0.60021069 </v>
   <v>       0.08072943       0.83420306       0.39484978 </v>
   <v>      -0.00047984       0.49933505       0.60568862 </v>
   <v>       0.91660116       0.66679671       0.50145728 </v>
   <v>       0.58572140       0.83096741       0.39556629 </v>
   <v>       0.00098591       0.24707563       0.60461323 </v>
   <v>       0.66805971       0.66644170       0.50132026 </v>
   <v>       0.41647693       0.41392936       0.50057078 </v>
   <v>       0.50340118       0.24749917       0.60223250 </v>
   <v>       0.91723926       0.16446282       0.49910570 </v>
   <v>       0.83177479       0.08630434       0.39619386 </v>
   <v>       0.50034062       0.74987746       0.60621125 </v>
   <v>       0.08054439       0.08769002       0.40036494 </v>
   <v>       0.75201496      -0.00018481       0.59408882 </v>
   <v>       0.75285062       0.24716867       0.59797190 </v>
   <v>       0.83383172       0.58223240       0.40473910 </v>
   <v>       0.75061124       0.49918421       0.59992730 </v>
   <v>       0.83394002       0.83167884       0.40259027 </v>
   <v>       0.66692474       0.16289274       0.49872947 </v>
   <v>       0.83204706       0.33701973       0.40374099 </v>
   <v>       0.25031156       0.75149209       0.59552043 </v>
   <v>       0.58252995       0.33561626       0.40324202 </v>
   <v>       0.41816375       0.16603442       0.49946755 </v>
   <v>       0.66620979       0.91874797       0.49830301 </v>
   <v>       0.16613488       0.91659691       0.49596816 </v>
   <v>       0.25084895       0.24837360       0.59758463 </v>
   <v>       0.16718092       0.41608057       0.50280639 </v>
   <v>       0.32960986       0.33606905       0.40431985 </v>
   <v>       0.25018508      -0.00175027       0.59534687 </v>
   <v>       0.91617819       0.91656817       0.49767843 </v>
   <v>       0.08170793       0.58200904       0.40409011 </v>
   <v>       0.91895511       0.41581382       0.50360817 </v>
   <v>       0.07968933       0.33687480       0.40519571 </v>
   <v>       0.00203854      -0.00176689       0.59422255 </v>
   <v>       0.58422781       0.58208786       0.40249260 </v>
   <v>       0.75031459       0.75047284       0.59830600 </v>
  </varray>
 </structure>
</modeling>
