  48  48   0   0
  0.5349325E+02  0.1100258E-08  0.1100258E-08  0.2449179E-08  0.3500000E-15
  1.000000000000000E-004
  CAR 
 unknown system                          
      6.36107829     -9.95790906  301     -1.10649231      1.00000000
     -9.958  0.0000E+00  0.0000E+00
     -9.904  0.0000E+00  0.0000E+00
     -9.849  0.0000E+00  0.0000E+00
     -9.795  0.0000E+00  0.0000E+00
     -9.740  0.0000E+00  0.0000E+00
     -9.686  0.0000E+00  0.0000E+00
     -9.632  0.0000E+00  0.0000E+00
     -9.577  0.0000E+00  0.0000E+00
     -9.523  0.1020E-16  0.5551E-18
     -9.468  0.4158E-14  0.2267E-15
     -9.414  0.9305E-12  0.5084E-13
     -9.360  0.1173E-09  0.6433E-11
     -9.305  0.8355E-08  0.4609E-09
     -9.251  0.3369E-06  0.1879E-07
     -9.196  0.7714E-05  0.4384E-06
     -9.142  0.1006E-03  0.5909E-05
     -9.088  0.7486E-03  0.4663E-04
     -9.033  0.3193E-02  0.2203E-03
     -8.979  0.7861E-02  0.6479E-03
     -8.924  0.1151E-01  0.1274E-02
     -8.870  0.1144E-01  0.1897E-02
     -8.816  0.1089E-01  0.2489E-02
     -8.761  0.1140E-01  0.3109E-02
     -8.707  0.9430E-02  0.3622E-02
     -8.652  0.4995E-02  0.3894E-02
     -8.598  0.1606E-02  0.3981E-02
     -8.544  0.3131E-03  0.3998E-02
     -8.489  0.8679E-04  0.4003E-02
     -8.435  0.3568E-03  0.4022E-02
     -8.380  0.1413E-02  0.4099E-02
     -8.326  0.3437E-02  0.4286E-02
     -8.272  0.5721E-02  0.4597E-02
     -8.217  0.7666E-02  0.5014E-02
     -8.163  0.8885E-02  0.5498E-02
     -8.108  0.9312E-02  0.6004E-02
     -8.054  0.1090E-01  0.6597E-02
     -8.000  0.1446E-01  0.7383E-02
     -7.945  0.1697E-01  0.8307E-02
     -7.891  0.1532E-01  0.9140E-02
     -7.836  0.1056E-01  0.9715E-02
     -7.782  0.7369E-02  0.1012E-01
     -7.728  0.8551E-02  0.1058E-01
     -7.673  0.1118E-01  0.1119E-01
     -7.619  0.1158E-01  0.1182E-01
     -7.564  0.1182E-01  0.1246E-01
     -7.510  0.1481E-01  0.1327E-01
     -7.456  0.1909E-01  0.1431E-01
     -7.401  0.2440E-01  0.1563E-01
     -7.347  0.3334E-01  0.1745E-01
     -7.292  0.4627E-01  0.1996E-01
     -7.238  0.6100E-01  0.2328E-01
     -7.184  0.7041E-01  0.2711E-01
     -7.129  0.6562E-01  0.3068E-01
     -7.075  0.4975E-01  0.3339E-01
     -7.020  0.3492E-01  0.3529E-01
     -6.966  0.2931E-01  0.3688E-01
     -6.912  0.3411E-01  0.3874E-01
     -6.857  0.4383E-01  0.4112E-01
     -6.803  0.5183E-01  0.4394E-01
     -6.749  0.5717E-01  0.4705E-01
     -6.694  0.6385E-01  0.5052E-01
     -6.640  0.7477E-01  0.5459E-01
     -6.585  0.8773E-01  0.5936E-01
     -6.531  0.9914E-01  0.6476E-01
     -6.477  0.1106E+00  0.7077E-01
     -6.422  0.1265E+00  0.7765E-01
     -6.368  0.1432E+00  0.8545E-01
     -6.313  0.1546E+00  0.9386E-01
     -6.259  0.1621E+00  0.1027E+00
     -6.205  0.1663E+00  0.1117E+00
     -6.150  0.1623E+00  0.1205E+00
     -6.096  0.1527E+00  0.1289E+00
     -6.041  0.1457E+00  0.1368E+00
     -5.987  0.1437E+00  0.1446E+00
     -5.933  0.1424E+00  0.1523E+00
     -5.878  0.1391E+00  0.1599E+00
     -5.824  0.1354E+00  0.1673E+00
     -5.769  0.1345E+00  0.1746E+00
     -5.715  0.1369E+00  0.1820E+00
     -5.661  0.1402E+00  0.1897E+00
     -5.606  0.1437E+00  0.1975E+00
     -5.552  0.1467E+00  0.2055E+00
     -5.497  0.1453E+00  0.2134E+00
     -5.443  0.1412E+00  0.2211E+00
     -5.389  0.1433E+00  0.2288E+00
     -5.334  0.1534E+00  0.2372E+00
     -5.280  0.1641E+00  0.2461E+00
     -5.225  0.1715E+00  0.2554E+00
     -5.171  0.1777E+00  0.2651E+00
     -5.117  0.1818E+00  0.2750E+00
     -5.062  0.1824E+00  0.2849E+00
     -5.008  0.1798E+00  0.2947E+00
     -4.953  0.1755E+00  0.3043E+00
     -4.899  0.1729E+00  0.3137E+00
     -4.845  0.1740E+00  0.3231E+00
     -4.790  0.1754E+00  0.3327E+00
     -4.736  0.1724E+00  0.3420E+00
     -4.681  0.1664E+00  0.3511E+00
     -4.627  0.1638E+00  0.3600E+00
     -4.573  0.1662E+00  0.3690E+00
     -4.518  0.1696E+00  0.3783E+00
     -4.464  0.1695E+00  0.3875E+00
     -4.409  0.1645E+00  0.3964E+00
     -4.355  0.1571E+00  0.4050E+00
     -4.301  0.1515E+00  0.4132E+00
     -4.246  0.1513E+00  0.4214E+00
     -4.192  0.1565E+00  0.4300E+00
     -4.137  0.1646E+00  0.4389E+00
     -4.083  0.1701E+00  0.4482E+00
     -4.029  0.1720E+00  0.4575E+00
     -3.974  0.1753E+00  0.4671E+00
     -3.920  0.1828E+00  0.4770E+00
     -3.865  0.1905E+00  0.4874E+00
     -3.811  0.1932E+00  0.4979E+00
     -3.757  0.1939E+00  0.5084E+00
     -3.702  0.1983E+00  0.5192E+00
     -3.648  0.2041E+00  0.5303E+00
     -3.594  0.2061E+00  0.5415E+00
     -3.539  0.2053E+00  0.5527E+00
     -3.485  0.2040E+00  0.5638E+00
     -3.430  0.2012E+00  0.5747E+00
     -3.376  0.1979E+00  0.5855E+00
     -3.322  0.1958E+00  0.5962E+00
     -3.267  0.1943E+00  0.6067E+00
     -3.213  0.1930E+00  0.6172E+00
     -3.158  0.1925E+00  0.6277E+00
     -3.104  0.1906E+00  0.6381E+00
     -3.050  0.1852E+00  0.6481E+00
     -2.995  0.1797E+00  0.6579E+00
     -2.941  0.1796E+00  0.6677E+00
     -2.886  0.1833E+00  0.6776E+00
     -2.832  0.1875E+00  0.6878E+00
     -2.778  0.1917E+00  0.6983E+00
     -2.723  0.1972E+00  0.7090E+00
     -2.669  0.2032E+00  0.7201E+00
     -2.614  0.2053E+00  0.7312E+00
     -2.560  0.2040E+00  0.7423E+00
     -2.506  0.2046E+00  0.7535E+00
     -2.451  0.2059E+00  0.7647E+00
     -2.397  0.2026E+00  0.7757E+00
     -2.342  0.1946E+00  0.7863E+00
     -2.288  0.1846E+00  0.7963E+00
     -2.234  0.1776E+00  0.8060E+00
     -2.179  0.1775E+00  0.8156E+00
     -2.125  0.1807E+00  0.8255E+00
     -2.070  0.1843E+00  0.8355E+00
     -2.016  0.1896E+00  0.8458E+00
     -1.962  0.1942E+00  0.8564E+00
     -1.907  0.1955E+00  0.8670E+00
     -1.853  0.1943E+00  0.8776E+00
     -1.798  0.1912E+00  0.8880E+00
     -1.744  0.1868E+00  0.8981E+00
     -1.690  0.1856E+00  0.9082E+00
     -1.635  0.1894E+00  0.9185E+00
     -1.581  0.1923E+00  0.9290E+00
     -1.526  0.1910E+00  0.9394E+00
     -1.472  0.1883E+00  0.9496E+00
     -1.418  0.1855E+00  0.9597E+00
     -1.363  0.1829E+00  0.9697E+00
     -1.309  0.1804E+00  0.9795E+00
     -1.254  0.1726E+00  0.9889E+00
     -1.200  0.1537E+00  0.9972E+00
     -1.146  0.1257E+00  0.1004E+01
     -1.091  0.9724E-01  0.1009E+01
     -1.037  0.7349E-01  0.1013E+01
     -0.982  0.5210E-01  0.1016E+01
     -0.928  0.3370E-01  0.1018E+01
     -0.874  0.2351E-01  0.1019E+01
     -0.819  0.2010E-01  0.1020E+01
     -0.765  0.1894E-01  0.1021E+01
     -0.710  0.2134E-01  0.1023E+01
     -0.656  0.2973E-01  0.1024E+01
     -0.602  0.4053E-01  0.1026E+01
     -0.547  0.4809E-01  0.1029E+01
     -0.493  0.4891E-01  0.1032E+01
     -0.438  0.4167E-01  0.1034E+01
     -0.384  0.3178E-01  0.1036E+01
     -0.330  0.2953E-01  0.1037E+01
     -0.275  0.3622E-01  0.1039E+01
     -0.221  0.4164E-01  0.1042E+01
     -0.167  0.3919E-01  0.1044E+01
     -0.112  0.3023E-01  0.1045E+01
     -0.058  0.1976E-01  0.1046E+01
     -0.003  0.1499E-01  0.1047E+01
      0.051  0.1897E-01  0.1048E+01
      0.105  0.2634E-01  0.1050E+01
      0.160  0.3066E-01  0.1051E+01
      0.214  0.3240E-01  0.1053E+01
      0.269  0.3343E-01  0.1055E+01
      0.323  0.3275E-01  0.1057E+01
      0.377  0.3286E-01  0.1058E+01
      0.432  0.3619E-01  0.1060E+01
      0.486  0.4130E-01  0.1063E+01
      0.541  0.4817E-01  0.1065E+01
      0.595  0.5379E-01  0.1068E+01
      0.649  0.5170E-01  0.1071E+01
      0.704  0.4317E-01  0.1073E+01
      0.758  0.3584E-01  0.1075E+01
      0.813  0.3223E-01  0.1077E+01
      0.867  0.3048E-01  0.1079E+01
      0.921  0.2928E-01  0.1080E+01
      0.976  0.2557E-01  0.1082E+01
      1.030  0.1975E-01  0.1083E+01
      1.085  0.1712E-01  0.1084E+01
      1.139  0.1849E-01  0.1085E+01
      1.193  0.1893E-01  0.1086E+01
      1.248  0.1552E-01  0.1087E+01
      1.302  0.1033E-01  0.1087E+01
      1.357  0.7841E-02  0.1088E+01
      1.411  0.1048E-01  0.1088E+01
      1.465  0.1783E-01  0.1089E+01
      1.520  0.2866E-01  0.1091E+01
      1.574  0.3749E-01  0.1093E+01
      1.629  0.3740E-01  0.1095E+01
      1.683  0.3101E-01  0.1096E+01
      1.737  0.2795E-01  0.1098E+01
      1.792  0.3084E-01  0.1100E+01
      1.846  0.3364E-01  0.1101E+01
      1.901  0.3403E-01  0.1103E+01
      1.955  0.3335E-01  0.1105E+01
      2.009  0.3057E-01  0.1107E+01
      2.064  0.2786E-01  0.1108E+01
      2.118  0.3028E-01  0.1110E+01
      2.173  0.3674E-01  0.1112E+01
      2.227  0.4166E-01  0.1114E+01
      2.281  0.4337E-01  0.1117E+01
      2.336  0.4257E-01  0.1119E+01
      2.390  0.3842E-01  0.1121E+01
      2.445  0.3267E-01  0.1123E+01
      2.499  0.3034E-01  0.1124E+01
      2.553  0.3492E-01  0.1126E+01
      2.608  0.4462E-01  0.1129E+01
      2.662  0.5135E-01  0.1132E+01
      2.717  0.4760E-01  0.1134E+01
      2.771  0.3532E-01  0.1136E+01
      2.825  0.2244E-01  0.1137E+01
      2.880  0.1455E-01  0.1138E+01
      2.934  0.1261E-01  0.1139E+01
      2.988  0.1176E-01  0.1139E+01
      3.043  0.8270E-02  0.1140E+01
      3.097  0.6541E-02  0.1140E+01
      3.152  0.1186E-01  0.1141E+01
      3.206  0.2191E-01  0.1142E+01
      3.260  0.2782E-01  0.1144E+01
      3.315  0.2456E-01  0.1145E+01
      3.369  0.1811E-01  0.1146E+01
      3.424  0.1767E-01  0.1147E+01
      3.478  0.2450E-01  0.1148E+01
      3.532  0.3368E-01  0.1150E+01
      3.587  0.4194E-01  0.1152E+01
      3.641  0.4609E-01  0.1155E+01
      3.696  0.4310E-01  0.1157E+01
      3.750  0.3468E-01  0.1159E+01
      3.804  0.2570E-01  0.1160E+01
      3.859  0.2120E-01  0.1162E+01
      3.913  0.2223E-01  0.1163E+01
      3.968  0.2572E-01  0.1164E+01
      4.022  0.2780E-01  0.1166E+01
      4.076  0.2656E-01  0.1167E+01
      4.131  0.2420E-01  0.1168E+01
      4.185  0.2240E-01  0.1170E+01
      4.240  0.1985E-01  0.1171E+01
      4.294  0.1671E-01  0.1172E+01
      4.348  0.1697E-01  0.1173E+01
      4.403  0.2250E-01  0.1174E+01
      4.457  0.2808E-01  0.1175E+01
      4.512  0.3290E-01  0.1177E+01
      4.566  0.4264E-01  0.1179E+01
      4.620  0.5382E-01  0.1182E+01
      4.675  0.5626E-01  0.1185E+01
      4.729  0.4963E-01  0.1188E+01
      4.784  0.4364E-01  0.1191E+01
      4.838  0.4551E-01  0.1193E+01
      4.892  0.5297E-01  0.1196E+01
      4.947  0.5940E-01  0.1199E+01
      5.001  0.6290E-01  0.1203E+01
      5.056  0.6648E-01  0.1206E+01
      5.110  0.7003E-01  0.1210E+01
      5.164  0.6982E-01  0.1214E+01
      5.219  0.6464E-01  0.1217E+01
      5.273  0.5341E-01  0.1220E+01
      5.328  0.3680E-01  0.1222E+01
      5.382  0.2063E-01  0.1223E+01
      5.436  0.9279E-02  0.1224E+01
      5.491  0.3084E-02  0.1224E+01
      5.545  0.6768E-03  0.1224E+01
      5.600  0.9066E-04  0.1224E+01
      5.654  0.7108E-05  0.1224E+01
      5.708  0.3197E-06  0.1224E+01
      5.763  0.8166E-08  0.1224E+01
      5.817  0.1177E-09  0.1224E+01
      5.872  0.9549E-12  0.1224E+01
      5.926  0.4345E-14  0.1224E+01
      5.980  0.1089E-16  0.1224E+01
      6.035  0.0000E+00  0.1224E+01
      6.089  0.0000E+00  0.1224E+01
      6.143  0.0000E+00  0.1224E+01
      6.198  0.0000E+00  0.1224E+01
      6.252  0.0000E+00  0.1224E+01
      6.307  0.0000E+00  0.1224E+01
      6.361  0.0000E+00  0.1224E+01
