  48  48   0   0
  0.5349325E+02  0.1100258E-08  0.1100258E-08  0.2449179E-08  0.3500000E-15
  1.000000000000000E-004
  CAR 
 unknown system                          
      6.42035491     -9.78239676  301     -1.10750762      1.00000000
     -9.782  0.0000E+00  0.0000E+00
     -9.728  0.0000E+00  0.0000E+00
     -9.674  0.0000E+00  0.0000E+00
     -9.620  0.0000E+00  0.0000E+00
     -9.566  0.0000E+00  0.0000E+00
     -9.512  0.0000E+00  0.0000E+00
     -9.458  0.0000E+00  0.0000E+00
     -9.404  0.0000E+00  0.0000E+00
     -9.350  0.1096E-16  0.5921E-18
     -9.296  0.4220E-14  0.2285E-15
     -9.242  0.9354E-12  0.5075E-13
     -9.188  0.1171E-09  0.6378E-11
     -9.134  0.8306E-08  0.4550E-09
     -9.080  0.3341E-06  0.1850E-07
     -9.026  0.7642E-05  0.4313E-06
     -8.972  0.9966E-04  0.5814E-05
     -8.918  0.7430E-03  0.4594E-04
     -8.864  0.3178E-02  0.2176E-03
     -8.810  0.7862E-02  0.6422E-03
     -8.756  0.1163E-01  0.1270E-02
     -8.702  0.1182E-01  0.1908E-02
     -8.648  0.1152E-01  0.2531E-02
     -8.594  0.1187E-01  0.3172E-02
     -8.540  0.9296E-02  0.3674E-02
     -8.486  0.4515E-02  0.3918E-02
     -8.432  0.1289E-02  0.3987E-02
     -8.378  0.2155E-03  0.3999E-02
     -8.324  0.4450E-04  0.4001E-02
     -8.270  0.1988E-03  0.4012E-02
     -8.216  0.9546E-03  0.4064E-02
     -8.162  0.2818E-02  0.4216E-02
     -8.108  0.5559E-02  0.4516E-02
     -8.054  0.8401E-02  0.4970E-02
     -8.000  0.1104E-01  0.5566E-02
     -7.946  0.1375E-01  0.6309E-02
     -7.892  0.1665E-01  0.7208E-02
     -7.838  0.1824E-01  0.8193E-02
     -7.784  0.1715E-01  0.9119E-02
     -7.730  0.1471E-01  0.9914E-02
     -7.676  0.1362E-01  0.1065E-01
     -7.622  0.1458E-01  0.1144E-01
     -7.568  0.1618E-01  0.1231E-01
     -7.514  0.1766E-01  0.1326E-01
     -7.460  0.1934E-01  0.1431E-01
     -7.406  0.2139E-01  0.1546E-01
     -7.352  0.2231E-01  0.1667E-01
     -7.298  0.2188E-01  0.1785E-01
     -7.244  0.2385E-01  0.1914E-01
     -7.190  0.2888E-01  0.2070E-01
     -7.136  0.3390E-01  0.2253E-01
     -7.082  0.3997E-01  0.2469E-01
     -7.028  0.4864E-01  0.2732E-01
     -6.974  0.5651E-01  0.3037E-01
     -6.920  0.5968E-01  0.3359E-01
     -6.866  0.5910E-01  0.3678E-01
     -6.812  0.6054E-01  0.4005E-01
     -6.758  0.6741E-01  0.4369E-01
     -6.704  0.7702E-01  0.4785E-01
     -6.650  0.8499E-01  0.5244E-01
     -6.596  0.8908E-01  0.5725E-01
     -6.542  0.9025E-01  0.6213E-01
     -6.488  0.9265E-01  0.6713E-01
     -6.434  0.9929E-01  0.7250E-01
     -6.380  0.1132E+00  0.7861E-01
     -6.326  0.1347E+00  0.8589E-01
     -6.272  0.1529E+00  0.9415E-01
     -6.218  0.1584E+00  0.1027E+00
     -6.164  0.1542E+00  0.1110E+00
     -6.110  0.1481E+00  0.1190E+00
     -6.056  0.1457E+00  0.1269E+00
     -6.002  0.1476E+00  0.1349E+00
     -5.948  0.1526E+00  0.1431E+00
     -5.894  0.1602E+00  0.1518E+00
     -5.840  0.1671E+00  0.1608E+00
     -5.786  0.1691E+00  0.1699E+00
     -5.732  0.1630E+00  0.1787E+00
     -5.678  0.1506E+00  0.1869E+00
     -5.624  0.1384E+00  0.1943E+00
     -5.570  0.1319E+00  0.2014E+00
     -5.516  0.1333E+00  0.2086E+00
     -5.462  0.1380E+00  0.2161E+00
     -5.408  0.1400E+00  0.2237E+00
     -5.354  0.1425E+00  0.2314E+00
     -5.300  0.1506E+00  0.2395E+00
     -5.246  0.1603E+00  0.2481E+00
     -5.192  0.1661E+00  0.2571E+00
     -5.138  0.1688E+00  0.2662E+00
     -5.084  0.1742E+00  0.2756E+00
     -5.030  0.1807E+00  0.2854E+00
     -4.976  0.1800E+00  0.2951E+00
     -4.922  0.1726E+00  0.3044E+00
     -4.868  0.1697E+00  0.3136E+00
     -4.814  0.1743E+00  0.3230E+00
     -4.760  0.1786E+00  0.3327E+00
     -4.706  0.1795E+00  0.3424E+00
     -4.652  0.1779E+00  0.3520E+00
     -4.598  0.1733E+00  0.3613E+00
     -4.544  0.1682E+00  0.3704E+00
     -4.489  0.1644E+00  0.3793E+00
     -4.435  0.1611E+00  0.3880E+00
     -4.381  0.1613E+00  0.3967E+00
     -4.327  0.1671E+00  0.4057E+00
     -4.273  0.1754E+00  0.4152E+00
     -4.219  0.1830E+00  0.4251E+00
     -4.165  0.1876E+00  0.4352E+00
     -4.111  0.1880E+00  0.4454E+00
     -4.057  0.1844E+00  0.4553E+00
     -4.003  0.1793E+00  0.4650E+00
     -3.949  0.1779E+00  0.4746E+00
     -3.895  0.1802E+00  0.4844E+00
     -3.841  0.1829E+00  0.4942E+00
     -3.787  0.1856E+00  0.5043E+00
     -3.733  0.1895E+00  0.5145E+00
     -3.679  0.1941E+00  0.5250E+00
     -3.625  0.1983E+00  0.5357E+00
     -3.571  0.2026E+00  0.5466E+00
     -3.517  0.2050E+00  0.5577E+00
     -3.463  0.2043E+00  0.5687E+00
     -3.409  0.2043E+00  0.5798E+00
     -3.355  0.2054E+00  0.5909E+00
     -3.301  0.2047E+00  0.6019E+00
     -3.247  0.2043E+00  0.6130E+00
     -3.193  0.2052E+00  0.6240E+00
     -3.139  0.2030E+00  0.6350E+00
     -3.085  0.1971E+00  0.6457E+00
     -3.031  0.1921E+00  0.6560E+00
     -2.977  0.1913E+00  0.6664E+00
     -2.923  0.1928E+00  0.6768E+00
     -2.869  0.1939E+00  0.6872E+00
     -2.815  0.1943E+00  0.6977E+00
     -2.761  0.1944E+00  0.7082E+00
     -2.707  0.1917E+00  0.7186E+00
     -2.653  0.1851E+00  0.7286E+00
     -2.599  0.1776E+00  0.7382E+00
     -2.545  0.1716E+00  0.7475E+00
     -2.491  0.1694E+00  0.7566E+00
     -2.437  0.1730E+00  0.7659E+00
     -2.383  0.1781E+00  0.7756E+00
     -2.329  0.1809E+00  0.7853E+00
     -2.275  0.1832E+00  0.7952E+00
     -2.221  0.1855E+00  0.8053E+00
     -2.167  0.1863E+00  0.8153E+00
     -2.113  0.1879E+00  0.8255E+00
     -2.059  0.1904E+00  0.8357E+00
     -2.005  0.1901E+00  0.8460E+00
     -1.951  0.1891E+00  0.8562E+00
     -1.897  0.1916E+00  0.8666E+00
     -1.843  0.1974E+00  0.8772E+00
     -1.789  0.2024E+00  0.8882E+00
     -1.735  0.2018E+00  0.8991E+00
     -1.681  0.1962E+00  0.9097E+00
     -1.627  0.1925E+00  0.9201E+00
     -1.573  0.1933E+00  0.9305E+00
     -1.519  0.1954E+00  0.9411E+00
     -1.465  0.1950E+00  0.9516E+00
     -1.411  0.1924E+00  0.9620E+00
     -1.357  0.1868E+00  0.9721E+00
     -1.303  0.1751E+00  0.9815E+00
     -1.249  0.1595E+00  0.9901E+00
     -1.195  0.1428E+00  0.9978E+00
     -1.141  0.1233E+00  0.1004E+01
     -1.087  0.1001E+00  0.1010E+01
     -1.033  0.7473E-01  0.1014E+01
     -0.979  0.4941E-01  0.1017E+01
     -0.925  0.3085E-01  0.1018E+01
     -0.871  0.2358E-01  0.1020E+01
     -0.817  0.2251E-01  0.1021E+01
     -0.763  0.2117E-01  0.1022E+01
     -0.709  0.1882E-01  0.1023E+01
     -0.655  0.1873E-01  0.1024E+01
     -0.601  0.2476E-01  0.1025E+01
     -0.547  0.3660E-01  0.1027E+01
     -0.493  0.4672E-01  0.1030E+01
     -0.439  0.4723E-01  0.1032E+01
     -0.385  0.3895E-01  0.1034E+01
     -0.331  0.3115E-01  0.1036E+01
     -0.277  0.3303E-01  0.1038E+01
     -0.223  0.4110E-01  0.1040E+01
     -0.169  0.4348E-01  0.1042E+01
     -0.115  0.3633E-01  0.1044E+01
     -0.061  0.2576E-01  0.1046E+01
     -0.007  0.2017E-01  0.1047E+01
      0.047  0.2218E-01  0.1048E+01
      0.101  0.2827E-01  0.1050E+01
      0.155  0.3232E-01  0.1051E+01
      0.209  0.3137E-01  0.1053E+01
      0.263  0.3058E-01  0.1055E+01
      0.317  0.3395E-01  0.1057E+01
      0.371  0.3901E-01  0.1059E+01
      0.425  0.4397E-01  0.1061E+01
      0.479  0.4617E-01  0.1064E+01
      0.533  0.4355E-01  0.1066E+01
      0.587  0.4076E-01  0.1068E+01
      0.641  0.4239E-01  0.1070E+01
      0.695  0.4474E-01  0.1073E+01
      0.749  0.4104E-01  0.1075E+01
      0.803  0.3198E-01  0.1077E+01
      0.857  0.2429E-01  0.1078E+01
      0.911  0.2093E-01  0.1079E+01
      0.965  0.2029E-01  0.1080E+01
      1.019  0.2171E-01  0.1081E+01
      1.073  0.2399E-01  0.1083E+01
      1.127  0.2401E-01  0.1084E+01
      1.181  0.2114E-01  0.1085E+01
      1.235  0.1761E-01  0.1086E+01
      1.289  0.1426E-01  0.1087E+01
      1.343  0.1105E-01  0.1087E+01
      1.398  0.9753E-02  0.1088E+01
      1.452  0.1423E-01  0.1089E+01
      1.506  0.2545E-01  0.1090E+01
      1.560  0.3621E-01  0.1092E+01
      1.614  0.3849E-01  0.1094E+01
      1.668  0.3457E-01  0.1096E+01
      1.722  0.3274E-01  0.1098E+01
      1.776  0.3533E-01  0.1100E+01
      1.830  0.3684E-01  0.1102E+01
      1.884  0.3201E-01  0.1103E+01
      1.938  0.2363E-01  0.1105E+01
      1.992  0.1739E-01  0.1106E+01
      2.046  0.1659E-01  0.1107E+01
      2.100  0.2182E-01  0.1108E+01
      2.154  0.2836E-01  0.1109E+01
      2.208  0.3330E-01  0.1111E+01
      2.262  0.3912E-01  0.1113E+01
      2.316  0.4616E-01  0.1116E+01
      2.370  0.5002E-01  0.1118E+01
      2.424  0.4711E-01  0.1121E+01
      2.478  0.4156E-01  0.1123E+01
      2.532  0.4047E-01  0.1125E+01
      2.586  0.4350E-01  0.1128E+01
      2.640  0.4619E-01  0.1130E+01
      2.694  0.4532E-01  0.1133E+01
      2.748  0.3841E-01  0.1135E+01
      2.802  0.2802E-01  0.1136E+01
      2.856  0.1938E-01  0.1137E+01
      2.910  0.1460E-01  0.1138E+01
      2.964  0.1344E-01  0.1139E+01
      3.018  0.1284E-01  0.1139E+01
      3.072  0.1233E-01  0.1140E+01
      3.126  0.1697E-01  0.1141E+01
      3.180  0.2562E-01  0.1142E+01
      3.234  0.2840E-01  0.1144E+01
      3.288  0.2181E-01  0.1145E+01
      3.342  0.1399E-01  0.1146E+01
      3.396  0.1314E-01  0.1147E+01
      3.450  0.1946E-01  0.1148E+01
      3.504  0.2753E-01  0.1149E+01
      3.558  0.3370E-01  0.1151E+01
      3.612  0.3708E-01  0.1153E+01
      3.666  0.3651E-01  0.1155E+01
      3.720  0.3433E-01  0.1157E+01
      3.774  0.3275E-01  0.1159E+01
      3.828  0.2847E-01  0.1160E+01
      3.882  0.2169E-01  0.1161E+01
      3.936  0.1941E-01  0.1162E+01
      3.990  0.2480E-01  0.1164E+01
      4.044  0.3094E-01  0.1165E+01
      4.098  0.3087E-01  0.1167E+01
      4.152  0.2790E-01  0.1169E+01
      4.206  0.2595E-01  0.1170E+01
      4.260  0.2164E-01  0.1171E+01
      4.314  0.1580E-01  0.1172E+01
      4.368  0.1644E-01  0.1173E+01
      4.422  0.2424E-01  0.1174E+01
      4.476  0.3075E-01  0.1176E+01
      4.530  0.3476E-01  0.1178E+01
      4.584  0.4292E-01  0.1180E+01
      4.638  0.5401E-01  0.1183E+01
      4.692  0.5879E-01  0.1186E+01
      4.746  0.5422E-01  0.1189E+01
      4.800  0.4709E-01  0.1192E+01
      4.854  0.4593E-01  0.1194E+01
      4.908  0.5233E-01  0.1197E+01
      4.962  0.5957E-01  0.1200E+01
      5.016  0.6351E-01  0.1204E+01
      5.070  0.6612E-01  0.1207E+01
      5.124  0.6676E-01  0.1211E+01
      5.178  0.6402E-01  0.1214E+01
      5.232  0.5887E-01  0.1217E+01
      5.286  0.4942E-01  0.1220E+01
      5.340  0.3478E-01  0.1222E+01
      5.394  0.2058E-01  0.1223E+01
      5.448  0.1105E-01  0.1224E+01
      5.502  0.5132E-02  0.1224E+01
      5.556  0.1735E-02  0.1224E+01
      5.610  0.3746E-03  0.1224E+01
      5.664  0.4866E-04  0.1224E+01
      5.718  0.3707E-05  0.1224E+01
      5.772  0.1635E-06  0.1224E+01
      5.826  0.4140E-08  0.1224E+01
      5.880  0.5982E-10  0.1224E+01
      5.934  0.4910E-12  0.1224E+01
      5.988  0.2280E-14  0.1224E+01
      6.042  0.5482E-17  0.1224E+01
      6.096  0.0000E+00  0.1224E+01
      6.150  0.0000E+00  0.1224E+01
      6.204  0.0000E+00  0.1224E+01
      6.258  0.0000E+00  0.1224E+01
      6.312  0.0000E+00  0.1224E+01
      6.366  0.0000E+00  0.1224E+01
      6.420  0.0000E+00  0.1224E+01
