       N       E                     dE             d eps       ncg     rms          rms(c)
DAV:   1     0.320091448518E+04    0.32009E+04   -0.18983E+05  3672   0.112E+03
DAV:   2     0.157938607316E+02   -0.31851E+04   -0.29250E+04  4344   0.263E+02
DAV:   3    -0.200626975972E+03   -0.21642E+03   -0.20111E+03  4176   0.652E+01
DAV:   4    -0.206538237485E+03   -0.59113E+01   -0.58439E+01  4260   0.108E+01
DAV:   5    -0.206712466271E+03   -0.17423E+00   -0.17370E+00  4428   0.192E+00    0.624E+01
RMM:   6    -0.201621603186E+03    0.50909E+01   -0.97287E+01  3678   0.154E+01    0.555E+01
RMM:   7    -0.210061760553E+03   -0.84402E+01   -0.57331E+01  3681   0.124E+01    0.457E+01
RMM:   8    -0.226396007768E+03   -0.16334E+02   -0.90333E+01  3677   0.143E+01    0.480E+01
RMM:   9    -0.213032461302E+03    0.13364E+02   -0.60669E+01  3678   0.120E+01    0.365E+01
RMM:  10    -0.197228807059E+03    0.15804E+02   -0.18663E+01  3679   0.725E+00    0.215E+01
RMM:  11    -0.192493988090E+03    0.47348E+01   -0.13559E+01  3680   0.585E+00    0.138E+01
RMM:  12    -0.189469781112E+03    0.30242E+01   -0.60482E+00  3679   0.374E+00    0.925E+00
RMM:  13    -0.189048423190E+03    0.42136E+00   -0.17144E+00  3680   0.206E+00    0.663E+00
RMM:  14    -0.189089939808E+03   -0.41517E-01   -0.79090E-01  3679   0.135E+00    0.660E+00
RMM:  15    -0.189069482292E+03    0.20458E-01   -0.35510E-01  3678   0.931E-01    0.583E+00
RMM:  16    -0.188862091750E+03    0.20739E+00   -0.30173E-01  3679   0.861E-01    0.396E+00
RMM:  17    -0.188734349276E+03    0.12774E+00   -0.13842E-01  3678   0.577E-01    0.243E+00
RMM:  18    -0.188668071041E+03    0.66278E-01   -0.82352E-02  3679   0.426E-01    0.156E+00
RMM:  19    -0.188646052323E+03    0.22019E-01   -0.24294E-02  3679   0.230E-01    0.984E-01
RMM:  20    -0.188638155211E+03    0.78971E-02   -0.92017E-03  3681   0.144E-01    0.631E-01
RMM:  21    -0.188634958082E+03    0.31971E-02   -0.29565E-03  3680   0.799E-02    0.462E-01
RMM:  22    -0.188632869786E+03    0.20883E-02   -0.20959E-03  3679   0.665E-02    0.327E-01
RMM:  23    -0.188631908079E+03    0.96171E-03   -0.16059E-03  3680   0.566E-02    0.227E-01
RMM:  24    -0.188631482388E+03    0.42569E-03   -0.70546E-04  3683   0.389E-02    0.924E-02
RMM:  25    -0.188631621744E+03   -0.13936E-03   -0.29013E-04  3678   0.240E-02    0.657E-02
RMM:  26    -0.188632017345E+03   -0.39560E-03   -0.16793E-04  3680   0.177E-02    0.591E-02
RMM:  27    -0.188632450102E+03   -0.43276E-03   -0.65552E-05  3676   0.114E-02    0.505E-02
RMM:  28    -0.188632996910E+03   -0.54681E-03   -0.48746E-05  3672   0.101E-02    0.224E-02
RMM:  29    -0.188633540149E+03   -0.54324E-03   -0.27347E-05  3653   0.712E-03    0.208E-02
RMM:  30    -0.188634080898E+03   -0.54075E-03   -0.26818E-05  3649   0.717E-03    0.135E-02
RMM:  31    -0.188634676694E+03   -0.59580E-03   -0.39267E-05  3621   0.828E-03    0.127E-02
RMM:  32    -0.188634832964E+03   -0.15627E-03   -0.12412E-05  2987   0.434E-03    0.596E-03
RMM:  33    -0.188634972963E+03   -0.14000E-03   -0.56387E-06  2676   0.297E-03    0.393E-03
RMM:  34    -0.188635031131E+03   -0.58168E-04   -0.14356E-06  2229   0.165E-03    0.279E-03
RMM:  35    -0.188635108795E+03   -0.77664E-04   -0.14074E-06  2251   0.157E-03    0.187E-03
RMM:  36    -0.188635143868E+03   -0.35073E-04   -0.73234E-07  2159   0.114E-03    0.171E-03
RMM:  37    -0.188635158114E+03   -0.14246E-04   -0.34275E-07  1797   0.779E-04    0.815E-04
RMM:  38    -0.188635167093E+03   -0.89782E-05   -0.24516E-07  1923   0.693E-04    0.687E-04
RMM:  39    -0.188635168741E+03   -0.16479E-05   -0.70649E-08  1066   0.381E-04    0.497E-04
RMM:  40    -0.188635169648E+03   -0.90738E-06   -0.22369E-08   691   0.334E-04
   1 F= -.18863517E+03 E0= -.18850630E+03  d E =-.188635E+03
       N       E                     dE             d eps       ncg     rms          rms(c)
DAV:   1    -0.189761876780E+03   -0.11267E+01   -0.39521E+02  3672   0.305E+01    0.396E+00
RMM:   2    -0.190164274076E+03   -0.40240E+00   -0.41088E+00  3680   0.439E+00    0.245E+00
RMM:   3    -0.190317458583E+03   -0.15318E+00   -0.40575E-01  3702   0.109E+00    0.377E+00
RMM:   4    -0.190186951373E+03    0.13051E+00   -0.18921E-01  3687   0.689E-01    0.239E+00
RMM:   5    -0.190190879165E+03   -0.39278E-02   -0.10142E-01  3683   0.489E-01    0.246E+00
RMM:   6    -0.190140218739E+03    0.50660E-01   -0.45693E-02  3685   0.351E-01    0.841E-01
RMM:   7    -0.190133797028E+03    0.64217E-02   -0.13636E-02  3681   0.188E-01    0.483E-01
RMM:   8    -0.190132110770E+03    0.16863E-02   -0.48911E-03  3682   0.110E-01    0.324E-01
RMM:   9    -0.190131070514E+03    0.10403E-02   -0.20873E-03  3686   0.724E-02    0.139E-01
RMM:  10    -0.190130949278E+03    0.12124E-03   -0.61957E-04  3687   0.396E-02    0.962E-02
RMM:  11    -0.190130879578E+03    0.69700E-04   -0.16700E-04  3688   0.206E-02    0.549E-02
RMM:  12    -0.190130865581E+03    0.13997E-04   -0.45517E-05  3683   0.110E-02    0.339E-02
RMM:  13    -0.190130858436E+03    0.71454E-05   -0.24170E-05  3673   0.799E-03    0.198E-02
RMM:  14    -0.190130855672E+03    0.27633E-05   -0.94710E-06  3610   0.498E-03    0.896E-03
RMM:  15    -0.190130855626E+03    0.45839E-07   -0.26420E-06  2409   0.271E-03
   2 F= -.19013086E+03 E0= -.19000209E+03  d E =-.149569E+01
       N       E                     dE             d eps       ncg     rms          rms(c)
DAV:   1    -0.188416148307E+03    0.17147E+01   -0.37172E+03  3672   0.960E+01    0.931E+00
RMM:   2    -0.191996501759E+03   -0.35804E+01   -0.36697E+01  3680   0.132E+01    0.565E+00
RMM:   3    -0.192693261272E+03   -0.69676E+00   -0.26095E+00  3705   0.277E+00    0.850E+00
RMM:   4    -0.191842565357E+03    0.85070E+00   -0.83203E-01  3687   0.149E+00    0.433E+00
RMM:   5    -0.192298129253E+03   -0.45556E+00   -0.55613E-01  3686   0.113E+00    0.729E+00
RMM:   6    -0.191763401356E+03    0.53473E+00   -0.46478E-01  3685   0.109E+00    0.210E+00
RMM:   7    -0.191725843008E+03    0.37558E-01   -0.15314E-01  3683   0.626E-01    0.138E+00
RMM:   8    -0.191705112758E+03    0.20730E-01   -0.43447E-02  3686   0.333E-01    0.829E-01
RMM:   9    -0.191699022221E+03    0.60905E-02   -0.13560E-02  3685   0.184E-01    0.450E-01
RMM:  10    -0.191697269618E+03    0.17526E-02   -0.48485E-03  3684   0.109E-01    0.216E-01
RMM:  11    -0.191697085636E+03    0.18398E-03   -0.12677E-03  3686   0.567E-02    0.167E-01
RMM:  12    -0.191696919412E+03    0.16622E-03   -0.48522E-04  3685   0.364E-02    0.101E-01
RMM:  13    -0.191696918243E+03    0.11689E-05   -0.22097E-04  3679   0.237E-02    0.894E-02
RMM:  14    -0.191696845505E+03    0.72738E-04   -0.91119E-05  3681   0.155E-02    0.292E-02
RMM:  15    -0.191696848250E+03   -0.27452E-05   -0.23902E-05  3676   0.775E-03    0.187E-02
RMM:  16    -0.191696851781E+03   -0.35315E-05   -0.63609E-06  3036   0.410E-03    0.111E-02
RMM:  17    -0.191696854851E+03   -0.30695E-05   -0.18865E-06  2215   0.233E-03    0.771E-03
RMM:  18    -0.191696860242E+03   -0.53907E-05   -0.78199E-07  2084   0.158E-03    0.265E-03
RMM:  19    -0.191696863048E+03   -0.28063E-05   -0.23610E-07  1953   0.808E-04    0.170E-03
RMM:  20    -0.191696866765E+03   -0.37174E-05   -0.11320E-07  1390   0.558E-04    0.875E-04
RMM:  21    -0.191696870716E+03   -0.39505E-05   -0.10933E-07  1400   0.509E-04    0.131E-03
RMM:  22    -0.191696875291E+03   -0.45750E-05   -0.17979E-07  1624   0.536E-04    0.128E-03
RMM:  23    -0.191696878571E+03   -0.32805E-05   -0.14054E-07  1240   0.461E-04    0.734E-04
RMM:  24    -0.191696879936E+03   -0.13643E-05   -0.69012E-08   930   0.402E-04    0.474E-04
RMM:  25    -0.191696881635E+03   -0.16999E-05   -0.14585E-07  1272   0.458E-04    0.401E-04
RMM:  26    -0.191696882322E+03   -0.68686E-06   -0.22708E-08   597   0.368E-04
   3 F= -.19169688E+03 E0= -.19157100E+03  d E =-.306171E+01
       N       E                     dE             d eps       ncg     rms          rms(c)
DAV:   1    -0.191848149775E+03   -0.15127E+00   -0.42583E+02  3672   0.319E+01    0.286E+00
RMM:   2    -0.192306095312E+03   -0.45795E+00   -0.47565E+00  3686   0.466E+00    0.193E+00
RMM:   3    -0.192405764551E+03   -0.99669E-01   -0.36149E-01  3713   0.104E+00    0.380E+00
RMM:   4    -0.192299992609E+03    0.10577E+00   -0.97247E-02  3687   0.528E-01    0.172E+00
RMM:   5    -0.192306504253E+03   -0.65116E-02   -0.44208E-02  3687   0.318E-01    0.193E+00
RMM:   6    -0.192283615999E+03    0.22888E-01   -0.61678E-02  3683   0.389E-01    0.103E+00
RMM:   7    -0.192272470202E+03    0.11146E-01   -0.21250E-02  3681   0.232E-01    0.419E-01
RMM:   8    -0.192270483645E+03    0.19866E-02   -0.53192E-03  3683   0.117E-01    0.280E-01
RMM:   9    -0.192269477832E+03    0.10058E-02   -0.18907E-03  3683   0.684E-02    0.110E-01
RMM:  10    -0.192269382348E+03    0.95484E-04   -0.47591E-04  3686   0.335E-02    0.752E-02
RMM:  11    -0.192269343231E+03    0.39116E-04   -0.14913E-04  3685   0.192E-02    0.471E-02
RMM:  12    -0.192269335346E+03    0.78857E-05   -0.62625E-05  3683   0.127E-02    0.338E-02
RMM:  13    -0.192269329727E+03    0.56183E-05   -0.20822E-05  3674   0.741E-03    0.186E-02
RMM:  14    -0.192269329023E+03    0.70400E-06   -0.53444E-06  2969   0.398E-03
   4 F= -.19226933E+03 E0= -.19214757E+03  d E =-.572447E+00
       N       E                     dE             d eps       ncg     rms          rms(c)
DAV:   1    -0.192244364535E+03    0.24965E-01   -0.73143E+01  3732   0.132E+01    0.107E+00
RMM:   2    -0.192325234033E+03   -0.80869E-01   -0.83391E-01  3686   0.195E+00    0.832E-01
RMM:   3    -0.192340503731E+03   -0.15270E-01   -0.63039E-02  3713   0.436E-01    0.151E+00
RMM:   4    -0.192325685257E+03    0.14818E-01   -0.15242E-02  3687   0.206E-01    0.839E-01
RMM:   5    -0.192320581613E+03    0.51036E-02   -0.57618E-03  3688   0.118E-01    0.507E-01
RMM:   6    -0.192320173649E+03    0.40796E-03   -0.10676E-02  3683   0.162E-01    0.411E-01
RMM:   7    -0.192318609019E+03    0.15646E-02   -0.40064E-03  3683   0.101E-01    0.187E-01
RMM:   8    -0.192318248897E+03    0.36012E-03   -0.89266E-04  3685   0.489E-02    0.120E-01
RMM:   9    -0.192318060870E+03    0.18803E-03   -0.34317E-04  3682   0.291E-02    0.545E-02
RMM:  10    -0.192318034452E+03    0.26418E-04   -0.10288E-04  3683   0.156E-02    0.366E-02
RMM:  11    -0.192318022013E+03    0.12439E-04   -0.32683E-05  3681   0.886E-03    0.176E-02
RMM:  12    -0.192318022562E+03   -0.54944E-06   -0.14028E-05  3677   0.587E-03    0.128E-02
RMM:  13    -0.192318023044E+03   -0.48169E-06   -0.42766E-06  2763   0.342E-03
   5 F= -.19231802E+03 E0= -.19219775E+03  d E =-.621141E+00
       N       E                     dE             d eps       ncg     rms          rms(c)
DAV:   1    -0.192334702760E+03   -0.16680E-01   -0.38580E+01  3684   0.959E+00    0.808E-01
RMM:   2    -0.192374895337E+03   -0.40193E-01   -0.42420E-01  3686   0.139E+00    0.528E-01
RMM:   3    -0.192388410565E+03   -0.13515E-01   -0.27921E-02  3708   0.288E-01    0.124E+00
RMM:   4    -0.192375085046E+03    0.13326E-01   -0.82639E-03  3687   0.147E-01    0.496E-01
RMM:   5    -0.192374543030E+03    0.54202E-03   -0.49254E-03  3683   0.110E-01    0.429E-01
RMM:   6    -0.192373711994E+03    0.83104E-03   -0.48577E-03  3685   0.112E-01    0.303E-01
RMM:   7    -0.192372852109E+03    0.85988E-03   -0.18257E-03  3682   0.682E-02    0.116E-01
RMM:   8    -0.192372724750E+03    0.12736E-03   -0.34725E-04  3685   0.310E-02    0.737E-02
RMM:   9    -0.192372666993E+03    0.57758E-04   -0.14789E-04  3681   0.190E-02    0.503E-02
RMM:  10    -0.192372637343E+03    0.29649E-04   -0.56887E-05  3682   0.118E-02    0.215E-02
RMM:  11    -0.192372633392E+03    0.39514E-05   -0.14136E-05  3673   0.584E-03    0.106E-02
RMM:  12    -0.192372633111E+03    0.28136E-06   -0.77162E-06  3677   0.423E-03
   6 F= -.19237263E+03 E0= -.19225332E+03  d E =-.546101E-01
       N       E                     dE             d eps       ncg     rms          rms(c)
DAV:   1    -0.192372175742E+03    0.45765E-03   -0.38796E+00  3732   0.304E+00    0.253E-01
RMM:   2    -0.192376218853E+03   -0.40431E-02   -0.42708E-02  3686   0.442E-01    0.170E-01
RMM:   3    -0.192377621555E+03   -0.14027E-02   -0.28676E-03  3710   0.923E-02    0.400E-01
RMM:   4    -0.192376198467E+03    0.14231E-02   -0.85176E-04  3685   0.471E-02    0.159E-01
RMM:   5    -0.192376170019E+03    0.28448E-04   -0.48229E-04  3684   0.346E-02    0.137E-01
RMM:   6    -0.192376087303E+03    0.82716E-04   -0.49975E-04  3683   0.358E-02    0.952E-02
RMM:   7    -0.192376006781E+03    0.80523E-04   -0.19203E-04  3682   0.221E-02    0.385E-02
RMM:   8    -0.192375992703E+03    0.14077E-04   -0.35707E-05  3684   0.100E-02    0.227E-02
RMM:   9    -0.192375987840E+03    0.48633E-05   -0.14927E-05  3672   0.600E-03    0.172E-02
RMM:  10    -0.192375984099E+03    0.37408E-05   -0.63176E-06  3504   0.396E-03    0.623E-03
RMM:  11    -0.192375983811E+03    0.28849E-06   -0.14070E-06  1978   0.198E-03
   7 F= -.19237598E+03 E0= -.19225696E+03  d E =-.579608E-01
       N       E                     dE             d eps       ncg     rms          rms(c)
DAV:   1    -0.192380372649E+03   -0.43886E-02   -0.49009E+00  3672   0.342E+00    0.195E-01
RMM:   2    -0.192385752842E+03   -0.53802E-02   -0.55765E-02  3684   0.505E-01    0.208E-01
RMM:   3    -0.192385823686E+03   -0.70844E-04   -0.36395E-03  3736   0.106E-01    0.195E-01
RMM:   4    -0.192385520697E+03    0.30299E-03   -0.46455E-04  3683   0.375E-02    0.124E-01
RMM:   5    -0.192385709895E+03   -0.18920E-03   -0.31530E-04  3686   0.277E-02    0.191E-01
RMM:   6    -0.192385519767E+03    0.19013E-03   -0.46223E-04  3682   0.319E-02    0.144E-01
RMM:   7    -0.192385380880E+03    0.13889E-03   -0.52499E-04  3684   0.356E-02    0.648E-02
RMM:   8    -0.192385365266E+03    0.15614E-04   -0.11038E-04  3684   0.168E-02    0.349E-02
RMM:   9    -0.192385352873E+03    0.12393E-04   -0.18228E-05  3674   0.688E-03    0.269E-02
RMM:  10    -0.192385339527E+03    0.13346E-04   -0.20911E-05  3676   0.694E-03    0.135E-02
RMM:  11    -0.192385337456E+03    0.20704E-05   -0.94877E-06  3672   0.461E-03    0.972E-03
RMM:  12    -0.192385336551E+03    0.90527E-06   -0.77195E-06  3669   0.409E-03
   8 F= -.19238534E+03 E0= -.19226628E+03  d E =-.935274E-02
       N       E                     dE             d eps       ncg     rms          rms(c)
DAV:   1    -0.192371472821E+03    0.13865E-01   -0.21825E+01  3672   0.722E+00    0.410E-01
RMM:   2    -0.192395596728E+03   -0.24124E-01   -0.24795E-01  3684   0.106E+00    0.443E-01
RMM:   3    -0.192395892863E+03   -0.29614E-03   -0.16239E-02  3734   0.224E-01    0.410E-01
RMM:   4    -0.192394518010E+03    0.13749E-02   -0.20345E-03  3683   0.787E-02    0.263E-01
RMM:   5    -0.192395303833E+03   -0.78582E-03   -0.13536E-03  3686   0.573E-02    0.401E-01
RMM:   6    -0.192394394939E+03    0.90889E-03   -0.21024E-03  3683   0.682E-02    0.300E-01
RMM:   7    -0.192393748391E+03    0.64655E-03   -0.23646E-03  3683   0.756E-02    0.136E-01
RMM:   8    -0.192393668703E+03    0.79688E-04   -0.48548E-04  3683   0.352E-02    0.732E-02
RMM:   9    -0.192393612873E+03    0.55830E-04   -0.81150E-05  3683   0.145E-02    0.567E-02
RMM:  10    -0.192393552848E+03    0.60025E-04   -0.93852E-05  3681   0.147E-02    0.279E-02
RMM:  11    -0.192393543533E+03    0.93150E-05   -0.46128E-05  3680   0.101E-02    0.202E-02
RMM:  12    -0.192393539835E+03    0.36985E-05   -0.31508E-05  3681   0.828E-03    0.755E-03
RMM:  13    -0.192393540131E+03   -0.29630E-06   -0.30465E-06  2409   0.296E-03
   9 F= -.19239354E+03 E0= -.19227439E+03  d E =-.175563E-01
       N       E                     dE             d eps       ncg     rms          rms(c)
DAV:   1    -0.192396688248E+03   -0.31484E-02   -0.34000E+00  3684   0.284E+00    0.138E-01
RMM:   2    -0.192400421079E+03   -0.37328E-02   -0.38260E-02  3682   0.420E-01    0.176E-01
RMM:   3    -0.192400362213E+03    0.58866E-04   -0.24530E-03  3769   0.877E-02    0.138E-01
RMM:   4    -0.192400223759E+03    0.13845E-03   -0.23318E-04  3677   0.268E-02    0.101E-01
RMM:   5    -0.192400299449E+03   -0.75690E-04   -0.14398E-04  3689   0.187E-02    0.146E-01
RMM:   6    -0.192400158377E+03    0.14107E-03   -0.21737E-04  3682   0.224E-02    0.108E-01
RMM:   7    -0.192400110638E+03    0.47739E-04   -0.48702E-04  3680   0.340E-02    0.600E-02
RMM:   8    -0.192400107528E+03    0.31101E-05   -0.12399E-04  3680   0.174E-02    0.347E-02
RMM:   9    -0.192400098894E+03    0.86340E-05   -0.12749E-05  3657   0.587E-03    0.278E-02
RMM:  10    -0.192400087295E+03    0.11599E-04   -0.14679E-05  3672   0.585E-03    0.171E-02
RMM:  11    -0.192400083809E+03    0.34859E-05   -0.86624E-06  3627   0.440E-03    0.107E-02
RMM:  12    -0.192400082663E+03    0.11464E-05   -0.13034E-05  3678   0.533E-03    0.434E-03
RMM:  13    -0.192400082821E+03   -0.15819E-06   -0.11335E-06  1969   0.179E-03
  10 F= -.19240008E+03 E0= -.19228073E+03  d E =-.654269E-02
       N       E                     dE             d eps       ncg     rms          rms(c)
DAV:   1    -0.192380837182E+03    0.19245E-01   -0.30611E+01  3672   0.853E+00    0.414E-01
RMM:   2    -0.192414819591E+03   -0.33982E-01   -0.34457E-01  3682   0.126E+00    0.521E-01
RMM:   3    -0.192414456225E+03    0.36337E-03   -0.22079E-02  3760   0.263E-01    0.411E-01
RMM:   4    -0.192413113415E+03    0.13428E-02   -0.21159E-03  3677   0.808E-02    0.297E-01
RMM:   5    -0.192413666776E+03   -0.55336E-03   -0.13001E-03  3689   0.562E-02    0.430E-01
RMM:   6    -0.192412416364E+03    0.12504E-02   -0.19254E-03  3682   0.666E-02    0.327E-01
RMM:   7    -0.192411760643E+03    0.65572E-03   -0.42821E-03  3681   0.101E-01    0.177E-01
RMM:   8    -0.192411703354E+03    0.57289E-04   -0.10759E-03  3681   0.513E-02    0.102E-01
RMM:   9    -0.192411623789E+03    0.79565E-04   -0.11291E-04  3688   0.174E-02    0.818E-02
RMM:  10    -0.192411520652E+03    0.10314E-03   -0.13304E-04  3682   0.176E-02    0.495E-02
RMM:  11    -0.192411490733E+03    0.29920E-04   -0.76907E-05  3680   0.131E-02    0.311E-02
RMM:  12    -0.192411480327E+03    0.10406E-04   -0.10689E-04  3681   0.152E-02    0.139E-02
RMM:  13    -0.192411480730E+03   -0.40221E-06   -0.12049E-05  3671   0.535E-03    0.870E-03
RMM:  14    -0.192411479771E+03    0.95840E-06   -0.14828E-06  1996   0.218E-03
  11 F= -.19241148E+03 E0= -.19229151E+03  d E =-.179396E-01
       N       E                     dE             d eps       ncg     rms          rms(c)
DAV:   1    -0.192407278272E+03    0.42025E-02   -0.52541E+00  3672   0.353E+00    0.170E-01
RMM:   2    -0.192413046792E+03   -0.57685E-02   -0.59092E-02  3682   0.522E-01    0.213E-01
RMM:   3    -0.192412984889E+03    0.61902E-04   -0.37770E-03  3767   0.109E-01    0.171E-01
RMM:   4    -0.192412777096E+03    0.20779E-03   -0.36410E-04  3677   0.333E-02    0.128E-01
RMM:   5    -0.192412872077E+03   -0.94981E-04   -0.18654E-04  3691   0.212E-02    0.177E-01
RMM:   6    -0.192412633132E+03    0.23894E-03   -0.34480E-04  3683   0.284E-02    0.123E-01
RMM:   7    -0.192412573175E+03    0.59958E-04   -0.76616E-04  3678   0.427E-02    0.730E-02
RMM:   8    -0.192412570109E+03    0.30653E-05   -0.19638E-04  3678   0.219E-02    0.430E-02
RMM:   9    -0.192412556803E+03    0.13307E-04   -0.19784E-05  3680   0.731E-03    0.345E-02
RMM:  10    -0.192412539085E+03    0.17717E-04   -0.22140E-05  3677   0.718E-03    0.211E-02
RMM:  11    -0.192412533865E+03    0.52207E-05   -0.13677E-05  3672   0.552E-03    0.135E-02
RMM:  12    -0.192412532145E+03    0.17199E-05   -0.19875E-05  3678   0.657E-03    0.588E-03
RMM:  13    -0.192412532342E+03   -0.19753E-06   -0.18905E-06  2037   0.230E-03
  12 F= -.19241253E+03 E0= -.19229230E+03  d E =-.189922E-01
       N       E                     dE             d eps       ncg     rms          rms(c)
DAV:   1    -0.192411121990E+03    0.14102E-02   -0.80712E+00  3672   0.438E+00    0.209E-01
RMM:   2    -0.192419861097E+03   -0.87391E-02   -0.89147E-02  3682   0.644E-01    0.247E-01
RMM:   3    -0.192419923386E+03   -0.62289E-04   -0.56106E-03  3755   0.133E-01    0.229E-01
RMM:   4    -0.192419627688E+03    0.29570E-03   -0.65410E-04  3676   0.431E-02    0.198E-01
RMM:   5    -0.192419369008E+03    0.25868E-03   -0.18972E-04  3689   0.225E-02    0.144E-01
RMM:   6    -0.192419247100E+03    0.12191E-03   -0.51331E-04  3682   0.352E-02    0.141E-01
RMM:   7    -0.192419107158E+03    0.13994E-03   -0.11540E-03  3682   0.524E-02    0.761E-02
RMM:   8    -0.192419115837E+03   -0.86797E-05   -0.24623E-04  3678   0.246E-02    0.521E-02
RMM:   9    -0.192419096630E+03    0.19208E-04   -0.30960E-05  3681   0.906E-03    0.393E-02
RMM:  10    -0.192419075629E+03    0.21000E-04   -0.27780E-05  3682   0.818E-03    0.257E-02
RMM:  11    -0.192419067863E+03    0.77666E-05   -0.16082E-05  3672   0.603E-03    0.154E-02
RMM:  12    -0.192419065300E+03    0.25628E-05   -0.23600E-05  3680   0.719E-03    0.738E-03
RMM:  13    -0.192419065395E+03   -0.95410E-07   -0.36481E-06  2550   0.307E-03
  13 F= -.19241907E+03 E0= -.19229849E+03  d E =-.653305E-02
       N       E                     dE             d eps       ncg     rms          rms(c)
DAV:   1    -0.192413693504E+03    0.53718E-02   -0.80613E+00  3672   0.438E+00    0.209E-01
RMM:   2    -0.192422420888E+03   -0.87274E-02   -0.88997E-02  3682   0.644E-01    0.247E-01
RMM:   3    -0.192422489795E+03   -0.68908E-04   -0.56097E-03  3756   0.133E-01    0.231E-01
RMM:   4    -0.192422185426E+03    0.30437E-03   -0.65306E-04  3676   0.430E-02    0.198E-01
RMM:   5    -0.192421924497E+03    0.26093E-03   -0.18791E-04  3689   0.225E-02    0.143E-01
RMM:   6    -0.192421804940E+03    0.11956E-03   -0.51792E-04  3683   0.353E-02    0.142E-01
RMM:   7    -0.192421665107E+03    0.13983E-03   -0.11569E-03  3683   0.525E-02    0.759E-02
RMM:   8    -0.192421673832E+03   -0.87244E-05   -0.24409E-04  3681   0.245E-02    0.521E-02
RMM:   9    -0.192421654465E+03    0.19366E-04   -0.30704E-05  3681   0.903E-03    0.391E-02
RMM:  10    -0.192421633336E+03    0.21130E-04   -0.28068E-05  3683   0.822E-03    0.253E-02
RMM:  11    -0.192421625811E+03    0.75252E-05   -0.15936E-05  3672   0.600E-03    0.154E-02
RMM:  12    -0.192421623202E+03    0.26081E-05   -0.23336E-05  3679   0.716E-03    0.748E-03
RMM:  13    -0.192421623262E+03   -0.59634E-07   -0.35755E-06  2517   0.305E-03
  14 F= -.19242162E+03 E0= -.19230070E+03  d E =-.909092E-02
       N       E                     dE             d eps       ncg     rms          rms(c)
DAV:   1    -0.192421964962E+03   -0.34176E-03   -0.34215E+00  3684   0.286E+00    0.141E-01
RMM:   2    -0.192425697969E+03   -0.37330E-02   -0.38297E-02  3681   0.420E-01    0.152E-01
RMM:   3    -0.192425665071E+03    0.32898E-04   -0.23889E-03  3736   0.862E-02    0.125E-01
RMM:   4    -0.192425542700E+03    0.12237E-03   -0.24929E-04  3677   0.277E-02    0.105E-01
RMM:   5    -0.192425508056E+03    0.34644E-04   -0.70144E-05  3691   0.134E-02    0.969E-02
RMM:   6    -0.192425479740E+03    0.28316E-04   -0.24267E-04  3683   0.241E-02    0.105E-01
RMM:   7    -0.192425400797E+03    0.78943E-04   -0.46661E-04  3682   0.333E-02    0.397E-02
RMM:   8    -0.192425409306E+03   -0.85093E-05   -0.64947E-05  3678   0.128E-02    0.352E-02
RMM:   9    -0.192425396581E+03    0.12725E-04   -0.11934E-05  3673   0.567E-03    0.209E-02
RMM:  10    -0.192425391403E+03    0.51784E-05   -0.78604E-06  3643   0.433E-03    0.151E-02
RMM:  11    -0.192425387856E+03    0.35465E-05   -0.95719E-06  3673   0.463E-03    0.717E-03
RMM:  12    -0.192425387580E+03    0.27585E-06   -0.41282E-06  2713   0.313E-03
  15 F= -.19242539E+03 E0= -.19230437E+03  d E =-.376432E-02
       N       E                     dE             d eps       ncg     rms          rms(c)
DAV:   1    -0.192423688880E+03    0.16990E-02   -0.32238E+00  3684   0.277E+00    0.136E-01
RMM:   2    -0.192427207186E+03   -0.35183E-02   -0.36081E-02  3681   0.408E-01    0.147E-01
RMM:   3    -0.192427171171E+03    0.36015E-04   -0.22449E-03  3736   0.836E-02    0.120E-01
RMM:   4    -0.192427050344E+03    0.12083E-03   -0.22771E-04  3677   0.266E-02    0.970E-02
RMM:   5    -0.192427037538E+03    0.12806E-04   -0.69150E-05  3688   0.132E-02    0.984E-02
RMM:   6    -0.192427008592E+03    0.28946E-04   -0.23345E-04  3682   0.236E-02    0.105E-01
RMM:   7    -0.192426928573E+03    0.80019E-04   -0.43399E-04  3682   0.321E-02    0.383E-02
RMM:   8    -0.192426936734E+03   -0.81607E-05   -0.59812E-05  3678   0.123E-02    0.338E-02
RMM:   9    -0.192426924983E+03    0.11751E-04   -0.11171E-05  3670   0.548E-03    0.203E-02
RMM:  10    -0.192426920096E+03    0.48868E-05   -0.73331E-06  3602   0.419E-03    0.147E-02
RMM:  11    -0.192426916750E+03    0.33462E-05   -0.91022E-06  3672   0.452E-03    0.705E-03
RMM:  12    -0.192426916448E+03    0.30193E-06   -0.38600E-06  2599   0.305E-03
  16 F= -.19242692E+03 E0= -.19230581E+03  d E =-.529319E-02
       N       E                     dE             d eps       ncg     rms          rms(c)
DAV:   1    -0.192425689587E+03    0.12272E-02   -0.47340E+00  3672   0.336E+00    0.156E-01
RMM:   2    -0.192430921387E+03   -0.52318E-02   -0.53098E-02  3679   0.496E-01    0.190E-01
RMM:   3    -0.192430829825E+03    0.91562E-04   -0.33432E-03  3765   0.102E-01    0.143E-01
RMM:   4    -0.192430718154E+03    0.11167E-03   -0.30436E-04  3679   0.306E-02    0.135E-01
RMM:   5    -0.192430657929E+03    0.60224E-04   -0.98489E-05  3687   0.159E-02    0.122E-01
RMM:   6    -0.192430600212E+03    0.57717E-04   -0.45962E-04  3682   0.329E-02    0.124E-01
RMM:   7    -0.192430479651E+03    0.12056E-03   -0.69017E-04  3684   0.401E-02    0.472E-02
RMM:   8    -0.192430502105E+03   -0.22454E-04   -0.96925E-05  3679   0.154E-02    0.458E-02
RMM:   9    -0.192430485433E+03    0.16673E-04   -0.14477E-05  3680   0.631E-03    0.311E-02
RMM:  10    -0.192430474599E+03    0.10834E-04   -0.14463E-05  3672   0.585E-03    0.235E-02
RMM:  11    -0.192430465261E+03    0.93383E-05   -0.31102E-05  3672   0.828E-03    0.784E-03
RMM:  12    -0.192430465192E+03    0.68816E-07   -0.71486E-06  3486   0.400E-03
  17 F= -.19243047E+03 E0= -.19230920E+03  d E =-.354874E-02
       N       E                     dE             d eps       ncg     rms          rms(c)
DAV:   1    -0.192425117126E+03    0.53481E-02   -0.72769E+00  3672   0.416E+00    0.193E-01
RMM:   2    -0.192433164776E+03   -0.80477E-02   -0.81498E-02  3679   0.614E-01    0.235E-01
RMM:   3    -0.192433017116E+03    0.14766E-03   -0.51177E-03  3764   0.127E-01    0.173E-01
RMM:   4    -0.192432819673E+03    0.19744E-03   -0.45002E-04  3679   0.375E-02    0.157E-01
RMM:   5    -0.192432788567E+03    0.31107E-04   -0.15911E-04  3690   0.201E-02    0.162E-01
RMM:   6    -0.192432672091E+03    0.11648E-03   -0.70902E-04  3682   0.408E-02    0.157E-01
RMM:   7    -0.192432469548E+03    0.20254E-03   -0.10625E-03  3685   0.497E-02    0.588E-02
RMM:   8    -0.192432501769E+03   -0.32221E-04   -0.14676E-04  3680   0.190E-02    0.566E-02
RMM:   9    -0.192432476206E+03    0.25563E-04   -0.21953E-05  3681   0.777E-03    0.386E-02
RMM:  10    -0.192432459283E+03    0.16923E-04   -0.22809E-05  3675   0.733E-03    0.291E-02
RMM:  11    -0.192432445105E+03    0.14178E-04   -0.46897E-05  3673   0.102E-02    0.993E-03
RMM:  12    -0.192432444942E+03    0.16274E-06   -0.11401E-05  3671   0.503E-03    0.603E-03
RMM:  13    -0.192432445062E+03   -0.11940E-06   -0.20417E-06  2062   0.236E-03
  18 F= -.19243245E+03 E0= -.19231097E+03  d E =-.552861E-02
       N       E                     dE             d eps       ncg     rms          rms(c)
DAV:   1    -0.192428408810E+03    0.40361E-02   -0.63582E+00  3672   0.390E+00    0.185E-01
RMM:   2    -0.192435365612E+03   -0.69568E-02   -0.70947E-02  3680   0.573E-01    0.218E-01
RMM:   3    -0.192435260457E+03    0.10515E-03   -0.44403E-03  3761   0.118E-01    0.159E-01
RMM:   4    -0.192435044133E+03    0.21632E-03   -0.40930E-04  3678   0.358E-02    0.132E-01
RMM:   5    -0.192435158746E+03   -0.11461E-03   -0.25589E-04  3686   0.251E-02    0.184E-01
RMM:   6    -0.192435026839E+03    0.13191E-03   -0.60371E-04  3681   0.374E-02    0.172E-01
RMM:   7    -0.192434800652E+03    0.22619E-03   -0.75302E-04  3686   0.422E-02    0.549E-02
RMM:   8    -0.192434825176E+03   -0.24523E-04   -0.10880E-04  3681   0.165E-02    0.495E-02
RMM:   9    -0.192434805258E+03    0.19918E-04   -0.18143E-05  3680   0.702E-03    0.335E-02
RMM:  10    -0.192434792339E+03    0.12919E-04   -0.18155E-05  3672   0.657E-03    0.255E-02
RMM:  11    -0.192434781220E+03    0.11119E-04   -0.34799E-05  3674   0.877E-03    0.859E-03
RMM:  12    -0.192434781072E+03    0.14831E-06   -0.10132E-05  3671   0.473E-03    0.548E-03
RMM:  13    -0.192434781091E+03   -0.19550E-07   -0.14724E-06  2005   0.203E-03
  19 F= -.19243478E+03 E0= -.19231318E+03  d E =-.233603E-02
       N       E                     dE             d eps       ncg     rms          rms(c)
DAV:   1    -0.192434670667E+03    0.11041E-03   -0.17824E-01  3744   0.652E-01    0.304E-02
RMM:   2    -0.192434862716E+03   -0.19205E-03   -0.19733E-03  3680   0.957E-02    0.376E-02
RMM:   3    -0.192434856572E+03    0.61442E-05   -0.12306E-04  3764   0.196E-02    0.269E-02
RMM:   4    -0.192434851674E+03    0.48975E-05   -0.10827E-05  3609   0.581E-03    0.235E-02
RMM:   5    -0.192434854369E+03   -0.26948E-05   -0.52242E-06  2851   0.364E-03    0.300E-02
RMM:   6    -0.192434851230E+03    0.31387E-05   -0.18781E-05  3674   0.677E-03    0.266E-02
RMM:   7    -0.192434847535E+03    0.36956E-05   -0.25613E-05  3675   0.778E-03    0.947E-03
RMM:   8    -0.192434848210E+03   -0.67591E-06   -0.30108E-06  2420   0.287E-03
  20 F= -.19243485E+03 E0= -.19231322E+03  d E =-.240315E-02
       N       E                     dE             d eps       ncg     rms          rms(c)
DAV:   1    -0.192433597557E+03    0.12500E-02   -0.23212E+00  3684   0.236E+00    0.111E-01
RMM:   2    -0.192436137328E+03   -0.25398E-02   -0.25575E-02  3680   0.345E-01    0.137E-01
RMM:   3    -0.192436121976E+03    0.15352E-04   -0.16391E-03  3735   0.712E-02    0.118E-01
RMM:   4    -0.192436042628E+03    0.79348E-04   -0.18180E-04  3676   0.230E-02    0.101E-01
RMM:   5    -0.192435975617E+03    0.67011E-04   -0.50720E-05  3688   0.116E-02    0.725E-02
RMM:   6    -0.192435964365E+03    0.11253E-04   -0.14528E-04  3683   0.188E-02    0.797E-02
RMM:   7    -0.192435918363E+03    0.46001E-04   -0.32775E-04  3682   0.278E-02    0.293E-02
RMM:   8    -0.192435928107E+03   -0.97434E-05   -0.49739E-05  3675   0.111E-02    0.267E-02
RMM:   9    -0.192435922652E+03    0.54549E-05   -0.60610E-06  3038   0.417E-03    0.178E-02
RMM:  10    -0.192435919708E+03    0.29435E-05   -0.38156E-06  2656   0.321E-03    0.139E-02
RMM:  11    -0.192435916597E+03    0.31119E-05   -0.11110E-05  3672   0.514E-03    0.534E-03
RMM:  12    -0.192435916424E+03    0.17251E-06   -0.22297E-06  2011   0.245E-03
  21 F= -.19243592E+03 E0= -.19231433E+03  d E =-.106821E-02
