<?xml version="1.0" encoding="ISO-8859-1"?>
<modeling>
 <generator>
  <i name="program" type="string">vasp </i>
  <i name="version" type="string">5.4.1  </i>
  <i name="subversion" type="string">24Jun15 (build Mar 14 2019 10:18:33) complex                          parallel </i>
  <i name="platform" type="string">INTEL-19.0.2+OPENMPI-3.1.3 </i>
  <i name="date" type="string">2022 07 11 </i>
  <i name="time" type="string">15:22:42 </i>
 </generator>
 <incar>
  <i type="int" name="ISTART">     0</i>
  <i type="string" name="PREC">normal</i>
  <i type="string" name="ALGO"> Fast</i>
  <i type="int" name="NELM">   500</i>
  <i type="int" name="IBRION">     2</i>
  <i type="int" name="NFREE">     2</i>
  <i name="EDIFF">      0.00000100</i>
  <i name="EDIFFG">     -0.02000000</i>
  <i type="int" name="NSW">   500</i>
  <i type="int" name="ISIF">     0</i>
  <i type="int" name="ISYM">     2</i>
  <i name="ENCUT">    400.00000000</i>
  <i name="POTIM">      0.35000000</i>
  <i type="string" name="LREAL"> Auto</i>
  <i type="logical" name="LPLANE"> T  </i>
  <i type="int" name="ISMEAR">     0</i>
  <i name="SIGMA">      0.10000000</i>
  <i type="int" name="NWRITE">     1</i>
  <i type="logical" name="LWAVE"> F  </i>
  <i type="logical" name="LCHARG"> F  </i>
  <i type="logical" name="LVTOT"> F  </i>
  <i type="logical" name="LORBIT"> F  </i>
  <i type="logical" name="LAECHG"> F  </i>
  <v type="int" name="KPOINT_BSE">    -1     0     0     0</v>
  <i type="int" name="NELM">   500</i>
  <i type="string" name="GGA"> PE          ! optPBE-vdW XC-functional</i>
  <i type="int" name="VOSKOWN">     1</i>
  <i type="logical" name="LDIPOL"> T  </i>
  <i type="logical" name="LMONO"> F  </i>
  <i type="int" name="IDIPOL">     3</i>
  <v name="DIPOL">      0.00000000      0.00000000      0.50000000</v>
 </incar>
 <kpoints>
  <generation param="Monkhorst-Pack">
   <v type="int" name="divisions">       2        2        1 </v>
   <v name="usershift">      0.00000000       0.00000000       0.00000000 </v>
   <v name="genvec1">      0.50000000      -0.00000000       0.00000000 </v>
   <v name="genvec2">      0.00000000       0.50000000       0.00000000 </v>
   <v name="genvec3">      0.00000000       0.00000000       1.00000000 </v>
   <v name="shift">      0.50000000       0.50000000       0.00000000 </v>
  </generation>
  <varray name="kpointlist" >
   <v>       0.25000000       0.25000000       0.00000000 </v>
   <v>       0.00000000       0.25000000       0.00000000 </v>
   <v>      -0.25000000       0.00000000       0.00000000 </v>
   <v>      -0.25000000       0.25000000       0.00000000 </v>
   <v>       0.50000000      -0.25000000       0.00000000 </v>
   <v>      -0.25000000       0.50000000       0.00000000 </v>
  </varray>
  <varray name="weights" >
   <v>       0.16666667 </v>
   <v>       0.16666667 </v>
   <v>       0.16666667 </v>
   <v>       0.16666667 </v>
   <v>       0.16666667 </v>
   <v>       0.16666667 </v>
  </varray>
 </kpoints>
 <parameters>
  <separator name="general" >
   <i type="string" name="SYSTEM">unknown system</i>
   <i type="logical" name="LCOMPAT"> F  </i>
  </separator>
  <separator name="electronic" >
   <i type="string" name="PREC">normal</i>
   <i name="ENMAX">    400.00000000</i>
   <i name="ENAUG">    416.23000000</i>
   <i name="EDIFF">      0.00000100</i>
   <i type="int" name="IALGO">    68</i>
   <i type="int" name="IWAVPR">    11</i>
   <i type="int" name="NBANDS">   306</i>
   <i name="NELECT">    504.00000000</i>
   <i type="int" name="TURBO">     0</i>
   <i type="int" name="IRESTART">     0</i>
   <i type="int" name="NREBOOT">     0</i>
   <i type="int" name="NMIN">     0</i>
   <i name="EREF">      0.00000000</i>
   <separator name="electronic smearing" >
    <i type="int" name="ISMEAR">     0</i>
    <i name="SIGMA">      0.10000000</i>
    <i name="KSPACING">      0.50000000</i>
    <i type="logical" name="KGAMMA"> T  </i>
   </separator>
   <separator name="electronic projectors" >
    <i type="logical" name="LREAL"> T  </i>
    <v name="ROPT">     -0.00050000     -0.00050000</v>
    <i type="int" name="LMAXPAW">  -100</i>
    <i type="int" name="LMAXMIX">     2</i>
    <i type="logical" name="NLSPLINE"> F  </i>
   </separator>
   <separator name="electronic startup" >
    <i type="int" name="ISTART">     0</i>
    <i type="int" name="ICHARG">     2</i>
    <i type="int" name="INIWAV">     1</i>
   </separator>
   <separator name="electronic spin" >
    <i type="int" name="ISPIN">     1</i>
    <i type="logical" name="LNONCOLLINEAR"> F  </i>
    <v name="MAGMOM">      1.00000000      1.00000000      1.00000000      1.00000000      1.00000000      1.00000000      1.00000000      1.00000000      1.00000000      1.00000000      1.00000000      1.00000000      1.00000000      1.00000000      1.00000000      1.00000000      1.00000000      1.00000000      1.00000000      1.00000000
      1.00000000      1.00000000      1.00000000      1.00000000      1.00000000      1.00000000      1.00000000      1.00000000      1.00000000      1.00000000      1.00000000      1.00000000      1.00000000      1.00000000      1.00000000      1.00000000      1.00000000      1.00000000      1.00000000      1.00000000
      1.00000000      1.00000000      1.00000000      1.00000000      1.00000000      1.00000000      1.00000000      1.00000000</v>
    <i name="NUPDOWN">     -1.00000000</i>
    <i type="logical" name="LSORBIT"> F  </i>
    <v name="SAXIS">      0.00000000      0.00000000      1.00000000</v>
    <i type="logical" name="LSPIRAL"> F  </i>
    <v name="QSPIRAL">      0.00000000      0.00000000      0.00000000</v>
    <i type="logical" name="LZEROZ"> F  </i>
   </separator>
   <separator name="electronic exchange-correlation" >
    <i type="logical" name="LASPH"> F  </i>
    <i type="logical" name="LMETAGGA"> F  </i>
   </separator>
   <separator name="electronic convergence" >
    <i type="int" name="NELM">   500</i>
    <i type="int" name="NELMDL">    -5</i>
    <i type="int" name="NELMIN">     2</i>
    <i name="ENINI">    400.00000000</i>
    <separator name="electronic convergence detail" >
     <i type="logical" name="LDIAG"> T  </i>
     <i type="logical" name="LSUBROT"> F  </i>
     <i name="WEIMIN">      0.00100000</i>
     <i name="EBREAK">      0.00000000</i>
     <i name="DEPER">      0.30000000</i>
     <i type="int" name="NRMM">     4</i>
     <i name="TIME">      0.40000000</i>
    </separator>
   </separator>
   <separator name="electronic mixer" >
    <i name="AMIX">      0.40000000</i>
    <i name="BMIX">      1.00000000</i>
    <i name="AMIN">      0.10000000</i>
    <i name="AMIX_MAG">      1.60000000</i>
    <i name="BMIX_MAG">      1.00000000</i>
    <separator name="electronic mixer details" >
     <i type="int" name="IMIX">     4</i>
     <i type="logical" name="MIXFIRST"> F  </i>
     <i type="int" name="MAXMIX">   -45</i>
     <i name="WC">    100.00000000</i>
     <i type="int" name="INIMIX">     1</i>
     <i type="int" name="MIXPRE">     1</i>
     <i type="int" name="MREMOVE">     5</i>
    </separator>
   </separator>
   <separator name="electronic dipolcorrection" >
    <i type="logical" name="LDIPOL"> T  </i>
    <i type="logical" name="LMONO"> F  </i>
    <i type="int" name="IDIPOL">     3</i>
    <i name="EPSILON">      1.00000000</i>
    <v name="DIPOL">      0.00000000      0.00000000      0.50000000</v>
    <i name="EFIELD">      0.00000000</i>
   </separator>
  </separator>
  <separator name="grids" >
   <i type="int" name="NGX">    54</i>
   <i type="int" name="NGY">    54</i>
   <i type="int" name="NGZ">   120</i>
   <i type="int" name="NGXF">   108</i>
   <i type="int" name="NGYF">   108</i>
   <i type="int" name="NGZF">   240</i>
   <i type="logical" name="ADDGRID"> F  </i>
  </separator>
  <separator name="ionic" >
   <i type="int" name="NSW">   500</i>
   <i type="int" name="IBRION">     2</i>
   <i type="int" name="ISIF">     0</i>
   <i name="PSTRESS">      0.00000000</i>
   <i name="EDIFFG">     -0.02000000</i>
   <i type="int" name="NFREE">     2</i>
   <i name="POTIM">      0.35000000</i>
   <i name="SMASS">     -3.00000000</i>
   <i name="SCALEE">      1.00000000</i>
  </separator>
  <separator name="ionic md" >
   <i name="TEBEG">      0.00010000</i>
   <i name="TEEND">      0.00010000</i>
   <i type="int" name="NBLOCK">     1</i>
   <i type="int" name="KBLOCK">   500</i>
   <i type="int" name="NPACO">   256</i>
   <i name="APACO">     16.00000000</i>
  </separator>
  <separator name="symmetry" >
   <i type="int" name="ISYM">     2</i>
   <i name="SYMPREC">      0.00001000</i>
  </separator>
  <separator name="dos" >
   <i type="logical" name="LORBIT"> F  </i>
   <v name="RWIGS">     -1.00000000     -1.00000000</v>
   <i type="int" name="NEDOS">   301</i>
   <i name="EMIN">     10.00000000</i>
   <i name="EMAX">    -10.00000000</i>
   <i name="EFERMI">      0.00000000</i>
  </separator>
  <separator name="writing" >
   <i type="int" name="NWRITE">     1</i>
   <i type="logical" name="LWAVE"> F  </i>
   <i type="logical" name="LCHARG"> F  </i>
   <i type="logical" name="LPARD"> F  </i>
   <i type="logical" name="LVTOT"> F  </i>
   <i type="logical" name="LVHAR"> F  </i>
   <i type="logical" name="LELF"> F  </i>
   <i type="logical" name="LOPTICS"> F  </i>
   <v name="STM">      0.00000000      0.00000000      0.00000000      0.00000000      0.00000000      0.00000000      0.00000000</v>
  </separator>
  <separator name="performance" >
   <i type="int" name="NPAR">     6</i>
   <i type="int" name="NSIM">     4</i>
   <i type="int" name="NBLK">    -1</i>
   <i type="logical" name="LPLANE"> T  </i>
   <i type="logical" name="LSCALAPACK"> T  </i>
   <i type="logical" name="LSCAAWARE"> F  </i>
   <i type="logical" name="LSCALU"> F  </i>
   <i type="logical" name="LASYNC"> F  </i>
   <i type="logical" name="LORBITALREAL"> F  </i>
  </separator>
  <separator name="miscellaneous" >
   <i type="int" name="IDIOT">     3</i>
   <i type="logical" name="LMUSIC"> F  </i>
   <v name="POMASS">    196.96600000    106.42000000</v>
   <v name="DARWINR">      0.00000000      0.00000000</v>
   <v name="DARWINV">      1.00000000      1.00000000</v>
   <i type="logical" name="LCORR"> T  </i>
  </separator>
  <i type="logical" name="GGA_COMPAT"> T  </i>
  <i type="logical" name="LBERRY"> F  </i>
  <i type="int" name="ICORELEVEL">     0</i>
  <i type="logical" name="LDAU"> F  </i>
  <i type="int" name="I_CONSTRAINED_M">     0</i>
  <separator name="electronic exchange-correlation" >
   <i type="string" name="GGA">PE</i>
   <i type="int" name="VOSKOWN">     1</i>
   <i type="logical" name="LHFCALC"> F  </i>
   <i type="string" name="PRECFOCK"></i>
   <i type="logical" name="LSYMGRAD"> F  </i>
   <i type="logical" name="LHFONE"> F  </i>
   <i type="logical" name="LRHFCALC"> F  </i>
   <i type="logical" name="LTHOMAS"> F  </i>
   <i type="logical" name="LMODELHF"> F  </i>
   <i name="ENCUT4O">     -1.00000000</i>
   <i type="int" name="EXXOEP">     0</i>
   <i type="int" name="FOURORBIT">     0</i>
   <i name="AEXX">      0.00000000</i>
   <i name="HFALPHA">      0.00000000</i>
   <i name="MCALPHA">      0.00000000</i>
   <i name="ALDAX">      1.00000000</i>
   <i name="AGGAX">      1.00000000</i>
   <i name="ALDAC">      1.00000000</i>
   <i name="AGGAC">      1.00000000</i>
   <i type="int" name="NKREDX">     1</i>
   <i type="int" name="NKREDY">     1</i>
   <i type="int" name="NKREDZ">     1</i>
   <i type="logical" name="SHIFTRED"> F  </i>
   <i type="logical" name="ODDONLY"> F  </i>
   <i type="logical" name="EVENONLY"> F  </i>
   <i type="int" name="LMAXFOCK">     0</i>
   <i type="int" name="NMAXFOCKAE">     0</i>
   <i type="logical" name="LFOCKAEDFT"> F  </i>
   <i name="HFSCREEN">      0.00000000</i>
   <i name="HFSCREENC">      0.00000000</i>
   <i type="int" name="NBANDSGWLOW">     0</i>
  </separator>
  <separator name="vdW DFT" >
   <i type="logical" name="LUSE_VDW"> F  </i>
   <i name="Zab_VDW">     -0.84910000</i>
   <i name="PARAM1">      0.12340000</i>
   <i name="PARAM2">      1.00000000</i>
   <i name="PARAM3">      0.00000000</i>
  </separator>
  <separator name="model GW" >
   <i type="int" name="MODEL_GW">     0</i>
   <i name="MODEL_EPS0">     32.09595293</i>
   <i name="MODEL_ALPHA">      1.00000000</i>
  </separator>
  <separator name="linear response parameters" >
   <i type="logical" name="LEPSILON"> F  </i>
   <i type="logical" name="LRPA"> F  </i>
   <i type="logical" name="LNABLA"> F  </i>
   <i type="logical" name="LVEL"> F  </i>
   <i type="int" name="KINTER">     0</i>
   <i name="CSHIFT">      0.10000000</i>
   <i name="OMEGAMAX">     -1.00000000</i>
   <i name="DEG_THRESHOLD">      0.00200000</i>
  </separator>
  <separator name="orbital magnetization" >
   <i type="logical" name="NUCIND"> F  </i>
   <v name="MAGPOS">      0.00000000      0.00000000      0.00000000</v>
   <i type="logical" name="LNICSALL"> T  </i>
   <i type="logical" name="ORBITALMAG"> F  </i>
   <i type="logical" name="LMAGBLOCH"> F  </i>
   <i type="logical" name="LCHIMAG"> F  </i>
   <i type="logical" name="LGAUGE"> T  </i>
   <i type="int" name="MAGATOM">     0</i>
   <v name="MAGDIPOL">      0.00000000      0.00000000      0.00000000</v>
   <v name="AVECCONST">      0.00000000      0.00000000      0.00000000</v>
  </separator>
  <separator name="response functions" >
   <i type="logical" name="LADDER"> F  </i>
   <i type="logical" name="LFXC"> F  </i>
   <i type="logical" name="LHARTREE"> T  </i>
   <i type="int" name="IBSE">     0</i>
   <v type="int" name="KPOINT">    -1     0     0     0</v>
   <i type="logical" name="LTCTE"> F  </i>
   <i type="logical" name="LTETE"> F  </i>
   <i type="logical" name="LTRIPLET"> F  </i>
   <i type="logical" name="LFXCEPS"> F  </i>
   <i type="logical" name="LFXHEG"> F  </i>
   <i type="int" name="NATURALO">     0</i>
   <i type="logical" name="L2ORDER"> F  </i>
   <i type="logical" name="LUSEW"> F  </i>
   <i name="ENCUTGW">     -2.00000000</i>
   <i name="ENCUTGWSOFT">     -2.00000000</i>
   <i name="ENCUTLF">     -1.00000000</i>
   <i type="int" name="LMAXMP2">    -1</i>
   <i name="SCISSOR">      0.00000000</i>
   <i type="int" name="NOMEGA">     0</i>
   <i type="int" name="NOMEGAR">     0</i>
   <i type="int" name="NBANDSGW">    -1</i>
   <i type="int" name="NBANDSO">    -1</i>
   <i type="int" name="NBANDSV">    -1</i>
   <i type="int" name="NELM">   500</i>
   <i type="int" name="NELMHF">     1</i>
   <i type="int" name="DIM">     3</i>
   <i type="int" name="ANTIRES">     0</i>
   <i name="OMEGAMAX">    -30.00000000</i>
   <i name="OMEGAMIN">    -30.00000000</i>
   <i name="OMEGATL">   -200.00000000</i>
   <i type="int" name="OMEGAGRID">     0</i>
   <i name="CSHIFT">     -0.10000000</i>
   <i type="logical" name="SELFENERGY"> F  </i>
   <i type="logical" name="LSPECTRAL"> F  </i>
   <i type="logical" name="LSPECTRALGW"> F  </i>
   <i type="logical" name="LSINGLES"> F  </i>
   <i type="logical" name="LFERMIGW"> F  </i>
   <i type="logical" name="ODDONLYGW"> F  </i>
   <i type="logical" name="EVENONLYGW"> F  </i>
   <i type="int" name="NKREDLFX">     1</i>
   <i type="int" name="NKREDLFY">     1</i>
   <i type="int" name="NKREDLFZ">     1</i>
   <i type="int" name="MAXMEM">  1800</i>
   <i type="int" name="TELESCOPE">     0</i>
   <i type="int" name="TAUPAR">     1</i>
   <i type="int" name="OMEGAPAR">    -1</i>
   <i name="LAMBDA">      1.00000000</i>
  </separator>
  <separator name="External order field" >
   <i name="OFIELD_KAPPA">      0.00000000</i>
   <v name="OFIELD_K">      0.00000000      0.00000000      0.00000000</v>
   <i name="OFIELD_Q6_NEAR">      0.00000000</i>
   <i name="OFIELD_Q6_FAR">      0.00000000</i>
   <i name="OFIELD_A">      0.00000000</i>
  </separator>
 </parameters>
 <atominfo>
  <atoms>      48 </atoms>
  <types>       2 </types>
  <array name="atoms" >
   <dimension dim="1">ion</dimension>
   <field type="string">element</field>
   <field type="int">atomtype</field>
   <set>
    <rc><c>Au</c><c>   1</c></rc>
    <rc><c>Au</c><c>   1</c></rc>
    <rc><c>Au</c><c>   1</c></rc>
    <rc><c>Au</c><c>   1</c></rc>
    <rc><c>Au</c><c>   1</c></rc>
    <rc><c>Au</c><c>   1</c></rc>
    <rc><c>Au</c><c>   1</c></rc>
    <rc><c>Au</c><c>   1</c></rc>
    <rc><c>Au</c><c>   1</c></rc>
    <rc><c>Au</c><c>   1</c></rc>
    <rc><c>Au</c><c>   1</c></rc>
    <rc><c>Au</c><c>   1</c></rc>
    <rc><c>Au</c><c>   1</c></rc>
    <rc><c>Au</c><c>   1</c></rc>
    <rc><c>Au</c><c>   1</c></rc>
    <rc><c>Au</c><c>   1</c></rc>
    <rc><c>Au</c><c>   1</c></rc>
    <rc><c>Au</c><c>   1</c></rc>
    <rc><c>Au</c><c>   1</c></rc>
    <rc><c>Au</c><c>   1</c></rc>
    <rc><c>Au</c><c>   1</c></rc>
    <rc><c>Au</c><c>   1</c></rc>
    <rc><c>Au</c><c>   1</c></rc>
    <rc><c>Au</c><c>   1</c></rc>
    <rc><c>Pd</c><c>   2</c></rc>
    <rc><c>Pd</c><c>   2</c></rc>
    <rc><c>Pd</c><c>   2</c></rc>
    <rc><c>Pd</c><c>   2</c></rc>
    <rc><c>Pd</c><c>   2</c></rc>
    <rc><c>Pd</c><c>   2</c></rc>
    <rc><c>Pd</c><c>   2</c></rc>
    <rc><c>Pd</c><c>   2</c></rc>
    <rc><c>Pd</c><c>   2</c></rc>
    <rc><c>Pd</c><c>   2</c></rc>
    <rc><c>Pd</c><c>   2</c></rc>
    <rc><c>Pd</c><c>   2</c></rc>
    <rc><c>Pd</c><c>   2</c></rc>
    <rc><c>Pd</c><c>   2</c></rc>
    <rc><c>Pd</c><c>   2</c></rc>
    <rc><c>Pd</c><c>   2</c></rc>
    <rc><c>Pd</c><c>   2</c></rc>
    <rc><c>Pd</c><c>   2</c></rc>
    <rc><c>Pd</c><c>   2</c></rc>
    <rc><c>Pd</c><c>   2</c></rc>
    <rc><c>Pd</c><c>   2</c></rc>
    <rc><c>Pd</c><c>   2</c></rc>
    <rc><c>Pd</c><c>   2</c></rc>
    <rc><c>Pd</c><c>   2</c></rc>
   </set>
  </array>
  <array name="atomtypes" >
   <dimension dim="1">type</dimension>
   <field type="int">atomspertype</field>
   <field type="string">element</field>
   <field>mass</field>
   <field>valence</field>
   <field type="string">pseudopotential</field>
   <set>
    <rc><c>  24</c><c>Au</c><c>    196.96600000</c><c>     11.00000000</c><c>  PAW_PBE Au 04Oct2007                  </c></rc>
    <rc><c>  24</c><c>Pd</c><c>    106.42000000</c><c>     10.00000000</c><c>  PAW_PBE Pd 04Jan2005                  </c></rc>
   </set>
  </array>
 </atominfo>
 <structure name="initialpos" >
  <crystal>
   <varray name="basis" >
    <v>      11.00258152       0.00000000       0.00000000 </v>
    <v>       5.50129076       9.52851510       0.00000000 </v>
    <v>       0.00000000       0.00000000      24.49178509 </v>
   </varray>
   <i name="volume">   2567.67623402 </i>
   <varray name="rec_basis" >
    <v>       0.09088776      -0.05247407       0.00000000 </v>
    <v>       0.00000000       0.10494815       0.00000000 </v>
    <v>       0.00000000       0.00000000       0.04083002 </v>
   </varray>
  </crystal>
  <varray name="positions" >
   <v>       0.25000000       0.75000000       0.59169983 </v>
   <v>       0.41666667       0.66666667       0.50000000 </v>
   <v>       0.50000000       0.50000000       0.59169983 </v>
   <v>       0.58333333       0.83333333       0.40830017 </v>
   <v>       0.58333333       0.08333333       0.40830017 </v>
   <v>       0.66666667       0.91666667       0.50000000 </v>
   <v>       0.41666667       0.91666667       0.50000000 </v>
   <v>       0.33333333       0.83333333       0.40830017 </v>
   <v>       0.83333333       0.08333333       0.40830017 </v>
   <v>       0.33333333       0.58333333       0.40830017 </v>
   <v>       0.83333333       0.33333333       0.40830017 </v>
   <v>       0.41666667       0.41666667       0.50000000 </v>
   <v>       0.25000000       0.00000000       0.59169983 </v>
   <v>       0.91666667       0.66666667       0.50000000 </v>
   <v>       0.00000000       0.75000000       0.59169983 </v>
   <v>       0.91666667       0.91666667       0.50000000 </v>
   <v>       0.83333333       0.83333333       0.40830017 </v>
   <v>       0.83333333       0.58333333       0.40830017 </v>
   <v>       0.00000000       0.50000000       0.59169983 </v>
   <v>       0.08333333       0.33333333       0.40830017 </v>
   <v>       0.75000000       0.25000000       0.59169983 </v>
   <v>       0.66666667       0.66666667       0.50000000 </v>
   <v>       0.00000000       0.25000000       0.59169983 </v>
   <v>       0.91666667       0.41666667       0.50000000 </v>
   <v>       0.75000000       0.50000000       0.59169983 </v>
   <v>       0.66666667       0.41666667       0.50000000 </v>
   <v>       0.66666667       0.16666667       0.50000000 </v>
   <v>       0.75000000       0.00000000       0.59169983 </v>
   <v>       0.50000000       0.75000000       0.59169983 </v>
   <v>       0.58333333       0.58333333       0.40830017 </v>
   <v>       0.08333333       0.08333333       0.40830017 </v>
   <v>       0.58333333       0.33333333       0.40830017 </v>
   <v>       0.91666667       0.16666667       0.50000000 </v>
   <v>       0.00000000       0.00000000       0.59169983 </v>
   <v>       0.08333333       0.58333333       0.40830017 </v>
   <v>       0.08333333       0.83333333       0.40830017 </v>
   <v>       0.33333333       0.08333333       0.40830017 </v>
   <v>       0.16666667       0.16666667       0.50000000 </v>
   <v>       0.50000000       0.25000000       0.59169983 </v>
   <v>       0.33333333       0.33333333       0.40830017 </v>
   <v>       0.25000000       0.25000000       0.59169983 </v>
   <v>       0.16666667       0.66666667       0.50000000 </v>
   <v>       0.25000000       0.50000000       0.59169983 </v>
   <v>       0.16666667       0.91666667       0.50000000 </v>
   <v>       0.41666667       0.16666667       0.50000000 </v>
   <v>       0.50000000       0.00000000       0.59169983 </v>
   <v>       0.16666667       0.41666667       0.50000000 </v>
   <v>       0.75000000       0.75000000       0.59169983 </v>
  </varray>
 </structure>
 <calculation>
  <scstep>
   <time name="dav">    7.27    7.31</time>
   <time name="total">    7.33    7.37</time>
   <dipole>
    <v name="dipole">      0.00000000       0.00000000       0.00000148 </v>
    <i name="Tr[quadrupol]"> -10265.55270574 </i>
    <i name="Echarged">      0.00000000 </i>
    <i name="Edipol_quadrupol">      0.00000000 </i>
    <i name="Eion">      0.00000000 </i>
   </dipole>
   <energy>
    <i name="alphaZ">    805.86936475 </i>
    <i name="ewald"> 200165.95860762 </i>
    <i name="hartreedc">-242580.36580931 </i>
    <i name="XCdc">   -327.62523870 </i>
    <i name="pawpsdc">  40340.05962942 </i>
    <i name="pawaedc"> -38292.62782345 </i>
    <i name="eentropy">     -0.12594988 </i>
    <i name="bandstr">   1429.98583240 </i>
    <i name="atom">  41659.78587232 </i>
    <i name="e_fr_energy">   3200.91448518 </i>
    <i name="e_wo_entrp">   3201.04043507 </i>
    <i name="e_0_energy">   3200.97746012 </i>
   </energy>
  </scstep>
  <scstep>
   <time name="dav">    8.76    8.88</time>
   <time name="total">    8.77    8.88</time>
   <dipole>
    <v name="dipole">      0.00000000       0.00000000       0.00000148 </v>
    <i name="Tr[quadrupol]"> -10265.55270574 </i>
    <i name="Echarged">      0.00000000 </i>
    <i name="Edipol_quadrupol">      0.00000000 </i>
    <i name="Eion">      0.00000000 </i>
   </dipole>
   <energy>
    <i name="e_fr_energy">     15.79386073 </i>
    <i name="e_wo_entrp">     15.92342831 </i>
    <i name="e_0_energy">     15.85864452 </i>
   </energy>
  </scstep>
  <scstep>
   <time name="dav">    8.48    8.52</time>
   <time name="total">    8.48    8.53</time>
   <dipole>
    <v name="dipole">      0.00000000       0.00000000       0.00000148 </v>
    <i name="Tr[quadrupol]"> -10265.55270574 </i>
    <i name="Echarged">      0.00000000 </i>
    <i name="Edipol_quadrupol">      0.00000000 </i>
    <i name="Eion">      0.00000000 </i>
   </dipole>
   <energy>
    <i name="e_fr_energy">   -200.62697597 </i>
    <i name="e_wo_entrp">   -200.42578679 </i>
    <i name="e_0_energy">   -200.52638138 </i>
   </energy>
  </scstep>
  <scstep>
   <time name="dav">    8.62    8.66</time>
   <time name="total">    8.62    8.67</time>
   <dipole>
    <v name="dipole">      0.00000000       0.00000000       0.00000148 </v>
    <i name="Tr[quadrupol]"> -10265.55270574 </i>
    <i name="Echarged">      0.00000000 </i>
    <i name="Edipol_quadrupol">      0.00000000 </i>
    <i name="Eion">      0.00000000 </i>
   </dipole>
   <energy>
    <i name="e_fr_energy">   -206.53823749 </i>
    <i name="e_wo_entrp">   -206.32976476 </i>
    <i name="e_0_energy">   -206.43400112 </i>
   </energy>
  </scstep>
  <scstep>
   <time name="dav">    8.86    8.90</time>
   <time name="total">    9.10    9.15</time>
   <dipole>
    <v name="dipole">      0.00000000       0.00000000       0.00000148 </v>
    <i name="Tr[quadrupol]"> -10265.55270574 </i>
    <i name="Echarged">      0.00000000 </i>
    <i name="Edipol_quadrupol">      0.00000000 </i>
    <i name="Eion">      0.00000000 </i>
   </dipole>
   <energy>
    <i name="e_fr_energy">   -206.71246627 </i>
    <i name="e_wo_entrp">   -206.50384269 </i>
    <i name="e_0_energy">   -206.60815448 </i>
   </energy>
  </scstep>
  <scstep>
   <time name="diag">    1.32    1.33</time>
   <time name="diis">    3.60    3.62</time>
   <time name="orth">    0.37    0.37</time>
   <time name="total">    5.58    5.63</time>
   <dipole>
    <v name="dipole">      0.00000000       0.00000000       0.67030498 </v>
    <i name="Tr[quadrupol]"> -10266.93491664 </i>
    <i name="Echarged">      0.00000000 </i>
    <i name="Edipol_quadrupol">      0.00000000 </i>
    <i name="Eion">      0.00000000 </i>
   </dipole>
   <energy>
    <i name="e_fr_energy">   -201.62160319 </i>
    <i name="e_wo_entrp">   -201.40500950 </i>
    <i name="e_0_energy">   -201.51330634 </i>
   </energy>
  </scstep>
  <scstep>
   <time name="diag">    1.30    1.37</time>
   <time name="diis">    3.50    3.56</time>
   <time name="orth">    0.37    0.37</time>
   <time name="total">    5.47    5.60</time>
   <dipole>
    <v name="dipole">      0.00000000       0.00000000      -1.10654906 </v>
    <i name="Tr[quadrupol]"> -10265.45638702 </i>
    <i name="Echarged">      0.00000000 </i>
    <i name="Edipol_quadrupol">      0.00000000 </i>
    <i name="Eion">      0.00000000 </i>
   </dipole>
   <energy>
    <i name="e_fr_energy">   -210.06176055 </i>
    <i name="e_wo_entrp">   -209.87249492 </i>
    <i name="e_0_energy">   -209.96712774 </i>
   </energy>
  </scstep>
  <scstep>
   <time name="diag">    1.33    1.33</time>
   <time name="diis">    3.57    3.59</time>
   <time name="orth">    0.37    0.37</time>
   <time name="total">    5.55    5.58</time>
   <dipole>
    <v name="dipole">      0.00000000       0.00000000       1.90560254 </v>
    <i name="Tr[quadrupol]"> -10266.95235781 </i>
    <i name="Echarged">      0.00000000 </i>
    <i name="Edipol_quadrupol">      0.00000000 </i>
    <i name="Eion">      0.00000000 </i>
   </dipole>
   <energy>
    <i name="e_fr_energy">   -226.39600777 </i>
    <i name="e_wo_entrp">   -226.11131485 </i>
    <i name="e_0_energy">   -226.25366131 </i>
   </energy>
  </scstep>
  <scstep>
   <time name="diag">    1.32    1.33</time>
   <time name="diis">    3.58    3.60</time>
   <time name="orth">    0.37    0.37</time>
   <time name="total">    5.54    5.58</time>
   <dipole>
    <v name="dipole">      0.00000000       0.00000000      -0.53730807 </v>
    <i name="Tr[quadrupol]"> -10268.19693418 </i>
    <i name="Echarged">      0.00000000 </i>
    <i name="Edipol_quadrupol">      0.00000000 </i>
    <i name="Eion">      0.00000000 </i>
   </dipole>
   <energy>
    <i name="e_fr_energy">   -213.03246130 </i>
    <i name="e_wo_entrp">   -212.81858681 </i>
    <i name="e_0_energy">   -212.92552406 </i>
   </energy>
  </scstep>
  <scstep>
   <time name="diag">    1.31    1.32</time>
   <time name="diis">    3.58    3.61</time>
   <time name="orth">    0.37    0.37</time>
   <time name="total">    5.55    5.58</time>
   <dipole>
    <v name="dipole">      0.00000000       0.00000000       0.33748378 </v>
    <i name="Tr[quadrupol]"> -10266.88291703 </i>
    <i name="Echarged">      0.00000000 </i>
    <i name="Edipol_quadrupol">      0.00000000 </i>
    <i name="Eion">      0.00000000 </i>
   </dipole>
   <energy>
    <i name="e_fr_energy">   -197.22880706 </i>
    <i name="e_wo_entrp">   -197.04453244 </i>
    <i name="e_0_energy">   -197.13666975 </i>
   </energy>
  </scstep>
  <scstep>
   <time name="diag">    1.31    1.32</time>
   <time name="diis">    3.56    3.57</time>
   <time name="orth">    0.37    0.37</time>
   <time name="total">    5.52    5.55</time>
   <dipole>
    <v name="dipole">      0.00000000       0.00000000       0.00708807 </v>
    <i name="Tr[quadrupol]"> -10268.05415204 </i>
    <i name="Echarged">      0.00000000 </i>
    <i name="Edipol_quadrupol">      0.00000000 </i>
    <i name="Eion">      0.00000000 </i>
   </dipole>
   <energy>
    <i name="e_fr_energy">   -192.49398809 </i>
    <i name="e_wo_entrp">   -192.30009046 </i>
    <i name="e_0_energy">   -192.39703927 </i>
   </energy>
  </scstep>
  <scstep>
   <time name="diag">    1.32    1.33</time>
   <time name="diis">    3.58    3.60</time>
   <time name="orth">    0.37    0.37</time>
   <time name="total">    5.56    5.59</time>
   <dipole>
    <v name="dipole">      0.00000000       0.00000000       0.04344916 </v>
    <i name="Tr[quadrupol]"> -10267.98010814 </i>
    <i name="Echarged">      0.00000000 </i>
    <i name="Edipol_quadrupol">      0.00000000 </i>
    <i name="Eion">      0.00000000 </i>
   </dipole>
   <energy>
    <i name="e_fr_energy">   -189.46978111 </i>
    <i name="e_wo_entrp">   -189.24035670 </i>
    <i name="e_0_energy">   -189.35506891 </i>
   </energy>
  </scstep>
  <scstep>
   <time name="diag">    1.31    1.32</time>
   <time name="diis">    3.55    3.57</time>
   <time name="orth">    0.36    0.36</time>
   <time name="total">    5.51    5.54</time>
   <dipole>
    <v name="dipole">      0.00000000       0.00000000       0.05938887 </v>
    <i name="Tr[quadrupol]"> -10268.43154332 </i>
    <i name="Echarged">      0.00000000 </i>
    <i name="Edipol_quadrupol">      0.00000000 </i>
    <i name="Eion">      0.00000000 </i>
   </dipole>
   <energy>
    <i name="e_fr_energy">   -189.04842319 </i>
    <i name="e_wo_entrp">   -188.80886923 </i>
    <i name="e_0_energy">   -188.92864621 </i>
   </energy>
  </scstep>
  <scstep>
   <time name="diag">    1.31    1.36</time>
   <time name="diis">    3.52    3.57</time>
   <time name="orth">    0.36    0.37</time>
   <time name="total">    5.47    5.59</time>
   <dipole>
    <v name="dipole">      0.00000000       0.00000000       0.05018062 </v>
    <i name="Tr[quadrupol]"> -10268.60688231 </i>
    <i name="Echarged">      0.00000000 </i>
    <i name="Edipol_quadrupol">      0.00000000 </i>
    <i name="Eion">      0.00000000 </i>
   </dipole>
   <energy>
    <i name="e_fr_energy">   -189.08993981 </i>
    <i name="e_wo_entrp">   -188.85782898 </i>
    <i name="e_0_energy">   -188.97388439 </i>
   </energy>
  </scstep>
  <scstep>
   <time name="diag">    1.31    1.31</time>
   <time name="diis">    3.62    3.63</time>
   <time name="orth">    0.36    0.36</time>
   <time name="total">    5.57    5.60</time>
   <dipole>
    <v name="dipole">      0.00000000       0.00000000       0.05349033 </v>
    <i name="Tr[quadrupol]"> -10268.82995902 </i>
    <i name="Echarged">      0.00000000 </i>
    <i name="Edipol_quadrupol">      0.00000000 </i>
    <i name="Eion">      0.00000000 </i>
   </dipole>
   <energy>
    <i name="e_fr_energy">   -189.06948229 </i>
    <i name="e_wo_entrp">   -188.82297480 </i>
    <i name="e_0_energy">   -188.94622855 </i>
   </energy>
  </scstep>
  <scstep>
   <time name="diag">    1.31    1.32</time>
   <time name="diis">    3.60    3.62</time>
   <time name="orth">    0.36    0.36</time>
   <time name="total">    5.56    5.59</time>
   <dipole>
    <v name="dipole">      0.00000000       0.00000000       0.03221269 </v>
    <i name="Tr[quadrupol]"> -10269.09972106 </i>
    <i name="Echarged">      0.00000000 </i>
    <i name="Edipol_quadrupol">      0.00000000 </i>
    <i name="Eion">      0.00000000 </i>
   </dipole>
   <energy>
    <i name="e_fr_energy">   -188.86209175 </i>
    <i name="e_wo_entrp">   -188.62184305 </i>
    <i name="e_0_energy">   -188.74196740 </i>
   </energy>
  </scstep>
  <scstep>
   <time name="diag">    1.31    1.32</time>
   <time name="diis">    3.61    3.63</time>
   <time name="orth">    0.36    0.37</time>
   <time name="total">    5.57    5.59</time>
   <dipole>
    <v name="dipole">      0.00000000       0.00000000       0.04919038 </v>
    <i name="Tr[quadrupol]"> -10269.31211198 </i>
    <i name="Echarged">      0.00000000 </i>
    <i name="Edipol_quadrupol">      0.00000000 </i>
    <i name="Eion">      0.00000000 </i>
   </dipole>
   <energy>
    <i name="e_fr_energy">   -188.73434928 </i>
    <i name="e_wo_entrp">   -188.48376912 </i>
    <i name="e_0_energy">   -188.60905920 </i>
   </energy>
  </scstep>
  <scstep>
   <time name="diag">    1.31    1.33</time>
   <time name="diis">    3.60    3.62</time>
   <time name="orth">    0.36    0.36</time>
   <time name="total">    5.56    5.60</time>
   <dipole>
    <v name="dipole">      0.00000000       0.00000000       0.05369146 </v>
    <i name="Tr[quadrupol]"> -10269.66074022 </i>
    <i name="Echarged">      0.00000000 </i>
    <i name="Edipol_quadrupol">      0.00000000 </i>
    <i name="Eion">      0.00000000 </i>
   </dipole>
   <energy>
    <i name="e_fr_energy">   -188.66807104 </i>
    <i name="e_wo_entrp">   -188.41737054 </i>
    <i name="e_0_energy">   -188.54272079 </i>
   </energy>
  </scstep>
  <scstep>
   <time name="diag">    1.31    1.31</time>
   <time name="diis">    3.58    3.59</time>
   <time name="orth">    0.36    0.36</time>
   <time name="total">    5.53    5.55</time>
   <dipole>
    <v name="dipole">      0.00000000       0.00000000       0.03814920 </v>
    <i name="Tr[quadrupol]"> -10269.77298282 </i>
    <i name="Echarged">      0.00000000 </i>
    <i name="Edipol_quadrupol">      0.00000000 </i>
    <i name="Eion">      0.00000000 </i>
   </dipole>
   <energy>
    <i name="e_fr_energy">   -188.64605232 </i>
    <i name="e_wo_entrp">   -188.38935378 </i>
    <i name="e_0_energy">   -188.51770305 </i>
   </energy>
  </scstep>
  <scstep>
   <time name="diag">    1.31    1.32</time>
   <time name="diis">    3.55    3.57</time>
   <time name="orth">    0.36    0.37</time>
   <time name="total">    5.51    5.54</time>
   <dipole>
    <v name="dipole">      0.00000000       0.00000000       0.02282481 </v>
    <i name="Tr[quadrupol]"> -10269.86832264 </i>
    <i name="Echarged">      0.00000000 </i>
    <i name="Edipol_quadrupol">      0.00000000 </i>
    <i name="Eion">      0.00000000 </i>
   </dipole>
   <energy>
    <i name="e_fr_energy">   -188.63815521 </i>
    <i name="e_wo_entrp">   -188.38206212 </i>
    <i name="e_0_energy">   -188.51010867 </i>
   </energy>
  </scstep>
  <scstep>
   <time name="diag">    1.31    1.32</time>
   <time name="diis">    3.48    3.58</time>
   <time name="orth">    0.36    0.37</time>
   <time name="total">    5.44    5.56</time>
   <dipole>
    <v name="dipole">      0.00000000       0.00000000       0.02090631 </v>
    <i name="Tr[quadrupol]"> -10269.96153837 </i>
    <i name="Echarged">      0.00000000 </i>
    <i name="Edipol_quadrupol">      0.00000000 </i>
    <i name="Eion">      0.00000000 </i>
   </dipole>
   <energy>
    <i name="e_fr_energy">   -188.63495808 </i>
    <i name="e_wo_entrp">   -188.37790708 </i>
    <i name="e_0_energy">   -188.50643258 </i>
   </energy>
  </scstep>
  <scstep>
   <time name="diag">    1.31    1.32</time>
   <time name="diis">    3.58    3.60</time>
   <time name="orth">    0.36    0.36</time>
   <time name="total">    5.53    5.57</time>
   <dipole>
    <v name="dipole">      0.00000000       0.00000000       0.02252711 </v>
    <i name="Tr[quadrupol]"> -10270.10268729 </i>
    <i name="Echarged">      0.00000000 </i>
    <i name="Edipol_quadrupol">      0.00000000 </i>
    <i name="Eion">      0.00000000 </i>
   </dipole>
   <energy>
    <i name="e_fr_energy">   -188.63286979 </i>
    <i name="e_wo_entrp">   -188.37643337 </i>
    <i name="e_0_energy">   -188.50465158 </i>
   </energy>
  </scstep>
  <scstep>
   <time name="diag">    1.30    1.31</time>
   <time name="diis">    3.57    3.59</time>
   <time name="orth">    0.36    0.37</time>
   <time name="total">    5.52    5.55</time>
   <dipole>
    <v name="dipole">      0.00000000       0.00000000       0.02064336 </v>
    <i name="Tr[quadrupol]"> -10270.23245394 </i>
    <i name="Echarged">      0.00000000 </i>
    <i name="Edipol_quadrupol">      0.00000000 </i>
    <i name="Eion">      0.00000000 </i>
   </dipole>
   <energy>
    <i name="e_fr_energy">   -188.63190808 </i>
    <i name="e_wo_entrp">   -188.37457148 </i>
    <i name="e_0_energy">   -188.50323978 </i>
   </energy>
  </scstep>
  <scstep>
   <time name="diag">    1.31    1.32</time>
   <time name="diis">    3.56    3.57</time>
   <time name="orth">    0.36    0.36</time>
   <time name="total">    5.52    5.55</time>
   <dipole>
    <v name="dipole">      0.00000000       0.00000000       0.01900315 </v>
    <i name="Tr[quadrupol]"> -10270.34510402 </i>
    <i name="Echarged">      0.00000000 </i>
    <i name="Edipol_quadrupol">      0.00000000 </i>
    <i name="Eion">      0.00000000 </i>
   </dipole>
   <energy>
    <i name="e_fr_energy">   -188.63148239 </i>
    <i name="e_wo_entrp">   -188.37405476 </i>
    <i name="e_0_energy">   -188.50276857 </i>
   </energy>
  </scstep>
  <scstep>
   <time name="diag">    1.31    1.31</time>
   <time name="diis">    3.60    3.62</time>
   <time name="orth">    0.36    0.36</time>
   <time name="total">    5.56    5.59</time>
   <dipole>
    <v name="dipole">      0.00000000       0.00000000       0.01620094 </v>
    <i name="Tr[quadrupol]"> -10270.42148112 </i>
    <i name="Echarged">      0.00000000 </i>
    <i name="Edipol_quadrupol">      0.00000000 </i>
    <i name="Eion">      0.00000000 </i>
   </dipole>
   <energy>
    <i name="e_fr_energy">   -188.63162174 </i>
    <i name="e_wo_entrp">   -188.37407699 </i>
    <i name="e_0_energy">   -188.50284937 </i>
   </energy>
  </scstep>
  <scstep>
   <time name="diag">    1.31    1.32</time>
   <time name="diis">    3.56    3.57</time>
   <time name="orth">    0.36    0.36</time>
   <time name="total">    5.51    5.54</time>
   <dipole>
    <v name="dipole">      0.00000000       0.00000000       0.01317399 </v>
    <i name="Tr[quadrupol]"> -10270.51992643 </i>
    <i name="Echarged">      0.00000000 </i>
    <i name="Edipol_quadrupol">      0.00000000 </i>
    <i name="Eion">      0.00000000 </i>
   </dipole>
   <energy>
    <i name="e_fr_energy">   -188.63201734 </i>
    <i name="e_wo_entrp">   -188.37403320 </i>
    <i name="e_0_energy">   -188.50302527 </i>
   </energy>
  </scstep>
  <scstep>
   <time name="diag">    1.30    1.31</time>
   <time name="diis">    3.58    3.60</time>
   <time name="orth">    0.36    0.36</time>
   <time name="total">    5.53    5.56</time>
   <dipole>
    <v name="dipole">      0.00000000       0.00000000       0.01150468 </v>
    <i name="Tr[quadrupol]"> -10270.58770097 </i>
    <i name="Echarged">      0.00000000 </i>
    <i name="Edipol_quadrupol">      0.00000000 </i>
    <i name="Eion">      0.00000000 </i>
   </dipole>
   <energy>
    <i name="e_fr_energy">   -188.63245010 </i>
    <i name="e_wo_entrp">   -188.37470724 </i>
    <i name="e_0_energy">   -188.50357867 </i>
   </energy>
  </scstep>
  <scstep>
   <time name="diag">    1.31    1.32</time>
   <time name="diis">    3.50    3.61</time>
   <time name="orth">    0.36    0.36</time>
   <time name="total">    5.46    5.58</time>
   <dipole>
    <v name="dipole">      0.00000000       0.00000000       0.01010089 </v>
    <i name="Tr[quadrupol]"> -10270.65809165 </i>
    <i name="Echarged">      0.00000000 </i>
    <i name="Edipol_quadrupol">      0.00000000 </i>
    <i name="Eion">      0.00000000 </i>
   </dipole>
   <energy>
    <i name="e_fr_energy">   -188.63299691 </i>
    <i name="e_wo_entrp">   -188.37522254 </i>
    <i name="e_0_energy">   -188.50410972 </i>
   </energy>
  </scstep>
  <scstep>
   <time name="diag">    1.31    1.32</time>
   <time name="diis">    3.50    3.52</time>
   <time name="orth">    0.36    0.36</time>
   <time name="total">    5.47    5.51</time>
   <dipole>
    <v name="dipole">      0.00000000       0.00000000       0.00845046 </v>
    <i name="Tr[quadrupol]"> -10270.71162493 </i>
    <i name="Echarged">      0.00000000 </i>
    <i name="Edipol_quadrupol">      0.00000000 </i>
    <i name="Eion">      0.00000000 </i>
   </dipole>
   <energy>
    <i name="e_fr_energy">   -188.63354015 </i>
    <i name="e_wo_entrp">   -188.37578187 </i>
    <i name="e_0_energy">   -188.50466101 </i>
   </energy>
  </scstep>
  <scstep>
   <time name="diag">    1.31    1.32</time>
   <time name="diis">    3.51    3.53</time>
   <time name="orth">    0.36    0.36</time>
   <time name="total">    5.47    5.50</time>
   <dipole>
    <v name="dipole">      0.00000000       0.00000000       0.00673172 </v>
    <i name="Tr[quadrupol]"> -10270.76072128 </i>
    <i name="Echarged">      0.00000000 </i>
    <i name="Edipol_quadrupol">      0.00000000 </i>
    <i name="Eion">      0.00000000 </i>
   </dipole>
   <energy>
    <i name="e_fr_energy">   -188.63408090 </i>
    <i name="e_wo_entrp">   -188.37632125 </i>
    <i name="e_0_energy">   -188.50520108 </i>
   </energy>
  </scstep>
  <scstep>
   <time name="diag">    1.31    1.31</time>
   <time name="diis">    3.49    3.51</time>
   <time name="orth">    0.36    0.36</time>
   <time name="total">    5.44    5.47</time>
   <dipole>
    <v name="dipole">      0.00000000       0.00000000       0.00436285 </v>
    <i name="Tr[quadrupol]"> -10270.82479008 </i>
    <i name="Echarged">      0.00000000 </i>
    <i name="Edipol_quadrupol">      0.00000000 </i>
    <i name="Eion">      0.00000000 </i>
   </dipole>
   <energy>
    <i name="e_fr_energy">   -188.63467669 </i>
    <i name="e_wo_entrp">   -188.37697399 </i>
    <i name="e_0_energy">   -188.50582534 </i>
   </energy>
  </scstep>
  <scstep>
   <time name="diag">    1.32    1.32</time>
   <time name="diis">    2.94    2.95</time>
   <time name="orth">    0.36    0.37</time>
   <time name="total">    4.90    4.93</time>
   <dipole>
    <v name="dipole">      0.00000000       0.00000000       0.00345524 </v>
    <i name="Tr[quadrupol]"> -10270.84763294 </i>
    <i name="Echarged">      0.00000000 </i>
    <i name="Edipol_quadrupol">      0.00000000 </i>
    <i name="Eion">      0.00000000 </i>
   </dipole>
   <energy>
    <i name="e_fr_energy">   -188.63483296 </i>
    <i name="e_wo_entrp">   -188.37708581 </i>
    <i name="e_0_energy">   -188.50595939 </i>
   </energy>
  </scstep>
  <scstep>
   <time name="diag">    1.31    1.32</time>
   <time name="diis">    2.65    2.66</time>
   <time name="orth">    0.36    0.36</time>
   <time name="total">    4.61    4.64</time>
   <dipole>
    <v name="dipole">      0.00000000       0.00000000       0.00275690 </v>
    <i name="Tr[quadrupol]"> -10270.86453843 </i>
    <i name="Echarged">      0.00000000 </i>
    <i name="Edipol_quadrupol">      0.00000000 </i>
    <i name="Eion">      0.00000000 </i>
   </dipole>
   <energy>
    <i name="e_fr_energy">   -188.63497296 </i>
    <i name="e_wo_entrp">   -188.37724324 </i>
    <i name="e_0_energy">   -188.50610810 </i>
   </energy>
  </scstep>
  <scstep>
   <time name="diag">    1.31    1.31</time>
   <time name="diis">    2.28    2.29</time>
   <time name="orth">    0.37    0.37</time>
   <time name="total">    4.24    4.26</time>
   <dipole>
    <v name="dipole">      0.00000000       0.00000000       0.00234464 </v>
    <i name="Tr[quadrupol]"> -10270.87157658 </i>
    <i name="Echarged">      0.00000000 </i>
    <i name="Edipol_quadrupol">      0.00000000 </i>
    <i name="Eion">      0.00000000 </i>
   </dipole>
   <energy>
    <i name="e_fr_energy">   -188.63503113 </i>
    <i name="e_wo_entrp">   -188.37729946 </i>
    <i name="e_0_energy">   -188.50616529 </i>
   </energy>
  </scstep>
  <scstep>
   <time name="diag">    1.30    1.31</time>
   <time name="diis">    2.26    2.27</time>
   <time name="orth">    0.36    0.36</time>
   <time name="total">    4.21    4.24</time>
   <dipole>
    <v name="dipole">      0.00000000       0.00000000       0.00161780 </v>
    <i name="Tr[quadrupol]"> -10270.88180708 </i>
    <i name="Echarged">      0.00000000 </i>
    <i name="Edipol_quadrupol">      0.00000000 </i>
    <i name="Eion">      0.00000000 </i>
   </dipole>
   <energy>
    <i name="e_fr_energy">   -188.63510879 </i>
    <i name="e_wo_entrp">   -188.37736635 </i>
    <i name="e_0_energy">   -188.50623757 </i>
   </energy>
  </scstep>
  <scstep>
   <time name="diag">    1.31    1.32</time>
   <time name="diis">    2.16    2.25</time>
   <time name="orth">    0.36    0.37</time>
   <time name="total">    4.12    4.22</time>
   <dipole>
    <v name="dipole">      0.00000000       0.00000000       0.00118431 </v>
    <i name="Tr[quadrupol]"> -10270.88786670 </i>
    <i name="Echarged">      0.00000000 </i>
    <i name="Edipol_quadrupol">      0.00000000 </i>
    <i name="Eion">      0.00000000 </i>
   </dipole>
   <energy>
    <i name="e_fr_energy">   -188.63514387 </i>
    <i name="e_wo_entrp">   -188.37740009 </i>
    <i name="e_0_energy">   -188.50627198 </i>
   </energy>
  </scstep>
  <scstep>
   <time name="diag">    1.31    1.32</time>
   <time name="diis">    2.01    2.02</time>
   <time name="orth">    0.36    0.36</time>
   <time name="total">    3.97    3.99</time>
   <dipole>
    <v name="dipole">      0.00000000       0.00000000       0.00092013 </v>
    <i name="Tr[quadrupol]"> -10270.89147990 </i>
    <i name="Echarged">      0.00000000 </i>
    <i name="Edipol_quadrupol">      0.00000000 </i>
    <i name="Eion">      0.00000000 </i>
   </dipole>
   <energy>
    <i name="e_fr_energy">   -188.63515811 </i>
    <i name="e_wo_entrp">   -188.37741924 </i>
    <i name="e_0_energy">   -188.50628868 </i>
   </energy>
  </scstep>
  <scstep>
   <time name="diag">    1.31    1.31</time>
   <time name="diis">    2.05    2.06</time>
   <time name="orth">    0.36    0.36</time>
   <time name="total">    4.00    4.02</time>
   <dipole>
    <v name="dipole">      0.00000000       0.00000000       0.00059985 </v>
    <i name="Tr[quadrupol]"> -10270.89585214 </i>
    <i name="Echarged">      0.00000000 </i>
    <i name="Edipol_quadrupol">      0.00000000 </i>
    <i name="Eion">      0.00000000 </i>
   </dipole>
   <energy>
    <i name="e_fr_energy">   -188.63516709 </i>
    <i name="e_wo_entrp">   -188.37742850 </i>
    <i name="e_0_energy">   -188.50629779 </i>
   </energy>
  </scstep>
  <scstep>
   <time name="diag">    1.30    1.31</time>
   <time name="diis">    1.67    1.68</time>
   <time name="orth">    0.36    0.36</time>
   <time name="total">    3.62    3.64</time>
   <dipole>
    <v name="dipole">      0.00000000       0.00000000       0.00045754 </v>
    <i name="Tr[quadrupol]"> -10270.89790734 </i>
    <i name="Echarged">      0.00000000 </i>
    <i name="Edipol_quadrupol">      0.00000000 </i>
    <i name="Eion">      0.00000000 </i>
   </dipole>
   <energy>
    <i name="e_fr_energy">   -188.63516874 </i>
    <i name="e_wo_entrp">   -188.37743045 </i>
    <i name="e_0_energy">   -188.50629959 </i>
   </energy>
  </scstep>
  <scstep>
   <time name="diag">    1.31    1.32</time>
   <time name="diis">    1.52    1.52</time>
   <time name="orth">    0.36    0.36</time>
   <time name="total">    3.24    3.26</time>
   <dipole>
    <v name="dipole">      0.00000000       0.00000000       0.00034101 </v>
    <i name="Tr[quadrupol]"> -10270.89975849 </i>
    <i name="Echarged">      0.00000000 </i>
    <i name="Edipol_quadrupol">      0.00000000 </i>
    <i name="Eion">      0.00000000 </i>
   </dipole>
   <energy>
    <i name="alphaZ">    805.86947223 </i>
    <i name="ewald"> 200165.95860762 </i>
    <i name="hartreedc">-242353.32363280 </i>
    <i name="XCdc">   -343.37535014 </i>
    <i name="pawpsdc">  49378.35758838 </i>
    <i name="pawaedc"> -47456.47345061 </i>
    <i name="eentropy">     -0.25773879 </i>
    <i name="bandstr">  -2045.17653785 </i>
    <i name="atom">  41659.78587232 </i>
    <i name="e_fr_energy">   -188.63516965 </i>
    <i name="e_wo_entrp">   -188.37743086 </i>
    <i name="e_0_energy">   -188.50630025 </i>
   </energy>
  </scstep>
  <structure>
   <crystal>
    <varray name="basis" >
     <v>      11.00258152       0.00000000       0.00000000 </v>
     <v>       5.50129076       9.52851510       0.00000000 </v>
     <v>       0.00000000       0.00000000      24.49178509 </v>
    </varray>
    <i name="volume">   2567.67623402 </i>
    <varray name="rec_basis" >
     <v>       0.09088776      -0.05247407       0.00000000 </v>
     <v>       0.00000000       0.10494815       0.00000000 </v>
     <v>       0.00000000       0.00000000       0.04083002 </v>
    </varray>
   </crystal>
   <varray name="positions" >
    <v>       0.25000000       0.75000000       0.59169983 </v>
    <v>       0.41666667       0.66666667       0.50000000 </v>
    <v>       0.50000000       0.50000000       0.59169983 </v>
    <v>       0.58333333       0.83333333       0.40830017 </v>
    <v>       0.58333333       0.08333333       0.40830017 </v>
    <v>       0.66666667       0.91666667       0.50000000 </v>
    <v>       0.41666667       0.91666667       0.50000000 </v>
    <v>       0.33333333       0.83333333       0.40830017 </v>
    <v>       0.83333333       0.08333333       0.40830017 </v>
    <v>       0.33333333       0.58333333       0.40830017 </v>
    <v>       0.83333333       0.33333333       0.40830017 </v>
    <v>       0.41666667       0.41666667       0.50000000 </v>
    <v>       0.25000000       0.00000000       0.59169983 </v>
    <v>       0.91666667       0.66666667       0.50000000 </v>
    <v>       0.00000000       0.75000000       0.59169983 </v>
    <v>       0.91666667       0.91666667       0.50000000 </v>
    <v>       0.83333333       0.83333333       0.40830017 </v>
    <v>       0.83333333       0.58333333       0.40830017 </v>
    <v>       0.00000000       0.50000000       0.59169983 </v>
    <v>       0.08333333       0.33333333       0.40830017 </v>
    <v>       0.75000000       0.25000000       0.59169983 </v>
    <v>       0.66666667       0.66666667       0.50000000 </v>
    <v>       0.00000000       0.25000000       0.59169983 </v>
    <v>       0.91666667       0.41666667       0.50000000 </v>
    <v>       0.75000000       0.50000000       0.59169983 </v>
    <v>       0.66666667       0.41666667       0.50000000 </v>
    <v>       0.66666667       0.16666667       0.50000000 </v>
    <v>       0.75000000       0.00000000       0.59169983 </v>
    <v>       0.50000000       0.75000000       0.59169983 </v>
    <v>       0.58333333       0.58333333       0.40830017 </v>
    <v>       0.08333333       0.08333333       0.40830017 </v>
    <v>       0.58333333       0.33333333       0.40830017 </v>
    <v>       0.91666667       0.16666667       0.50000000 </v>
    <v>       0.00000000       0.00000000       0.59169983 </v>
    <v>       0.08333333       0.58333333       0.40830017 </v>
    <v>       0.08333333       0.83333333       0.40830017 </v>
    <v>       0.33333333       0.08333333       0.40830017 </v>
    <v>       0.16666667       0.16666667       0.50000000 </v>
    <v>       0.50000000       0.25000000       0.59169983 </v>
    <v>       0.33333333       0.33333333       0.40830017 </v>
    <v>       0.25000000       0.25000000       0.59169983 </v>
    <v>       0.16666667       0.66666667       0.50000000 </v>
    <v>       0.25000000       0.50000000       0.59169983 </v>
    <v>       0.16666667       0.91666667       0.50000000 </v>
    <v>       0.41666667       0.16666667       0.50000000 </v>
    <v>       0.50000000       0.00000000       0.59169983 </v>
    <v>       0.16666667       0.41666667       0.50000000 </v>
    <v>       0.75000000       0.75000000       0.59169983 </v>
   </varray>
  </structure>
  <varray name="forces" >
   <v>      -0.11960556       0.06644329       1.39512235 </v>
   <v>       0.05752915      -0.05541754       0.00147028 </v>
   <v>       0.12447285      -0.10511984       1.56882424 </v>
   <v>      -0.26928645       0.03557067      -1.93151889 </v>
   <v>      -0.25988312       0.56011388      -1.40962332 </v>
   <v>      -0.04068820       0.58312261       0.91694275 </v>
   <v>      -0.11335393       0.63202971       0.28584141 </v>
   <v>      -0.28335354       0.32782749      -1.56093539 </v>
   <v>       0.25394932       0.17868570      -1.35062811 </v>
   <v>      -0.27897227      -0.13873541      -1.46848830 </v>
   <v>      -0.40817104      -0.11652576      -1.34321377 </v>
   <v>      -0.35076320      -0.54188177      -0.02059419 </v>
   <v>       0.11309944       0.09510112       1.31717481 </v>
   <v>       0.49456036      -0.25652286       0.06982490 </v>
   <v>       0.02551796       0.11925100       1.58596022 </v>
   <v>       0.62908194       0.33281510       0.26813006 </v>
   <v>       0.40785889      -0.18932794      -1.88478445 </v>
   <v>       0.00622375      -0.04210019      -1.90157442 </v>
   <v>       0.17499312      -0.08759083       1.56717255 </v>
   <v>       0.52164634      -0.29914077      -1.31161971 </v>
   <v>      -0.11484092      -0.19311757       1.12868227 </v>
   <v>      -0.35848346      -0.36566265       0.60220218 </v>
   <v>       0.01540879      -0.15000081       1.34545220 </v>
   <v>      -0.17017840      -0.40526092       0.28770348 </v>
   <v>      -0.08954191       0.19838596       0.89598285 </v>
   <v>      -0.02820717      -0.20547045      -0.15046044 </v>
   <v>      -0.06569525       0.26068776       0.23814071 </v>
   <v>      -0.16436414       0.16299084       0.78020384 </v>
   <v>       0.30191274      -0.00788487       1.00212915 </v>
   <v>      -0.04423414      -0.18297998      -0.93802913 </v>
   <v>       0.12665561      -0.12909986      -0.53039526 </v>
   <v>       0.00636895       0.03326679      -0.64908634 </v>
   <v>       0.09061970      -0.23832292       0.00347986 </v>
   <v>      -0.12154637       0.06002702       0.70619820 </v>
   <v>       0.20017887      -0.04810137      -0.74772274 </v>
   <v>       0.07217692      -0.05061013      -0.71766958 </v>
   <v>      -0.07808067       0.23058287      -0.72101429 </v>
   <v>       0.13849128      -0.08696828      -0.19603581 </v>
   <v>      -0.29474827      -0.21297435       0.63786444 </v>
   <v>      -0.07957420      -0.11873797      -0.58289322 </v>
   <v>       0.28240818       0.00393499       0.53273982 </v>
   <v>      -0.12373504      -0.08396308      -0.18498291 </v>
   <v>      -0.05726976      -0.24219529       0.71086702 </v>
   <v>      -0.33717918       0.32494262      -0.20944617 </v>
   <v>      -0.16131487       0.26823525       0.21635407 </v>
   <v>       0.21132438       0.17586630       0.75089453 </v>
   <v>       0.39031078      -0.20636543       0.00159495 </v>
   <v>      -0.23171825       0.11019786       0.99376330 </v>
  </varray>
  <energy>
   <i name="e_fr_energy">   -188.63516965 </i>
   <i name="e_wo_entrp">   -188.50630025 </i>
   <i name="e_0_energy">     -0.25773879 </i>
  </energy>
  <time name="totalsc">  225.29  227.08</time>
 </calculation>
 <calculation>
  <scstep>
   <time name="dav">    7.36    7.43</time>
   <time name="total">    7.64    7.72</time>
   <dipole>
    <v name="dipole">      0.00000000       0.00000000       0.00024959 </v>
    <i name="Tr[quadrupol]"> -10260.94862412 </i>
    <i name="Echarged">      0.00000000 </i>
    <i name="Edipol_quadrupol">      0.00000000 </i>
    <i name="Eion">      0.00000000 </i>
   </dipole>
   <energy>
    <i name="alphaZ">    805.86944439 </i>
    <i name="ewald"> 197448.30553075 </i>
    <i name="hartreedc">-239652.12721978 </i>
    <i name="XCdc">   -345.61472487 </i>
    <i name="pawpsdc">  49378.35119419 </i>
    <i name="pawaedc"> -47456.46707851 </i>
    <i name="eentropy">     -0.25496527 </i>
    <i name="bandstr">  -2027.60993001 </i>
    <i name="atom">  41659.78587232 </i>
    <i name="e_fr_energy">   -189.76187678 </i>
    <i name="e_wo_entrp">   -189.50691151 </i>
    <i name="e_0_energy">   -189.63439415 </i>
   </energy>
  </scstep>
  <scstep>
   <time name="diag">    1.31    1.32</time>
   <time name="diis">    3.57    3.59</time>
   <time name="orth">    0.36    0.36</time>
   <time name="total">    5.53    5.56</time>
   <dipole>
    <v name="dipole">      0.00000000       0.00000000      -0.02266813 </v>
    <i name="Tr[quadrupol]"> -10260.70174363 </i>
    <i name="Echarged">      0.00000000 </i>
    <i name="Edipol_quadrupol">      0.00000000 </i>
    <i name="Eion">      0.00000000 </i>
   </dipole>
   <energy>
    <i name="e_fr_energy">   -190.16427408 </i>
    <i name="e_wo_entrp">   -189.90518431 </i>
    <i name="e_0_energy">   -190.03472919 </i>
   </energy>
  </scstep>
  <scstep>
   <time name="diag">    1.31    1.31</time>
   <time name="diis">    3.63    3.65</time>
   <time name="orth">    0.36    0.36</time>
   <time name="total">    5.59    5.61</time>
   <dipole>
    <v name="dipole">      0.00000000       0.00000000       0.09364454 </v>
    <i name="Tr[quadrupol]"> -10261.17405703 </i>
    <i name="Echarged">      0.00000000 </i>
    <i name="Edipol_quadrupol">      0.00000000 </i>
    <i name="Eion">      0.00000000 </i>
   </dipole>
   <energy>
    <i name="e_fr_energy">   -190.31745858 </i>
    <i name="e_wo_entrp">   -190.07796988 </i>
    <i name="e_0_energy">   -190.19771423 </i>
   </energy>
  </scstep>
  <scstep>
   <time name="diag">    1.30    1.31</time>
   <time name="diis">    3.52    3.62</time>
   <time name="orth">    0.36    0.36</time>
   <time name="total">    5.47    5.58</time>
   <dipole>
    <v name="dipole">      0.00000000       0.00000000      -0.05938346 </v>
    <i name="Tr[quadrupol]"> -10261.10408263 </i>
    <i name="Echarged">      0.00000000 </i>
    <i name="Edipol_quadrupol">      0.00000000 </i>
    <i name="Eion">      0.00000000 </i>
   </dipole>
   <energy>
    <i name="e_fr_energy">   -190.18695137 </i>
    <i name="e_wo_entrp">   -189.92688841 </i>
    <i name="e_0_energy">   -190.05691989 </i>
   </energy>
  </scstep>
  <scstep>
   <time name="diag">    1.32    1.33</time>
   <time name="diis">    3.56    3.58</time>
   <time name="orth">    0.36    0.36</time>
   <time name="total">    5.53    5.56</time>
   <dipole>
    <v name="dipole">      0.00000000       0.00000000       0.03610194 </v>
    <i name="Tr[quadrupol]"> -10261.00371095 </i>
    <i name="Echarged">      0.00000000 </i>
    <i name="Edipol_quadrupol">      0.00000000 </i>
    <i name="Eion">      0.00000000 </i>
   </dipole>
   <energy>
    <i name="e_fr_energy">   -190.19087917 </i>
    <i name="e_wo_entrp">   -189.94982193 </i>
    <i name="e_0_energy">   -190.07035055 </i>
   </energy>
  </scstep>
  <scstep>
   <time name="diag">    1.31    1.32</time>
   <time name="diis">    3.59    3.61</time>
   <time name="orth">    0.36    0.36</time>
   <time name="total">    5.55    5.58</time>
   <dipole>
    <v name="dipole">      0.00000000       0.00000000      -0.01241427 </v>
    <i name="Tr[quadrupol]"> -10261.02209009 </i>
    <i name="Echarged">      0.00000000 </i>
    <i name="Edipol_quadrupol">      0.00000000 </i>
    <i name="Eion">      0.00000000 </i>
   </dipole>
   <energy>
    <i name="e_fr_energy">   -190.14021874 </i>
    <i name="e_wo_entrp">   -189.88193493 </i>
    <i name="e_0_energy">   -190.01107684 </i>
   </energy>
  </scstep>
  <scstep>
   <time name="diag">    1.31    1.32</time>
   <time name="diis">    3.59    3.61</time>
   <time name="orth">    0.36    0.36</time>
   <time name="total">    5.55    5.57</time>
   <dipole>
    <v name="dipole">      0.00000000       0.00000000      -0.00529084 </v>
    <i name="Tr[quadrupol]"> -10261.00311362 </i>
    <i name="Echarged">      0.00000000 </i>
    <i name="Edipol_quadrupol">      0.00000000 </i>
    <i name="Eion">      0.00000000 </i>
   </dipole>
   <energy>
    <i name="e_fr_energy">   -190.13379703 </i>
    <i name="e_wo_entrp">   -189.87733473 </i>
    <i name="e_0_energy">   -190.00556588 </i>
   </energy>
  </scstep>
  <scstep>
   <time name="diag">    1.31    1.31</time>
   <time name="diis">    3.56    3.58</time>
   <time name="orth">    0.36    0.36</time>
   <time name="total">    5.50    5.54</time>
   <dipole>
    <v name="dipole">      0.00000000       0.00000000      -0.00458380 </v>
    <i name="Tr[quadrupol]"> -10260.97788712 </i>
    <i name="Echarged">      0.00000000 </i>
    <i name="Edipol_quadrupol">      0.00000000 </i>
    <i name="Eion">      0.00000000 </i>
   </dipole>
   <energy>
    <i name="e_fr_energy">   -190.13211077 </i>
    <i name="e_wo_entrp">   -189.87460502 </i>
    <i name="e_0_energy">   -190.00335789 </i>
   </energy>
  </scstep>
  <scstep>
   <time name="diag">    1.32    1.33</time>
   <time name="diis">    3.60    3.62</time>
   <time name="orth">    0.36    0.36</time>
   <time name="total">    5.57    5.60</time>
   <dipole>
    <v name="dipole">      0.00000000       0.00000000      -0.00536506 </v>
    <i name="Tr[quadrupol]"> -10260.97173508 </i>
    <i name="Echarged">      0.00000000 </i>
    <i name="Edipol_quadrupol">      0.00000000 </i>
    <i name="Eion">      0.00000000 </i>
   </dipole>
   <energy>
    <i name="e_fr_energy">   -190.13107051 </i>
    <i name="e_wo_entrp">   -189.87354105 </i>
    <i name="e_0_energy">   -190.00230578 </i>
   </energy>
  </scstep>
  <scstep>
   <time name="diag">    1.32    1.33</time>
   <time name="diis">    3.58    3.60</time>
   <time name="orth">    0.36    0.36</time>
   <time name="total">    5.55    5.58</time>
   <dipole>
    <v name="dipole">      0.00000000       0.00000000      -0.00618231 </v>
    <i name="Tr[quadrupol]"> -10260.96763756 </i>
    <i name="Echarged">      0.00000000 </i>
    <i name="Edipol_quadrupol">      0.00000000 </i>
    <i name="Eion">      0.00000000 </i>
   </dipole>
   <energy>
    <i name="e_fr_energy">   -190.13094928 </i>
    <i name="e_wo_entrp">   -189.87338656 </i>
    <i name="e_0_energy">   -190.00216792 </i>
   </energy>
  </scstep>
  <scstep>
   <time name="diag">    1.31    1.32</time>
   <time name="diis">    3.62    3.66</time>
   <time name="orth">    0.35    0.38</time>
   <time name="total">    5.56    5.67</time>
   <dipole>
    <v name="dipole">      0.00000000       0.00000000      -0.00628191 </v>
    <i name="Tr[quadrupol]"> -10260.96943211 </i>
    <i name="Echarged">      0.00000000 </i>
    <i name="Edipol_quadrupol">      0.00000000 </i>
    <i name="Eion">      0.00000000 </i>
   </dipole>
   <energy>
    <i name="e_fr_energy">   -190.13087958 </i>
    <i name="e_wo_entrp">   -189.87331875 </i>
    <i name="e_0_energy">   -190.00209916 </i>
   </energy>
  </scstep>
  <scstep>
   <time name="diag">    1.32    1.32</time>
   <time name="diis">    3.56    3.60</time>
   <time name="orth">    0.36    0.36</time>
   <time name="total">    5.52    5.57</time>
   <dipole>
    <v name="dipole">      0.00000000       0.00000000      -0.00596318 </v>
    <i name="Tr[quadrupol]"> -10260.97266791 </i>
    <i name="Echarged">      0.00000000 </i>
    <i name="Edipol_quadrupol">      0.00000000 </i>
    <i name="Eion">      0.00000000 </i>
   </dipole>
   <energy>
    <i name="e_fr_energy">   -190.13086558 </i>
    <i name="e_wo_entrp">   -189.87325738 </i>
    <i name="e_0_energy">   -190.00206148 </i>
   </energy>
  </scstep>
  <scstep>
   <time name="diag">    1.32    1.33</time>
   <time name="diis">    3.63    3.65</time>
   <time name="orth">    0.36    0.36</time>
   <time name="total">    5.60    5.62</time>
   <dipole>
    <v name="dipole">      0.00000000       0.00000000      -0.00551843 </v>
    <i name="Tr[quadrupol]"> -10260.97639609 </i>
    <i name="Echarged">      0.00000000 </i>
    <i name="Edipol_quadrupol">      0.00000000 </i>
    <i name="Eion">      0.00000000 </i>
   </dipole>
   <energy>
    <i name="e_fr_energy">   -190.13085844 </i>
    <i name="e_wo_entrp">   -189.87334606 </i>
    <i name="e_0_energy">   -190.00210225 </i>
   </energy>
  </scstep>
  <scstep>
   <time name="diag">    1.32    1.32</time>
   <time name="diis">    3.46    3.48</time>
   <time name="orth">    0.36    0.36</time>
   <time name="total">    5.42    5.45</time>
   <dipole>
    <v name="dipole">      0.00000000       0.00000000      -0.00564477 </v>
    <i name="Tr[quadrupol]"> -10260.98022408 </i>
    <i name="Echarged">      0.00000000 </i>
    <i name="Edipol_quadrupol">      0.00000000 </i>
    <i name="Eion">      0.00000000 </i>
   </dipole>
   <energy>
    <i name="e_fr_energy">   -190.13085567 </i>
    <i name="e_wo_entrp">   -189.87331926 </i>
    <i name="e_0_energy">   -190.00208747 </i>
   </energy>
  </scstep>
  <scstep>
   <time name="diag">    1.31    1.32</time>
   <time name="diis">    2.43    2.44</time>
   <time name="orth">    0.36    0.36</time>
   <time name="total">    4.15    4.18</time>
   <dipole>
    <v name="dipole">      0.00000000       0.00000000      -0.00556238 </v>
    <i name="Tr[quadrupol]"> -10260.98225680 </i>
    <i name="Echarged">      0.00000000 </i>
    <i name="Edipol_quadrupol">      0.00000000 </i>
    <i name="Eion">      0.00000000 </i>
   </dipole>
   <energy>
    <i name="alphaZ">    805.86757799 </i>
    <i name="ewald"> 197448.30553075 </i>
    <i name="hartreedc">-239653.87346105 </i>
    <i name="XCdc">   -345.55888748 </i>
    <i name="pawpsdc">  48919.97266623 </i>
    <i name="pawaedc"> -46994.97384341 </i>
    <i name="eentropy">     -0.25753184 </i>
    <i name="bandstr">  -2029.39877914 </i>
    <i name="atom">  41659.78587232 </i>
    <i name="e_fr_energy">   -190.13085563 </i>
    <i name="e_wo_entrp">   -189.87332378 </i>
    <i name="e_0_energy">   -190.00208971 </i>
   </energy>
  </scstep>
  <structure>
   <crystal>
    <varray name="basis" >
     <v>      11.00258152       0.00000000       0.00000000 </v>
     <v>       5.50129076       9.52851510       0.00000000 </v>
     <v>       0.00000000       0.00000000      24.49178509 </v>
    </varray>
    <i name="volume">   2567.67623402 </i>
    <varray name="rec_basis" >
     <v>       0.09088776      -0.05247407       0.00000000 </v>
     <v>       0.00000000       0.10494815       0.00000000 </v>
     <v>       0.00000000       0.00000000       0.04083002 </v>
    </varray>
   </crystal>
   <varray name="positions" >
    <v>       0.24951516       0.75023548       0.59362346 </v>
    <v>       0.41694144       0.66647026       0.50000203 </v>
    <v>       0.50056832       0.49962745       0.59386296 </v>
    <v>       0.58244379       0.83345940       0.40563694 </v>
    <v>       0.58154314       0.08531842       0.40635655 </v>
    <v>       0.66550847       0.91873330       0.50126430 </v>
    <v>       0.41519877       0.91890663       0.50039412 </v>
    <v>       0.33188272       0.83449518       0.40614791 </v>
    <v>       0.83379613       0.08396661       0.40643789 </v>
    <v>       0.33272294       0.58284164       0.40627538 </v>
    <v>       0.83228704       0.33292036       0.40644811 </v>
    <v>       0.41655032       0.41474619       0.49997160 </v>
    <v>       0.25017861       0.00033705       0.59351598 </v>
    <v>       0.91863917       0.66575753       0.50009628 </v>
    <v>      -0.00013300       0.75042264       0.59388659 </v>
    <v>       0.91800772       0.91784619       0.50036970 </v>
    <v>       0.83492066       0.83266234       0.40570138 </v>
    <v>       0.83342704       0.58318413       0.40567823 </v>
    <v>       0.00069232       0.49968957       0.59386069 </v>
    <v>       0.08546450       0.33227315       0.40649168 </v>
    <v>       0.74998974       0.24931558       0.59325608 </v>
    <v>       0.66621435       0.66537073       0.50083033 </v>
    <v>       0.00031310       0.24946838       0.59355497 </v>
    <v>       0.91686248       0.41523039       0.50039669 </v>
    <v>       0.74937362       0.50070310       0.59293523 </v>
    <v>       0.66694419       0.41593846       0.49979254 </v>
    <v>       0.66600308       0.16759057       0.50032835 </v>
    <v>       0.74920670       0.00057765       0.59277559 </v>
    <v>       0.50094062       0.74997206       0.59308159 </v>
    <v>       0.58352182       0.58268484       0.40700679 </v>
    <v>       0.08395084       0.08287579       0.40756885 </v>
    <v>       0.58329393       0.33345123       0.40740519 </v>
    <v>       0.91736712       0.16582203       0.50000480 </v>
    <v>      -0.00047943       0.00021274       0.59267355 </v>
    <v>       0.08403297       0.58316286       0.40726919 </v>
    <v>       0.08364455       0.83315397       0.40731063 </v>
    <v>       0.33268508       0.08415054       0.40730602 </v>
    <v>       0.16724584       0.16635844       0.49972970 </v>
    <v>       0.49947274       0.24924520       0.59257933 </v>
    <v>       0.33329951       0.33291252       0.40749646 </v>
    <v>       0.25085981       0.25001395       0.59243439 </v>
    <v>       0.16643568       0.66636909       0.49974494 </v>
    <v>       0.25025340       0.49914164       0.59267999 </v>
    <v>       0.16505596       0.91781829       0.49971121 </v>
    <v>       0.41569622       0.16761731       0.50029831 </v>
    <v>       0.50033697       0.00062328       0.59273518 </v>
    <v>       0.16823032       0.41593529       0.50000220 </v>
    <v>       0.74909352       0.75039055       0.59307006 </v>
   </varray>
  </structure>
  <varray name="forces" >
   <v>      -0.02759755       0.02360062       0.96239889 </v>
   <v>      -0.12859811       0.00127673      -0.02143909 </v>
   <v>       0.02524379      -0.06731402       1.08937214 </v>
   <v>      -0.08581088       0.03750124      -1.18112703 </v>
   <v>      -0.10905455       0.19496733      -0.95329501 </v>
   <v>       0.06031698       0.17895398       0.14466725 </v>
   <v>      -0.07890286       0.23760722       0.03893250 </v>
   <v>      -0.13346178       0.14690372      -1.07260808 </v>
   <v>       0.06814364       0.03873636      -0.98402903 </v>
   <v>      -0.11600604      -0.10526790      -1.04977943 </v>
   <v>      -0.10651479      -0.03136136      -0.98877471 </v>
   <v>      -0.07136990      -0.14107621       0.02077069 </v>
   <v>       0.06487091       0.03754951       1.01282439 </v>
   <v>       0.13743903      -0.07600911      -0.01192615 </v>
   <v>      -0.03341516       0.07938310       1.18338025 </v>
   <v>       0.14595255       0.12208520       0.04947703 </v>
   <v>       0.14439558       0.00272940      -1.15459871 </v>
   <v>      -0.00142828      -0.06152053      -1.23253960 </v>
   <v>       0.08290853      -0.04902992       1.13533747 </v>
   <v>       0.20501785      -0.10156144      -0.94747943 </v>
   <v>      -0.05919228      -0.09326953       0.86675023 </v>
   <v>      -0.01670978      -0.05708935       0.09174623 </v>
   <v>       0.02563499      -0.08789558       1.02723350 </v>
   <v>       0.00431189      -0.22588656       0.04432559 </v>
   <v>      -0.02919310       0.05063331       0.75715080 </v>
   <v>      -0.07975257      -0.19808830      -0.02313543 </v>
   <v>       0.02526628       0.10960615       0.05019433 </v>
   <v>      -0.06559492       0.09651685       0.69393177 </v>
   <v>       0.12877740       0.05405256       0.78738300 </v>
   <v>      -0.05247520      -0.04070217      -0.67877663 </v>
   <v>       0.07284657      -0.01940937      -0.46141724 </v>
   <v>      -0.04811679       0.05054140      -0.51817512 </v>
   <v>       0.05509828      -0.03356852       0.00422360 </v>
   <v>      -0.05427015       0.03999072       0.62929957 </v>
   <v>       0.08486882      -0.06685933      -0.60318660 </v>
   <v>       0.02352361      -0.02748396      -0.58454031 </v>
   <v>      -0.01272513       0.08255075      -0.58581880 </v>
   <v>       0.02306835       0.02095385      -0.06512752 </v>
   <v>      -0.18477832      -0.11756682       0.57928317 </v>
   <v>      -0.03461738      -0.04883688      -0.53279096 </v>
   <v>       0.14281130      -0.00832010       0.45836348 </v>
   <v>       0.04453622      -0.05526797      -0.04174525 </v>
   <v>       0.01863629      -0.12513481       0.55866223 </v>
   <v>      -0.03590093       0.09163109      -0.04617690 </v>
   <v>      -0.09572222       0.10623134       0.06400342 </v>
   <v>       0.08978950       0.12464818       0.71684885 </v>
   <v>       0.07302954      -0.12454931       0.01628727 </v>
   <v>      -0.08527919       0.03441846       0.75563937 </v>
  </varray>
  <energy>
   <i name="e_fr_energy">   -190.13085563 </i>
   <i name="e_wo_entrp">   -190.00208971 </i>
   <i name="e_0_energy">     -0.25753184 </i>
  </energy>
  <time name="totalsc">   86.29   86.98</time>
 </calculation>
 <calculation>
  <scstep>
   <time name="dav">    7.39    7.42</time>
   <time name="total">    7.67    7.71</time>
   <dipole>
    <v name="dipole">      0.00000000       0.00000000      -0.00555218 </v>
    <i name="Tr[quadrupol]"> -10232.30651005 </i>
    <i name="Echarged">      0.00000000 </i>
    <i name="Edipol_quadrupol">      0.00000000 </i>
    <i name="Eion">      0.00000000 </i>
   </dipole>
   <energy>
    <i name="alphaZ">    805.86750824 </i>
    <i name="ewald"> 189426.89067212 </i>
    <i name="hartreedc">-231674.68573376 </i>
    <i name="XCdc">   -351.07038676 </i>
    <i name="pawpsdc">  48919.77992427 </i>
    <i name="pawaedc"> -46994.78064397 </i>
    <i name="eentropy">     -0.24224363 </i>
    <i name="bandstr">  -1979.96111714 </i>
    <i name="atom">  41659.78587232 </i>
    <i name="e_fr_energy">   -188.41614831 </i>
    <i name="e_wo_entrp">   -188.17390468 </i>
    <i name="e_0_energy">   -188.29502649 </i>
   </energy>
  </scstep>
  <scstep>
   <time name="diag">    1.31    1.31</time>
   <time name="diis">    3.59    3.61</time>
   <time name="orth">    0.36    0.36</time>
   <time name="total">    5.54    5.57</time>
   <dipole>
    <v name="dipole">      0.00000000       0.00000000      -0.06311834 </v>
    <i name="Tr[quadrupol]"> -10231.51637983 </i>
    <i name="Echarged">      0.00000000 </i>
    <i name="Edipol_quadrupol">      0.00000000 </i>
    <i name="Eion">      0.00000000 </i>
   </dipole>
   <energy>
    <i name="e_fr_energy">   -191.99650176 </i>
    <i name="e_wo_entrp">   -191.74791049 </i>
    <i name="e_0_energy">   -191.87220613 </i>
   </energy>
  </scstep>
  <scstep>
   <time name="diag">    1.32    1.33</time>
   <time name="diis">    3.54    3.64</time>
   <time name="orth">    0.36    0.36</time>
   <time name="total">    5.51    5.62</time>
   <dipole>
    <v name="dipole">      0.00000000       0.00000000       0.19920654 </v>
    <i name="Tr[quadrupol]"> -10232.63465625 </i>
    <i name="Echarged">      0.00000000 </i>
    <i name="Edipol_quadrupol">      0.00000000 </i>
    <i name="Eion">      0.00000000 </i>
   </dipole>
   <energy>
    <i name="e_fr_energy">   -192.69326127 </i>
    <i name="e_wo_entrp">   -192.47528139 </i>
    <i name="e_0_energy">   -192.58427133 </i>
   </energy>
  </scstep>
  <scstep>
   <time name="diag">    1.31    1.32</time>
   <time name="diis">    3.65    3.67</time>
   <time name="orth">    0.36    0.36</time>
   <time name="total">    5.61    5.64</time>
   <dipole>
    <v name="dipole">      0.00000000       0.00000000      -0.10452146 </v>
    <i name="Tr[quadrupol]"> -10232.47079804 </i>
    <i name="Echarged">      0.00000000 </i>
    <i name="Edipol_quadrupol">      0.00000000 </i>
    <i name="Eion">      0.00000000 </i>
   </dipole>
   <energy>
    <i name="e_fr_energy">   -191.84256536 </i>
    <i name="e_wo_entrp">   -191.58684158 </i>
    <i name="e_0_energy">   -191.71470347 </i>
   </energy>
  </scstep>
  <scstep>
   <time name="diag">    1.32    1.32</time>
   <time name="diis">    3.60    3.62</time>
   <time name="orth">    0.36    0.36</time>
   <time name="total">    5.56    5.59</time>
   <dipole>
    <v name="dipole">      0.00000000       0.00000000       0.13868559 </v>
    <i name="Tr[quadrupol]"> -10232.31920898 </i>
    <i name="Echarged">      0.00000000 </i>
    <i name="Edipol_quadrupol">      0.00000000 </i>
    <i name="Eion">      0.00000000 </i>
   </dipole>
   <energy>
    <i name="e_fr_energy">   -192.29812925 </i>
    <i name="e_wo_entrp">   -192.12396314 </i>
    <i name="e_0_energy">   -192.21104620 </i>
   </energy>
  </scstep>
  <scstep>
   <time name="diag">    1.31    1.31</time>
   <time name="diis">    3.52    3.54</time>
   <time name="orth">    0.36    0.36</time>
   <time name="total">    5.47    5.50</time>
   <dipole>
    <v name="dipole">      0.00000000       0.00000000      -0.03562399 </v>
    <i name="Tr[quadrupol]"> -10232.52638161 </i>
    <i name="Echarged">      0.00000000 </i>
    <i name="Edipol_quadrupol">      0.00000000 </i>
    <i name="Eion">      0.00000000 </i>
   </dipole>
   <energy>
    <i name="e_fr_energy">   -191.76340136 </i>
    <i name="e_wo_entrp">   -191.51295256 </i>
    <i name="e_0_energy">   -191.63817696 </i>
   </energy>
  </scstep>
  <scstep>
   <time name="diag">    1.33    1.34</time>
   <time name="diis">    3.56    3.61</time>
   <time name="orth">    0.36    0.36</time>
   <time name="total">    5.54    5.59</time>
   <dipole>
    <v name="dipole">      0.00000000       0.00000000      -0.02286289 </v>
    <i name="Tr[quadrupol]"> -10232.39475727 </i>
    <i name="Echarged">      0.00000000 </i>
    <i name="Edipol_quadrupol">      0.00000000 </i>
    <i name="Eion">      0.00000000 </i>
   </dipole>
   <energy>
    <i name="e_fr_energy">   -191.72584301 </i>
    <i name="e_wo_entrp">   -191.47318582 </i>
    <i name="e_0_energy">   -191.59951441 </i>
   </energy>
  </scstep>
  <scstep>
   <time name="diag">    1.31    1.32</time>
   <time name="diis">    3.60    3.62</time>
   <time name="orth">    0.36    0.36</time>
   <time name="total">    5.56    5.59</time>
   <dipole>
    <v name="dipole">      0.00000000       0.00000000      -0.02720869 </v>
    <i name="Tr[quadrupol]"> -10232.29486704 </i>
    <i name="Echarged">      0.00000000 </i>
    <i name="Edipol_quadrupol">      0.00000000 </i>
    <i name="Eion">      0.00000000 </i>
   </dipole>
   <energy>
    <i name="e_fr_energy">   -191.70511276 </i>
    <i name="e_wo_entrp">   -191.45481071 </i>
    <i name="e_0_energy">   -191.57996173 </i>
   </energy>
  </scstep>
  <scstep>
   <time name="diag">    1.31    1.32</time>
   <time name="diis">    3.57    3.58</time>
   <time name="orth">    0.36    0.36</time>
   <time name="total">    5.52    5.55</time>
   <dipole>
    <v name="dipole">      0.00000000       0.00000000      -0.02220940 </v>
    <i name="Tr[quadrupol]"> -10232.29045217 </i>
    <i name="Echarged">      0.00000000 </i>
    <i name="Edipol_quadrupol">      0.00000000 </i>
    <i name="Eion">      0.00000000 </i>
   </dipole>
   <energy>
    <i name="e_fr_energy">   -191.69902222 </i>
    <i name="e_wo_entrp">   -191.44770613 </i>
    <i name="e_0_energy">   -191.57336417 </i>
   </energy>
  </scstep>
  <scstep>
   <time name="diag">    1.31    1.31</time>
   <time name="diis">    3.53    3.63</time>
   <time name="orth">    0.36    0.36</time>
   <time name="total">    5.48    5.60</time>
   <dipole>
    <v name="dipole">      0.00000000       0.00000000      -0.02241754 </v>
    <i name="Tr[quadrupol]"> -10232.28931055 </i>
    <i name="Echarged">      0.00000000 </i>
    <i name="Edipol_quadrupol">      0.00000000 </i>
    <i name="Eion">      0.00000000 </i>
[...]
       <r>    2.2813    0.0000 </r>
       <r>    2.3746    0.0000 </r>
       <r>    2.4252    0.0000 </r>
       <r>    2.6058    0.0000 </r>
       <r>    2.7026    0.0000 </r>
       <r>    2.9658    0.0000 </r>
       <r>    3.1387    0.0000 </r>
       <r>    3.2314    0.0000 </r>
       <r>    3.4619    0.0000 </r>
       <r>    3.6175    0.0000 </r>
       <r>    3.7822    0.0000 </r>
       <r>    3.9928    0.0000 </r>
       <r>    4.0338    0.0000 </r>
       <r>    4.2061    0.0000 </r>
       <r>    4.4478    0.0000 </r>
       <r>    4.5213    0.0000 </r>
       <r>    4.5926    0.0000 </r>
       <r>    4.6295    0.0000 </r>
       <r>    4.6961    0.0000 </r>
       <r>    4.7741    0.0000 </r>
       <r>    4.8650    0.0000 </r>
       <r>    4.9194    0.0000 </r>
       <r>    4.9594    0.0000 </r>
       <r>    5.0301    0.0000 </r>
       <r>    5.0624    0.0000 </r>
       <r>    5.1403    0.0000 </r>
       <r>    5.1702    0.0000 </r>
       <r>    5.2487    0.0000 </r>
      </set>
     </set>
    </set>
   </array>
  </eigenvalues>
  <separator name="orbital magnetization" >
   <v name="MAGDIPOLOUT">      0.00000000      0.00000000      0.00000000</v>
  </separator>
  <dos>
   <i name="efermi">     -1.10750762 </i>
   <total>
    <array>
     <dimension dim="1">gridpoints</dimension>
     <dimension dim="2">spin</dimension>
     <field>energy</field>
     <field>total</field>
     <field>integrated</field>
     <set>
      <set comment="spin 1">
       <r>    -9.7824     0.0000     0.0000 </r>
       <r>    -9.7284     0.0000     0.0000 </r>
       <r>    -9.6744     0.0000     0.0000 </r>
       <r>    -9.6204     0.0000     0.0000 </r>
       <r>    -9.5664     0.0000     0.0000 </r>
       <r>    -9.5124     0.0000     0.0000 </r>
       <r>    -9.4583     0.0000     0.0000 </r>
       <r>    -9.4043     0.0000     0.0000 </r>
       <r>    -9.3503     0.0000     0.0000 </r>
       <r>    -9.2963     0.0000     0.0000 </r>
       <r>    -9.2423     0.0000     0.0000 </r>
       <r>    -9.1883     0.0000     0.0000 </r>
       <r>    -9.1343     0.0000     0.0000 </r>
       <r>    -9.0803     0.0002     0.0000 </r>
       <r>    -9.0263     0.0038     0.0002 </r>
       <r>    -8.9723     0.0498     0.0029 </r>
       <r>    -8.9183     0.3715     0.0230 </r>
       <r>    -8.8642     1.5889     0.1088 </r>
       <r>    -8.8102     3.9310     0.3211 </r>
       <r>    -8.7562     5.8144     0.6351 </r>
       <r>    -8.7022     5.9081     0.9542 </r>
       <r>    -8.6482     5.7597     1.2653 </r>
       <r>    -8.5942     5.9355     1.5859 </r>
       <r>    -8.5402     4.6481     1.8369 </r>
       <r>    -8.4862     2.2573     1.9588 </r>
       <r>    -8.4322     0.6447     1.9936 </r>
       <r>    -8.3782     0.1078     1.9995 </r>
       <r>    -8.3241     0.0222     2.0007 </r>
       <r>    -8.2701     0.0994     2.0060 </r>
       <r>    -8.2161     0.4773     2.0318 </r>
       <r>    -8.1621     1.4091     2.1079 </r>
       <r>    -8.1081     2.7796     2.2580 </r>
       <r>    -8.0541     4.2003     2.4849 </r>
       <r>    -8.0001     5.5220     2.7831 </r>
       <r>    -7.9461     6.8763     3.1545 </r>
       <r>    -7.8921     8.3229     3.6040 </r>
       <r>    -7.8381     9.1195     4.0966 </r>
       <r>    -7.7841     8.5730     4.5596 </r>
       <r>    -7.7300     7.3550     4.9568 </r>
       <r>    -7.6760     6.8107     5.3247 </r>
       <r>    -7.6220     7.2883     5.7183 </r>
       <r>    -7.5680     8.0885     6.1551 </r>
       <r>    -7.5140     8.8318     6.6321 </r>
       <r>    -7.4600     9.6680     7.1543 </r>
       <r>    -7.4060    10.6972     7.7321 </r>
       <r>    -7.3520    11.1544     8.3345 </r>
       <r>    -7.2980    10.9409     8.9254 </r>
       <r>    -7.2440    11.9255     9.5695 </r>
       <r>    -7.1900    14.4417    10.3495 </r>
       <r>    -7.1359    16.9488    11.2649 </r>
       <r>    -7.0819    19.9827    12.3441 </r>
       <r>    -7.0279    24.3223    13.6577 </r>
       <r>    -6.9739    28.2555    15.1838 </r>
       <r>    -6.9199    29.8404    16.7955 </r>
       <r>    -6.8659    29.5506    18.3915 </r>
       <r>    -6.8119    30.2715    20.0264 </r>
       <r>    -6.7579    33.7056    21.8468 </r>
       <r>    -6.7039    38.5091    23.9267 </r>
       <r>    -6.6499    42.4949    26.2218 </r>
       <r>    -6.5959    44.5409    28.6274 </r>
       <r>    -6.5418    45.1256    31.0646 </r>
       <r>    -6.4878    46.3248    33.5665 </r>
       <r>    -6.4338    49.6447    36.2478 </r>
       <r>    -6.3798    56.6091    39.3052 </r>
       <r>    -6.3258    67.3485    42.9427 </r>
       <r>    -6.2718    76.4695    47.0727 </r>
       <r>    -6.2178    79.2032    51.3504 </r>
       <r>    -6.1638    77.0934    55.5142 </r>
       <r>    -6.1098    74.0639    59.5143 </r>
       <r>    -6.0558    72.8394    63.4483 </r>
       <r>    -6.0018    73.7770    67.4329 </r>
       <r>    -5.9477    76.3119    71.5545 </r>
       <r>    -5.8937    80.0850    75.8798 </r>
       <r>    -5.8397    83.5288    80.3911 </r>
       <r>    -5.7857    84.5319    84.9566 </r>
       <r>    -5.7317    81.5127    89.3590 </r>
       <r>    -5.6777    75.3182    93.4269 </r>
       <r>    -5.6237    69.1755    97.1630 </r>
       <r>    -5.5697    65.9351   100.7241 </r>
       <r>    -5.5157    66.6506   104.3239 </r>
       <r>    -5.4617    69.0010   108.0506 </r>
       <r>    -5.4077    69.9889   111.8306 </r>
       <r>    -5.3536    71.2498   115.6787 </r>
       <r>    -5.2996    75.2780   119.7444 </r>
       <r>    -5.2456    80.1695   124.0743 </r>
       <r>    -5.1916    83.0337   128.5589 </r>
       <r>    -5.1376    84.4105   133.1178 </r>
       <r>    -5.0836    87.0823   137.8211 </r>
       <r>    -5.0296    90.3685   142.7018 </r>
       <r>    -4.9756    90.0228   147.5639 </r>
       <r>    -4.9216    86.2904   152.2243 </r>
       <r>    -4.8676    84.8268   156.8058 </r>
       <r>    -4.8136    87.1353   161.5119 </r>
       <r>    -4.7595    89.3247   166.3362 </r>
       <r>    -4.7055    89.7573   171.1839 </r>
       <r>    -4.6515    88.9496   175.9880 </r>
       <r>    -4.5975    86.6650   180.6687 </r>
       <r>    -4.5435    84.1238   185.2122 </r>
       <r>    -4.4895    82.2245   189.6531 </r>
       <r>    -4.4355    80.5328   194.0026 </r>
       <r>    -4.3815    80.6436   198.3581 </r>
       <r>    -4.3275    83.5432   202.8702 </r>
       <r>    -4.2735    87.6859   207.6060 </r>
       <r>    -4.2195    91.5024   212.5480 </r>
       <r>    -4.1654    93.7856   217.6133 </r>
       <r>    -4.1114    94.0055   222.6904 </r>
       <r>    -4.0574    92.2150   227.6709 </r>
       <r>    -4.0034    89.6646   232.5136 </r>
       <r>    -3.9494    88.9348   237.3169 </r>
       <r>    -3.8954    90.0769   242.1819 </r>
       <r>    -3.8414    91.4452   247.1208 </r>
       <r>    -3.7874    92.8005   252.1328 </r>
       <r>    -3.7334    94.7463   257.2500 </r>
       <r>    -3.6794    97.0396   262.4910 </r>
       <r>    -3.6254    99.1394   267.8455 </r>
       <r>    -3.5713   101.3244   273.3179 </r>
       <r>    -3.5173   102.5161   278.8547 </r>
       <r>    -3.4633   102.1515   284.3719 </r>
       <r>    -3.4093   102.1555   289.8892 </r>
       <r>    -3.3553   102.6842   295.4351 </r>
       <r>    -3.3013   102.3604   300.9635 </r>
       <r>    -3.2473   102.1455   306.4803 </r>
       <r>    -3.1933   102.5759   312.0203 </r>
       <r>    -3.1393   101.5156   317.5031 </r>
       <r>    -3.0853    98.5508   322.8257 </r>
       <r>    -3.0313    96.0715   328.0145 </r>
       <r>    -2.9772    95.6559   333.1808 </r>
       <r>    -2.9232    96.4106   338.3878 </r>
       <r>    -2.8692    96.9257   343.6227 </r>
       <r>    -2.8152    97.1627   348.8704 </r>
       <r>    -2.7612    97.2115   354.1207 </r>
       <r>    -2.7072    95.8421   359.2970 </r>
       <r>    -2.6532    92.5544   364.2958 </r>
       <r>    -2.5992    88.8130   369.0925 </r>
       <r>    -2.5452    85.7912   373.7261 </r>
       <r>    -2.4912    84.6990   378.3006 </r>
       <r>    -2.4371    86.5177   382.9733 </r>
       <r>    -2.3831    89.0695   387.7839 </r>
       <r>    -2.3291    90.4415   392.6686 </r>
       <r>    -2.2751    91.6160   397.6167 </r>
       <r>    -2.2211    92.7539   402.6262 </r>
       <r>    -2.1671    93.1624   407.6579 </r>
       <r>    -2.1131    93.9636   412.7328 </r>
       <r>    -2.0591    95.1832   417.8735 </r>
       <r>    -2.0051    95.0507   423.0071 </r>
       <r>    -1.9511    94.5657   428.1145 </r>
       <r>    -1.8971    95.8236   433.2899 </r>
       <r>    -1.8430    98.6829   438.6197 </r>
       <r>    -1.7890   101.1780   444.0842 </r>
       <r>    -1.7350   100.8877   449.5331 </r>
       <r>    -1.6810    98.1187   454.8324 </r>
       <r>    -1.6270    96.2315   460.0298 </r>
       <r>    -1.5730    96.6660   465.2506 </r>
       <r>    -1.5190    97.6783   470.5262 </r>
       <r>    -1.4650    97.4799   475.7910 </r>
       <r>    -1.4110    96.1826   480.9857 </r>
       <r>    -1.3570    93.3833   486.0293 </r>
       <r>    -1.3030    87.5663   490.7586 </r>
       <r>    -1.2489    79.7327   495.0649 </r>
       <r>    -1.1949    71.3765   498.9199 </r>
       <r>    -1.1409    61.6338   502.2487 </r>
       <r>    -1.0869    50.0568   504.9522 </r>
       <r>    -1.0329    37.3664   506.9704 </r>
       <r>    -0.9789    24.7048   508.3047 </r>
       <r>    -0.9249    15.4258   509.1378 </r>
       <r>    -0.8709    11.7918   509.7747 </r>
       <r>    -0.8169    11.2557   510.3826 </r>
       <r>    -0.7629    10.5863   510.9543 </r>
       <r>    -0.7089     9.4083   511.4625 </r>
       <r>    -0.6548     9.3637   511.9682 </r>
       <r>    -0.6008    12.3818   512.6369 </r>
       <r>    -0.5468    18.2975   513.6252 </r>
       <r>    -0.4928    23.3600   514.8868 </r>
       <r>    -0.4388    23.6127   516.1621 </r>
       <r>    -0.3848    19.4749   517.2139 </r>
       <r>    -0.3308    15.5769   518.0552 </r>
       <r>    -0.2768    16.5166   518.9473 </r>
       <r>    -0.2228    20.5514   520.0572 </r>
       <r>    -0.1688    21.7421   521.2315 </r>
       <r>    -0.1148    18.1667   522.2127 </r>
       <r>    -0.0607    12.8820   522.9084 </r>
       <r>    -0.0067    10.0837   523.4530 </r>
       <r>     0.0473    11.0913   524.0521 </r>
       <r>     0.1013    14.1329   524.8154 </r>
       <r>     0.1553    16.1603   525.6882 </r>
       <r>     0.2093    15.6833   526.5352 </r>
       <r>     0.2633    15.2913   527.3611 </r>
       <r>     0.3173    16.9748   528.2779 </r>
       <r>     0.3713    19.5044   529.3313 </r>
       <r>     0.4253    21.9838   530.5186 </r>
       <r>     0.4793    23.0861   531.7655 </r>
       <r>     0.5334    21.7767   532.9416 </r>
       <r>     0.5874    20.3819   534.0424 </r>
       <r>     0.6414    21.1948   535.1871 </r>
       <r>     0.6954    22.3680   536.3952 </r>
       <r>     0.7494    20.5206   537.5035 </r>
       <r>     0.8034    15.9876   538.3670 </r>
       <r>     0.8574    12.1466   539.0230 </r>
       <r>     0.9114    10.4644   539.5882 </r>
       <r>     0.9654    10.1439   540.1361 </r>
       <r>     1.0194    10.8554   540.7223 </r>
       <r>     1.0734    11.9967   541.3703 </r>
       <r>     1.1275    12.0042   542.0186 </r>
       <r>     1.1815    10.5687   542.5894 </r>
       <r>     1.2355     8.8054   543.0650 </r>
       <r>     1.2895     7.1281   543.4500 </r>
       <r>     1.3435     5.5246   543.7484 </r>
       <r>     1.3975     4.8765   544.0117 </r>
       <r>     1.4515     7.1143   544.3960 </r>
       <r>     1.5055    12.7227   545.0831 </r>
       <r>     1.5595    18.1057   546.0610 </r>
       <r>     1.6135    19.2475   547.1005 </r>
       <r>     1.6675    17.2873   548.0342 </r>
       <r>     1.7216    16.3715   548.9184 </r>
       <r>     1.7756    17.6628   549.8724 </r>
       <r>     1.8296    18.4213   550.8673 </r>
       <r>     1.8836    16.0044   551.7317 </r>
       <r>     1.9376    11.8150   552.3698 </r>
       <r>     1.9916     8.6946   552.8394 </r>
       <r>     2.0456     8.2941   553.2873 </r>
       <r>     2.0996    10.9080   553.8765 </r>
       <r>     2.1536    14.1806   554.6423 </r>
       <r>     2.2076    16.6499   555.5416 </r>
       <r>     2.2616    19.5577   556.5979 </r>
       <r>     2.3157    23.0782   557.8443 </r>
       <r>     2.3697    25.0080   559.1950 </r>
       <r>     2.4237    23.5532   560.4671 </r>
       <r>     2.4777    20.7813   561.5895 </r>
       <r>     2.5317    20.2346   562.6823 </r>
       <r>     2.5857    21.7487   563.8569 </r>
       <r>     2.6397    23.0968   565.1044 </r>
       <r>     2.6937    22.6601   566.3282 </r>
       <r>     2.7477    19.2070   567.3656 </r>
       <r>     2.8017    14.0101   568.1223 </r>
       <r>     2.8557     9.6892   568.6456 </r>
       <r>     2.9098     7.3018   569.0399 </r>
       <r>     2.9638     6.7200   569.4029 </r>
       <r>     3.0178     6.4208   569.7496 </r>
       <r>     3.0718     6.1660   570.0827 </r>
       <r>     3.1258     8.4870   570.5410 </r>
       <r>     3.1798    12.8115   571.2330 </r>
       <r>     3.2338    14.1987   571.9998 </r>
       <r>     3.2878    10.9055   572.5888 </r>
       <r>     3.3418     6.9947   572.9666 </r>
       <r>     3.3958     6.5683   573.3214 </r>
       <r>     3.4499     9.7308   573.8469 </r>
       <r>     3.5039    13.7661   574.5904 </r>
       <r>     3.5579    16.8512   575.5005 </r>
       <r>     3.6119    18.5416   576.5020 </r>
       <r>     3.6659    18.2547   577.4879 </r>
       <r>     3.7199    17.1662   578.4150 </r>
       <r>     3.7739    16.3763   579.2995 </r>
       <r>     3.8279    14.2353   580.0683 </r>
       <r>     3.8819    10.8443   580.6540 </r>
       <r>     3.9359     9.7074   581.1783 </r>
       <r>     3.9899    12.4013   581.8481 </r>
       <r>     4.0440    15.4717   582.6837 </r>
       <r>     4.0980    15.4359   583.5174 </r>
       <r>     4.1520    13.9498   584.2708 </r>
       <r>     4.2060    12.9743   584.9715 </r>
       <r>     4.2600    10.8223   585.5560 </r>
       <r>     4.3140     7.8976   585.9826 </r>
       <r>     4.3680     8.2213   586.4266 </r>
       <r>     4.4220    12.1179   587.0811 </r>
       <r>     4.4760    15.3735   587.9114 </r>
       <r>     4.5300    17.3784   588.8500 </r>
       <r>     4.5840    21.4599   590.0090 </r>
       <r>     4.6381    27.0032   591.4674 </r>
       <r>     4.6921    29.3940   593.0550 </r>
       <r>     4.7461    27.1093   594.5191 </r>
       <r>     4.8001    23.5465   595.7909 </r>
       <r>     4.8541    22.9631   597.0311 </r>
       <r>     4.9081    26.1674   598.4443 </r>
       <r>     4.9621    29.7866   600.0531 </r>
       <r>     5.0161    31.7558   601.7682 </r>
       <r>     5.0701    33.0602   603.5538 </r>
       <r>     5.1241    33.3777   605.3565 </r>
       <r>     5.1781    32.0113   607.0854 </r>
       <r>     5.2322    29.4358   608.6752 </r>
       <r>     5.2862    24.7076   610.0096 </r>
       <r>     5.3402    17.3917   610.9489 </r>
       <r>     5.3942    10.2915   611.5047 </r>
       <r>     5.4482     5.5226   611.8030 </r>
       <r>     5.5022     2.5661   611.9416 </r>
       <r>     5.5562     0.8676   611.9885 </r>
       <r>     5.6102     0.1873   611.9986 </r>
       <r>     5.6642     0.0243   611.9999 </r>
       <r>     5.7182     0.0019   612.0000 </r>
       <r>     5.7722     0.0001   612.0000 </r>
       <r>     5.8263     0.0000   612.0000 </r>
       <r>     5.8803     0.0000   612.0000 </r>
       <r>     5.9343     0.0000   612.0000 </r>
       <r>     5.9883     0.0000   612.0000 </r>
       <r>     6.0423     0.0000   612.0000 </r>
       <r>     6.0963     0.0000   612.0000 </r>
       <r>     6.1503     0.0000   612.0000 </r>
       <r>     6.2043     0.0000   612.0000 </r>
       <r>     6.2583     0.0000   612.0000 </r>
       <r>     6.3123     0.0000   612.0000 </r>
       <r>     6.3663     0.0000   612.0000 </r>
       <r>     6.4204     0.0000   612.0000 </r>
      </set>
     </set>
    </array>
   </total>
  </dos>
 </calculation>
 <structure name="finalpos" >
  <crystal>
   <varray name="basis" >
    <v>      11.00258152       0.00000000       0.00000000 </v>
    <v>       5.50129076       9.52851510       0.00000000 </v>
    <v>       0.00000000       0.00000000      24.49178509 </v>
   </varray>
   <i name="volume">   2567.67623402 </i>
   <varray name="rec_basis" >
    <v>       0.09088776      -0.05247407       0.00000000 </v>
    <v>       0.00000000       0.10494815       0.00000000 </v>
    <v>       0.00000000       0.00000000       0.04083002 </v>
   </varray>
  </crystal>
  <varray name="positions" >
   <v>       0.25122620       0.74947621       0.60353857 </v>
   <v>       0.41593886       0.66600638       0.50004534 </v>
   <v>       0.50233577       0.49886618       0.60532504 </v>
   <v>       0.57975715       0.83429512       0.39015644 </v>
   <v>       0.57878963       0.08728657       0.39595579 </v>
   <v>       0.66630471       0.91931168       0.49762052 </v>
   <v>       0.41469723       0.91945151       0.49917511 </v>
   <v>       0.32814018       0.83619868       0.39686585 </v>
   <v>       0.83312346       0.08439436       0.39825126 </v>
   <v>       0.33020727       0.58246774       0.39815306 </v>
   <v>       0.83014408       0.33422995       0.39927679 </v>
   <v>       0.41646822       0.41515392       0.50135288 </v>
   <v>       0.25336271      -0.00034143       0.60360001 </v>
   <v>       0.92022857       0.66497199       0.50037574 </v>
   <v>      -0.00082749       0.75118928       0.60627332 </v>
   <v>       0.91922035       0.91736355       0.50080034 </v>
   <v>       0.83448061       0.83301948       0.39220110 </v>
   <v>       0.83228888       0.58323714       0.39099728 </v>
   <v>       0.00235910       0.49938508       0.60562340 </v>
   <v>       0.08549072       0.33228216       0.39898337 </v>
   <v>       0.75039762       0.24797544       0.60150657 </v>
   <v>       0.66782164       0.66446008       0.49794715 </v>
   <v>       0.00182476       0.24882181       0.60391091 </v>
   <v>       0.91868360       0.41355607       0.50106781 </v>
   <v>       0.75059826       0.50108098       0.59787149 </v>
   <v>       0.66762940       0.41420400       0.50129757 </v>
   <v>       0.66729188       0.16776544       0.49970786 </v>
   <v>       0.74891359       0.00032390       0.59616977 </v>
   <v>       0.50331296       0.74987564       0.59676714 </v>
   <v>       0.58077359       0.58421860       0.40155439 </v>
   <v>       0.08267578       0.08383135       0.40683771 </v>
   <v>       0.58061982       0.33505646       0.40421268 </v>
   <v>       0.91684242       0.16653621       0.50176021 </v>
   <v>       0.00013391      -0.00048207       0.59863003 </v>
   <v>       0.08168945       0.58387517       0.40445332 </v>
   <v>       0.08200734       0.83321399       0.40468992 </v>
   <v>       0.33147055       0.08429161       0.40276370 </v>
   <v>       0.16684953       0.16672924       0.50155985 </v>
   <v>       0.49944146       0.24807941       0.59688778 </v>
   <v>       0.33146939       0.33366264       0.40438761 </v>
   <v>       0.25313533       0.24917012       0.59664711 </v>
   <v>       0.16738963       0.66622901       0.50192099 </v>
   <v>       0.25212677       0.49815624       0.59843639 </v>
   <v>       0.16667352       0.91791456       0.50214860 </v>
   <v>       0.41613366       0.16765401       0.49937013 </v>
   <v>       0.50299949       0.00056135       0.59573012 </v>
   <v>       0.16772000       0.41489093       0.50137106 </v>
   <v>       0.74963847       0.75010229       0.59582092 </v>
  </varray>
 </structure>
</modeling>
