unknown system                          
           1
    11.002582    0.000000    0.000000
     5.501291    9.528515    0.000000
     0.000000    0.000000   24.491785
   Au   Pd
  24  24
Direct configuration=     1
   0.25000000  0.75000000  0.59169983
   0.41666667  0.66666667  0.50000000
   0.50000000  0.50000000  0.59169983
   0.58333333  0.83333333  0.40830017
   0.58333333  0.08333333  0.40830017
   0.66666667  0.91666667  0.50000000
   0.41666667  0.91666667  0.50000000
   0.33333333  0.83333333  0.40830017
   0.83333333  0.08333333  0.40830017
   0.33333333  0.58333333  0.40830017
   0.83333333  0.33333333  0.40830017
   0.41666667  0.41666667  0.50000000
   0.25000000  0.00000000  0.59169983
   0.91666667  0.66666667  0.50000000
   0.00000000  0.75000000  0.59169983
   0.91666667  0.91666667  0.50000000
   0.83333333  0.83333333  0.40830017
   0.83333333  0.58333333  0.40830017
   0.00000000  0.50000000  0.59169983
   0.08333333  0.33333333  0.40830017
   0.75000000  0.25000000  0.59169983
   0.66666667  0.66666667  0.50000000
   0.00000000  0.25000000  0.59169983
   0.91666667  0.41666667  0.50000000
   0.75000000  0.50000000  0.59169983
   0.66666667  0.41666667  0.50000000
   0.66666667  0.16666667  0.50000000
   0.75000000  0.00000000  0.59169983
   0.50000000  0.75000000  0.59169983
   0.58333333  0.58333333  0.40830017
   0.08333333  0.08333333  0.40830017
   0.58333333  0.33333333  0.40830017
   0.91666667  0.16666667  0.50000000
   0.00000000  0.00000000  0.59169983
   0.08333333  0.58333333  0.40830017
   0.08333333  0.83333333  0.40830017
   0.33333333  0.08333333  0.40830017
   0.16666667  0.16666667  0.50000000
   0.50000000  0.25000000  0.59169983
   0.33333333  0.33333333  0.40830017
   0.25000000  0.25000000  0.59169983
   0.16666667  0.66666667  0.50000000
   0.25000000  0.50000000  0.59169983
   0.16666667  0.91666667  0.50000000
   0.41666667  0.16666667  0.50000000
   0.50000000  0.00000000  0.59169983
   0.16666667  0.41666667  0.50000000
   0.75000000  0.75000000  0.59169983
Direct configuration=     2
   0.24951516  0.75023548  0.59362346
   0.41694144  0.66647026  0.50000203
   0.50056832  0.49962745  0.59386296
   0.58244379  0.83345940  0.40563694
   0.58154314  0.08531842  0.40635655
   0.66550847  0.91873330  0.50126430
   0.41519877  0.91890663  0.50039412
   0.33188272  0.83449518  0.40614791
   0.83379613  0.08396661  0.40643789
   0.33272294  0.58284164  0.40627538
   0.83228704  0.33292036  0.40644811
   0.41655032  0.41474619  0.49997160
   0.25017861  0.00033705  0.59351598
   0.91863917  0.66575753  0.50009628
  -0.00013300  0.75042264  0.59388659
   0.91800772  0.91784619  0.50036970
   0.83492066  0.83266234  0.40570138
   0.83342704  0.58318413  0.40567823
   0.00069232  0.49968957  0.59386069
   0.08546450  0.33227315  0.40649168
   0.74998974  0.24931558  0.59325608
   0.66621435  0.66537073  0.50083033
   0.00031310  0.24946838  0.59355497
   0.91686248  0.41523039  0.50039669
   0.74937362  0.50070310  0.59293523
   0.66694419  0.41593846  0.49979254
   0.66600308  0.16759057  0.50032835
   0.74920670  0.00057765  0.59277559
   0.50094062  0.74997206  0.59308159
   0.58352182  0.58268484  0.40700679
   0.08395084  0.08287579  0.40756885
   0.58329393  0.33345123  0.40740519
   0.91736712  0.16582203  0.50000480
  -0.00047943  0.00021274  0.59267355
   0.08403297  0.58316286  0.40726919
   0.08364455  0.83315397  0.40731063
   0.33268508  0.08415054  0.40730602
   0.16724584  0.16635844  0.49972970
   0.49947274  0.24924520  0.59257933
   0.33329951  0.33291252  0.40749646
   0.25085981  0.25001395  0.59243439
   0.16643568  0.66636909  0.49974494
   0.25025340  0.49914164  0.59267999
   0.16505596  0.91781829  0.49971121
   0.41569622  0.16761731  0.50029831
   0.50033697  0.00062328  0.59273518
   0.16823032  0.41593529  0.50000220
   0.74909352  0.75039055  0.59307006
Direct configuration=     3
   0.24806063  0.75094192  0.59939434
   0.41776576  0.66588105  0.50000811
   0.50227327  0.49850979  0.60035236
   0.57977515  0.83383760  0.39764727
   0.57617255  0.09127370  0.40052568
   0.66203386  0.92493321  0.50505721
   0.41079508  0.92562653  0.50157650
   0.32753089  0.83798073  0.39969115
   0.83518453  0.08586644  0.40085106
   0.33089175  0.58136657  0.40020102
   0.82914814  0.33168143  0.40089195
   0.41620127  0.40898477  0.49988642
   0.25071444  0.00134819  0.59896444
   0.92455669  0.66303011  0.50038510
  -0.00053199  0.75169054  0.60044687
   0.92203090  0.92138477  0.50147882
   0.83968263  0.83064936  0.39790503
   0.83370816  0.58273651  0.39781242
   0.00276926  0.49875828  0.60034325
   0.09185798  0.32909261  0.40106620
   0.74995894  0.24726230  0.59792485
   0.66485742  0.66148291  0.50332132
   0.00125241  0.24787354  0.59912040
   0.91744993  0.41092155  0.50158677
   0.74749449  0.50281239  0.59664144
   0.66777677  0.41375385  0.49917017
   0.66401232  0.17036226  0.50131342
   0.74682678  0.00231061  0.59600289
   0.50376249  0.74988822  0.59722687
   0.58408726  0.58073935  0.40312666
   0.08580337  0.08150317  0.40537488
   0.58317572  0.33380493  0.40472027
   0.91946848  0.16328812  0.50001919
  -0.00191771  0.00085096  0.59559472
   0.08613189  0.58265143  0.40417626
   0.08457819  0.83261587  0.40434201
   0.33074032  0.08660215  0.40432356
   0.16898338  0.16543378  0.49891880
   0.49789095  0.24698080  0.59521784
   0.33319803  0.33165006  0.40508534
   0.25343925  0.25005578  0.59463805
   0.16574271  0.66547638  0.49897976
   0.25101362  0.49656656  0.59562047
   0.16022385  0.92127316  0.49884484
   0.41278490  0.17046926  0.50119326
   0.50134787  0.00249314  0.59584124
   0.17292129  0.41374116  0.50000880
   0.74637408  0.75156220  0.59718073
Direct configuration=     4
   0.24916006  0.75049380  0.60066997
   0.41487510  0.66646830  0.49988499
   0.50144289  0.49848795  0.60198408
   0.58035547  0.83426631  0.39612028
   0.57835620  0.08865514  0.39919197
   0.66463515  0.92219012  0.50351645
   0.41211519  0.92264247  0.50114180
   0.32886703  0.83671151  0.39807911
   0.83463410  0.08393066  0.39928040
   0.33210638  0.58112003  0.39859646
   0.83111395  0.33276888  0.39926670
   0.41697120  0.41291801  0.50002574
   0.25110642  0.00081390  0.60075640
   0.92154334  0.66412578  0.50033279
  -0.00147885  0.75166042  0.60241551
   0.91855677  0.91961416  0.50105264
   0.83763437  0.83230706  0.39637162
   0.83423375  0.58189743  0.39615412
   0.00222950  0.49893889  0.60216739
   0.08879307  0.33095586  0.39953173
   0.74969237  0.24795032  0.59939444
   0.66640986  0.66387628  0.50229926
   0.00123297  0.24833584  0.60087640
   0.91893036  0.41109759  0.50124502
   0.74893778  0.50126533  0.59825298
   0.66744380  0.41233652  0.49945290
   0.66579216  0.16934554  0.50087932
   0.74778089  0.00204563  0.59769181
   0.50204689  0.75106020  0.59861188
   0.58281402  0.58219638  0.40223748
   0.08476784  0.08305331  0.40439262
   0.58184095  0.33443912  0.40384370
   0.91809208  0.16612679  0.50001043
  -0.00158398  0.00088073  0.59706815
   0.08553464  0.58190014  0.40314079
   0.08421833  0.83267354  0.40330708
   0.33247102  0.08472455  0.40326223
   0.16659914  0.16753780  0.49919813
   0.49796402  0.24761104  0.59661613
   0.33316349  0.33262775  0.40390751
   0.25267952  0.24977698  0.59563403
   0.16832676  0.66538620  0.49931491
   0.25165409  0.49725837  0.59657190
   0.16491459  0.91909418  0.49918740
   0.41345039  0.16875636  0.50075168
   0.50025881  0.00267754  0.59788579
   0.16953348  0.41406367  0.50004711
   0.74778269  0.75093561  0.59837875
Direct configuration=     5
   0.24961655  0.75030774  0.60119961
   0.41367490  0.66671213  0.49983388
   0.50109811  0.49847888  0.60266157
   0.58059641  0.83444431  0.39548627
   0.57926285  0.08756791  0.39863822
   0.66571521  0.92105119  0.50287673
   0.41266330  0.92140348  0.50096131
   0.32942179  0.83618454  0.39740979
   0.83440555  0.08312693  0.39862826
   0.33261069  0.58101767  0.39793024
   0.83193016  0.33322039  0.39859190
   0.41729087  0.41455109  0.50008359
   0.25126917  0.00059206  0.60150043
   0.92029220  0.66458071  0.50031107
  -0.00187199  0.75164791  0.60323289
   0.91711431  0.91887901  0.50087569
   0.83678394  0.83299534  0.39573495
   0.83445198  0.58154905  0.39546560
   0.00200539  0.49901388  0.60292477
   0.08752052  0.33172948  0.39889461
   0.74958169  0.24823598  0.60000462
   0.66705444  0.66487001  0.50187490
   0.00122489  0.24852779  0.60160550
   0.91954503  0.41117068  0.50110313
   0.74953704  0.50062299  0.59892209
   0.66730554  0.41174804  0.49957030
   0.66653115  0.16892339  0.50069909
   0.74817703  0.00193561  0.59839305
   0.50133457  0.75154680  0.59918694
   0.58228537  0.58280134  0.40186829
   0.08433788  0.08369693  0.40398478
   0.58128675  0.33470244  0.40347975
   0.91752059  0.16730541  0.50000679
  -0.00144542  0.00089309  0.59767992
   0.08528667  0.58158821  0.40271086
   0.08406892  0.83269748  0.40287738
   0.33318960  0.08394496  0.40282157
   0.16560920  0.16841139  0.49931410
   0.49799436  0.24787272  0.59719671
   0.33314916  0.33303369  0.40341847
   0.25236408  0.24966121  0.59604757
   0.16939965  0.66534876  0.49945406
   0.25192001  0.49754561  0.59696693
   0.16686218  0.91818947  0.49932962
   0.41372670  0.16804517  0.50056833
   0.49980663  0.00275411  0.59873469
   0.16812686  0.41419758  0.50006302
   0.74836754  0.75067545  0.59887617
Direct configuration=     6
   0.24958434  0.75025258  0.60147823
   0.41546573  0.66665644  0.49985800
   0.50107360  0.49889152  0.60301919
   0.58177078  0.83379061  0.39518561
   0.58015808  0.08654455  0.39846156
   0.66538000  0.92026864  0.50218258
   0.41417216  0.91988694  0.50079581
   0.32997400  0.83559929  0.39704750
   0.83408788  0.08365490  0.39835764
   0.33247778  0.58160038  0.39742765
   0.83188412  0.33324403  0.39827747
   0.41683627  0.41460340  0.50027801
   0.25110808  0.00054696  0.60196846
   0.92003920  0.66473336  0.50022640
  -0.00157261  0.75138259  0.60370405
   0.91826929  0.91801011  0.50071762
   0.83587350  0.83259469  0.39540208
   0.83371415  0.58258559  0.39508902
   0.00185367  0.49927742  0.60337837
   0.08705856  0.33180950  0.39845103
   0.74951384  0.24868185  0.60037585
   0.66679457  0.66484965  0.50130213
   0.00114654  0.24874735  0.60213770
   0.91799873  0.41347826  0.50100860
   0.74964172  0.50053821  0.59901002
   0.66753059  0.41341451  0.49985908
   0.66687241  0.16799857  0.50049277
   0.74822035  0.00161451  0.59872122
   0.50142433  0.75116204  0.59917346
   0.58217128  0.58355332  0.40203740
   0.08389272  0.08386288  0.40395205
   0.58185483  0.33427395  0.40326690
   0.91749645  0.16631353  0.50000939
  -0.00091120  0.00039144  0.59776436
   0.08449312  0.58221639  0.40275880
   0.08391622  0.83265652  0.40289901
   0.33317037  0.08376325  0.40269196
   0.16591833  0.16761382  0.49953383
   0.49819946  0.24817166  0.59738222
   0.33313157  0.33295419  0.40329400
   0.25169047  0.24980991  0.59623970
   0.16774664  0.66601238  0.49971018
   0.25157499  0.49816634  0.59706126
   0.16613691  0.91849018  0.49962016
   0.41474888  0.16784286  0.50032050
   0.50028026  0.00204473  0.59900545
   0.16753499  0.41495681  0.50010134
   0.74860207  0.75048740  0.59896437
Direct configuration=     7
   0.24957413  0.75023508  0.60156661
   0.41603376  0.66663878  0.49986565
   0.50106582  0.49902240  0.60313263
   0.58214327  0.83358327  0.39509024
   0.58044204  0.08621995  0.39840553
   0.66527368  0.92002043  0.50196240
   0.41465075  0.91940591  0.50074331
   0.33014916  0.83541366  0.39693259
   0.83398711  0.08382236  0.39827181
   0.33243562  0.58178521  0.39726824
   0.83186951  0.33325152  0.39817774
   0.41669208  0.41461999  0.50033968
   0.25105698  0.00053266  0.60211692
   0.91995896  0.66478177  0.50019954
  -0.00147765  0.75129843  0.60385349
   0.91863564  0.91773451  0.50066748
   0.83558472  0.83246761  0.39529650
   0.83348012  0.58291436  0.39496958
   0.00180554  0.49936102  0.60352225
   0.08691203  0.33183488  0.39831032
   0.74949231  0.24882328  0.60049360
   0.66671214  0.66484319  0.50112045
   0.00112169  0.24881699  0.60230651
   0.91750826  0.41421020  0.50097862
   0.74967492  0.50051132  0.59903791
   0.66760198  0.41394309  0.49995067
   0.66698065  0.16770523  0.50042732
   0.74823408  0.00151266  0.59882531
   0.50145281  0.75104000  0.59916918
   0.58213509  0.58379184  0.40209103
   0.08375151  0.08391551  0.40394167
   0.58203502  0.33413803  0.40319938
   0.91748879  0.16599892  0.50001022
  -0.00074175  0.00023232  0.59779114
   0.08424142  0.58241565  0.40277400
   0.08386778  0.83264352  0.40290587
   0.33316427  0.08370561  0.40265085
   0.16601638  0.16736084  0.49960353
   0.49826451  0.24826648  0.59744107
   0.33312599  0.33292897  0.40325452
   0.25147680  0.24985708  0.59630065
   0.16722233  0.66622288  0.49979141
   0.25146556  0.49836323  0.59709118
   0.16590686  0.91858556  0.49971232
   0.41507311  0.16777869  0.50024189
   0.50043049  0.00181973  0.59909133
   0.16734725  0.41519763  0.50011350
   0.74867646  0.75042775  0.59899235
Direct configuration=     8
   0.24962167  0.75020165  0.60163592
   0.41590455  0.66645505  0.49990879
   0.50108370  0.49924034  0.60327621
   0.58193876  0.83360504  0.39483051
   0.58037823  0.08625885  0.39831984
   0.66546340  0.91987161  0.50178554
   0.41443116  0.91973749  0.50069913
   0.33004526  0.83564146  0.39683094
   0.83405569  0.08392112  0.39819294
   0.33225437  0.58183735  0.39714681
   0.83145234  0.33354961  0.39816146
   0.41654349  0.41470274  0.50036883
   0.25124258  0.00044847  0.60228307
   0.91967416  0.66521147  0.50023962
  -0.00137289  0.75127663  0.60411563
   0.91880170  0.91754790  0.50066199
   0.83575862  0.83240957  0.39506351
   0.83340868  0.58282052  0.39467830
   0.00180165  0.49946094  0.60375416
   0.08695429  0.33175066  0.39820689
   0.74965774  0.24868014  0.60056420
   0.66689213  0.66492123  0.50092955
   0.00093967  0.24897383  0.60247612
   0.91745300  0.41413503  0.50093703
   0.74959885  0.50082509  0.59894785
   0.66778767  0.41401741  0.50014796
   0.66714330  0.16751597  0.50040524
   0.74817471  0.00130044  0.59866435
   0.50179856  0.75067213  0.59900737
   0.58227516  0.58371905  0.40221380
   0.08387611  0.08358879  0.40409304
   0.58216014  0.33419814  0.40330000
   0.91727619  0.16609049  0.50009251
  -0.00075731  0.00015085  0.59773108
   0.08398547  0.58276689  0.40293215
   0.08355630  0.83275313  0.40304055
   0.33298373  0.08366127  0.40273564
   0.16618613  0.16713870  0.49976663
   0.49828354  0.24828189  0.59737640
   0.33316224  0.33281491  0.40333534
   0.25147354  0.24992297  0.59621972
   0.16725055  0.66625154  0.49993139
   0.25126739  0.49846144  0.59707545
   0.16594437  0.91849429  0.49990409
   0.41530225  0.16774934  0.50018259
   0.50082002  0.00150978  0.59891983
   0.16745136  0.41508517  0.50012529
   0.74861577  0.75037163  0.59878476
Direct configuration=     9
   0.24972197  0.75013112  0.60178215
   0.41563193  0.66606739  0.49999981
   0.50112143  0.49970017  0.60357915
   0.58150723  0.83365098  0.39428251
   0.58024357  0.08634094  0.39813906
   0.66586371  0.91955763  0.50141236
   0.41396783  0.92043712  0.50060592
   0.32982606  0.83612209  0.39661647
   0.83420037  0.08412949  0.39802652
   0.33187193  0.58194736  0.39689060
   0.83057214  0.33417855  0.39812711
   0.41622997  0.41487732  0.50043033
   0.25163418  0.00027084  0.60263365
   0.91907326  0.66611810  0.50032419
  -0.00115186  0.75123063  0.60466872
   0.91915210  0.91715417  0.50065039
   0.83612553  0.83228711  0.39457191
   0.83325795  0.58262250  0.39406372
   0.00179343  0.49967177  0.60424350
   0.08704346  0.33157298  0.39798864
   0.75000679  0.24837813  0.60071316
   0.66727190  0.66508588  0.50052676
   0.00055564  0.24930475  0.60283399
   0.91733640  0.41397642  0.50084927
   0.74943834  0.50148713  0.59875782
   0.66817948  0.41417420  0.50056423
   0.66748649  0.16711664  0.50035866
   0.74804944  0.00085267  0.59832473
   0.50252808  0.74989595  0.59866596
   0.58257068  0.58356547  0.40247283
   0.08413900  0.08289942  0.40441242
   0.58242412  0.33432498  0.40351229
   0.91682761  0.16628371  0.50026613
  -0.00079013 -0.00002106  0.59760435
   0.08344545  0.58350799  0.40326582
   0.08289908  0.83298439  0.40332470
   0.33260280  0.08356772  0.40291455
   0.16654429  0.16667000  0.50011076
   0.49832368  0.24831439  0.59723996
   0.33323871  0.33257426  0.40350585
   0.25146665  0.25006200  0.59604897
   0.16731011  0.66631202  0.50022673
   0.25084929  0.49866865  0.59704225
   0.16602351  0.91830171  0.50030871
   0.41578573  0.16768740  0.50005748
   0.50164190  0.00085582  0.59855797
   0.16767103  0.41484788  0.50015018
   0.74848771  0.75025322  0.59834678
Direct configuration=    10
   0.24978924  0.75014831  0.60186179
   0.41559823  0.66608367  0.49999917
   0.50119980  0.49961107  0.60370423
   0.58141077  0.83370200  0.39401974
   0.58023277  0.08634570  0.39805608
   0.66586041  0.91962435  0.50119440
   0.41395329  0.92038616  0.50057674
   0.32972023  0.83605154  0.39656368
   0.83416937  0.08419197  0.39797208
   0.33177372  0.58202061  0.39682912
   0.83058179  0.33417184  0.39813514
   0.41636512  0.41484557  0.50044606
   0.25180840  0.00023004  0.60277335
   0.91922894  0.66596470  0.50036358
  -0.00118784  0.75125908  0.60489259
   0.91917719  0.91720077  0.50065214
   0.83598093  0.83239375  0.39433773
   0.83331825  0.58257947  0.39378337
   0.00177827  0.49970871  0.60443029
   0.08698108  0.33154168  0.39795108
   0.74997259  0.24833503  0.60076989
   0.66714374  0.66523040  0.50032950
   0.00054830  0.24936465  0.60296042
   0.91769545  0.41382222  0.50081748
   0.74951031  0.50155462  0.59868582
   0.66809889  0.41412705  0.50073985
   0.66754095  0.16715910  0.50033096
   0.74809551  0.00074622  0.59816263
   0.50260649  0.74983407  0.59848618
   0.58237868  0.58364189  0.40257177
   0.08404749  0.08290248  0.40459676
   0.58232080  0.33442489  0.40364356
   0.91677659  0.16632572  0.50033286
  -0.00078716 -0.00003684  0.59757771
   0.08334144  0.58353064  0.40342604
   0.08287548  0.83302476  0.40345194
   0.33248902  0.08362444  0.40297631
   0.16640499  0.16675663  0.50026250
   0.49835937  0.24836020  0.59717266
   0.33318826  0.33259559  0.40358393
   0.25154193  0.25000254  0.59598310
   0.16735374  0.66624816  0.50036253
   0.25085578  0.49865939  0.59704942
   0.16612863  0.91821939  0.50046274
   0.41595165  0.16767474  0.50002001
   0.50175374  0.00074959  0.59837737
   0.16747722  0.41486364  0.50014872
   0.74859015  0.75019781  0.59817495
Direct configuration=    11
   0.24999104  0.75019989  0.60210074
   0.41549713  0.66613251  0.49999727
   0.50143491  0.49934377  0.60407948
   0.58112138  0.83385506  0.39323145
   0.58020035  0.08635999  0.39780715
   0.66585052  0.91982453  0.50054053
   0.41390968  0.92023328  0.50048919
   0.32940276  0.83583988  0.39640529
   0.83407636  0.08437942  0.39780876
   0.33147912  0.58224035  0.39664468
   0.83061076  0.33415172  0.39815923
   0.41677057  0.41475033  0.50049324
   0.25233107  0.00010764  0.60319242
   0.91969596  0.66550450  0.50048174
  -0.00129577  0.75134444  0.60556423
   0.91925246  0.91734055  0.50065740
   0.83554711  0.83271366  0.39363520
   0.83349912  0.58245037  0.39294232
   0.00173276  0.49981954  0.60499067
   0.08679392  0.33144777  0.39783840
   0.74987000  0.24820572  0.60094009
   0.66675924  0.66566398  0.49973774
   0.00052629  0.24954434  0.60333973
   0.91877259  0.41335963  0.50072209
   0.74972620  0.50175709  0.59846981
   0.66785713  0.41398560  0.50126670
   0.66770431  0.16728647  0.50024786
   0.74823373  0.00042688  0.59767631
   0.50284174  0.74964841  0.59794683
   0.58180267  0.58387116  0.40286859
   0.08377295  0.08291164  0.40514979
   0.58201084  0.33472461  0.40403736
   0.91662355  0.16645176  0.50053306
  -0.00077824 -0.00008420  0.59749780
   0.08302941  0.58359856  0.40390670
   0.08280467  0.83314586  0.40383365
   0.33214771  0.08379460  0.40316160
   0.16598708  0.16701653  0.50071771
   0.49846643  0.24849765  0.59697077
   0.33303693  0.33265956  0.40381818
   0.25176775  0.24982416  0.59578551
   0.16748462  0.66605659  0.50076993
   0.25087526  0.49863163  0.59707094
   0.16644399  0.91797243  0.50092484
   0.41644940  0.16763677  0.49990762
   0.50208927  0.00043089  0.59783559
   0.16689579  0.41491091  0.50014434
   0.74889747  0.75003159  0.59765946
Direct configuration=    12
   0.25007467  0.75022126  0.60219975
   0.41545523  0.66615275  0.49999648
   0.50153233  0.49923301  0.60423497
   0.58100146  0.83391848  0.39290482
   0.58018691  0.08636591  0.39770401
   0.66584642  0.91990748  0.50026959
   0.41389161  0.92016993  0.50045292
   0.32927120  0.83575218  0.39633965
   0.83403782  0.08445709  0.39774109
   0.33135704  0.58233140  0.39656825
   0.83062276  0.33414338  0.39816922
   0.41693858  0.41471087  0.50051279
   0.25254765  0.00005693  0.60336607
   0.91988948  0.66531381  0.50053070
  -0.00134049  0.75137981  0.60584253
   0.91928365  0.91739847  0.50065959
   0.83536735  0.83284622  0.39334409
   0.83357407  0.58239687  0.39259381
   0.00171391  0.49986547  0.60522287
   0.08671637  0.33140885  0.39779171
   0.74982749  0.24815213  0.60101061
   0.66659992  0.66584364  0.49949253
   0.00051717  0.24961879  0.60349690
   0.91921892  0.41316795  0.50068256
   0.74981566  0.50184099  0.59838030
   0.66775696  0.41392699  0.50148501
   0.66777201  0.16733925  0.50021343
   0.74829100  0.00029455  0.59747480
   0.50293921  0.74957148  0.59772334
   0.58156399  0.58396616  0.40299158
   0.08365920  0.08291544  0.40537895
   0.58188241  0.33484880  0.40420054
   0.91656014  0.16650399  0.50061602
  -0.00077454 -0.00010382  0.59746469
   0.08290012  0.58362671  0.40410587
   0.08277533  0.83319605  0.40399181
   0.33200628  0.08386511  0.40323837
   0.16581391  0.16712422  0.50090634
   0.49851080  0.24855460  0.59688711
   0.33297422  0.33268607  0.40391524
   0.25186132  0.24975025  0.59570363
   0.16753885  0.66597721  0.50093874
   0.25088334  0.49862012  0.59707986
   0.16657466  0.91787009  0.50111632
   0.41665565  0.16762103  0.49986105
   0.50222830  0.00029883  0.59761109
   0.16665486  0.41493050  0.50014253
   0.74902482  0.74996271  0.59744586
Direct configuration=    13
   0.25021599  0.75015406  0.60238457
   0.41542923  0.66625461  0.49997191
   0.50158244  0.49901104  0.60445182
   0.58091483  0.83391152  0.39247148
   0.58003300  0.08653590  0.39751702
   0.66602617  0.91982244  0.49980983
   0.41387651  0.92013203  0.50031152
   0.32910204  0.83569341  0.39633521
   0.83378679  0.08445938  0.39770534
   0.33115130  0.58230961  0.39660698
   0.83076359  0.33409508  0.39828424
   0.41676821  0.41485301  0.50057174
   0.25251619  0.00015032  0.60355962
   0.91996796  0.66508233  0.50059553
  -0.00138816  0.75143870  0.60611910
   0.91919880  0.91733027  0.50062466
   0.83511540  0.83293349  0.39301806
   0.83342892  0.58264975  0.39220979
   0.00183531  0.49974224  0.60547562
   0.08659153  0.33140855  0.39780468
   0.74983713  0.24812469  0.60113004
   0.66702584  0.66539640  0.49915104
   0.00074170  0.24944339  0.60365145
   0.91873297  0.41356296  0.50066816
   0.75010349  0.50151640  0.59823618
   0.66789340  0.41404616  0.50164847
   0.66787156  0.16742337  0.50013162
   0.74842032  0.00034048  0.59725405
   0.50282146  0.74974105  0.59749328
   0.58140676  0.58405582  0.40300216
   0.08344629  0.08323403  0.40572077
   0.58165411  0.33490354  0.40433876
   0.91667310  0.16657292  0.50072056
  -0.00066165 -0.00000144  0.59756169
   0.08285811  0.58347625  0.40427477
   0.08283655  0.83309624  0.40417070
   0.33202089  0.08385538  0.40332470
   0.16597169  0.16695903  0.50107982
   0.49858831  0.24846701  0.59682578
   0.33272475  0.33293491  0.40402178
   0.25198986  0.24965755  0.59568664
   0.16751682  0.66587742  0.50112693
   0.25110686  0.49853563  0.59714388
   0.16666018  0.91790553  0.50128637
   0.41639839  0.16769718  0.49979183
   0.50215189  0.00049921  0.59735201
   0.16701494  0.41480252  0.50020060
   0.74927824  0.74990862  0.59717723
Direct configuration=    14
   0.25035722  0.75008690  0.60256927
   0.41540324  0.66635640  0.49994734
   0.50163252  0.49878922  0.60466853
   0.58082825  0.83390456  0.39203842
   0.57987918  0.08670579  0.39733016
   0.66620580  0.91973745  0.49935037
   0.41386142  0.92009415  0.50017020
   0.32893298  0.83563469  0.39633078
   0.83353591  0.08446166  0.39766962
   0.33094569  0.58228783  0.39664568
   0.83090434  0.33404680  0.39839919
   0.41659795  0.41499507  0.50063065
   0.25248474  0.00024366  0.60375305
   0.92004638  0.66485099  0.50066032
  -0.00143580  0.75149756  0.60639548
   0.91911401  0.91726211  0.50058976
   0.83486361  0.83302069  0.39269223
   0.83328387  0.58290247  0.39182603
   0.00195664  0.49961909  0.60572820
   0.08646678  0.33140825  0.39781766
   0.74984676  0.24809727  0.60124939
   0.66745149  0.66494945  0.49880977
   0.00096608  0.24926810  0.60380591
   0.91824734  0.41395771  0.50065377
   0.75039114  0.50119202  0.59809214
   0.66802975  0.41416524  0.50181183
   0.66797105  0.16750743  0.50004986
   0.74854955  0.00038637  0.59703345
   0.50270378  0.74991051  0.59726337
   0.58124964  0.58414541  0.40301272
   0.08323353  0.08355242  0.40606237
   0.58142596  0.33495823  0.40447688
   0.91678599  0.16664180  0.50082504
  -0.00054884  0.00010087  0.59765864
   0.08281613  0.58332589  0.40444355
   0.08289773  0.83299650  0.40434948
   0.33203550  0.08384567  0.40341097
   0.16612937  0.16679395  0.50125319
   0.49866578  0.24837949  0.59676449
   0.33247544  0.33318359  0.40412825
   0.25211831  0.24956492  0.59566966
   0.16749480  0.66577770  0.50131500
   0.25133023  0.49845119  0.59720787
   0.16674564  0.91794095  0.50145631
   0.41614130  0.16777328  0.49972265
   0.50207553  0.00069947  0.59709311
   0.16737479  0.41467463  0.50025863
   0.74953150  0.74985456  0.59690877
Direct configuration=    15
   0.25041236  0.74997459  0.60271249
   0.41546726  0.66630727  0.49995872
   0.50164945  0.49883242  0.60479987
   0.58060896  0.83395974  0.39177842
   0.57953698  0.08692096  0.39717395
   0.66614837  0.91956062  0.49905613
   0.41431416  0.91980554  0.50002118
   0.32882167  0.83584320  0.39639071
   0.83348904  0.08439847  0.39771559
   0.33085732  0.58223073  0.39679581
   0.83069548  0.33418307  0.39854239
   0.41661040  0.41516476  0.50072782
   0.25243474  0.00021074  0.60381708
   0.92012967  0.66486909  0.50068140
  -0.00127054  0.75152162  0.60644616
   0.91924579  0.91707565  0.50056394
   0.83501693  0.83287937  0.39258141
   0.83311897  0.58303429  0.39166075
   0.00220365  0.49938405  0.60577428
   0.08637958  0.33156464  0.39793279
   0.75001296  0.24803326  0.60133373
   0.66750986  0.66504992  0.49868595
   0.00113637  0.24916977  0.60382950
   0.91825549  0.41392836  0.50067699
   0.75043132  0.50099992  0.59806102
   0.66792072  0.41425352  0.50174389
   0.66788574  0.16761249  0.49999548
   0.74858206  0.00051749  0.59690963
   0.50278684  0.74996136  0.59715708
   0.58137999  0.58399851  0.40281165
   0.08320700  0.08363283  0.40624032
   0.58142508  0.33496172  0.40446595
   0.91692045  0.16661437  0.50092352
  -0.00041514  0.00002664  0.59782184
   0.08256104  0.58339904  0.40443744
   0.08269549  0.83294614  0.40443492
   0.33215734  0.08375057  0.40337885
   0.16610921  0.16695968  0.50128125
   0.49878889  0.24817131  0.59676563
   0.33230541  0.33326846  0.40412557
   0.25211819  0.24963895  0.59579344
   0.16730110  0.66598464  0.50140197
   0.25139881  0.49843747  0.59735440
   0.16656676  0.91796155  0.50152559
   0.41603836  0.16767630  0.49966844
   0.50212912  0.00080979  0.59692023
   0.16746647  0.41457056  0.50040149
   0.74945482  0.74994457  0.59672330
Direct configuration=    16
   0.25046589  0.74986556  0.60285153
   0.41552940  0.66625957  0.49996976
   0.50166588  0.49887434  0.60492737
   0.58039608  0.83401331  0.39152603
   0.57920479  0.08712983  0.39702231
   0.66609263  0.91938896  0.49877051
   0.41475365  0.91952538  0.49987652
   0.32871363  0.83604560  0.39644890
   0.83344355  0.08433713  0.39776021
   0.33077154  0.58217531  0.39694155
   0.83049273  0.33431535  0.39868140
   0.41662249  0.41532949  0.50082215
   0.25238621  0.00017878  0.60387924
   0.92021052  0.66488667  0.50070186
  -0.00111013  0.75154497  0.60649535
   0.91937371  0.91689464  0.50053888
   0.83516575  0.83274218  0.39247383
   0.83295889  0.58316225  0.39150032
   0.00244343  0.49915589  0.60581901
   0.08629494  0.33171644  0.39804456
   0.75017429  0.24797113  0.60141561
   0.66756652  0.66514746  0.49856575
   0.00130167  0.24907432  0.60385240
   0.91826340  0.41389988  0.50069953
   0.75047034  0.50081345  0.59803080
   0.66781489  0.41433920  0.50167793
   0.66780293  0.16771448  0.49994270
   0.74861362  0.00064477  0.59678944
   0.50286746  0.75001072  0.59705390
   0.58150653  0.58385591  0.40261647
   0.08318124  0.08371089  0.40641307
   0.58142422  0.33496510  0.40445534
   0.91705097  0.16658773  0.50101913
  -0.00028535 -0.00004543  0.59798026
   0.08231342  0.58347005  0.40443151
   0.08249917  0.83289726  0.40451785
   0.33227563  0.08365825  0.40334767
   0.16608964  0.16712055  0.50130848
   0.49890840  0.24796922  0.59676674
   0.33214035  0.33335084  0.40412298
   0.25211807  0.24971081  0.59591361
   0.16711308  0.66618552  0.50148640
   0.25146538  0.49842414  0.59749665
   0.16639311  0.91798156  0.50159284
   0.41593844  0.16758216  0.49961581
   0.50218114  0.00091688  0.59675242
   0.16755547  0.41446954  0.50054017
   0.74938040  0.75003194  0.59654325
Direct configuration=    17
   0.25065249  0.74976215  0.60302906
   0.41554194  0.66631462  0.49997723
   0.50178538  0.49890350  0.60505831
   0.58034199  0.83400738  0.39118884