  48  48   0   0
  0.6552392E+02  0.1100258E-08  0.1100258E-08  0.3000000E-08  0.3500000E-15
  1.000000000000000E-004
  CAR 
 unknown system                          
      5.45693484    -10.55641412  301     -1.89487609      1.00000000
    -10.556  0.0000E+00  0.0000E+00
    -10.503  0.0000E+00  0.0000E+00
    -10.450  0.0000E+00  0.0000E+00
    -10.396  0.0000E+00  0.0000E+00
    -10.343  0.0000E+00  0.0000E+00
    -10.290  0.0000E+00  0.0000E+00
    -10.236  0.0000E+00  0.0000E+00
    -10.183  0.0000E+00  0.0000E+00
    -10.129  0.4160E-17  0.2220E-18
    -10.076  0.1581E-14  0.8460E-16
    -10.023  0.3531E-12  0.1893E-13
     -9.969  0.4537E-10  0.2441E-11
     -9.916  0.3363E-08  0.1819E-09
     -9.863  0.1441E-06  0.7874E-08
     -9.809  0.3579E-05  0.1989E-06
     -9.756  0.5166E-04  0.2957E-05
     -9.702  0.4345E-03  0.2615E-04
     -9.649  0.2134E-02  0.1400E-03
     -9.596  0.6137E-02  0.4676E-03
     -9.542  0.1042E-01  0.1024E-02
     -9.489  0.1091E-01  0.1606E-02
     -9.435  0.8813E-02  0.2076E-02
     -9.382  0.8936E-02  0.2553E-02
     -9.329  0.1043E-01  0.3110E-02
     -9.275  0.9101E-02  0.3596E-02
     -9.222  0.5197E-02  0.3873E-02
     -9.169  0.1954E-02  0.3977E-02
     -9.115  0.8362E-03  0.4022E-02
     -9.062  0.1548E-02  0.4105E-02
     -9.008  0.3351E-02  0.4283E-02
     -8.955  0.5201E-02  0.4561E-02
     -8.902  0.7119E-02  0.4941E-02
     -8.848  0.1018E-01  0.5484E-02
     -8.795  0.1457E-01  0.6262E-02
     -8.742  0.1937E-01  0.7296E-02
     -8.688  0.2212E-01  0.8477E-02
     -8.635  0.2094E-01  0.9595E-02
     -8.581  0.1665E-01  0.1048E-01
     -8.528  0.1104E-01  0.1107E-01
     -8.475  0.7240E-02  0.1146E-01
     -8.421  0.8181E-02  0.1190E-01
     -8.368  0.1360E-01  0.1262E-01
     -8.315  0.2014E-01  0.1370E-01
     -8.261  0.2253E-01  0.1490E-01
     -8.208  0.1919E-01  0.1592E-01
     -8.154  0.1494E-01  0.1672E-01
     -8.101  0.1445E-01  0.1749E-01
     -8.048  0.1879E-01  0.1850E-01
     -7.994  0.2718E-01  0.1995E-01
     -7.941  0.3709E-01  0.2193E-01
     -7.888  0.4373E-01  0.2426E-01
     -7.834  0.4495E-01  0.2666E-01
     -7.781  0.4635E-01  0.2913E-01
     -7.727  0.5534E-01  0.3209E-01
     -7.674  0.7241E-01  0.3595E-01
     -7.621  0.8930E-01  0.4072E-01
     -7.567  0.9657E-01  0.4587E-01
     -7.514  0.9378E-01  0.5088E-01
     -7.460  0.8694E-01  0.5552E-01
     -7.407  0.8155E-01  0.5987E-01
     -7.354  0.7950E-01  0.6412E-01
     -7.300  0.7995E-01  0.6838E-01
     -7.247  0.8562E-01  0.7296E-01
     -7.194  0.1007E+00  0.7833E-01
     -7.140  0.1206E+00  0.8477E-01
     -7.087  0.1350E+00  0.9198E-01
     -7.033  0.1417E+00  0.9954E-01
     -6.980  0.1475E+00  0.1074E+00
     -6.927  0.1552E+00  0.1157E+00
     -6.873  0.1606E+00  0.1243E+00
     -6.820  0.1617E+00  0.1329E+00
     -6.767  0.1603E+00  0.1415E+00
     -6.713  0.1591E+00  0.1499E+00
     -6.660  0.1598E+00  0.1585E+00
     -6.606  0.1598E+00  0.1670E+00
     -6.553  0.1567E+00  0.1754E+00
     -6.500  0.1525E+00  0.1835E+00
     -6.446  0.1473E+00  0.1914E+00
     -6.393  0.1403E+00  0.1989E+00
     -6.340  0.1365E+00  0.2061E+00
     -6.286  0.1394E+00  0.2136E+00
     -6.233  0.1452E+00  0.2213E+00
     -6.179  0.1496E+00  0.2293E+00
     -6.126  0.1521E+00  0.2374E+00
     -6.073  0.1536E+00  0.2456E+00
     -6.019  0.1543E+00  0.2539E+00
     -5.966  0.1547E+00  0.2621E+00
     -5.913  0.1572E+00  0.2705E+00
     -5.859  0.1628E+00  0.2792E+00
     -5.806  0.1693E+00  0.2883E+00
     -5.752  0.1759E+00  0.2976E+00
     -5.699  0.1809E+00  0.3073E+00
     -5.646  0.1818E+00  0.3170E+00
     -5.592  0.1802E+00  0.3266E+00
     -5.539  0.1797E+00  0.3362E+00
     -5.486  0.1797E+00  0.3458E+00
     -5.432  0.1769E+00  0.3552E+00
     -5.379  0.1736E+00  0.3645E+00
     -5.325  0.1756E+00  0.3739E+00
     -5.272  0.1819E+00  0.3836E+00
     -5.219  0.1854E+00  0.3935E+00
     -5.165  0.1822E+00  0.4032E+00
     -5.112  0.1741E+00  0.4125E+00
     -5.058  0.1653E+00  0.4213E+00
     -5.005  0.1589E+00  0.4298E+00
     -4.952  0.1587E+00  0.4383E+00
     -4.898  0.1657E+00  0.4471E+00
     -4.845  0.1757E+00  0.4565E+00
     -4.792  0.1832E+00  0.4663E+00
     -4.738  0.1865E+00  0.4762E+00
     -4.685  0.1881E+00  0.4863E+00
     -4.631  0.1918E+00  0.4965E+00
     -4.578  0.1976E+00  0.5071E+00
     -4.525  0.2029E+00  0.5179E+00
     -4.471  0.2042E+00  0.5288E+00
     -4.418  0.1997E+00  0.5395E+00
     -4.365  0.1936E+00  0.5498E+00
     -4.311  0.1915E+00  0.5600E+00
     -4.258  0.1943E+00  0.5704E+00
     -4.204  0.1989E+00  0.5810E+00
     -4.151  0.2012E+00  0.5917E+00
     -4.098  0.1982E+00  0.6023E+00
     -4.044  0.1920E+00  0.6126E+00
     -3.991  0.1889E+00  0.6226E+00
     -3.938  0.1910E+00  0.6328E+00
     -3.884  0.1931E+00  0.6431E+00
     -3.831  0.1897E+00  0.6533E+00
     -3.777  0.1813E+00  0.6630E+00
     -3.724  0.1758E+00  0.6723E+00
     -3.671  0.1777E+00  0.6818E+00
     -3.617  0.1827E+00  0.6916E+00
     -3.564  0.1867E+00  0.7015E+00
     -3.511  0.1872E+00  0.7115E+00
     -3.457  0.1853E+00  0.7214E+00
     -3.404  0.1873E+00  0.7314E+00
     -3.350  0.1944E+00  0.7418E+00
     -3.297  0.2007E+00  0.7525E+00
     -3.244  0.2008E+00  0.7632E+00
     -3.190  0.1932E+00  0.7735E+00
     -3.137  0.1829E+00  0.7833E+00
     -3.084  0.1753E+00  0.7926E+00
     -3.030  0.1698E+00  0.8017E+00
     -2.977  0.1656E+00  0.8105E+00
     -2.923  0.1670E+00  0.8195E+00
     -2.870  0.1762E+00  0.8289E+00
     -2.817  0.1901E+00  0.8390E+00
     -2.763  0.2039E+00  0.8499E+00
     -2.710  0.2124E+00  0.8612E+00
     -2.656  0.2118E+00  0.8725E+00
     -2.603  0.2036E+00  0.8834E+00
     -2.550  0.1942E+00  0.8938E+00
     -2.496  0.1897E+00  0.9039E+00
     -2.443  0.1904E+00  0.9141E+00
     -2.390  0.1913E+00  0.9243E+00
     -2.336  0.1902E+00  0.9344E+00
     -2.283  0.1900E+00  0.9446E+00
     -2.229  0.1936E+00  0.9549E+00
     -2.176  0.1981E+00  0.9655E+00
     -2.123  0.1951E+00  0.9759E+00
     -2.069  0.1804E+00  0.9855E+00
     -2.016  0.1578E+00  0.9939E+00
     -1.963  0.1321E+00  0.1001E+01
     -1.909  0.1067E+00  0.1007E+01
     -1.856  0.8451E-01  0.1011E+01
     -1.802  0.6521E-01  0.1015E+01
     -1.749  0.4712E-01  0.1017E+01
     -1.696  0.3163E-01  0.1019E+01
     -1.642  0.2185E-01  0.1020E+01
     -1.589  0.1887E-01  0.1021E+01
     -1.536  0.1982E-01  0.1022E+01
     -1.482  0.2213E-01  0.1023E+01
     -1.429  0.2616E-01  0.1025E+01
     -1.375  0.3148E-01  0.1026E+01
     -1.322  0.3724E-01  0.1028E+01
     -1.269  0.4157E-01  0.1031E+01
     -1.215  0.4048E-01  0.1033E+01
     -1.162  0.3548E-01  0.1035E+01
     -1.109  0.3435E-01  0.1036E+01
     -1.055  0.3946E-01  0.1039E+01
     -1.002  0.4299E-01  0.1041E+01
     -0.948  0.3877E-01  0.1043E+01
     -0.895  0.3060E-01  0.1045E+01
     -0.842  0.2382E-01  0.1046E+01
     -0.788  0.2117E-01  0.1047E+01
     -0.735  0.2419E-01  0.1048E+01
     -0.682  0.2966E-01  0.1050E+01
     -0.628  0.3266E-01  0.1052E+01
     -0.575  0.3289E-01  0.1053E+01
     -0.521  0.3193E-01  0.1055E+01
     -0.468  0.3049E-01  0.1057E+01
     -0.415  0.3073E-01  0.1058E+01
     -0.361  0.3487E-01  0.1060E+01
     -0.308  0.4322E-01  0.1062E+01
     -0.254  0.5231E-01  0.1065E+01
     -0.201  0.5502E-01  0.1068E+01
     -0.148  0.4897E-01  0.1071E+01
     -0.094  0.4056E-01  0.1073E+01
     -0.041  0.3604E-01  0.1075E+01
      0.012  0.3339E-01  0.1077E+01
      0.066  0.2898E-01  0.1078E+01
      0.119  0.2439E-01  0.1080E+01
      0.173  0.2147E-01  0.1081E+01
      0.226  0.1994E-01  0.1082E+01
      0.279  0.1925E-01  0.1083E+01
      0.333  0.1896E-01  0.1084E+01
      0.386  0.1849E-01  0.1085E+01
      0.439  0.1681E-01  0.1086E+01
      0.493  0.1416E-01  0.1086E+01
      0.546  0.1288E-01  0.1087E+01
      0.600  0.1482E-01  0.1088E+01
      0.653  0.2044E-01  0.1089E+01
      0.706  0.2843E-01  0.1091E+01
      0.760  0.3401E-01  0.1092E+01
      0.813  0.3368E-01  0.1094E+01
      0.866  0.3100E-01  0.1096E+01
      0.920  0.3058E-01  0.1097E+01
      0.973  0.3266E-01  0.1099E+01
      1.027  0.3452E-01  0.1101E+01
      1.080  0.3132E-01  0.1103E+01
      1.133  0.2379E-01  0.1104E+01
      1.187  0.1798E-01  0.1105E+01
      1.240  0.1543E-01  0.1106E+01
      1.293  0.1681E-01  0.1107E+01
      1.347  0.2441E-01  0.1108E+01
      1.400  0.3544E-01  0.1110E+01
      1.454  0.4427E-01  0.1112E+01
      1.507  0.4849E-01  0.1115E+01
      1.560  0.4958E-01  0.1117E+01
      1.614  0.4887E-01  0.1120E+01
      1.667  0.4636E-01  0.1123E+01
      1.720  0.4368E-01  0.1125E+01
      1.774  0.4190E-01  0.1127E+01
      1.827  0.4216E-01  0.1129E+01
      1.881  0.4495E-01  0.1132E+01
      1.934  0.4460E-01  0.1134E+01
      1.987  0.3607E-01  0.1136E+01
      2.041  0.2305E-01  0.1137E+01
      2.094  0.1324E-01  0.1138E+01
      2.148  0.1081E-01  0.1139E+01
      2.201  0.1262E-01  0.1139E+01
      2.254  0.1328E-01  0.1140E+01
      2.308  0.1362E-01  0.1141E+01
      2.361  0.1666E-01  0.1142E+01
      2.414  0.2092E-01  0.1143E+01
      2.468  0.2316E-01  0.1144E+01
      2.521  0.2279E-01  0.1145E+01
      2.575  0.2213E-01  0.1146E+01
      2.628  0.2181E-01  0.1147E+01
      2.681  0.2128E-01  0.1149E+01
      2.735  0.2277E-01  0.1150E+01
      2.788  0.2830E-01  0.1151E+01
      2.841  0.3588E-01  0.1153E+01
      2.895  0.4110E-01  0.1155E+01
      2.948  0.4097E-01  0.1158E+01
      3.002  0.3536E-01  0.1160E+01
      3.055  0.2790E-01  0.1161E+01
      3.108  0.2244E-01  0.1162E+01
      3.162  0.2081E-01  0.1163E+01
      3.215  0.2315E-01  0.1165E+01
      3.268  0.2600E-01  0.1166E+01
      3.322  0.2603E-01  0.1167E+01
      3.375  0.2540E-01  0.1169E+01
      3.429  0.2636E-01  0.1170E+01
      3.482  0.2571E-01  0.1171E+01
      3.535  0.2312E-01  0.1173E+01
      3.589  0.2284E-01  0.1174E+01
      3.642  0.2798E-01  0.1175E+01
      3.695  0.3959E-01  0.1178E+01
      3.749  0.5323E-01  0.1180E+01
      3.802  0.6000E-01  0.1184E+01
      3.856  0.5775E-01  0.1187E+01
      3.909  0.5210E-01  0.1189E+01
      3.962  0.4596E-01  0.1192E+01
      4.016  0.4103E-01  0.1194E+01
      4.069  0.4155E-01  0.1196E+01
      4.122  0.4983E-01  0.1199E+01
      4.176  0.6295E-01  0.1202E+01
      4.229  0.7496E-01  0.1206E+01
      4.283  0.8242E-01  0.1211E+01
      4.336  0.8271E-01  0.1215E+01
      4.389  0.7183E-01  0.1219E+01
      4.443  0.5121E-01  0.1222E+01
      4.496  0.2844E-01  0.1223E+01
      4.550  0.1141E-01  0.1224E+01
      4.603  0.3070E-02  0.1224E+01
      4.656  0.5257E-03  0.1224E+01
      4.710  0.5557E-04  0.1224E+01
      4.763  0.3559E-05  0.1224E+01
      4.816  0.1363E-06  0.1224E+01
      4.870  0.3089E-08  0.1224E+01
      4.923  0.4107E-10  0.1224E+01
      4.977  0.3181E-12  0.1224E+01
      5.030  0.1424E-14  0.1224E+01
      5.083  0.2773E-17  0.1224E+01
      5.137  0.0000E+00  0.1224E+01
      5.190  0.0000E+00  0.1224E+01
      5.243  0.0000E+00  0.1224E+01
      5.297  0.0000E+00  0.1224E+01
      5.350  0.0000E+00  0.1224E+01
      5.404  0.0000E+00  0.1224E+01
      5.457  0.0000E+00  0.1224E+01
