unknown system                          
           1
    11.002582    0.000000    0.000000
     5.501291    9.528515    0.000000
     0.000000    0.000000   30.000000
   Au   Pd
  24  24
Direct configuration=     1
   0.08333333  0.08333333  0.33333333
   0.83333333  0.08333333  0.33333333
   0.50000000  0.00000000  0.48305950
   0.41666667  0.16666667  0.40819642
   0.75000000  0.00000000  0.48305950
   0.66666667  0.91666667  0.40819642
   0.16666667  0.91666667  0.40819642
   0.33333333  0.83333333  0.33333333
   0.25000000  0.50000000  0.48305950
   0.16666667  0.66666667  0.40819642
   0.33333333  0.58333333  0.33333333
   0.33333333  0.33333333  0.33333333
   0.83333333  0.58333333  0.33333333
   0.50000000  0.50000000  0.48305950
   0.00000000  0.25000000  0.48305950
   0.66666667  0.66666667  0.40819642
   0.91666667  0.91666667  0.40819642
   0.08333333  0.83333333  0.33333333
   0.00000000  0.50000000  0.48305950
   0.91666667  0.16666667  0.40819642
   0.08333333  0.58333333  0.33333333
   0.33333333  0.08333333  0.33333333
   0.91666667  0.41666667  0.40819642
   0.08333333  0.33333333  0.33333333
   0.41666667  0.91666667  0.40819642
   0.50000000  0.75000000  0.48305950
   0.66666667  0.16666667  0.40819642
   0.75000000  0.25000000  0.48305950
   0.75000000  0.50000000  0.48305950
   0.83333333  0.33333333  0.33333333
   0.58333333  0.83333333  0.33333333
   0.83333333  0.83333333  0.33333333
   0.66666667  0.41666667  0.40819642
   0.25000000  0.75000000  0.48305950
   0.58333333  0.58333333  0.33333333
   0.50000000  0.25000000  0.48305950
   0.41666667  0.41666667  0.40819642
   0.58333333  0.33333333  0.33333333
   0.58333333  0.08333333  0.33333333
   0.25000000  0.25000000  0.48305950
   0.16666667  0.41666667  0.40819642
   0.25000000  0.00000000  0.48305950
   0.16666667  0.16666667  0.40819642
   0.00000000  0.75000000  0.48305950
   0.91666667  0.66666667  0.40819642
   0.00000000  0.00000000  0.48305950
   0.41666667  0.66666667  0.40819642
   0.75000000  0.75000000  0.48305950
Direct configuration=     2
   0.08288766  0.08439218  0.33147037
   0.83123914  0.08444102  0.33154780
   0.49893155 -0.00018288  0.48484071
   0.41622564  0.16786918  0.40848057
   0.75045172  0.00051607  0.48483908
   0.66706667  0.91587138  0.40765253
   0.16861166  0.91660261  0.40925103
   0.33536772  0.83235591  0.33175432
   0.25027656  0.49952671  0.48452127
   0.16703767  0.66576118  0.40884768
   0.33553769  0.58216724  0.33179629
   0.33463616  0.33304905  0.33180159
   0.83216534  0.58434579  0.33161614
   0.50075127  0.49988375  0.48433686
   0.00061515  0.24896710  0.48481014
   0.66520542  0.66699801  0.40845571
   0.91594198  0.91592164  0.40860295
   0.08247416  0.83335182  0.33115589
  -0.00039272  0.50100458  0.48457637
   0.91489679  0.16813022  0.40854438
   0.08225702  0.58376063  0.33174599
   0.33448508  0.08236539  0.33177200
   0.91620025  0.41676197  0.40825042
   0.08309612  0.33310957  0.33177954
   0.41645032  0.91588929  0.40839858
   0.49983067  0.75003586  0.48384814
   0.66551957  0.16854256  0.40812518
   0.74937543  0.25024285  0.48383000
   0.74916696  0.50056064  0.48396106
   0.83217460  0.33378993  0.33235937
   0.58325996  0.83355304  0.33241429
   0.83260991  0.83357390  0.33232344
   0.66571487  0.41644555  0.40803433
   0.25002415  0.75097977  0.48394804
   0.58341892  0.58268123  0.33263070
   0.50011882  0.25024069  0.48386769
   0.41829110  0.41588365  0.40823937
   0.58378246  0.33364886  0.33277555
   0.58395315  0.08294044  0.33241976
   0.25043288  0.24947272  0.48387992
   0.16710165  0.41609375  0.40845548
   0.25043981 -0.00056403  0.48380815
   0.16757831  0.16645717  0.40857255
  -0.00011999  0.75017361  0.48403642
   0.91657252  0.66717032  0.40839777
   0.00041389 -0.00035728  0.48415558
   0.41773949  0.66630628  0.40842484
   0.75018486  0.74926906  0.48407225
Direct configuration=     3
   0.08155065  0.08756873  0.32588147
   0.82495655  0.08776409  0.32619121
   0.49572619 -0.00073153  0.49018433
   0.41490255  0.17147673  0.40933303
   0.75180687  0.00206429  0.49017780
   0.66826670  0.91348552  0.40602085
   0.17444665  0.91641046  0.41241486
   0.34147087  0.82942365  0.32701730
   0.25110625  0.49810683  0.48890659
   0.16815068  0.66304471  0.41080146
   0.34215077  0.57866896  0.32718516
   0.33854462  0.33219622  0.32720636
   0.82866138  0.58738317  0.32646454
   0.50300510  0.49953499  0.48816892
   0.00246059  0.24586842  0.49006205
   0.66082168  0.66799205  0.40923360
   0.91376794  0.91368654  0.40982255
   0.07989663  0.83340729  0.32462356
  -0.00157088  0.50401832  0.48912696
   0.90958714  0.17252089  0.40958827
   0.07902806  0.58504251  0.32698396
   0.33794032  0.07946154  0.32708801
   0.91480101  0.41704788  0.40841242
   0.08238448  0.33243830  0.32711816
   0.41580129  0.91355714  0.40900505
   0.49932268  0.75014345  0.48621405
   0.66207826  0.17417025  0.40791145
   0.74750171  0.25097139  0.48614150
   0.74666783  0.50224255  0.48666573
   0.82869840  0.33515971  0.32943748
   0.58303984  0.83421217  0.32965716
   0.83043962  0.83429562  0.32929377
   0.66285949  0.41578221  0.40754808
   0.25009662  0.75391907  0.48661363
   0.58367566  0.58072492  0.33052281
   0.50047529  0.25096274  0.48629226
   0.42316439  0.41353461  0.40836823
   0.58512985  0.33459542  0.33110219
   0.58581261  0.08176176  0.32967906
   0.25173153  0.24789086  0.48634117
   0.16840660  0.41437501  0.40923266
   0.25175922 -0.00225611  0.48605410
   0.17031323  0.16582869  0.40970093
  -0.00047997  0.75069442  0.48696717
   0.91629008  0.66868129  0.40900181
   0.00165555 -0.00142912  0.48744380
   0.42095798  0.66522513  0.40911011
   0.75073943  0.74707624  0.48711048
Direct configuration=     4
   0.08130639  0.08546022  0.32500567
   0.82698439  0.08670799  0.32500090
   0.49790549 -0.00128914  0.49143099
   0.41653698  0.16861958  0.40909484
   0.75018149  0.00192910  0.49154805
   0.66533309  0.91602433  0.40671190
   0.17033473  0.91697591  0.41094544
   0.33885101  0.82987070  0.32592756
   0.25199095  0.49804472  0.49035622
   0.16979036  0.66277787  0.41016398
   0.33920504  0.58058012  0.32624083
   0.33781143  0.33209315  0.32606161
   0.82794588  0.58699442  0.32531863
   0.50181597  0.50017410  0.48944517
   0.00198051  0.24686775  0.49155602
   0.66370540  0.66647782  0.40901254
   0.91510646  0.91635339  0.40944093
   0.08093189  0.83420638  0.32349332
  -0.00154655  0.50268584  0.49028495
   0.91238683  0.16929097  0.40922944
   0.08040268  0.58451583  0.32611133
   0.33762496  0.08052712  0.32609762
   0.91524704  0.41812074  0.40841850
   0.08258824  0.33318879  0.32619898
   0.41715066  0.91557616  0.40866940
   0.49945347  0.75016042  0.48742110
   0.66393447  0.17036486  0.40793825
   0.74795868  0.25105638  0.48715216
   0.74807883  0.50127423  0.48742170
   0.82931970  0.33532500  0.32871954
   0.58379407  0.83362172  0.32877960
   0.83073151  0.83468411  0.32831511
   0.66271200  0.41744105  0.40779260
   0.25081914  0.75223974  0.48806297
   0.58539007  0.58067927  0.32982033
   0.50082273  0.25007361  0.48726096
   0.42023296  0.41653161  0.40844702
   0.58533332  0.33414658  0.33016209
   0.58471214  0.08203927  0.32898523
   0.25114026  0.24832311  0.48744530
   0.16730160  0.41555221  0.40889928
   0.25203868 -0.00143914  0.48776029
   0.16879842  0.16658585  0.40917253
  -0.00036902  0.75104414  0.48821155
   0.91673583  0.66561500  0.40876164
   0.00119577 -0.00121655  0.48837229
   0.41882206  0.66424294  0.40888765
   0.74947198  0.74888074  0.48787406
Direct configuration=     5
   0.08121607  0.08468052  0.32468181
   0.82773425  0.08631746  0.32456074
   0.49871137 -0.00149533  0.49189198
   0.41714137  0.16756305  0.40900676
   0.74958044  0.00187911  0.49205476
   0.66424828  0.91696314  0.40696744
   0.16881420  0.91718501  0.41040207
   0.33788223  0.83003601  0.32552459
   0.25231810  0.49802175  0.49089227
   0.17039668  0.66267920  0.40992825
   0.33811576  0.58128684  0.32589163
   0.33754030  0.33205503  0.32563830
   0.82768131  0.58685067  0.32489489
   0.50137625  0.50041043  0.48991711
   0.00180299  0.24723729  0.49210846
   0.66477176  0.66591788  0.40893079
   0.91560143  0.91733955  0.40929982
   0.08131471  0.83450187  0.32307537
  -0.00153756  0.50219310  0.49071316
   0.91342211  0.16809660  0.40909675
   0.08091099  0.58432107  0.32578864
   0.33750834  0.08092115  0.32573139
   0.91541197  0.41851747  0.40842075
   0.08266359  0.33346630  0.32585907
   0.41764964  0.91632276  0.40854528
   0.49950183  0.75016669  0.48786745
   0.66462087  0.16895768  0.40794816
   0.74812766  0.25108781  0.48752589
   0.74860060  0.50091616  0.48770125
   0.82954944  0.33538612  0.32845406
   0.58407297  0.83340339  0.32845510
   0.83083945  0.83482777  0.32795322
   0.66265746  0.41805446  0.40788302
   0.25108632  0.75161875  0.48859892
   0.58602403  0.58066239  0.32956057
   0.50095121  0.24974482  0.48761917
   0.41914897  0.41763985  0.40847615
   0.58540856  0.33398061  0.32981445
   0.58430521  0.08214189  0.32872867
   0.25092162  0.24848295  0.48785359
   0.16689298  0.41598752  0.40877600
   0.25214202 -0.00113704  0.48839122
   0.16823827  0.16686584  0.40897713
  -0.00032799  0.75117346  0.48867170
   0.91690066  0.66448113  0.40867283
   0.00102575 -0.00113794  0.48871563
   0.41803223  0.66387974  0.40880539
   0.74900330  0.74954802  0.48815642
Direct configuration=     6
   0.08160875  0.08441625  0.32452254
   0.82862573  0.08578404  0.32423381
   0.49928425 -0.00126712  0.49236652
   0.41599298  0.16848902  0.40895328
   0.74960927  0.00134922  0.49244828
   0.66617230  0.91636508  0.40748096
   0.16920718  0.91685497  0.40984938
   0.33702500  0.83072043  0.32536397
   0.25181520  0.49823243  0.49136364
   0.16874062  0.66383908  0.40962637
   0.33688169  0.58183524  0.32561773
   0.33708002  0.33231371  0.32540669
   0.82885539  0.58631160  0.32447036
   0.50142493  0.50034636  0.49038540
   0.00135357  0.24760143  0.49253590
   0.66459100  0.66643890  0.40886005
   0.91573851  0.91600073  0.40904794
   0.08153650  0.83422620  0.32272887
  -0.00121187  0.50182996  0.49103818
   0.91405497  0.16885881  0.40888044
   0.08119040  0.58464888  0.32565217
   0.33634058  0.08131970  0.32546632
   0.91637176  0.41679591  0.40839330
   0.08256765  0.33333845  0.32570510
   0.41645776  0.91631468  0.40846181
   0.49957559  0.75015795  0.48809526
   0.66537630  0.16816859  0.40799371
   0.74868737  0.25090839  0.48771870
   0.74926528  0.50049242  0.48792535
   0.83090171  0.33462438  0.32846494
   0.58387794  0.83328085  0.32825650
   0.83154563  0.83471943  0.32793301
   0.66348041  0.41712987  0.40819930
   0.25079910  0.75176174  0.48892217
   0.58518134  0.58143013  0.32936453
   0.50085382  0.24955633  0.48779725
   0.41858234  0.41694225  0.40849071
   0.58495932  0.33393441  0.32964808
   0.58420155  0.08234686  0.32853092
   0.25086034  0.24864601  0.48806516
   0.16743662  0.41584677  0.40865277
   0.25183316 -0.00118453  0.48862490
   0.16726606  0.16709398  0.40868500
  -0.00023869  0.75110463  0.48877197
   0.91704518  0.66559534  0.40851964
   0.00094712 -0.00099945  0.48894358
   0.41725756  0.66543376  0.40869981
   0.74899081  0.75004591  0.48826581
Direct configuration=     7
   0.08170416  0.08435204  0.32448384
   0.82884231  0.08565444  0.32415439
   0.49942343 -0.00121167  0.49248181
   0.41571397  0.16871399  0.40894029
   0.74961627  0.00122049  0.49254389
   0.66663975  0.91621978  0.40760572
   0.16930265  0.91677479  0.40971510
   0.33681674  0.83088672  0.32532494
   0.25169302  0.49828361  0.49147816
   0.16833828  0.66412088  0.40955303
   0.33658187  0.58196848  0.32555119
   0.33696820  0.33237655  0.32535042
   0.82914064  0.58618063  0.32436721
   0.50143676  0.50033079  0.49049917
   0.00124438  0.24768991  0.49263975
   0.66454708  0.66656548  0.40884286
   0.91577181  0.91567546  0.40898675
   0.08159039  0.83415922  0.32264469
  -0.00113274  0.50174173  0.49111714
   0.91420872  0.16904399  0.40882788
   0.08125828  0.58472853  0.32561902
   0.33605687  0.08141653  0.32540191
   0.91660494  0.41637765  0.40838663
   0.08254434  0.33330739  0.32566769
   0.41616819  0.91631271  0.40844153
   0.49959351  0.75015583  0.48815060
   0.66555984  0.16797688  0.40800477
   0.74882336  0.25086480  0.48776555
   0.74942677  0.50038948  0.48797980
   0.83123025  0.33443931  0.32846758
   0.58383056  0.83325108  0.32820825
   0.83171720  0.83469311  0.32792810
   0.66368034  0.41690523  0.40827614
   0.25072932  0.75179648  0.48900071
   0.58497661  0.58161666  0.32931690
   0.50083016  0.24951054  0.48784052
   0.41844468  0.41677276  0.40849424
   0.58485018  0.33392319  0.32960766
   0.58417637  0.08239666  0.32848287
   0.25084545  0.24868563  0.48811656
   0.16756870  0.41581257  0.40862282
   0.25175813 -0.00119607  0.48868168
   0.16702986  0.16714941  0.40861403
  -0.00021700  0.75108791  0.48879634
   0.91708029  0.66586604  0.40848243
   0.00092802 -0.00096581  0.48899896
   0.41706935  0.66581132  0.40867416
   0.74898777  0.75016687  0.48829239
Direct configuration=     8
   0.08185215  0.08439481  0.32435196
   0.82889074  0.08569118  0.32400917
   0.49894834 -0.00090807  0.49269345
   0.41546928  0.16851846  0.40892854
   0.75019837  0.00113207  0.49278159
   0.66656787  0.91622874  0.40782077
   0.16926287  0.91686723  0.40963646
   0.33676072  0.83111829  0.32522271
   0.25134895  0.49860519  0.49162856
   0.16797892  0.66432517  0.40952415
   0.33661099  0.58192084  0.32547523
   0.33674452  0.33244751  0.32524089
   0.82965379  0.58602803  0.32419110
   0.50155934  0.50021647  0.49065760
   0.00127311  0.24756847  0.49288491
   0.66455591  0.66657229  0.40879160
   0.91603635  0.91572375  0.40891760
   0.08149653  0.83409612  0.32234136
  -0.00106833  0.50189084  0.49119153
   0.91426661  0.16855496  0.40878871
   0.08119760  0.58473436  0.32554860
   0.33584115  0.08144902  0.32530349
   0.91677035  0.41671419  0.40842934
   0.08257288  0.33338468  0.32558495
   0.41580273  0.91655565  0.40845808
   0.49969914  0.75017936  0.48814456
   0.66593159  0.16797591  0.40803164
   0.74911763  0.25047543  0.48778370
   0.74956740  0.50055145  0.48802314
   0.83139974  0.33426779  0.32853078
   0.58369461  0.83343989  0.32829636
   0.83178433  0.83467114  0.32800213
   0.66343054  0.41667602  0.40847626
   0.25036268  0.75217377  0.48895324
   0.58450671  0.58174072  0.32934127
   0.50076516  0.24965251  0.48784742
   0.41854206  0.41663086  0.40853909
   0.58470952  0.33408874  0.32969937
   0.58422871  0.08223137  0.32854789
   0.25089545  0.24849617  0.48811396
   0.16753757  0.41600591  0.40861782
   0.25158340 -0.00126639  0.48853417
   0.16706855  0.16691171  0.40852402
  -0.00012572  0.75096681  0.48873296
   0.91722792  0.66556031  0.40841671
   0.00095851 -0.00095550  0.48889036
   0.41714971  0.66591439  0.40867222
   0.74937307  0.74978139  0.48830664
Direct configuration=     9
   0.08200083  0.08443777  0.32421946
   0.82893938  0.08572808  0.32386330
   0.49847106 -0.00060307  0.49290606
   0.41522347  0.16832203  0.40891674
   0.75078313  0.00104324  0.49302039
   0.66649566  0.91623774  0.40803681
   0.16922290  0.91696010  0.40955746
   0.33670446  0.83135093  0.32512000
   0.25100330  0.49892824  0.49177964
   0.16761791  0.66453041  0.40949514
   0.33664026  0.58187298  0.32539892
   0.33651982  0.33251879  0.32513086
   0.83016929  0.58587473  0.32401419
   0.50168249  0.50010163  0.49081676
   0.00130197  0.24744647  0.49313119
   0.66456477  0.66657912  0.40874011
   0.91630210  0.91577225  0.40884814
   0.08140225  0.83403272  0.32203665
  -0.00100361  0.50204064  0.49126627
   0.91432477  0.16806369  0.40874935
   0.08113664  0.58474021  0.32547787
   0.33562443  0.08148166  0.32520462
   0.91693652  0.41705227  0.40847224
   0.08260155  0.33346233  0.32550182
   0.41543559  0.91679970  0.40847470
   0.49980526  0.75020300  0.48813849
   0.66630504  0.16797495  0.40805863
   0.74941326  0.25008427  0.48780194
   0.74970868  0.50071417  0.48806667
   0.83157000  0.33409548  0.32859427
   0.58355803  0.83362957  0.32838487
   0.83185177  0.83464906  0.32807650
   0.66317959  0.41644576  0.40867731
   0.24999435  0.75255279  0.48890556
   0.58403465  0.58186536  0.32936575
   0.50069986  0.24979513  0.48785436
   0.41863990  0.41648831  0.40858415
   0.58456822  0.33425505  0.32979150
   0.58428128  0.08206531  0.32861321
   0.25094568  0.24830583  0.48811134
   0.16750628  0.41620013  0.40861278
   0.25140786 -0.00133703  0.48838599
   0.16710743  0.16667292  0.40843359
  -0.00003402  0.75084516  0.48866930
   0.91737621  0.66525317  0.40835070
   0.00098914 -0.00094516  0.48878126
   0.41723045  0.66601793  0.40867027
   0.74976014  0.74939414  0.48832095
Direct configuration=    10
   0.08193563  0.08446758  0.32401345
   0.82876203  0.08589448  0.32365804
   0.49843934 -0.00057042  0.49316067
   0.41538328  0.16809024  0.40889602
   0.75104343  0.00087423  0.49331286
   0.66628380  0.91644315  0.40834788
   0.16926730  0.91677119  0.40941746
   0.33663810  0.83134546  0.32497404
   0.25100552  0.49912628  0.49191349
   0.16795958  0.66436373  0.40945638
   0.33657876  0.58193480  0.32535036
   0.33652903  0.33240480  0.32502384
   0.82988949  0.58590422  0.32382704
   0.50165158  0.50018068  0.49099724
   0.00133608  0.24743626  0.49339065
   0.66457904  0.66641608  0.40863517
   0.91627354  0.91573049  0.40875126
   0.08140846  0.83404215  0.32158346
  -0.00079850  0.50187907  0.49135520
   0.91439950  0.16821012  0.40870442
   0.08127328  0.58475020  0.32535957
   0.33567180  0.08160782  0.32506378
   0.91690775  0.41702051  0.40855652
   0.08263709  0.33347159  0.32539643
   0.41551875  0.91685745  0.40851454
   0.49993099  0.75020684  0.48807977
   0.66621969  0.16782103  0.40808714
   0.74964639  0.24986494  0.48784497
   0.74983622  0.50074485  0.48808165
   0.83138276  0.33427369  0.32877699
   0.58367762  0.83366127  0.32857385
   0.83164567  0.83476174  0.32821523
   0.66313809  0.41643950  0.40891396
   0.24984359  0.75274242  0.48876288
   0.58409301  0.58184115  0.32947682
   0.50071927  0.24983150  0.48781165
   0.41853936  0.41653021  0.40867418
   0.58451823  0.33430689  0.32997910
   0.58426461  0.08198391  0.32881032
   0.25075434  0.24836007  0.48804775
   0.16769455  0.41617984  0.40864558
   0.25124374 -0.00137974  0.48816275
   0.16676817  0.16685795  0.40834692
  -0.00002159  0.75086788  0.48855520
   0.91723884  0.66524106  0.40828160
   0.00113026 -0.00097738  0.48860120
   0.41725261  0.66583087  0.40871106
   0.74990995  0.74935736  0.48832774
Direct configuration=    11
   0.08181553  0.08452250  0.32363392
   0.82843531  0.08620102  0.32327992
   0.49838090 -0.00051027  0.49362972
   0.41567767  0.16766325  0.40885785
   0.75152294  0.00056287  0.49385164
   0.66589351  0.91682154  0.40892093
   0.16934910  0.91642317  0.40915955
   0.33651587  0.83133540  0.32470515
   0.25100961  0.49949110  0.49216006
   0.16858901  0.66405668  0.40938499
   0.33646546  0.58204868  0.32526091
   0.33654600  0.33219480  0.32482669
   0.82937405  0.58595852  0.32348229
   0.50159464  0.50032630  0.49132971
   0.00139890  0.24741746  0.49386863
   0.66460534  0.66611572  0.40844185
   0.91622092  0.91565354  0.40857278
   0.08141989  0.83405952  0.32074861
  -0.00042065  0.50158142  0.49151904
   0.91453717  0.16847989  0.40862165
   0.08152501  0.58476858  0.32514164
   0.33575906  0.08184025  0.32480434
   0.91685476  0.41696198  0.40871179
   0.08270255  0.33348865  0.32520227
   0.41567194  0.91696383  0.40858794
   0.50016261  0.75021391  0.48797159
   0.66606247  0.16753749  0.40813966
   0.75007585  0.24946087  0.48792423
   0.75007118  0.50080139  0.48810923
   0.83103783  0.33460199  0.32911360
   0.58389794  0.83371967  0.32892199
   0.83126599  0.83496931  0.32847080
   0.66306162  0.41642798  0.40934991
   0.24956587  0.75309176  0.48850003
   0.58420050  0.58179655  0.32968142
   0.50075502  0.24989850  0.48773296
   0.41835414  0.41660741  0.40884003
   0.58442614  0.33440240  0.33032471
   0.58423388  0.08183395  0.32917343
   0.25040187  0.24846000  0.48793062
   0.16804136  0.41614245  0.40870599
   0.25094139 -0.00145842  0.48775151
   0.16614319  0.16719879  0.40818724
   0.00000130  0.75090973  0.48834501
   0.91698577  0.66521876  0.40815430
   0.00139023 -0.00103674  0.48826950
   0.41729344  0.66548627  0.40878619
   0.75018592  0.74928960  0.48834027
Direct configuration=    12
   0.08148942  0.08458242  0.32340579
   0.82833719  0.08622515  0.32312091
   0.49867419 -0.00062050  0.49384160
   0.41518043  0.16815849  0.40891222
   0.75110031  0.00066796  0.49410540
   0.66625530  0.91641708  0.40927611
   0.16936454  0.91635940  0.40872084
   0.33675244  0.83129219  0.32459917
   0.25141889  0.49924092  0.49223416
   0.16849731  0.66389017  0.40924156
   0.33653653  0.58197170  0.32526441
   0.33689506  0.33226108  0.32478851
   0.82926006  0.58602926  0.32335108
   0.50160553  0.50050946  0.49155487
   0.00135143  0.24744517  0.49404728
   0.66475321  0.66613355  0.40847069
   0.91609094  0.91561126  0.40842690
   0.08101455  0.83442293  0.32024212
  -0.00029663  0.50148901  0.49157583
   0.91428020  0.16858299  0.40860308
   0.08123188  0.58489509  0.32504404
   0.33593436  0.08151869  0.32470537
   0.91691718  0.41687762  0.40880985
   0.08225861  0.33380192  0.32515629
   0.41568179  0.91671675  0.40854840
   0.50026363  0.75016631  0.48787913
   0.66618033  0.16748768  0.40824495
   0.74994563  0.24966017  0.48798475
   0.75004102  0.50068181  0.48816250
   0.83088523  0.33477735  0.32936163
   0.58369026  0.83379317  0.32914416
   0.83135157  0.83497257  0.32862708
   0.66315762  0.41643079  0.40956495
   0.25007296  0.75273105  0.48837048
   0.58419794  0.58177309  0.32981228
   0.50092671  0.24963829  0.48769074
   0.41837248  0.41645315  0.40893586
   0.58428246  0.33443155  0.33060017
   0.58422119  0.08199464  0.32938854
   0.25051637  0.24845656  0.48778671
   0.16797061  0.41598650  0.40870165
   0.25127369 -0.00131428  0.48757007
   0.16629346  0.16735919  0.40807156
  -0.00001358  0.75090738  0.48816998
   0.91701999  0.66533014  0.40809407
   0.00129062 -0.00097254  0.48806383
   0.41741067  0.66534080  0.40880720
   0.75006441  0.74943485  0.48834928
Direct configuration=    13
   0.08133125  0.08461148  0.32329514
   0.82828959  0.08623686  0.32304379
   0.49881645 -0.00067396  0.49394438
   0.41493924  0.16839870  0.40893859
   0.75089533  0.00071893  0.49422849
   0.66643078  0.91622090  0.40944838
   0.16937203  0.91632847  0.40850805
   0.33686718  0.83127124  0.32454777
   0.25161740  0.49911957  0.49227010
   0.16845283  0.66380941  0.40917200
   0.33657100  0.58193437  0.32526611
   0.33706436  0.33229323  0.32477000
   0.82920477  0.58606357  0.32328745
   0.50161081  0.50059830  0.49166408
   0.00132841  0.24745862  0.49413393
   0.66482493  0.66614219  0.40848468
   0.91602790  0.91559076  0.40835615
   0.08081795  0.83459920  0.31999646
  -0.00023647  0.50144419  0.49160337
   0.91415556  0.16863300  0.40859407
   0.08108971  0.58495644  0.32499671
   0.33601939  0.08136273  0.32465736
   0.91694746  0.41683670  0.40885741
   0.08204329  0.33395387  0.32513399
   0.41568657  0.91659692  0.40852922
   0.50031263  0.75014323  0.48783429
   0.66623749  0.16746352  0.40829602
   0.74988247  0.24975683  0.48801411
   0.75002639  0.50062381  0.48818834
   0.83081122  0.33486241  0.32948194
   0.58358953  0.83382882  0.32925192
   0.83139308  0.83497415  0.32870288
   0.66320418  0.41643215  0.40966925
   0.25031891  0.75255609  0.48830765
   0.58419670  0.58176172  0.32987575
   0.50100999  0.24951207  0.48767026
   0.41838138  0.41637833  0.40898234
   0.58421277  0.33444568  0.33073378
   0.58421504  0.08207258  0.32949287
   0.25057191  0.24845489  0.48771690
   0.16793629  0.41591085  0.40869955
   0.25143487 -0.00124437  0.48748207
   0.16636634  0.16743698  0.40801545
  -0.00002080  0.75090624  0.48808508
   0.91703659  0.66538417  0.40806486
   0.00124230 -0.00094139  0.48796407
   0.41746753  0.66527025  0.40881740
   0.75000548  0.74950530  0.48835366
Direct configuration=    14
   0.08112438  0.08489373  0.32305834
   0.82804573  0.08640628  0.32295749
   0.49882323 -0.00073922  0.49406684
   0.41510066  0.16818044  0.40894217
   0.75073438  0.00092926  0.49441798
   0.66623077  0.91644772  0.40965860
   0.16907738  0.91653596  0.40804658
   0.33686246  0.83108974  0.32443005
   0.25193210  0.49878025  0.49225953
   0.16822783  0.66375536  0.40896640
   0.33624252  0.58229835  0.32531429
   0.33692187  0.33234636  0.32478971
   0.82904211  0.58631634  0.32324664
   0.50170948  0.50049699  0.49189294
   0.00141812  0.24733587  0.49417672
   0.66519717  0.66594488  0.40861646
   0.91619018  0.91573674  0.40823931
   0.08069495  0.83460084  0.31949707
  -0.00023569  0.50158894  0.49160827
   0.91429661  0.16834333  0.40863045
   0.08093943  0.58508139  0.32492761
   0.33570765  0.08157956  0.32462836
   0.91705275  0.41685017  0.40896778
   0.08203074  0.33389757  0.32514213
   0.41568969  0.91657523  0.40845210
   0.50044719  0.75017026  0.48777520
   0.66639053  0.16725711  0.40847920
   0.74961467  0.24994115  0.48811965
   0.75002126  0.50062243  0.48830165
   0.83067270  0.33488392  0.32971026
   0.58356409  0.83393764  0.32946351
   0.83124841  0.83506248  0.32879677
   0.66314606  0.41654963  0.40985600
   0.25066776  0.75243421  0.48810322
   0.58415194  0.58169596  0.33000596
   0.50120087  0.24936448  0.48770820
   0.41841047  0.41646131  0.40909224
   0.58436880  0.33442766  0.33103193
   0.58426764  0.08201715  0.32977474
   0.25084115  0.24836205  0.48761487
   0.16740967  0.41620839  0.40861480
   0.25174159 -0.00111821  0.48726629
   0.16650250  0.16717012  0.40783419
   0.00009196  0.75085317  0.48790437
   0.91741148  0.66501981  0.40805194
   0.00121677 -0.00098440  0.48773012
   0.41748747  0.66513171  0.40880554
   0.75006854  0.74925990  0.48845360
Direct configuration=    15
   0.08106924  0.08496896  0.32299522
   0.82798072  0.08645144  0.32293449
   0.49882503 -0.00075661  0.49409948
   0.41514369  0.16812226  0.40894312
   0.75069148  0.00098532  0.49446849
   0.66617745  0.91650818  0.40971463
   0.16899884  0.91659126  0.40792357
   0.33686121  0.83104136  0.32439867
   0.25201599  0.49868980  0.49225672
   0.16816785  0.66374095  0.40891159
   0.33615496  0.58239538  0.32532713
   0.33688389  0.33236052  0.32479496
   0.82899875  0.58638372  0.32323576
   0.50173578  0.50046999  0.49195394
   0.00144203  0.24730316  0.49418813
   0.66529640  0.66589229  0.40865158
   0.91623344  0.91577565  0.40820817
   0.08066217  0.83460127  0.31936395
  -0.00023548  0.50162752  0.49160957
   0.91433421  0.16826611  0.40864015
   0.08089938  0.58511470  0.32490919
   0.33562456  0.08163735  0.32462062
   0.91708082  0.41685376  0.40899720
   0.08202740  0.33388256  0.32514429
   0.41569052  0.91656945  0.40843154
   0.50048306  0.75017746  0.48775945
   0.66643132  0.16720209  0.40852803
   0.74954328  0.24999028  0.48814779
   0.75001989  0.50062206  0.48833185
   0.83063577  0.33488965  0.32977113
   0.58355731  0.83396664  0.32951991
   0.83120984  0.83508602  0.32882179
   0.66313057  0.41658095  0.40990578
   0.25076075  0.75240172  0.48804873
   0.58414000  0.58167843  0.33004067
   0.50125175  0.24932513  0.48771832
   0.41841822  0.41648343  0.40912154
   0.58441039  0.33442286  0.33111140
   0.58428166  0.08200238  0.32984988
   0.25091292  0.24833731  0.48758768
   0.16726930  0.41628770  0.40859221
   0.25182334 -0.00108458  0.48720878
   0.16653879  0.16709899  0.40778588
   0.00012202  0.75083903  0.48785621
   0.91751140  0.66492269  0.40804850
   0.00120996 -0.00099586  0.48766777
   0.41749278  0.66509478  0.40880238
   0.75008534  0.74919448  0.48848024
Direct configuration=    16
   0.08097315  0.08508299  0.32275553
   0.82794226  0.08650999  0.32293650
   0.49879710 -0.00080673  0.49414728
   0.41524543  0.16804799  0.40893544
   0.75115033  0.00080666  0.49455552
   0.66625238  0.91654093  0.40980263
   0.16913826  0.91640010  0.40767150
   0.33665262  0.83117408  0.32426902
   0.25191858  0.49868585  0.49213574
   0.16821298  0.66392939  0.40874678
   0.33591129  0.58246851  0.32536571
   0.33660640  0.33249734  0.32488442
   0.82890753  0.58644330  0.32329959
   0.50177639  0.50034153  0.49211411
   0.00166128  0.24716040  0.49409176
   0.66544215  0.66581905  0.40878469
   0.91627199  0.91564258  0.40811838
   0.08052851  0.83465537  0.31895745
  -0.00013340  0.50163697  0.49160344
   0.91446310  0.16839633  0.40869485
   0.08086598  0.58513235  0.32483669
   0.33536453  0.08186832  0.32462976
   0.91717458  0.41651316  0.40907829
   0.08201212  0.33394372  0.32517715
   0.41570513  0.91647618  0.40834176
   0.50050949  0.75017592  0.48775649
   0.66655075  0.16714823  0.40872421
   0.74956907  0.24995903  0.48827527
   0.75011034  0.50064517  0.48849190
   0.83073823  0.33484116  0.32989819
   0.58348482  0.83411869  0.32964627
   0.83098680  0.83528104  0.32886321
   0.66321758  0.41649906  0.41007002
   0.25067114  0.75271887  0.48772792
   0.58408403  0.58170275  0.33017487
   0.50125838  0.24937602  0.48784909
   0.41827498  0.41662822  0.40922597
   0.58425272  0.33455382  0.33133761
   0.58414368  0.08191594  0.33005458
   0.25093970  0.24835679  0.48752997
   0.16740658  0.41615420  0.40849557
   0.25168876 -0.00121778  0.48697222
   0.16652812  0.16679198  0.40768454
   0.00028542  0.75081734  0.48770021
   0.91739763  0.66504116  0.40806405
   0.00145016 -0.00116160  0.48751325
   0.41728250  0.66530040  0.40879107
   0.75032846  0.74898723  0.48864763
Direct configuration=    17
   0.08091217  0.08515534  0.32260342
   0.82791785  0.08654714  0.32293778
   0.49877937 -0.00083853  0.49417761
   0.41530999  0.16800086  0.40893057