  48  48   0   0
  0.5349325E+02  0.1100258E-08  0.1100258E-08  0.2449179E-08  0.3500000E-15
  1.000000000000000E-004
  CAR 
 unknown system                          
      6.38310575     -9.81949167  301     -1.08241192      1.00000000
     -9.819  0.0000E+00  0.0000E+00
     -9.765  0.0000E+00  0.0000E+00
     -9.711  0.0000E+00  0.0000E+00
     -9.657  0.0000E+00  0.0000E+00
     -9.603  0.0000E+00  0.0000E+00
     -9.549  0.0000E+00  0.0000E+00
     -9.495  0.0000E+00  0.0000E+00
     -9.441  0.0000E+00  0.0000E+00
     -9.387  0.1096E-16  0.5921E-18
     -9.333  0.4418E-14  0.2392E-15
     -9.279  0.9762E-12  0.5296E-13
     -9.225  0.1219E-09  0.6635E-11
     -9.171  0.8609E-08  0.4716E-09
     -9.117  0.3449E-06  0.1910E-07
     -9.063  0.7856E-05  0.4434E-06
     -9.009  0.1020E-03  0.5951E-05
     -8.955  0.7562E-03  0.4679E-04
     -8.901  0.3212E-02  0.2202E-03
     -8.847  0.7831E-02  0.6432E-03
     -8.793  0.1103E-01  0.1239E-02
     -8.739  0.9411E-02  0.1747E-02
     -8.685  0.6731E-02  0.2111E-02
     -8.631  0.8024E-02  0.2544E-02
     -8.577  0.1077E-01  0.3126E-02
     -8.523  0.9479E-02  0.3638E-02
     -8.469  0.4926E-02  0.3904E-02
     -8.415  0.1545E-02  0.3988E-02
     -8.361  0.7260E-03  0.4027E-02
     -8.307  0.2244E-02  0.4148E-02
     -8.253  0.6266E-02  0.4487E-02
     -8.199  0.1094E-01  0.5077E-02
     -8.145  0.1358E-01  0.5811E-02
     -8.091  0.1603E-01  0.6676E-02
     -8.037  0.2004E-01  0.7759E-02
     -7.983  0.2142E-01  0.8916E-02
     -7.929  0.1807E-01  0.9892E-02
     -7.875  0.1382E-01  0.1064E-01
     -7.821  0.1108E-01  0.1124E-01
     -7.767  0.8171E-02  0.1168E-01
     -7.713  0.4700E-02  0.1193E-01
     -7.659  0.3641E-02  0.1213E-01
     -7.605  0.7494E-02  0.1253E-01
     -7.551  0.1488E-01  0.1334E-01
     -7.497  0.2090E-01  0.1447E-01
     -7.443  0.2259E-01  0.1569E-01
     -7.389  0.2136E-01  0.1684E-01
     -7.335  0.2076E-01  0.1796E-01
     -7.281  0.2544E-01  0.1933E-01
     -7.227  0.3528E-01  0.2124E-01
     -7.173  0.4350E-01  0.2359E-01
     -7.119  0.4776E-01  0.2617E-01
     -7.065  0.5223E-01  0.2899E-01
     -7.011  0.5856E-01  0.3215E-01
     -6.957  0.6631E-01  0.3573E-01
     -6.903  0.7530E-01  0.3980E-01
     -6.849  0.8295E-01  0.4428E-01
     -6.795  0.8591E-01  0.4892E-01
     -6.741  0.8409E-01  0.5346E-01
     -6.687  0.7999E-01  0.5778E-01
     -6.633  0.7695E-01  0.6194E-01
     -6.579  0.7504E-01  0.6599E-01
     -6.525  0.7323E-01  0.6995E-01
     -6.471  0.7670E-01  0.7409E-01
     -6.417  0.8989E-01  0.7894E-01
     -6.363  0.1081E+00  0.8478E-01
     -6.309  0.1239E+00  0.9147E-01
     -6.255  0.1333E+00  0.9867E-01
     -6.201  0.1384E+00  0.1061E+00
     -6.147  0.1450E+00  0.1140E+00
     -6.093  0.1556E+00  0.1224E+00
     -6.039  0.1646E+00  0.1313E+00
     -5.985  0.1652E+00  0.1402E+00
     -5.931  0.1613E+00  0.1489E+00
     -5.877  0.1620E+00  0.1577E+00
     -5.823  0.1637E+00  0.1665E+00
     -5.769  0.1593E+00  0.1751E+00
     -5.715  0.1508E+00  0.1832E+00
     -5.661  0.1440E+00  0.1910E+00
     -5.607  0.1388E+00  0.1985E+00
     -5.553  0.1340E+00  0.2058E+00
     -5.499  0.1321E+00  0.2129E+00
     -5.445  0.1361E+00  0.2202E+00
     -5.391  0.1457E+00  0.2281E+00
     -5.337  0.1591E+00  0.2367E+00
     -5.283  0.1707E+00  0.2459E+00
     -5.229  0.1726E+00  0.2552E+00
     -5.175  0.1646E+00  0.2641E+00
     -5.121  0.1569E+00  0.2726E+00
     -5.067  0.1573E+00  0.2811E+00
     -5.013  0.1622E+00  0.2899E+00
     -4.959  0.1649E+00  0.2988E+00
     -4.905  0.1656E+00  0.3077E+00
     -4.851  0.1685E+00  0.3168E+00
     -4.797  0.1747E+00  0.3263E+00
     -4.743  0.1805E+00  0.3360E+00
     -4.689  0.1815E+00  0.3458E+00
     -4.635  0.1792E+00  0.3555E+00
     -4.581  0.1784E+00  0.3651E+00
     -4.527  0.1805E+00  0.3749E+00
     -4.473  0.1790E+00  0.3845E+00
     -4.419  0.1693E+00  0.3937E+00
     -4.365  0.1581E+00  0.4022E+00
     -4.311  0.1549E+00  0.4106E+00
     -4.257  0.1605E+00  0.4193E+00
     -4.203  0.1672E+00  0.4283E+00
     -4.149  0.1701E+00  0.4375E+00
     -4.095  0.1731E+00  0.4468E+00
     -4.041  0.1778E+00  0.4564E+00
     -3.987  0.1811E+00  0.4662E+00
     -3.933  0.1818E+00  0.4760E+00
     -3.879  0.1825E+00  0.4859E+00
     -3.825  0.1844E+00  0.4958E+00
     -3.771  0.1863E+00  0.5059E+00
     -3.717  0.1882E+00  0.5161E+00
     -3.663  0.1908E+00  0.5264E+00
     -3.608  0.1948E+00  0.5369E+00
     -3.554  0.1983E+00  0.5476E+00
     -3.500  0.1964E+00  0.5582E+00
     -3.446  0.1912E+00  0.5685E+00
     -3.392  0.1893E+00  0.5787E+00
     -3.338  0.1904E+00  0.5890E+00
     -3.284  0.1900E+00  0.5993E+00
     -3.230  0.1887E+00  0.6095E+00
     -3.176  0.1888E+00  0.6197E+00
     -3.122  0.1879E+00  0.6298E+00
     -3.068  0.1839E+00  0.6398E+00
     -3.014  0.1799E+00  0.6495E+00
     -2.960  0.1773E+00  0.6591E+00
     -2.906  0.1758E+00  0.6686E+00
     -2.852  0.1767E+00  0.6781E+00
     -2.798  0.1792E+00  0.6878E+00
     -2.744  0.1815E+00  0.6976E+00
     -2.690  0.1843E+00  0.7075E+00
     -2.636  0.1867E+00  0.7176E+00
     -2.582  0.1857E+00  0.7276E+00
     -2.528  0.1847E+00  0.7376E+00
     -2.474  0.1878E+00  0.7478E+00
     -2.420  0.1923E+00  0.7581E+00
     -2.366  0.1929E+00  0.7686E+00
     -2.312  0.1897E+00  0.7788E+00
     -2.258  0.1844E+00  0.7888E+00
     -2.204  0.1766E+00  0.7983E+00
     -2.150  0.1694E+00  0.8075E+00
     -2.096  0.1682E+00  0.8165E+00
     -2.042  0.1741E+00  0.8259E+00
     -1.988  0.1830E+00  0.8358E+00
     -1.934  0.1903E+00  0.8461E+00
     -1.880  0.1967E+00  0.8567E+00
     -1.826  0.2075E+00  0.8679E+00
     -1.772  0.2201E+00  0.8798E+00
     -1.718  0.2249E+00  0.8920E+00
     -1.664  0.2187E+00  0.9038E+00
     -1.610  0.2100E+00  0.9151E+00
     -1.556  0.2064E+00  0.9263E+00
     -1.502  0.2061E+00  0.9374E+00
     -1.448  0.2029E+00  0.9484E+00
     -1.394  0.1955E+00  0.9589E+00
     -1.340  0.1881E+00  0.9691E+00
     -1.286  0.1832E+00  0.9790E+00
     -1.232  0.1763E+00  0.9885E+00
     -1.178  0.1588E+00  0.9971E+00
     -1.124  0.1280E+00  0.1004E+01
     -1.070  0.9223E-01  0.1009E+01
     -1.016  0.6421E-01  0.1012E+01
     -0.962  0.4897E-01  0.1015E+01
     -0.908  0.4065E-01  0.1017E+01
     -0.854  0.3163E-01  0.1019E+01
     -0.800  0.2254E-01  0.1020E+01
     -0.746  0.1763E-01  0.1021E+01
     -0.692  0.1708E-01  0.1022E+01
     -0.638  0.2060E-01  0.1023E+01
     -0.584  0.2811E-01  0.1025E+01
     -0.530  0.3742E-01  0.1027E+01
     -0.476  0.4505E-01  0.1029E+01
     -0.422  0.4747E-01  0.1032E+01
     -0.368  0.4485E-01  0.1034E+01
     -0.314  0.4268E-01  0.1036E+01
     -0.260  0.4358E-01  0.1039E+01
     -0.206  0.4192E-01  0.1041E+01
     -0.152  0.3278E-01  0.1043E+01
     -0.098  0.2180E-01  0.1044E+01
     -0.044  0.1656E-01  0.1045E+01
      0.010  0.1650E-01  0.1046E+01
      0.064  0.1914E-01  0.1047E+01
      0.118  0.2427E-01  0.1048E+01
      0.172  0.2996E-01  0.1050E+01
      0.226  0.3270E-01  0.1052E+01
      0.280  0.3163E-01  0.1053E+01
      0.334  0.3104E-01  0.1055E+01
      0.388  0.3534E-01  0.1057E+01
      0.442  0.4257E-01  0.1059E+01
      0.496  0.4785E-01  0.1062E+01
      0.550  0.5068E-01  0.1064E+01
      0.604  0.5287E-01  0.1067E+01
      0.658  0.5263E-01  0.1070E+01
      0.712  0.4591E-01  0.1073E+01
      0.766  0.3627E-01  0.1075E+01
      0.820  0.3133E-01  0.1076E+01
      0.874  0.3036E-01  0.1078E+01
      0.928  0.2918E-01  0.1080E+01
      0.982  0.2747E-01  0.1081E+01
      1.036  0.2484E-01  0.1082E+01
      1.090  0.1897E-01  0.1083E+01
      1.144  0.1219E-01  0.1084E+01
      1.198  0.9925E-02  0.1085E+01
      1.252  0.1106E-01  0.1085E+01
      1.306  0.1133E-01  0.1086E+01
      1.360  0.1168E-01  0.1086E+01
      1.414  0.1549E-01  0.1087E+01
      1.468  0.2385E-01  0.1089E+01
      1.522  0.3327E-01  0.1090E+01
      1.576  0.3552E-01  0.1092E+01
      1.630  0.2979E-01  0.1094E+01
      1.684  0.2642E-01  0.1095E+01
      1.738  0.3058E-01  0.1097E+01
      1.792  0.3703E-01  0.1099E+01
      1.846  0.3799E-01  0.1101E+01
      1.900  0.3031E-01  0.1103E+01
      1.954  0.1932E-01  0.1104E+01
      2.008  0.1388E-01  0.1104E+01
      2.062  0.1610E-01  0.1105E+01
      2.116  0.2056E-01  0.1106E+01
      2.170  0.2616E-01  0.1108E+01
      2.224  0.3561E-01  0.1110E+01
      2.278  0.4501E-01  0.1112E+01
      2.332  0.4869E-01  0.1115E+01
      2.386  0.4826E-01  0.1117E+01
      2.440  0.4913E-01  0.1120E+01
      2.494  0.5010E-01  0.1123E+01
      2.548  0.4754E-01  0.1125E+01
      2.602  0.4480E-01  0.1128E+01
      2.657  0.4594E-01  0.1130E+01
      2.711  0.4708E-01  0.1133E+01
      2.765  0.4187E-01  0.1135E+01
      2.819  0.3027E-01  0.1137E+01
      2.873  0.1765E-01  0.1138E+01
      2.927  0.1041E-01  0.1138E+01
      2.981  0.1024E-01  0.1139E+01
      3.035  0.1186E-01  0.1139E+01
      3.089  0.1186E-01  0.1140E+01
      3.143  0.1466E-01  0.1141E+01
      3.197  0.2190E-01  0.1142E+01
      3.251  0.2645E-01  0.1143E+01
      3.305  0.2382E-01  0.1145E+01
      3.359  0.1884E-01  0.1146E+01
      3.413  0.1674E-01  0.1147E+01
      3.467  0.1643E-01  0.1147E+01
      3.521  0.1725E-01  0.1148E+01
      3.575  0.2286E-01  0.1150E+01
      3.629  0.3417E-01  0.1152E+01
      3.683  0.4513E-01  0.1154E+01
      3.737  0.4694E-01  0.1156E+01
      3.791  0.3888E-01  0.1159E+01
      3.845  0.2896E-01  0.1160E+01
      3.899  0.2307E-01  0.1161E+01
      3.953  0.2278E-01  0.1163E+01
      4.007  0.2753E-01  0.1164E+01
      4.061  0.3099E-01  0.1166E+01
      4.115  0.2705E-01  0.1167E+01
      4.169  0.2132E-01  0.1168E+01
      4.223  0.2097E-01  0.1170E+01
      4.277  0.2173E-01  0.1171E+01
      4.331  0.1878E-01  0.1172E+01
      4.385  0.1706E-01  0.1173E+01
      4.439  0.2115E-01  0.1174E+01
      4.493  0.2944E-01  0.1175E+01
      4.547  0.4164E-01  0.1178E+01
      4.601  0.5680E-01  0.1181E+01
      4.655  0.6625E-01  0.1184E+01
      4.709  0.6177E-01  0.1188E+01
      4.763  0.4919E-01  0.1190E+01
      4.817  0.4266E-01  0.1193E+01
      4.871  0.4534E-01  0.1195E+01
      4.925  0.4927E-01  0.1198E+01
      4.979  0.5330E-01  0.1201E+01
      5.033  0.6138E-01  0.1204E+01
      5.087  0.6843E-01  0.1208E+01
      5.141  0.6759E-01  0.1211E+01
      5.195  0.6245E-01  0.1215E+01
      5.249  0.5767E-01  0.1218E+01
      5.303  0.4933E-01  0.1220E+01
      5.357  0.3513E-01  0.1222E+01
      5.411  0.2008E-01  0.1223E+01
      5.465  0.8846E-02  0.1224E+01
      5.519  0.2747E-02  0.1224E+01
      5.573  0.5500E-03  0.1224E+01
      5.627  0.6714E-04  0.1224E+01
      5.681  0.4851E-05  0.1224E+01
      5.735  0.2044E-06  0.1224E+01
      5.789  0.4972E-08  0.1224E+01
      5.843  0.6942E-10  0.1224E+01
      5.897  0.5536E-12  0.1224E+01
      5.951  0.2512E-14  0.1224E+01
      6.005  0.5482E-17  0.1224E+01
      6.059  0.0000E+00  0.1224E+01
      6.113  0.0000E+00  0.1224E+01
      6.167  0.0000E+00  0.1224E+01
      6.221  0.0000E+00  0.1224E+01
      6.275  0.0000E+00  0.1224E+01
      6.329  0.0000E+00  0.1224E+01
      6.383  0.0000E+00  0.1224E+01
