       N       E                     dE             d eps       ncg     rms          rms(c)
DAV:   1     0.320043769202E+04    0.32004E+04   -0.18978E+05  3672   0.112E+03
DAV:   2     0.153722714794E+02   -0.31851E+04   -0.29280E+04  4380   0.263E+02
DAV:   3    -0.200549431806E+03   -0.21592E+03   -0.20042E+03  4128   0.652E+01
DAV:   4    -0.206410012660E+03   -0.58606E+01   -0.57936E+01  4200   0.109E+01
DAV:   5    -0.206607136889E+03   -0.19712E+00   -0.19649E+00  4404   0.201E+00    0.624E+01
RMM:   6    -0.215591235423E+03   -0.89841E+01   -0.10690E+02  3672   0.158E+01    0.626E+01
RMM:   7    -0.217770770383E+03   -0.21795E+01   -0.61475E+01  3682   0.118E+01    0.542E+01
RMM:   8    -0.212334318892E+03    0.54365E+01   -0.92449E+01  3678   0.143E+01    0.379E+01
RMM:   9    -0.206444410666E+03    0.58899E+01   -0.29145E+01  3679   0.892E+00    0.343E+01
RMM:  10    -0.203678575172E+03    0.27658E+01   -0.25153E+01  3682   0.827E+00    0.247E+01
RMM:  11    -0.197737610441E+03    0.59410E+01   -0.12258E+01  3681   0.569E+00    0.218E+01
RMM:  12    -0.191499393711E+03    0.62382E+01   -0.62651E+00  3682   0.399E+00    0.123E+01
RMM:  13    -0.189929108982E+03    0.15703E+01   -0.12271E+00  3680   0.168E+00    0.828E+00
RMM:  14    -0.189555117623E+03    0.37399E+00   -0.53570E-01  3680   0.107E+00    0.759E+00
RMM:  15    -0.189316824631E+03    0.23829E+00   -0.24470E-01  3679   0.751E-01    0.626E+00
RMM:  16    -0.189315040165E+03    0.17845E-02   -0.43409E-01  3679   0.101E+00    0.600E+00
RMM:  17    -0.189140582883E+03    0.17446E+00   -0.61673E-01  3681   0.117E+00    0.476E+00
RMM:  18    -0.188866129648E+03    0.27445E+00   -0.23776E-01  3680   0.739E-01    0.261E+00
RMM:  19    -0.188799265323E+03    0.66864E-01   -0.96570E-02  3680   0.457E-01    0.182E+00
RMM:  20    -0.188784409739E+03    0.14856E-01   -0.33404E-02  3682   0.270E-01    0.140E+00
RMM:  21    -0.188775860202E+03    0.85495E-02   -0.67956E-03  3682   0.118E-01    0.120E+00
RMM:  22    -0.188764206921E+03    0.11653E-01   -0.10487E-02  3678   0.151E-01    0.896E-01
RMM:  23    -0.188756801500E+03    0.74054E-02   -0.73199E-03  3678   0.125E-01    0.563E-01
RMM:  24    -0.188754145901E+03    0.26556E-02   -0.34903E-03  3684   0.888E-02    0.318E-01
RMM:  25    -0.188753077562E+03    0.10683E-02   -0.19209E-03  3680   0.639E-02    0.168E-01
RMM:  26    -0.188753022038E+03    0.55524E-04   -0.51842E-04  3680   0.336E-02    0.113E-01
RMM:  27    -0.188753164118E+03   -0.14208E-03   -0.30252E-04  3682   0.257E-02    0.586E-02
RMM:  28    -0.188753578674E+03   -0.41456E-03   -0.14792E-04  3682   0.175E-02    0.563E-02
RMM:  29    -0.188753772556E+03   -0.19388E-03   -0.75783E-05  3678   0.123E-02    0.301E-02
RMM:  30    -0.188754289862E+03   -0.51731E-03   -0.36342E-05  3672   0.859E-03    0.281E-02
RMM:  31    -0.188754938179E+03   -0.64832E-03   -0.51680E-05  3672   0.988E-03    0.263E-02
RMM:  32    -0.188755565760E+03   -0.62758E-03   -0.42771E-05  3663   0.825E-03    0.178E-02
RMM:  33    -0.188755819926E+03   -0.25417E-03   -0.15581E-05  3114   0.517E-03    0.125E-02
RMM:  34    -0.188756117483E+03   -0.29756E-03   -0.15807E-05  3057   0.500E-03    0.580E-03
RMM:  35    -0.188756236560E+03   -0.11908E-03   -0.55494E-06  2681   0.299E-03    0.544E-03
RMM:  36    -0.188756328962E+03   -0.92401E-04   -0.30047E-06  2460   0.229E-03    0.317E-03
RMM:  37    -0.188756386181E+03   -0.57219E-04   -0.11768E-06  2197   0.151E-03    0.386E-03
RMM:  38    -0.188756423783E+03   -0.37602E-04   -0.66390E-07  2148   0.112E-03    0.297E-03
RMM:  39    -0.188756457923E+03   -0.34140E-04   -0.70409E-07  2162   0.106E-03    0.177E-03
RMM:  40    -0.188756467846E+03   -0.99226E-05   -0.32990E-07  1545   0.687E-04    0.140E-03
RMM:  41    -0.188756471902E+03   -0.40555E-05   -0.16478E-07  1568   0.567E-04    0.989E-04
RMM:  42    -0.188756474717E+03   -0.28150E-05   -0.64659E-08  1092   0.399E-04    0.759E-04
RMM:  43    -0.188756477088E+03   -0.23719E-05   -0.57619E-08  1041   0.372E-04    0.518E-04
RMM:  44    -0.188756478668E+03   -0.15799E-05   -0.46703E-08   802   0.338E-04    0.288E-04
RMM:  45    -0.188756479406E+03   -0.73794E-06   -0.13607E-08   513   0.309E-04
   1 F= -.18875648E+03 E0= -.18863589E+03  d E =-.188756E+03
       N       E                     dE             d eps       ncg     rms          rms(c)
DAV:   1    -0.189239589651E+03   -0.48311E+00   -0.14922E+02  3672   0.187E+01    0.184E+00
RMM:   2    -0.189410653699E+03   -0.17106E+00   -0.16512E+00  3684   0.273E+00    0.159E+00
RMM:   3    -0.189465093599E+03   -0.54440E-01   -0.14959E-01  3699   0.654E-01    0.264E+00
RMM:   4    -0.189394811431E+03    0.70282E-01   -0.50265E-02  3687   0.362E-01    0.114E+00
RMM:   5    -0.189388624621E+03    0.61868E-02   -0.24598E-02  3681   0.252E-01    0.787E-01
RMM:   6    -0.189389655172E+03   -0.10306E-02   -0.20129E-02  3685   0.226E-01    0.756E-01
RMM:   7    -0.189383919201E+03    0.57360E-02   -0.78089E-03  3681   0.141E-01    0.290E-01
RMM:   8    -0.189383146125E+03    0.77308E-03   -0.16378E-03  3681   0.631E-02    0.203E-01
RMM:   9    -0.189382713047E+03    0.43308E-03   -0.71782E-04  3682   0.423E-02    0.994E-02
RMM:  10    -0.189382618682E+03    0.94366E-04   -0.28539E-04  3681   0.261E-02    0.626E-02
RMM:  11    -0.189382587830E+03    0.30851E-04   -0.95046E-05  3687   0.152E-02    0.391E-02
RMM:  12    -0.189382584325E+03    0.35052E-05   -0.33429E-05  3676   0.916E-03    0.315E-02
RMM:  13    -0.189382579477E+03    0.48486E-05   -0.14368E-05  3661   0.612E-03    0.183E-02
RMM:  14    -0.189382577793E+03    0.16834E-05   -0.52618E-06  2904   0.372E-03    0.972E-03
RMM:  15    -0.189382577767E+03    0.26601E-07   -0.15638E-06  2083   0.220E-03
   2 F= -.18938258E+03 E0= -.18926414E+03  d E =-.626098E+00
       N       E                     dE             d eps       ncg     rms          rms(c)
DAV:   1    -0.189169415155E+03    0.21316E+00   -0.13840E+03  3672   0.577E+01    0.485E+00
RMM:   2    -0.190646363860E+03   -0.14769E+01   -0.14741E+01  3683   0.818E+00    0.388E+00
RMM:   3    -0.191045736689E+03   -0.39937E+00   -0.11213E+00  3696   0.180E+00    0.722E+00
RMM:   4    -0.190538212214E+03    0.50752E+00   -0.33291E-01  3687   0.943E-01    0.283E+00
RMM:   5    -0.190500590976E+03    0.37621E-01   -0.15536E-01  3681   0.624E-01    0.220E+00
RMM:   6    -0.190505260614E+03   -0.46696E-02   -0.18061E-01  3684   0.661E-01    0.195E+00
RMM:   7    -0.190461085380E+03    0.44175E-01   -0.68962E-02  3681   0.417E-01    0.890E-01
RMM:   8    -0.190453485011E+03    0.76004E-02   -0.16913E-02  3682   0.202E-01    0.611E-01
RMM:   9    -0.190449346449E+03    0.41386E-02   -0.66559E-03  3682   0.128E-01    0.288E-01
RMM:  10    -0.190448482647E+03    0.86380E-03   -0.21200E-03  3682   0.706E-02    0.170E-01
RMM:  11    -0.190448399584E+03    0.83063E-04   -0.86281E-04  3687   0.453E-02    0.147E-01
RMM:  12    -0.190448266990E+03    0.13259E-03   -0.41091E-04  3685   0.322E-02    0.844E-02
RMM:  13    -0.190448238913E+03    0.28077E-04   -0.14910E-04  3683   0.194E-02    0.530E-02
RMM:  14    -0.190448220718E+03    0.18195E-04   -0.44782E-05  3675   0.107E-02    0.260E-02
RMM:  15    -0.190448221957E+03   -0.12385E-05   -0.12899E-05  3597   0.571E-03    0.163E-02
RMM:  16    -0.190448224313E+03   -0.23566E-05   -0.49242E-06  2952   0.361E-03    0.623E-03
RMM:  17    -0.190448229487E+03   -0.51735E-05   -0.18294E-06  2112   0.234E-03    0.519E-03
RMM:  18    -0.190448237041E+03   -0.75541E-05   -0.11951E-06  2096   0.197E-03    0.290E-03
RMM:  19    -0.190448241027E+03   -0.39855E-05   -0.39265E-07  2039   0.112E-03    0.217E-03
RMM:  20    -0.190448245180E+03   -0.41538E-05   -0.14657E-07  1789   0.628E-04    0.147E-03
RMM:  21    -0.190448250118E+03   -0.49375E-05   -0.11832E-07  1366   0.521E-04    0.166E-03
RMM:  22    -0.190448256947E+03   -0.68293E-05   -0.21778E-07  1870   0.592E-04    0.134E-03
RMM:  23    -0.190448263262E+03   -0.63149E-05   -0.26084E-07  1556   0.591E-04    0.128E-03
RMM:  24    -0.190448265950E+03   -0.26880E-05   -0.16489E-07  1483   0.504E-04    0.863E-04
RMM:  25    -0.190448267387E+03   -0.14364E-05   -0.68510E-08   940   0.379E-04    0.609E-04
RMM:  26    -0.190448268255E+03   -0.86875E-06   -0.49007E-08   832   0.362E-04
   3 F= -.19044827E+03 E0= -.19033623E+03  d E =-.169179E+01
       N       E                     dE             d eps       ncg     rms          rms(c)
DAV:   1    -0.190295313950E+03    0.15295E+00   -0.31678E+02  3672   0.272E+01    0.205E+00
RMM:   2    -0.190667241576E+03   -0.37193E+00   -0.35038E+00  3684   0.397E+00    0.233E+00
RMM:   3    -0.190685076892E+03   -0.17835E-01   -0.25462E-01  3703   0.864E-01    0.260E+00
RMM:   4    -0.190620084972E+03    0.64992E-01   -0.56828E-02  3687   0.396E-01    0.134E+00
RMM:   5    -0.190607801254E+03    0.12284E-01   -0.28247E-02  3681   0.269E-01    0.936E-01
RMM:   6    -0.190610272225E+03   -0.24710E-02   -0.49268E-02  3684   0.344E-01    0.940E-01
RMM:   7    -0.190600771694E+03    0.95005E-02   -0.16747E-02  3681   0.204E-01    0.412E-01
RMM:   8    -0.190598906751E+03    0.18649E-02   -0.33430E-03  3682   0.897E-02    0.260E-01
RMM:   9    -0.190598125914E+03    0.78084E-03   -0.13770E-03  3682   0.583E-02    0.141E-01
RMM:  10    -0.190597923852E+03    0.20206E-03   -0.46049E-04  3681   0.327E-02    0.868E-02
RMM:  11    -0.190597860993E+03    0.62859E-04   -0.22316E-04  3683   0.229E-02    0.595E-02
RMM:  12    -0.190597841161E+03    0.19832E-04   -0.11641E-04  3684   0.165E-02    0.351E-02
RMM:  13    -0.190597836152E+03    0.50088E-05   -0.37565E-05  3679   0.958E-03    0.214E-02
RMM:  14    -0.190597834928E+03    0.12242E-05   -0.79959E-06  3292   0.462E-03    0.120E-02
RMM:  15    -0.190597835000E+03   -0.71712E-07   -0.20132E-06  2218   0.245E-03
   4 F= -.19059783E+03 E0= -.19048877E+03  d E =-.184136E+01
       N       E                     dE             d eps       ncg     rms          rms(c)
DAV:   1    -0.190939817633E+03   -0.34198E+00   -0.24200E+02  3672   0.240E+01    0.186E+00
RMM:   2    -0.191208718729E+03   -0.26890E+00   -0.26356E+00  3685   0.347E+00    0.162E+00
RMM:   3    -0.191269936659E+03   -0.61218E-01   -0.19669E-01  3693   0.749E-01    0.295E+00
RMM:   4    -0.191184720680E+03    0.85216E-01   -0.39775E-02  3687   0.340E-01    0.107E+00
RMM:   5    -0.191183730459E+03    0.99022E-03   -0.25092E-02  3682   0.253E-01    0.102E+00
RMM:   6    -0.191179146579E+03    0.45839E-02   -0.30949E-02  3683   0.274E-01    0.706E-01
RMM:   7    -0.191173973871E+03    0.51727E-02   -0.10828E-02  3683   0.163E-01    0.360E-01
RMM:   8    -0.191172558211E+03    0.14157E-02   -0.21490E-03  3685   0.732E-02    0.176E-01
RMM:   9    -0.191172172151E+03    0.38606E-03   -0.73513E-04  3679   0.436E-02    0.997E-02
RMM:  10    -0.191172085946E+03    0.86205E-04   -0.22185E-04  3679   0.231E-02    0.688E-02
RMM:  11    -0.191172048165E+03    0.37781E-04   -0.11577E-04  3680   0.167E-02    0.485E-02
RMM:  12    -0.191172035178E+03    0.12987E-04   -0.78992E-05  3681   0.136E-02    0.296E-02
RMM:  13    -0.191172032379E+03    0.27988E-05   -0.26022E-05  3676   0.799E-03    0.174E-02
RMM:  14    -0.191172032399E+03   -0.20162E-07   -0.45030E-06  2804   0.354E-03
   5 F= -.19117203E+03 E0= -.19106395E+03  d E =-.574197E+00
       N       E                     dE             d eps       ncg     rms          rms(c)
DAV:   1    -0.190418267680E+03    0.75376E+00   -0.15465E+03  3672   0.613E+01    0.399E+00
RMM:   2    -0.192047474197E+03   -0.16292E+01   -0.16224E+01  3685   0.864E+00    0.362E+00
RMM:   3    -0.192277763975E+03   -0.23029E+00   -0.10284E+00  3694   0.173E+00    0.620E+00
RMM:   4    -0.191923518076E+03    0.35425E+00   -0.17921E-01  3687   0.725E-01    0.240E+00
RMM:   5    -0.191910210137E+03    0.13308E-01   -0.94157E-02  3683   0.488E-01    0.229E+00
RMM:   6    -0.191886098261E+03    0.24112E-01   -0.19948E-01  3681   0.689E-01    0.169E+00
RMM:   7    -0.191858287128E+03    0.27811E-01   -0.79404E-02  3681   0.436E-01    0.988E-01
RMM:   8    -0.191848162294E+03    0.10125E-01   -0.17233E-02  3684   0.208E-01    0.480E-01
RMM:   9    -0.191845474609E+03    0.26877E-02   -0.44830E-03  3680   0.107E-01    0.282E-01
RMM:  10    -0.191844629922E+03    0.84469E-03   -0.19224E-03  3680   0.680E-02    0.196E-01
RMM:  11    -0.191844359446E+03    0.27048E-03   -0.14837E-03  3680   0.591E-02    0.161E-01
RMM:  12    -0.191844152235E+03    0.20721E-03   -0.75059E-04  3680   0.423E-02    0.830E-02
RMM:  13    -0.191844126184E+03    0.26051E-04   -0.18331E-04  3682   0.212E-02    0.492E-02
RMM:  14    -0.191844111147E+03    0.15037E-04   -0.34838E-05  3676   0.966E-03    0.262E-02
RMM:  15    -0.191844111338E+03   -0.19091E-06   -0.13354E-05  3663   0.580E-03    0.120E-02
RMM:  16    -0.191844114864E+03   -0.35255E-05   -0.38924E-06  2721   0.318E-03    0.586E-03
RMM:  17    -0.191844123566E+03   -0.87021E-05   -0.15671E-06  2125   0.219E-03    0.421E-03
RMM:  18    -0.191844129222E+03   -0.56567E-05   -0.81312E-07  2073   0.164E-03    0.257E-03
RMM:  19    -0.191844135079E+03   -0.58568E-05   -0.42129E-07  2074   0.110E-03    0.196E-03
RMM:  20    -0.191844139004E+03   -0.39248E-05   -0.19968E-07  1985   0.723E-04    0.129E-03
RMM:  21    -0.191844146778E+03   -0.77745E-05   -0.22271E-07  1539   0.611E-04    0.143E-03
RMM:  22    -0.191844151685E+03   -0.49069E-05   -0.19740E-07  1676   0.589E-04    0.126E-03
RMM:  23    -0.191844158168E+03   -0.64829E-05   -0.35625E-07  1657   0.660E-04    0.977E-04
RMM:  24    -0.191844159646E+03   -0.14776E-05   -0.11126E-07  1073   0.441E-04    0.688E-04
RMM:  25    -0.191844160996E+03   -0.13500E-05   -0.83403E-08  1049   0.428E-04    0.501E-04
RMM:  26    -0.191844161465E+03   -0.46913E-06   -0.33387E-08   715   0.367E-04
   6 F= -.19184416E+03 E0= -.19173877E+03  d E =-.124633E+01
       N       E                     dE             d eps       ncg     rms          rms(c)
DAV:   1    -0.191814878770E+03    0.29282E-01   -0.47246E+01  3696   0.106E+01    0.673E-01
RMM:   2    -0.191870633497E+03   -0.55755E-01   -0.52905E-01  3685   0.155E+00    0.825E-01
RMM:   3    -0.191873377394E+03   -0.27439E-02   -0.36816E-02  3698   0.328E-01    0.982E-01
RMM:   4    -0.191863474369E+03    0.99030E-02   -0.52235E-03  3685   0.127E-01    0.410E-01
RMM:   5    -0.191862942509E+03    0.53186E-03   -0.24703E-03  3682   0.811E-02    0.365E-01
RMM:   6    -0.191862433102E+03    0.50941E-03   -0.68014E-03  3681   0.128E-01    0.300E-01
RMM:   7    -0.191861575795E+03    0.85731E-03   -0.23212E-03  3681   0.747E-02    0.151E-01
RMM:   8    -0.191861361489E+03    0.21431E-03   -0.36732E-04  3686   0.307E-02    0.795E-02
RMM:   9    -0.191861292791E+03    0.68698E-04   -0.12195E-04  3680   0.178E-02    0.472E-02
RMM:  10    -0.191861272279E+03    0.20512E-04   -0.49128E-05  3678   0.107E-02    0.308E-02
RMM:  11    -0.191861264433E+03    0.78457E-05   -0.28443E-05  3675   0.815E-03    0.195E-02
RMM:  12    -0.191861262966E+03    0.14670E-05   -0.21724E-05  3676   0.705E-03    0.116E-02
RMM:  13    -0.191861262894E+03    0.71697E-07   -0.47342E-06  2828   0.351E-03
   7 F= -.19186126E+03 E0= -.19175631E+03  d E =-.126343E+01
       N       E                     dE             d eps       ncg     rms          rms(c)
DAV:   1    -0.191886664195E+03   -0.25401E-01   -0.20867E+02  3672   0.223E+01    0.161E+00
RMM:   2    -0.192128031880E+03   -0.24137E+00   -0.22943E+00  3685   0.324E+00    0.166E+00
RMM:   3    -0.192165641801E+03   -0.37610E-01   -0.16895E-01  3693   0.689E-01    0.258E+00
RMM:   4    -0.192100124353E+03    0.65517E-01   -0.28759E-02  3685   0.292E-01    0.966E-01
RMM:   5    -0.192098065820E+03    0.20585E-02   -0.15049E-02  3682   0.197E-01    0.841E-01
RMM:   6    -0.192094752024E+03    0.33138E-02   -0.26772E-02  3681   0.255E-01    0.609E-01
RMM:   7    -0.192091039961E+03    0.37121E-02   -0.87001E-03  3681   0.146E-01    0.290E-01
RMM:   8    -0.192090112640E+03    0.92732E-03   -0.16029E-03  3685   0.637E-02    0.162E-01
RMM:   9    -0.192089825898E+03    0.28674E-03   -0.49852E-04  3681   0.360E-02    0.908E-02
RMM:  10    -0.192089742437E+03    0.83461E-04   -0.15153E-04  3679   0.191E-02    0.534E-02
RMM:  11    -0.192089721763E+03    0.20675E-04   -0.10153E-04  3681   0.154E-02    0.412E-02
RMM:  12    -0.192089708644E+03    0.13118E-04   -0.68545E-05  3679   0.127E-02    0.225E-02
RMM:  13    -0.192089708843E+03   -0.19900E-06   -0.18743E-05  3669   0.676E-03    0.147E-02
RMM:  14    -0.192089708145E+03    0.69832E-06   -0.30229E-06  2487   0.299E-03
   8 F= -.19208971E+03 E0= -.19198449E+03  d E =-.228445E+00
       N       E                     dE             d eps       ncg     rms          rms(c)
DAV:   1    -0.192020429331E+03    0.69280E-01   -0.12113E+02  3672   0.170E+01    0.115E+00
RMM:   2    -0.192164188801E+03   -0.14376E+00   -0.13434E+00  3685   0.248E+00    0.138E+00
RMM:   3    -0.192174458940E+03   -0.10270E-01   -0.96285E-02  3693   0.523E-01    0.174E+00
RMM:   4    -0.192144835590E+03    0.29623E-01   -0.14529E-02  3685   0.209E-01    0.704E-01
RMM:   5    -0.192143327083E+03    0.15085E-02   -0.74054E-03  3681   0.139E-01    0.611E-01
RMM:   6    -0.192141572962E+03    0.17541E-02   -0.16138E-02  3681   0.198E-01    0.467E-01
RMM:   7    -0.192139477337E+03    0.20956E-02   -0.54073E-03  3681   0.115E-01    0.211E-01
RMM:   8    -0.192139019124E+03    0.45821E-03   -0.84889E-04  3685   0.465E-02    0.124E-01
RMM:   9    -0.192138853875E+03    0.16525E-03   -0.27011E-04  3681   0.266E-02    0.708E-02
RMM:  10    -0.192138806546E+03    0.47329E-04   -0.86446E-05  3680   0.143E-02    0.433E-02
RMM:  11    -0.192138791975E+03    0.14571E-04   -0.63588E-05  3680   0.121E-02    0.315E-02
RMM:  12    -0.192138784742E+03    0.72340E-05   -0.46915E-05  3680   0.104E-02    0.168E-02
RMM:  13    -0.192138785823E+03   -0.10815E-05   -0.11767E-05  3655   0.536E-03    0.116E-02
RMM:  14    -0.192138785790E+03    0.33142E-07   -0.17527E-06  2122   0.234E-03
   9 F= -.19213879E+03 E0= -.19203334E+03  d E =-.277523E+00
       N       E                     dE             d eps       ncg     rms          rms(c)
DAV:   1    -0.192143053095E+03   -0.42673E-02   -0.33343E+01  3696   0.885E+00    0.663E-01
RMM:   2    -0.192186809262E+03   -0.43756E-01   -0.40544E-01  3683   0.131E+00    0.865E-01
RMM:   3    -0.192188339598E+03   -0.15303E-02   -0.31967E-02  3693   0.292E-01    0.938E-01
RMM:   4    -0.192179807005E+03    0.85326E-02   -0.50895E-03  3685   0.121E-01    0.408E-01
RMM:   5    -0.192178958370E+03    0.84863E-03   -0.21218E-03  3680   0.746E-02    0.297E-01
RMM:   6    -0.192179099792E+03   -0.14142E-03   -0.47122E-03  3679   0.106E-01    0.281E-01
RMM:   7    -0.192178266919E+03    0.83287E-03   -0.19155E-03  3679   0.678E-02    0.111E-01
RMM:   8    -0.192178156460E+03    0.11046E-03   -0.28212E-04  3685   0.265E-02    0.782E-02
RMM:   9    -0.192178079947E+03    0.76514E-04   -0.98773E-05  3681   0.158E-02    0.352E-02
RMM:  10    -0.192178069186E+03    0.10760E-04   -0.25091E-05  3672   0.764E-03    0.232E-02
RMM:  11    -0.192178065475E+03    0.37108E-05   -0.15470E-05  3659   0.584E-03    0.153E-02
RMM:  12    -0.192178064602E+03    0.87374E-06   -0.15007E-05  3667   0.580E-03    0.897E-03
RMM:  13    -0.192178065215E+03   -0.61339E-06   -0.32441E-06  2538   0.290E-03
  10 F= -.19217807E+03 E0= -.19207290E+03  d E =-.392794E-01
       N       E                     dE             d eps       ncg     rms          rms(c)
DAV:   1    -0.192169820335E+03    0.82443E-02   -0.13969E+01  3708   0.573E+00    0.420E-01
RMM:   2    -0.192188281497E+03   -0.18461E-01   -0.17044E-01  3683   0.852E-01    0.577E-01
RMM:   3    -0.192188385739E+03   -0.10424E-03   -0.13337E-02  3693   0.189E-01    0.580E-01
RMM:   4    -0.192185154601E+03    0.32311E-02   -0.20300E-03  3685   0.765E-02    0.259E-01
RMM:   5    -0.192184838512E+03    0.31609E-03   -0.85503E-04  3680   0.474E-02    0.192E-01
RMM:   6    -0.192184930435E+03   -0.91923E-04   -0.19615E-03  3679   0.683E-02    0.182E-01
RMM:   7    -0.192184591488E+03    0.33895E-03   -0.83851E-04  3680   0.448E-02    0.703E-02
RMM:   8    -0.192184551655E+03    0.39833E-04   -0.11522E-04  3685   0.170E-02    0.517E-02
RMM:   9    -0.192184518266E+03    0.33389E-04   -0.41054E-05  3675   0.102E-02    0.232E-02
RMM:  10    -0.192184513919E+03    0.43470E-05   -0.11011E-05  3634   0.506E-03    0.156E-02
RMM:  11    -0.192184512189E+03    0.17301E-05   -0.67945E-06  3223   0.391E-03    0.987E-03
RMM:  12    -0.192184512082E+03    0.10693E-06   -0.66057E-06  3518   0.395E-03
  11 F= -.19218451E+03 E0= -.19207951E+03  d E =-.457263E-01
       N       E                     dE             d eps       ncg     rms          rms(c)
DAV:   1    -0.192186152331E+03   -0.16401E-02   -0.85698E+00  3684   0.445E+00    0.331E-01
RMM:   2    -0.192197817409E+03   -0.11665E-01   -0.10751E-01  3684   0.668E-01    0.464E-01
RMM:   3    -0.192197476307E+03    0.34110E-03   -0.81785E-03  3693   0.147E-01    0.407E-01
RMM:   4    -0.192195888252E+03    0.15881E-02   -0.13390E-03  3685   0.613E-02    0.207E-01
RMM:   5    -0.192195648939E+03    0.23931E-03   -0.55282E-04  3681   0.383E-02    0.149E-01
RMM:   6    -0.192195792024E+03   -0.14309E-03   -0.14016E-03  3679   0.569E-02    0.156E-01
RMM:   7    -0.192195525991E+03    0.26603E-03   -0.59491E-04  3679   0.374E-02    0.657E-02
RMM:   8    -0.192195494052E+03    0.31939E-04   -0.89928E-05  3684   0.149E-02    0.442E-02
RMM:   9    -0.192195466828E+03    0.27224E-04   -0.34757E-05  3672   0.914E-03    0.212E-02
RMM:  10    -0.192195462220E+03    0.46089E-05   -0.10647E-05  3616   0.494E-03    0.141E-02
RMM:  11    -0.192195460495E+03    0.17249E-05   -0.66954E-06  3088   0.386E-03    0.883E-03
RMM:  12    -0.192195460295E+03    0.19973E-06   -0.58425E-06  3012   0.371E-03
  12 F= -.19219546E+03 E0= -.19209103E+03  d E =-.109482E-01
       N       E                     dE             d eps       ncg     rms          rms(c)
DAV:   1    -0.192192668364E+03    0.27921E-02   -0.43668E+00  3720   0.318E+00    0.234E-01
RMM:   2    -0.192198630490E+03   -0.59621E-02   -0.54871E-02  3684   0.477E-01    0.336E-01
RMM:   3    -0.192198365141E+03    0.26535E-03   -0.41589E-03  3693   0.105E-01    0.283E-01
RMM:   4    -0.192197609136E+03    0.75601E-03   -0.66829E-04  3685   0.433E-02    0.147E-01
RMM:   5    -0.192197494640E+03    0.11450E-03   -0.27857E-04  3681   0.272E-02    0.107E-01
RMM:   6    -0.192197580657E+03   -0.86018E-04   -0.71411E-04  3679   0.406E-02    0.112E-01
RMM:   7    -0.192197443994E+03    0.13666E-03   -0.31368E-04  3679   0.271E-02    0.467E-02
RMM:   8    -0.192197428522E+03    0.15473E-04   -0.45745E-05  3675   0.107E-02    0.320E-02
RMM:   9    -0.192197414507E+03    0.14015E-04   -0.17697E-05  3661   0.653E-03    0.154E-02
RMM:  10    -0.192197412184E+03    0.23227E-05   -0.53892E-06  2908   0.357E-03    0.104E-02
RMM:  11    -0.192197411309E+03    0.87503E-06   -0.37070E-06  2631   0.305E-03
  13 F= -.19219741E+03 E0= -.19209338E+03  d E =-.128992E-01
       N       E                     dE             d eps       ncg     rms          rms(c)
DAV:   1    -0.192196317876E+03    0.10943E-02   -0.40451E+00  3672   0.308E+00    0.212E-01
RMM:   2    -0.192201685646E+03   -0.53678E-02   -0.49631E-02  3683   0.459E-01    0.312E-01
RMM:   3    -0.192201458609E+03    0.22704E-03   -0.36566E-03  3691   0.991E-02    0.267E-01
RMM:   4    -0.192200764912E+03    0.69370E-03   -0.56922E-04  3684   0.400E-02    0.131E-01
RMM:   5    -0.192200665122E+03    0.99790E-04   -0.21159E-04  3678   0.238E-02    0.941E-02
RMM:   6    -0.192200730148E+03   -0.65026E-04   -0.60907E-04  3676   0.377E-02    0.103E-01
RMM:   7    -0.192200629748E+03    0.10040E-03   -0.27884E-04  3678   0.257E-02    0.439E-02
RMM:   8    -0.192200615406E+03    0.14342E-04   -0.42448E-05  3676   0.104E-02    0.292E-02
RMM:   9    -0.192200602939E+03    0.12466E-04   -0.15332E-05  3662   0.610E-03    0.139E-02
RMM:  10    -0.192200601130E+03    0.18096E-05   -0.44471E-06  2805   0.327E-03    0.982E-03
RMM:  11    -0.192200600228E+03    0.90158E-06   -0.35789E-06  2512   0.306E-03
  14 F= -.19220060E+03 E0= -.19209678E+03  d E =-.318892E-02
       N       E                     dE             d eps       ncg     rms          rms(c)
DAV:   1    -0.192200582869E+03    0.18261E-04   -0.29882E-02  3804   0.265E-01    0.188E-02
RMM:   2    -0.192200627953E+03   -0.45084E-04   -0.37954E-04  3684   0.400E-02    0.354E-02
RMM:   3    -0.192200618568E+03    0.93844E-05   -0.29893E-05  3671   0.896E-03    0.207E-02
RMM:   4    -0.192200615178E+03    0.33899E-05   -0.42891E-06  2773   0.359E-03    0.120E-02
RMM:   5    -0.192200614518E+03    0.66014E-06   -0.17708E-06  2081   0.242E-03
  15 F= -.19220061E+03 E0= -.19209682E+03  d E =-.320321E-02
       N       E                     dE             d eps       ncg     rms          rms(c)
DAV:   1    -0.192200670233E+03   -0.55055E-04   -0.12946E+00  3672   0.175E+00    0.123E-01
RMM:   2    -0.192202235461E+03   -0.15652E-02   -0.15195E-02  3683   0.258E-01    0.154E-01
RMM:   3    -0.192202272956E+03   -0.37496E-04   -0.11187E-03  3691   0.554E-02    0.164E-01
RMM:   4    -0.192202053824E+03    0.21913E-03   -0.17748E-04  3685   0.223E-02    0.804E-02
RMM:   5    -0.192202032863E+03    0.20962E-04   -0.10511E-04  3679   0.163E-02    0.675E-02
RMM:   6    -0.192202049156E+03   -0.16293E-04   -0.19351E-04  3681   0.213E-02    0.669E-02
RMM:   7    -0.192202005273E+03    0.43883E-04   -0.91409E-05  3680   0.149E-02    0.195E-02
RMM:   8    -0.192202003587E+03    0.16857E-05   -0.10341E-05  3358   0.521E-03    0.155E-02
RMM:   9    -0.192202000306E+03    0.32809E-05   -0.36001E-06  2660   0.311E-03    0.799E-03
RMM:  10    -0.192201999644E+03    0.66277E-06   -0.18434E-06  1974   0.229E-03
  16 F= -.19220200E+03 E0= -.19209820E+03  d E =-.138513E-02
       N       E                     dE             d eps       ncg     rms          rms(c)
DAV:   1    -0.192201192313E+03    0.80799E-03   -0.88739E-01  3672   0.145E+00    0.102E-01
RMM:   2    -0.192202302079E+03   -0.11098E-02   -0.10540E-02  3683   0.214E-01    0.134E-01
RMM:   3    -0.192202309294E+03   -0.72142E-05   -0.78455E-04  3692   0.461E-02    0.138E-01
RMM:   4    -0.192202140246E+03    0.16905E-03   -0.12426E-04  3684   0.187E-02    0.636E-02
RMM:   5    -0.192202129309E+03    0.10937E-04   -0.72320E-05  3679   0.136E-02    0.547E-02
RMM:   6    -0.192202139962E+03   -0.10654E-04   -0.13105E-04  3682   0.176E-02    0.522E-02
RMM:   7    -0.192202114892E+03    0.25071E-04   -0.59708E-05  3679   0.120E-02    0.184E-02
RMM:   8    -0.192202113280E+03    0.16118E-05   -0.82704E-06  3089   0.465E-03    0.133E-02
RMM:   9    -0.192202110738E+03    0.25416E-05   -0.25807E-06  2302   0.270E-03    0.693E-03
RMM:  10    -0.192202110305E+03    0.43352E-06   -0.12505E-06  1948   0.194E-03
  17 F= -.19220211E+03 E0= -.19209831E+03  d E =-.149579E-02
       N       E                     dE             d eps       ncg     rms          rms(c)
DAV:   1    -0.192202061056E+03    0.49682E-04   -0.11140E-01  3708   0.514E-01    0.354E-02
RMM:   2    -0.192202194957E+03   -0.13390E-03   -0.12957E-03  3684   0.754E-02    0.439E-02
RMM:   3    -0.192202196440E+03   -0.14831E-05   -0.93732E-05  3692   0.160E-02    0.468E-02
RMM:   4    -0.192202178342E+03    0.18099E-04   -0.14967E-05  3660   0.648E-03    0.230E-02
RMM:   5    -0.192202177158E+03    0.11837E-05   -0.87815E-06  3365   0.476E-03    0.192E-02
RMM:   6    -0.192202179816E+03   -0.26575E-05   -0.17433E-05  3671   0.646E-03    0.189E-02
RMM:   7    -0.192202176901E+03    0.29147E-05   -0.76551E-06  3176   0.434E-03    0.712E-03
RMM:   8    -0.192202176736E+03    0.16509E-06   -0.11403E-06  1956   0.191E-03
  18 F= -.19220218E+03 E0= -.19209838E+03  d E =-.156222E-02
       N       E                     dE             d eps       ncg     rms          rms(c)
DAV:   1    -0.192202049581E+03    0.12732E-03   -0.66902E-01  3672   0.126E+00    0.795E-02
RMM:   2    -0.192202831176E+03   -0.78159E-03   -0.77859E-03  3683   0.185E-01    0.944E-02
RMM:   3    -0.192202864190E+03   -0.33015E-04   -0.53552E-04  3693   0.386E-02    0.112E-01
RMM:   4    -0.192202745224E+03    0.11897E-03   -0.77086E-05  3685   0.148E-02    0.507E-02
RMM:   5    -0.192202739280E+03    0.59434E-05   -0.37499E-05  3678   0.993E-03    0.443E-02
RMM:   6    -0.192202743490E+03   -0.42098E-05   -0.10174E-04  3682   0.155E-02    0.406E-02
RMM:   7    -0.192202730426E+03    0.13064E-04   -0.44061E-05  3676   0.103E-02    0.165E-02
RMM:   8    -0.192202729397E+03    0.10289E-05   -0.62120E-06  2949   0.403E-03    0.122E-02
RMM:   9    -0.192202727285E+03    0.21125E-05   -0.19937E-06  2094   0.243E-03    0.643E-03
RMM:  10    -0.192202726890E+03    0.39522E-06   -0.10654E-06  1931   0.178E-03
  19 F= -.19220273E+03 E0= -.19209898E+03  d E =-.550154E-03
       N       E                     dE             d eps       ncg     rms          rms(c)
DAV:   1    -0.192202650488E+03    0.76796E-04   -0.11798E-01  3684   0.528E-01    0.342E-02
RMM:   2    -0.192202791063E+03   -0.14057E-03   -0.13966E-03  3683   0.783E-02    0.418E-02
RMM:   3    -0.192202795988E+03   -0.49244E-05   -0.98673E-05  3693   0.165E-02    0.489E-02
RMM:   4    -0.192202773416E+03    0.22572E-04   -0.14405E-05  3660   0.641E-03    0.216E-02
RMM:   5    -0.192202772693E+03    0.72242E-06   -0.66100E-06  3032   0.423E-03
  20 F= -.19220277E+03 E0= -.19209902E+03  d E =-.595957E-03
       N       E                     dE             d eps       ncg     rms          rms(c)
DAV:   1    -0.192202487322E+03    0.28609E-03   -0.56320E-01  3672   0.116E+00    0.718E-02
RMM:   2    -0.192203150037E+03   -0.66271E-03   -0.63658E-03  3683   0.169E-01    0.103E-01
RMM:   3    -0.192203116748E+03    0.33289E-04   -0.44768E-04  3693   0.358E-02    0.847E-02
RMM:   4    -0.192203067560E+03    0.49188E-04   -0.60995E-05  3686   0.132E-02    0.511E-02
RMM:   5    -0.192203051493E+03    0.16067E-04   -0.28619E-05  3673   0.852E-03    0.380E-02
RMM:   6    -0.192203060198E+03   -0.87045E-05   -0.88771E-05  3675   0.145E-02    0.398E-02
RMM:   7    -0.192203044843E+03    0.15354E-04   -0.39997E-05  3672   0.981E-03    0.128E-02
RMM:   8    -0.192203044224E+03    0.61961E-06   -0.43195E-06  2787   0.337E-03
  21 F= -.19220304E+03 E0= -.19209939E+03  d E =-.271531E-03
