unknown system                          
           1
    11.002582    0.000000    0.000000
     5.501291    9.528515    0.000000
     0.000000    0.000000   24.491785
   Au   Pd
  24  24
Direct configuration=     1
   0.08333333  0.08333333  0.40830017
   0.33333333  0.08333333  0.40830017
   0.16666667  0.41666667  0.50000000
   0.08333333  0.83333333  0.40830017
   0.91666667  0.41666667  0.50000000
   0.91666667  0.66666667  0.50000000
   0.00000000  0.00000000  0.59169983
   0.75000000  0.75000000  0.59169983
   0.33333333  0.58333333  0.40830017
   0.16666667  0.66666667  0.50000000
   0.33333333  0.83333333  0.40830017
   0.66666667  0.91666667  0.50000000
   0.00000000  0.25000000  0.59169983
   0.50000000  0.00000000  0.59169983
   0.58333333  0.33333333  0.40830017
   0.58333333  0.58333333  0.40830017
   0.41666667  0.66666667  0.50000000
   0.50000000  0.50000000  0.59169983
   0.41666667  0.91666667  0.50000000
   0.83333333  0.08333333  0.40830017
   0.66666667  0.16666667  0.50000000
   0.83333333  0.33333333  0.40830017
   0.83333333  0.83333333  0.40830017
   0.58333333  0.08333333  0.40830017
   0.41666667  0.41666667  0.50000000
   0.91666667  0.91666667  0.50000000
   0.41666667  0.16666667  0.50000000
   0.00000000  0.75000000  0.59169983
   0.33333333  0.33333333  0.40830017
   0.16666667  0.16666667  0.50000000
   0.25000000  0.50000000  0.59169983
   0.25000000  0.00000000  0.59169983
   0.50000000  0.25000000  0.59169983
   0.16666667  0.91666667  0.50000000
   0.00000000  0.50000000  0.59169983
   0.50000000  0.75000000  0.59169983
   0.25000000  0.25000000  0.59169983
   0.75000000  0.25000000  0.59169983
   0.91666667  0.16666667  0.50000000
   0.75000000  0.50000000  0.59169983
   0.08333333  0.33333333  0.40830017
   0.66666667  0.66666667  0.50000000
   0.75000000  0.00000000  0.59169983
   0.83333333  0.58333333  0.40830017
   0.66666667  0.41666667  0.50000000
   0.58333333  0.83333333  0.40830017
   0.08333333  0.58333333  0.40830017
   0.25000000  0.75000000  0.59169983
Direct configuration=     2
   0.08333333  0.08333333  0.40830017
   0.33333333  0.08333333  0.40830017
   0.16850342  0.41489427  0.50003107
   0.08333333  0.83333333  0.40830017
   0.91588459  0.41681313  0.50002489
   0.91694581  0.66633187  0.50004004
   0.00001637 -0.00069603  0.59317950
   0.75056664  0.74893692  0.59392473
   0.33333333  0.58333333  0.40830017
   0.16629407  0.66702900  0.50076108
   0.33333333  0.83333333  0.40830017
   0.66671168  0.91664762  0.50007968
   0.00012942  0.25017664  0.59352102
   0.49887130  0.00132113  0.59381709
   0.58333333  0.33333333  0.40830017
   0.58333333  0.58333333  0.40830017
   0.41721234  0.66651561  0.50092475
   0.50034451  0.49941693  0.59348931
   0.41602290  0.91690846  0.50045406
   0.83333333  0.08333333  0.40830017
   0.66657117  0.16765526  0.50118404
   0.83333333  0.33333333  0.40830017
   0.83333333  0.83333333  0.40830017
   0.58333333  0.08333333  0.40830017
   0.41665994  0.41552961  0.50031525
   0.91707649  0.91689343  0.50052559
   0.41522972  0.16852758  0.50029194
   0.00042836  0.74997563  0.59292019
   0.33333333  0.33333333  0.40830017
   0.16694526  0.16639527  0.50020304
   0.24972525  0.49969482  0.59289333
   0.25015955 -0.00010473  0.59264244
   0.49989063  0.25012135  0.59267967
   0.16588001  0.91766007  0.50056746
   0.00047236  0.49995339  0.59310160
   0.49993654  0.74970316  0.59288335
   0.25032243  0.25029871  0.59267294
   0.74946606  0.25008192  0.59264255
   0.91685066  0.16639513  0.50029813
   0.74969210  0.50016309  0.59271935
   0.08333333  0.33333333  0.40830017
   0.66675276  0.66599053  0.50000892
   0.75026207  0.00052424  0.59291899
   0.83333333  0.58333333  0.40830017
   0.66723572  0.41634645  0.50055674
   0.58333333  0.83333333  0.40830017
   0.08333333  0.58333333  0.40830017
   0.24973119  0.75023320  0.59284231
Direct configuration=     3
   0.08333333  0.08333333  0.40830017
   0.33333333  0.08333333  0.40830017
   0.17401368  0.40957706  0.50012429
   0.08333333  0.83333333  0.40830017
   0.91353835  0.41725251  0.50009955
   0.91778324  0.66532746  0.50016014
   0.00006548 -0.00278413  0.59761852
   0.75226657  0.74574769  0.60059942
   0.33333333  0.58333333  0.40830017
   0.16517627  0.66811601  0.50304433
   0.33333333  0.83333333  0.40830017
   0.66684674  0.91659050  0.50031872
   0.00051770  0.25070656  0.59898461
   0.49548519  0.00528450  0.60016887
   0.58333333  0.33333333  0.40830017
   0.58333333  0.58333333  0.40830017
   0.41884935  0.66606243  0.50369902
   0.50137805  0.49766773  0.59885776
   0.41409161  0.91763384  0.50181625
   0.83333333  0.08333333  0.40830017
   0.66628469  0.17062103  0.50473618
   0.83333333  0.33333333  0.40830017
   0.83333333  0.83333333  0.40830017
   0.58333333  0.08333333  0.40830017
   0.41663977  0.41211842  0.50126102
   0.91830596  0.91757372  0.50210237
   0.41091889  0.17411033  0.50116778
   0.00171345  0.74990252  0.59658126
   0.33333333  0.33333333  0.40830017
   0.16778103  0.16558108  0.50081216
   0.24890100  0.49877929  0.59647384
   0.25063821 -0.00041892  0.59547026
   0.49956253  0.25048540  0.59561919
   0.16352003  0.92064027  0.50226982
   0.00188945  0.49981355  0.59730691
   0.49974616  0.74881264  0.59643391
   0.25128970  0.25119486  0.59559228
   0.74786424  0.25032769  0.59547072
   0.91740263  0.16558053  0.50119254
   0.74876842  0.50065236  0.59577792
   0.08333333  0.33333333  0.40830017
   0.66701102  0.66396212  0.50003568
   0.75104829  0.00209697  0.59657648
   0.83333333  0.58333333  0.40830017
   0.66894288  0.41538582  0.50222695
   0.58333333  0.83333333  0.40830017
   0.08333333  0.58333333  0.40830017
   0.24892474  0.75093279  0.59626975
Direct configuration=     4
   0.08333333  0.08333333  0.40830017
   0.33333333  0.08333333  0.40830017
   0.17668009  0.40700406  0.50016940
   0.08333333  0.83333333  0.40830017
   0.91240301  0.41746512  0.50013568
   0.91818847  0.66484143  0.50021826
   0.00008925 -0.00379457  0.59976657
   0.75308917  0.74420441  0.60382931
   0.33333333  0.58333333  0.40830017
   0.16463537  0.66864201  0.50414919
   0.33333333  0.83333333  0.40830017
   0.66691209  0.91656286  0.50043439
   0.00070558  0.25096298  0.60162844
   0.49384665  0.00720238  0.60324250
   0.58333333  0.33333333  0.40830017
   0.58333333  0.58333333  0.40830017
   0.41964151  0.66584314  0.50504149
   0.50187817  0.49682129  0.60145556
   0.41315706  0.91798485  0.50247542
   0.83333333  0.08333333  0.40830017
   0.66614606  0.17205617  0.50645506
   0.83333333  0.33333333  0.40830017
   0.83333333  0.83333333  0.40830017
   0.58333333  0.08333333  0.40830017
   0.41663001  0.41046775  0.50171867
   0.91890090  0.91790291  0.50286538
   0.40883287  0.17681183  0.50159159
   0.00233530  0.74986715  0.59835286
   0.33333333  0.33333333  0.40830017
   0.16818546  0.16518709  0.50110691
   0.24850215  0.49833627  0.59820644
   0.25086983 -0.00057096  0.59683864
   0.49940375  0.25066157  0.59704163
   0.16237803  0.92208239  0.50309360
   0.00257518  0.49974589  0.59934186
   0.49965403  0.74838172  0.59815203
   0.25175777  0.25162850  0.59700494
   0.74708912  0.25044661  0.59683927
   0.91766973  0.16518635  0.50162534
   0.74832144  0.50088911  0.59725796
   0.08333333  0.33333333  0.40830017
   0.66713600  0.66298057  0.50004863
   0.75142874  0.00285801  0.59834634
   0.83333333  0.58333333  0.40830017
   0.66976898  0.41492096  0.50303516
   0.58333333  0.83333333  0.40830017
   0.08333333  0.58333333  0.40830017
   0.24853451  0.75127132  0.59792829
Direct configuration=     5
   0.08333333  0.08333333  0.40830017
   0.33333333  0.08333333  0.40830017
   0.17329825  0.40949218  0.50104312
   0.08333333  0.83333333  0.40830017
   0.91398483  0.41672108  0.50142389
   0.91847020  0.66409041  0.50155572
   0.00004692 -0.00317180  0.60153052
   0.75288352  0.74475471  0.60580790
   0.33333333  0.58333333  0.40830017
   0.16546694  0.66803637  0.50518341
   0.33333333  0.83333333  0.40830017
   0.66602300  0.91702577  0.50212276
   0.00065570  0.25104564  0.60330568
   0.49459175  0.00666496  0.60517374
   0.58333333  0.33333333  0.40830017
   0.58333333  0.58333333  0.40830017
   0.41933456  0.66484668  0.50629643
   0.50126631  0.49683112  0.60337568
   0.41413350  0.91828398  0.50374223
   0.83333333  0.08333333  0.40830017
   0.66636123  0.17103612  0.50720152
   0.83333333  0.33333333  0.40830017
   0.83333333  0.83333333  0.40830017
   0.58333333  0.08333333  0.40830017
   0.41693362  0.41213853  0.50265473
   0.91827860  0.91827117  0.50387887
   0.41146694  0.17346543  0.50252259
   0.00193681  0.74946914  0.59974540
   0.33333333  0.33333333  0.40830017
   0.16696967  0.16572402  0.50210509
   0.24847435  0.49831882  0.59951063
   0.25070496 -0.00042722  0.59805847
   0.49895156  0.25090699  0.59857936
   0.16218077  0.92214548  0.50408594
   0.00296952  0.49949511  0.60042607
   0.49988445  0.74873603  0.59955598
   0.25114166  0.25218544  0.59825108
   0.74800271  0.25051215  0.59844006
   0.91825278  0.16526141  0.50281775
   0.74861285  0.50062074  0.59839915
   0.08333333  0.33333333  0.40830017
   0.66708223  0.66394499  0.50103961
   0.75108103  0.00202046  0.59974160
   0.83333333  0.58333333  0.40830017
   0.66902799  0.41516293  0.50402452
   0.58333333  0.83333333  0.40830017
   0.08333333  0.58333333  0.40830017
   0.24898275  0.75087751  0.59935517
Direct configuration=     6
   0.08333333  0.08333333  0.40830017
   0.33333333  0.08333333  0.40830017
   0.16483287  0.41572041  0.50323023
   0.08333333  0.83333333  0.40830017
   0.91794443  0.41485859  0.50464849
   0.91917544  0.66221046  0.50490362
  -0.00005904 -0.00161288  0.60594603
   0.75236874  0.74613220  0.61076070
   0.33333333  0.58333333  0.40830017
   0.16754853  0.66652034  0.50777225
   0.33333333  0.83333333  0.40830017
   0.66379745  0.91818453  0.50634907
   0.00053084  0.25125254  0.60750415
   0.49645688  0.00531969  0.61000799
   0.58333333  0.33333333  0.40830017
   0.58333333  0.58333333  0.40830017
   0.41856622  0.66235233  0.50943780
   0.49973471  0.49685572  0.60818212
   0.41657772  0.91903274  0.50691329
   0.83333333  0.08333333  0.40830017
   0.66689985  0.16848275  0.50907004
   0.83333333  0.33333333  0.40830017
   0.83333333  0.83333333  0.40830017
   0.58333333  0.08333333  0.40830017
   0.41769361  0.41632080  0.50499786
   0.91672087  0.91919300  0.50641582
   0.41806051  0.16508876  0.50485304
   0.00093930  0.74847287  0.60323118
   0.33333333  0.33333333  0.40830017
   0.16392633  0.16706805  0.50460373
   0.24840476  0.49827515  0.60277524
   0.25029227 -0.00006741  0.60111191
   0.49781963  0.25152132  0.60242860
   0.16168699  0.92230339  0.50656994
   0.00395664  0.49886735  0.60314006
   0.50046123  0.74962294  0.60307031
   0.24959944  0.25357956  0.60137038
   0.75028959  0.25067620  0.60244716
   0.91971225  0.16544931  0.50580259
   0.74934231  0.49994895  0.60125575
   0.08333333  0.33333333  0.40830017
   0.66694765  0.66635909  0.50352023
   0.75021065 -0.00007609  0.60323422
   0.83333333  0.58333333  0.40830017
   0.66717316  0.41576861  0.50650107
   0.58333333  0.83333333  0.40830017
   0.08333333  0.58333333  0.40830017
   0.25010479  0.74989173  0.60292692
Direct configuration=     7
   0.08333333  0.08333333  0.40830017
   0.33333333  0.08333333  0.40830017
   0.16333747  0.41682062  0.50361657
   0.08333333  0.83333333  0.40830017
   0.91864389  0.41452958  0.50521812
   0.91930002  0.66187836  0.50549503
  -0.00007776 -0.00133750  0.60672602
   0.75227780  0.74637553  0.61163561
   0.33333333  0.58333333  0.40830017
   0.16791624  0.66625253  0.50822956
   0.33333333  0.83333333  0.40830017
   0.66340431  0.91838923  0.50709564
   0.00050878  0.25128909  0.60824580
   0.49678635  0.00508205  0.61086196
   0.58333333  0.33333333  0.40830017
   0.58333333  0.58333333  0.40830017
   0.41843050  0.66191171  0.50999272
   0.49946415  0.49686007  0.60903117
   0.41700949  0.91916500  0.50747346
   0.83333333  0.08333333  0.40830017
   0.66699500  0.16803170  0.50940011
   0.83333333  0.33333333  0.40830017
   0.83333333  0.83333333  0.40830017
   0.58333333  0.08333333  0.40830017
   0.41782786  0.41705960  0.50541177
   0.91644570  0.91935584  0.50686397
   0.41922526  0.16360903  0.50526471
   0.00076310  0.74829688  0.60384694
   0.33333333  0.33333333  0.40830017
   0.16338873  0.16730548  0.50504511
   0.24839247  0.49826744  0.60335192
   0.25021936 -0.00000385  0.60165130
   0.49761968  0.25162985  0.60310856
   0.16159976  0.92233129  0.50700874
   0.00413101  0.49875646  0.60361949
   0.50056311  0.74977961  0.60369112
   0.24932701  0.25382583  0.60192140
   0.75069357  0.25070517  0.60315501
   0.91997006  0.16548250  0.50632986
   0.74947117  0.49983028  0.60176037
   0.08333333  0.33333333  0.40830017
   0.66692387  0.66678554  0.50395843
   0.75005690 -0.00044645  0.60385119
   0.83333333  0.58333333  0.40830017
   0.66684551  0.41587560  0.50693854
   0.58333333  0.83333333  0.40830017
   0.08333333  0.58333333  0.40830017
   0.25030300  0.74971760  0.60355786
Direct configuration=     8
   0.08333333  0.08333333  0.40830017
   0.33333333  0.08333333  0.40830017
   0.16677962  0.41499265  0.50468264
   0.08333333  0.83333333  0.40830017
   0.91687354  0.41436733  0.50666146
   0.91643420  0.66564164  0.50701784
  -0.00017687 -0.00107474  0.60803003
   0.75182171  0.74711187  0.61280442
   0.33333333  0.58333333  0.40830017
   0.16729251  0.66697734  0.50899218
   0.33333333  0.83333333  0.40830017
   0.66601266  0.91627592  0.50892683
   0.00067388  0.25123523  0.60940661
   0.49754014  0.00398029  0.61218615
   0.58333333  0.33333333  0.40830017
   0.58333333  0.58333333  0.40830017
   0.41838610  0.66360199  0.51092554
   0.49941308  0.49725052  0.61049999
   0.41635227  0.91792797  0.50870247
   0.83333333  0.08333333  0.40830017
   0.66712221  0.16779488  0.51001427
   0.83333333  0.33333333  0.40830017
   0.83333333  0.83333333  0.40830017
   0.58333333  0.08333333  0.40830017
   0.41738597  0.41626559  0.50660631
   0.91620014  0.91831928  0.50800909
   0.41788962  0.16524237  0.50654003
   0.00023012  0.74851094  0.60486620
   0.33333333  0.33333333  0.40830017
   0.16446071  0.16714269  0.50627317
   0.24873013  0.49847933  0.60433729
   0.25022814  0.00033963  0.60278300
   0.49778071  0.25142406  0.60427165
   0.16306462  0.92058467  0.50802841
   0.00322361  0.49896722  0.60456664
   0.50091156  0.75004109  0.60480077
   0.24932618  0.25320967  0.60265423
   0.75112499  0.25039153  0.60447839
   0.91894022  0.16612345  0.50778164
   0.74960035  0.50003698  0.60259799
   0.08333333  0.33333333  0.40830017
   0.66701791  0.66711113  0.50537138
   0.74985960 -0.00112564  0.60509488
   0.83333333  0.58333333  0.40830017
   0.66730226  0.41586882  0.50798916
   0.58333333  0.83333333  0.40830017
   0.08333333  0.58333333  0.40830017
   0.25028919  0.74970650  0.60491960
Direct configuration=     9
   0.08333333  0.08333333  0.40830017
   0.33333333  0.08333333  0.40830017
   0.16940387  0.41359902  0.50549539
   0.08333333  0.83333333  0.40830017
   0.91552384  0.41424363  0.50776185
   0.91424933  0.66851073  0.50817881
  -0.00025244 -0.00087442  0.60902419
   0.75147399  0.74767326  0.61369551
   0.33333333  0.58333333  0.40830017
   0.16681699  0.66752993  0.50957360
   0.33333333  0.83333333  0.40830017
   0.66800125  0.91466475  0.51032291
   0.00079975  0.25119417  0.61029160
   0.49811483  0.00314032  0.61319571
   0.58333333  0.33333333  0.40830017
   0.58333333  0.58333333  0.40830017
   0.41835226  0.66489064  0.51163671
   0.49937415  0.49754820  0.61161980
   0.41585121  0.91698487  0.50963945
   0.83333333  0.08333333  0.40830017
   0.66721919  0.16761434  0.51048250
   0.83333333  0.33333333  0.40830017
   0.83333333  0.83333333  0.40830017
   0.58333333  0.08333333  0.40830017
   0.41704907  0.41566024  0.50751702
   0.91601293  0.91752902  0.50888212
   0.41687135  0.16648762  0.50751232
  -0.00017622  0.74867413  0.60564328
   0.33333333  0.33333333  0.40830017
   0.16527798  0.16701858  0.50720944
   0.24898756  0.49864088  0.60508853
   0.25023483  0.00060150  0.60364579
   0.49790348  0.25126718  0.60515838
   0.16418141  0.91925307  0.50880580
   0.00253182  0.49912789  0.60528874
   0.50117721  0.75024044  0.60564677
   0.24932555  0.25273991  0.60321293
   0.75145391  0.25015242  0.60548733
   0.91815507  0.16661210  0.50888846
   0.74969884  0.50019457  0.60323658
   0.08333333  0.33333333  0.40830017
   0.66708961  0.66735936  0.50644860
   0.74970918 -0.00164346  0.60604306
   0.83333333  0.58333333  0.40830017
   0.66765048  0.41586366  0.50879015
   0.58333333  0.83333333  0.40830017
   0.08333333  0.58333333  0.40830017
   0.25027866  0.74969805  0.60595778
Direct configuration=    10
   0.08333333  0.08333333  0.40830017
   0.33333333  0.08333333  0.40830017
   0.17008470  0.41333203  0.50579402
   0.08333333  0.83333333  0.40830017
   0.91532856  0.41553046  0.50799589
   0.91530440  0.66727438  0.50855945
  -0.00016990 -0.00140426  0.60931041
   0.75145668  0.74726988  0.61407376
   0.33333333  0.58333333  0.40830017
   0.16608793  0.66775922  0.50967231
   0.33333333  0.83333333  0.40830017
   0.66682941  0.91560502  0.51076347
   0.00102028  0.25103315  0.61063952
   0.49768141  0.00317232  0.61352306
   0.58333333  0.33333333  0.40830017
   0.58333333  0.58333333  0.40830017
   0.41884476  0.66493916  0.51179593
   0.49999629  0.49776586  0.61191420
   0.41581649  0.91725336  0.50979603
   0.83333333  0.08333333  0.40830017
   0.66698796  0.16792880  0.51077492
   0.83333333  0.33333333  0.40830017
   0.83333333  0.83333333  0.40830017
   0.58333333  0.08333333  0.40830017
   0.41736145  0.41503242  0.50810171
   0.91688885  0.91767326  0.50936231
   0.41622292  0.16714554  0.50806226
   0.00009990  0.74898513  0.60610753
   0.33333333  0.33333333  0.40830017
   0.16618379  0.16644871  0.50759080
   0.24892011  0.49892315  0.60545126
   0.25031768  0.00066088  0.60435049
   0.49867067  0.25069927  0.60554265
   0.16406844  0.91894288  0.50919641
   0.00184291  0.49946638  0.60556871
   0.50118650  0.74996339  0.60627026
   0.24993308  0.25187926  0.60355523
   0.75067461  0.24990203  0.60594761
   0.91800568  0.16570112  0.50949497
   0.74930473  0.50069556  0.60381287
   0.08333333  0.33333333  0.40830017
   0.66691051  0.66664580  0.50702333
   0.74986232 -0.00086328  0.60671758
   0.83333333  0.58333333  0.40830017
   0.66698132  0.41616015  0.50922309
   0.58333333  0.83333333  0.40830017
   0.08333333  0.58333333  0.40830017
   0.24986063  0.75004434  0.60658847
Direct configuration=    11
   0.08333333  0.08333333  0.40830017
   0.33333333  0.08333333  0.40830017
   0.17052541  0.41315921  0.50598732
   0.08333333  0.83333333  0.40830017
   0.91520216  0.41636345  0.50814739
   0.91598737  0.66647406  0.50880584
  -0.00011646 -0.00174723  0.60949569
   0.75144548  0.74700877  0.61431861
   0.33333333  0.58333333  0.40830017
   0.16561599  0.66790765  0.50973620
   0.33333333  0.83333333  0.40830017
   0.66607085  0.91621368  0.51104866
   0.00116303  0.25092892  0.61086474
   0.49740085  0.00319303  0.61373497
   0.58333333  0.33333333  0.40830017
   0.58333333  0.58333333  0.40830017
   0.41916357  0.66497057  0.51189900
   0.50039902  0.49790676  0.61210478
   0.41579401  0.91742715  0.50989738
   0.83333333  0.08333333  0.40830017
   0.66683828  0.16813236  0.51096421
   0.83333333  0.33333333  0.40830017
   0.83333333  0.83333333  0.40830017
   0.58333333  0.08333333  0.40830017
   0.41756366  0.41462602  0.50848020
   0.91745585  0.91776663  0.50967315
   0.41580319  0.16757143  0.50841824
   0.00027865  0.74918645  0.60640805
   0.33333333  0.33333333  0.40830017
   0.16677015  0.16607982  0.50783766
   0.24887644  0.49910587  0.60568606
   0.25037130  0.00069932  0.60480665
   0.49916728  0.25033164  0.60579140
   0.16399531  0.91874209  0.50944926
   0.00139696  0.49968549  0.60574994
   0.50119251  0.74978406  0.60667386
   0.25032636  0.25132214  0.60377681
   0.75017014  0.24973995  0.60624557
   0.91790898  0.16511142  0.50988758
   0.74904961  0.50101986  0.60418592
   0.08333333  0.33333333  0.40830017
   0.66679457  0.66618389  0.50739537
   0.74996145 -0.00035826  0.60715422
   0.83333333  0.58333333  0.40830017
   0.66654815  0.41635208  0.50950335
   0.58333333  0.83333333  0.40830017
   0.08333333  0.58333333  0.40830017
   0.24959003  0.75026851  0.60699672
Direct configuration=    12
   0.08333333  0.08333333  0.40830017
   0.33333333  0.08333333  0.40830017
   0.17004167  0.41332935  0.50600562
   0.08333333  0.83333333  0.40830017
   0.91582489  0.41582624  0.50799383
   0.91628571  0.66615685  0.50873479
   0.00003544 -0.00174881  0.60963447
   0.75147786  0.74714163  0.61444465
   0.33333333  0.58333333  0.40830017
   0.16627517  0.66747106  0.50971337
   0.33333333  0.83333333  0.40830017
   0.66574780  0.91659815  0.51107290
   0.00088164  0.25092028  0.61089001
   0.49741602  0.00303787  0.61384208
   0.58333333  0.33333333  0.40830017
   0.58333333  0.58333333  0.40830017
   0.41860967  0.66473810  0.51194485
   0.50048931  0.49804590  0.61210517
   0.41583493  0.91770975  0.50983566
   0.83333333  0.08333333  0.40830017
   0.66682409  0.16799526  0.51105095
   0.83333333  0.33333333  0.40830017
   0.83333333  0.83333333  0.40830017
   0.58333333  0.08333333  0.40830017
   0.41765885  0.41499886  0.50877142
   0.91722890  0.91792855  0.50986940
   0.41594243  0.16745740  0.50857841
   0.00039589  0.74922931  0.60671608
   0.33333333  0.33333333  0.40830017
   0.16628523  0.16604216  0.50787946
   0.24888912  0.49913165  0.60586647
   0.25044421  0.00031221  0.60526657
   0.49942060  0.25022395  0.60607232
   0.16405114  0.91889830  0.50965049
   0.00152136  0.49957994  0.60593351
   0.50067846  0.74987041  0.60709625
   0.25050938  0.25131486  0.60410649
   0.74982614  0.24970884  0.60650744
   0.91824010  0.16522703  0.51010987
   0.74902339  0.50075180  0.60467598
   0.08333333  0.33333333  0.40830017
   0.66673831  0.66625124  0.50754689
   0.75000575 -0.00000727  0.60755303
   0.83333333  0.58333333  0.40830017
   0.66661106  0.41609439  0.50969027
   0.58333333  0.83333333  0.40830017
   0.08333333  0.58333333  0.40830017
   0.24967284  0.75024418  0.60723463
Direct configuration=    13
   0.08333333  0.08333333  0.40830017
   0.33333333  0.08333333  0.40830017
   0.16969638  0.41345079  0.50601868
   0.08333333  0.83333333  0.40830017
   0.91626940  0.41544277  0.50788421
   0.91649867  0.66593043  0.50868408
   0.00014387 -0.00174995  0.60973353
   0.75150097  0.74723646  0.61453462
   0.33333333  0.58333333  0.40830017
   0.16674569  0.66715941  0.50969707
   0.33333333  0.83333333  0.40830017
   0.66551720  0.91687259  0.51109020
   0.00068078  0.25091411  0.61090804
   0.49742685  0.00292711  0.61391854
   0.58333333  0.33333333  0.40830017
   0.58333333  0.58333333  0.40830017
   0.41821429  0.66457217  0.51197759
   0.50055376  0.49814523  0.61210546
   0.41586415  0.91791146  0.50979159
   0.83333333  0.08333333  0.40830017
   0.66681396  0.16789740  0.51111287
   0.83333333  0.33333333  0.40830017
   0.83333333  0.83333333  0.40830017
   0.58333333  0.08333333  0.40830017
   0.41772679  0.41526499  0.50897930
   0.91706691  0.91804414  0.51000948
   0.41604183  0.16737600  0.50869275
   0.00047959  0.74925989  0.60693596
   0.33333333  0.33333333  0.40830017
   0.16593909  0.16601527  0.50790929
   0.24889817  0.49915005  0.60599524
   0.25049625  0.00003589  0.60559485
   0.49960142  0.25014708  0.60627284
   0.16409100  0.91900980  0.50979412
   0.00161016  0.49950461  0.60606455
   0.50031152  0.74993206  0.60739776
   0.25064002  0.25130966  0.60434181
   0.74958059  0.24968664  0.60669436
   0.91847646  0.16530954  0.51026855
   0.74900468  0.50056045  0.60502578
   0.08333333  0.33333333  0.40830017
   0.66669814  0.66629931  0.50765504
   0.75003736  0.00024327  0.60783771
   0.83333333  0.58333333  0.40830017
   0.66665596  0.41591045  0.50982370
   0.58333333  0.83333333  0.40830017
   0.08333333  0.58333333  0.40830017
   0.24973195  0.75022681  0.60740444
Direct configuration=    14
   0.08333333  0.08333333  0.40830017
   0.33333333  0.08333333  0.40830017
   0.16991289  0.41311771  0.50605133
   0.08333333  0.83333333  0.40830017
   0.91603118  0.41518094  0.50778844
   0.91611557  0.66654218  0.50860370
   0.00017353 -0.00160453  0.60986255
   0.75150088  0.74741657  0.61451770
   0.33333333  0.58333333  0.40830017
   0.16668610  0.66717073  0.50977005
   0.33333333  0.83333333  0.40830017
   0.66615862  0.91645873  0.51106692
   0.00049836  0.25097929  0.61086784
   0.49766133  0.00269797  0.61396976
   0.58333333  0.33333333  0.40830017
   0.58333333  0.58333333  0.40830017
   0.41814298  0.66493242  0.51204792
   0.50036526  0.49817560  0.61209336
   0.41569973  0.91766457  0.50985544
   0.83333333  0.08333333  0.40830017
   0.66694638  0.16785201  0.51117551
   0.83333333  0.33333333  0.40830017
   0.83333333  0.83333333  0.40830017
   0.58333333  0.08333333  0.40830017
   0.41770402  0.41512765  0.50916077
   0.91685920  0.91782233  0.51014991
   0.41578591  0.16772722  0.50876881
   0.00050972  0.74918140  0.60706369
   0.33333333  0.33333333  0.40830017
   0.16584000  0.16595760  0.50798472
   0.24896311  0.49903867  0.60612028
   0.25059538 -0.00019727  0.60587612
   0.49948792  0.25024601  0.60652378
   0.16422231  0.91908385  0.50995048
   0.00181050  0.49933310  0.60616651
   0.50001224  0.75001765  0.60760346
   0.25054999  0.25147960  0.60456134
   0.74956957  0.24970273  0.60689042
   0.91844460  0.16556181  0.51033848
   0.74918480  0.50029926  0.60530729
   0.08333333  0.33333333  0.40830017
   0.66667831  0.66630085  0.50778639
   0.75007778  0.00014784  0.60810407
   0.83333333  0.58333333  0.40830017
   0.66721644  0.41569550  0.50994475
   0.58333333  0.83333333  0.40830017
   0.08333333  0.58333333  0.40830017
   0.24983327  0.75001831  0.60751817
Direct configuration=    15
   0.08333333  0.08333333  0.40830017
   0.33333333  0.08333333  0.40830017
   0.16993150  0.41308908  0.50605414
   0.08333333  0.83333333  0.40830017
   0.91601070  0.41515843  0.50778020
   0.91608264  0.66659477  0.50859679
   0.00017608 -0.00159203  0.60987365
   0.75150087  0.74743205  0.61451625
   0.33333333  0.58333333  0.40830017
   0.16668098  0.66717171  0.50977632
   0.33333333  0.83333333  0.40830017
   0.66621376  0.91642315  0.51106492
   0.00048267  0.25098490  0.61086439
   0.49768149  0.00267828  0.61397416
   0.58333333  0.33333333  0.40830017
   0.58333333  0.58333333  0.40830017
   0.41813685  0.66496339  0.51205397
   0.50034905  0.49817822  0.61209233
   0.41568560  0.91764335  0.50986093
   0.83333333  0.08333333  0.40830017
   0.66695776  0.16784811  0.51118089
   0.83333333  0.33333333  0.40830017
   0.83333333  0.83333333  0.40830017
   0.58333333  0.08333333  0.40830017
   0.41770207  0.41511584  0.50917637
   0.91684134  0.91780326  0.51016198
   0.41576391  0.16775742  0.50877534
   0.00051231  0.74917466  0.60707467
   0.33333333  0.33333333  0.40830017
   0.16583148  0.16595264  0.50799121
   0.24896870  0.49902909  0.60613103
   0.25060390 -0.00021732  0.60590031
   0.49947816  0.25025451  0.60654536
   0.16423359  0.91909022  0.50996393
   0.00182773  0.49931836  0.60617528
   0.49998651  0.75002501  0.60762115
   0.25054225  0.25149421  0.60458022
   0.74956862  0.24970411  0.60690727
   0.91844186  0.16558350  0.51034449
   0.74920029  0.50027680  0.60533150
   0.08333333  0.33333333  0.40830017
   0.66667661  0.66630098  0.50779769
   0.75008126  0.00013963  0.60812697
   0.83333333  0.58333333  0.40830017
   0.66726462  0.41567703  0.50995515
   0.58333333  0.83333333  0.40830017
   0.08333333  0.58333333  0.40830017
   0.24984198  0.75000038  0.60752795
Direct configuration=    16
   0.08333333  0.08333333  0.40830017
   0.33333333  0.08333333  0.40830017
   0.16984982  0.41306805  0.50609384
   0.08333333  0.83333333  0.40830017
   0.91572425  0.41555570  0.50778936
   0.91606935  0.66649405  0.50857744
   0.00012078 -0.00156756  0.60994718
   0.75151663  0.74734575  0.61444712
   0.33333333  0.58333333  0.40830017
   0.16641591  0.66727989  0.50986873
   0.33333333  0.83333333  0.40830017
   0.66623817  0.91634918  0.51105519
   0.00056893  0.25100207  0.61082249
   0.49778032  0.00263444  0.61396230
   0.58333333  0.33333333  0.40830017
   0.58333333  0.58333333  0.40830017
   0.41840090  0.66504379  0.51210843
   0.50024438  0.49810991  0.61207863
   0.41573040  0.91759069  0.50998027
   0.83333333  0.08333333  0.40830017
   0.66702821  0.16785421  0.51128162
   0.83333333  0.33333333  0.40830017
   0.83333333  0.83333333  0.40830017
   0.58333333  0.08333333  0.40830017
   0.41776312  0.41498102  0.50924497
   0.91694411  0.91774729  0.51025343
   0.41579482  0.16766605  0.50882973
   0.00055092  0.74908628  0.60708859
   0.33333333  0.33333333  0.40830017
   0.16606587  0.16584531  0.50809627
   0.24895973  0.49894343  0.60620986
   0.25067313 -0.00018923  0.60603879
   0.49938553  0.25024561  0.60669988
   0.16407161  0.91911795  0.51005648
   0.00186156  0.49929375  0.60614864
   0.50007056  0.74997075  0.60769181
   0.25044045  0.25148931  0.60469375
   0.74962539  0.24970413  0.60703309
   0.91833226  0.16542195  0.51033183
   0.74930596  0.50031491  0.60544261
   0.08333333  0.33333333  0.40830017
   0.66671425  0.66621200  0.50791871
   0.75008231  0.00001240  0.60824792
   0.83333333  0.58333333  0.40830017
   0.66737387  0.41574312  0.51004007
   0.58333333  0.83333333  0.40830017
   0.08333333  0.58333333  0.40830017
   0.24978797  0.74983868  0.60757713
Direct configuration=    17
   0.08333333  0.08333333  0.40830017
   0.33333333  0.08333333  0.40830017
   0.16978218  0.41305064  0.50612672
   0.08333333  0.83333333  0.40830017