unknown system                          
           1
    11.002582    0.000000    0.000000
     5.501291    9.528515    0.000000
     0.000000    0.000000   24.491785
   Au   Pd
  24  24
Direct configuration=     1
   0.08333333  0.08333333  0.40830017
   0.33333333  0.08333333  0.40830017
   0.91666667  0.66666667  0.50000000
   0.00000000  0.75000000  0.59169983
   0.08333333  0.58333333  0.40830017
   0.08333333  0.83333333  0.40830017
   0.91666667  0.41666667  0.50000000
   0.75000000  0.75000000  0.59169983
   0.25000000  0.75000000  0.59169983
   0.16666667  0.41666667  0.50000000
   0.33333333  0.58333333  0.40830017
   0.16666667  0.66666667  0.50000000
   0.16666667  0.16666667  0.50000000
   0.16666667  0.91666667  0.50000000
   0.50000000  0.00000000  0.59169983
   0.41666667  0.41666667  0.50000000
   0.41666667  0.91666667  0.50000000
   0.50000000  0.75000000  0.59169983
   0.66666667  0.16666667  0.50000000
   0.75000000  0.00000000  0.59169983
   0.75000000  0.25000000  0.59169983
   0.66666667  0.66666667  0.50000000
   0.75000000  0.50000000  0.59169983
   0.33333333  0.83333333  0.40830017
   0.50000000  0.25000000  0.59169983
   0.00000000  0.50000000  0.59169983
   0.58333333  0.33333333  0.40830017
   0.41666667  0.16666667  0.50000000
   0.25000000  0.25000000  0.59169983
   0.66666667  0.91666667  0.50000000
   0.91666667  0.91666667  0.50000000
   0.25000000  0.50000000  0.59169983
   0.58333333  0.58333333  0.40830017
   0.58333333  0.08333333  0.40830017
   0.33333333  0.33333333  0.40830017
   0.83333333  0.08333333  0.40830017
   0.25000000  0.00000000  0.59169983
   0.08333333  0.33333333  0.40830017
   0.91666667  0.16666667  0.50000000
   0.00000000  0.25000000  0.59169983
   0.83333333  0.83333333  0.40830017
   0.83333333  0.33333333  0.40830017
   0.66666667  0.41666667  0.50000000
   0.83333333  0.58333333  0.40830017
   0.00000000  0.00000000  0.59169983
   0.58333333  0.83333333  0.40830017
   0.50000000  0.50000000  0.59169983
   0.41666667  0.66666667  0.50000000
Direct configuration=     2
   0.08333333  0.08333333  0.40830017
   0.33333333  0.08333333  0.40830017
   0.91535736  0.66802591  0.49956480
   0.00048781  0.74979989  0.59392288
   0.08333333  0.58333333  0.40830017
   0.08333333  0.83333333  0.40830017
   0.91643453  0.41544740  0.49962260
   0.75048756  0.74981767  0.59399266
   0.25053752  0.74973207  0.59385956
   0.16792889  0.41496778  0.50042806
   0.33333333  0.58333333  0.40830017
   0.16707916  0.66661199  0.50047428
   0.16611696  0.16764679  0.50076595
   0.16514430  0.91766010  0.50084801
   0.49864193  0.00201816  0.59364651
   0.41813174  0.41572645  0.50036601
   0.41773046  0.91670644  0.49997014
   0.49897237  0.74961757  0.59396938
   0.66680315  0.16621798  0.49920696
   0.75023205  0.00034643  0.59360796
   0.75035080  0.25020178  0.59356091
   0.66598835  0.66643884  0.49876396
   0.75053337  0.49877328  0.59388848
   0.33333333  0.83333333  0.40830017
   0.49885175  0.25087891  0.59285249
   0.00097343  0.49907239  0.59316916
   0.58333333  0.33333333  0.40830017
   0.41737775  0.16673886  0.49995790
   0.25014550  0.25014852  0.59278835
   0.66660804  0.91743572  0.49917409
   0.91575689  0.91785185  0.49971692
   0.25058310  0.49907474  0.59306881
   0.58333333  0.58333333  0.40830017
   0.58333333  0.08333333  0.40830017
   0.33333333  0.33333333  0.40830017
   0.83333333  0.08333333  0.40830017
   0.24912633  0.00089177  0.59301828
   0.08333333  0.33333333  0.40830017
   0.91602648  0.16664592  0.49995462
   0.00054658  0.24936034  0.59282039
   0.83333333  0.83333333  0.40830017
   0.83333333  0.33333333  0.40830017
   0.66625966  0.41675594  0.49946724
   0.83333333  0.58333333  0.40830017
   0.00009221  0.00066489  0.59271524
   0.58333333  0.83333333  0.40830017
   0.49963198  0.49964195  0.59272547
   0.41824187  0.66512438  0.49997771
Direct configuration=     3
   0.08333333  0.08333333  0.40830017
   0.33333333  0.08333333  0.40830017
   0.91161928  0.67190658  0.49832230
   0.00188051  0.74922856  0.60026974
   0.08333333  0.58333333  0.40830017
   0.08333333  0.83333333  0.40830017
   0.91577177  0.41196637  0.49854513
   0.75187954  0.74929711  0.60053871
   0.25207216  0.74896714  0.60002560
   0.17153258  0.41011741  0.50165016
   0.33333333  0.58333333  0.40830017
   0.16825685  0.66645589  0.50182835
   0.16454755  0.17044506  0.50295275
   0.16079793  0.92049638  0.50326910
   0.49476461  0.00778004  0.59920432
   0.42231456  0.41304213  0.50141097
   0.42076759  0.91682001  0.49988489
   0.49603848  0.74852574  0.60044898
   0.66719283  0.16493699  0.49694280
   0.75089456  0.00133549  0.59905569
   0.75135236  0.25077786  0.59887431
   0.66405173  0.66578838  0.49523503
   0.75205615  0.49527096  0.60013709
   0.33333333  0.83333333  0.40830017
   0.49557347  0.25338821  0.59614337
   0.00375260  0.49642404  0.59736410
   0.58333333  0.33333333  0.40830017
   0.41940790  0.16694498  0.49983772
   0.25056092  0.25057256  0.59589611
   0.66644066  0.91963138  0.49681611
   0.91315945  0.92123558  0.49890871
   0.25224787  0.49643309  0.59697728
   0.58333333  0.58333333  0.40830017
   0.58333333  0.08333333  0.40830017
   0.33333333  0.33333333  0.40830017
   0.83333333  0.08333333  0.40830017
   0.24663198  0.00343778  0.59678246
   0.08333333  0.33333333  0.40830017
   0.91419872  0.16658669  0.49982506
   0.00210706  0.24753411  0.59601960
   0.83333333  0.83333333  0.40830017
   0.83333333  0.33333333  0.40830017
   0.66509765  0.41701082  0.49794619
   0.83333333  0.58333333  0.40830017
   0.00035546  0.00256315  0.59561423
   0.58333333  0.83333333  0.40830017
   0.49858128  0.49861969  0.59565369
   0.42273912  0.66072114  0.49991409
Direct configuration=     4
   0.08333333  0.08333333  0.40830017
   0.33333333  0.08333333  0.40830017
   0.91139597  0.67180076  0.50043407
   0.00257831  0.74874657  0.60294479
   0.08333333  0.58333333  0.40830017
   0.08333333  0.83333333  0.40830017
   0.91417803  0.41351605  0.50014982
   0.75099625  0.74895627  0.60299489
   0.25162712  0.74876389  0.60294987
   0.17095478  0.41197400  0.50300622
   0.33333333  0.58333333  0.40830017
   0.16824654  0.66620682  0.50407625
   0.16557405  0.16856024  0.50432300
   0.16208477  0.91983814  0.50510050
   0.49494710  0.00748334  0.60164632
   0.42234065  0.41283025  0.50269849
   0.42055222  0.91682933  0.50211967
   0.49712988  0.74862084  0.60312543
   0.66807896  0.16468997  0.49852706
   0.75041486  0.00215437  0.60128401
   0.75071906  0.25048362  0.60105836
   0.66494470  0.66530309  0.49729789
   0.75236136  0.49581971  0.60258960
   0.33333333  0.83333333  0.40830017
   0.49605841  0.25368052  0.59776006
   0.00386760  0.49607200  0.59881963
   0.58333333  0.33333333  0.40830017
   0.42074519  0.16573421  0.50089309
   0.25025276  0.25103531  0.59792278
   0.66633065  0.91986812  0.49814233
   0.91262064  0.92103229  0.50036322
   0.25222822  0.49635394  0.59890048
   0.58333333  0.58333333  0.40830017
   0.58333333  0.08333333  0.40830017
   0.33333333  0.33333333  0.40830017
   0.83333333  0.08333333  0.40830017
   0.24686626  0.00354464  0.59868513
   0.08333333  0.33333333  0.40830017
   0.91226881  0.16734671  0.50095504
   0.00217900  0.24768819  0.59780609
   0.83333333  0.83333333  0.40830017
   0.83333333  0.33333333  0.40830017
   0.66642516  0.41578024  0.49907126
   0.83333333  0.58333333  0.40830017
   0.00000454  0.00280932  0.59737456
   0.58333333  0.83333333  0.40830017
   0.49882481  0.49786703  0.59718773
   0.42214534  0.66156762  0.50149865
Direct configuration=     5
   0.08333333  0.08333333  0.40830017
   0.33333333  0.08333333  0.40830017
   0.91085915  0.67154636  0.50551074
   0.00425581  0.74758785  0.60937557
   0.08333333  0.58333333  0.40830017
   0.08333333  0.83333333  0.40830017
   0.91034672  0.41724147  0.50400746
   0.74887284  0.74813690  0.60889952
   0.25055725  0.74827528  0.60997976
   0.16956578  0.41643719  0.50626615
   0.33333333  0.58333333  0.40830017
   0.16822177  0.66560804  0.50948017
   0.16804172  0.16402916  0.50761706
   0.16517831  0.91825573  0.50950315
   0.49538581  0.00677008  0.60751685
   0.42240337  0.41232091  0.50579368
   0.42003446  0.91685176  0.50749204
   0.49975359  0.74884946  0.60955956
   0.67020922  0.16409613  0.50233557
   0.74926169  0.00412294  0.60664083
   0.74919664  0.24977626  0.60630877
   0.66709138  0.66413645  0.50225695
   0.75309505  0.49713889  0.60848539
   0.33333333  0.83333333  0.40830017
   0.49722419  0.25438322  0.60164656
   0.00414406  0.49522571  0.60231869
   0.58333333  0.33333333  0.40830017
   0.42395999  0.16282354  0.50343017
   0.24951195  0.25214775  0.60279487
   0.66606620  0.92043724  0.50133055
   0.91132535  0.92054358  0.50385985
   0.25218099  0.49616366  0.60352382
   0.58333333  0.58333333  0.40830017
   0.58333333  0.08333333  0.40830017
   0.33333333  0.33333333  0.40830017
   0.83333333  0.08333333  0.40830017
   0.24742946  0.00380152  0.60325912
   0.08333333  0.33333333  0.40830017
   0.90762933  0.16917379  0.50367149
   0.00235197  0.24805859  0.60210079
   0.83333333  0.83333333  0.40830017
   0.83333333  0.33333333  0.40830017
   0.66961646  0.41282195  0.50177591
   0.83333333  0.58333333  0.40830017
  -0.00083908  0.00340108  0.60160637
   0.58333333  0.83333333  0.40830017
   0.49941023  0.49605766  0.60087555
   0.42071792  0.66360256  0.50530792
Direct configuration=     6
   0.08333333  0.08333333  0.40830017
   0.33333333  0.08333333  0.40830017
   0.91073638  0.67148817  0.50667178
   0.00463945  0.74732285  0.61084629
   0.08333333  0.58333333  0.40830017
   0.08333333  0.83333333  0.40830017
   0.90947050  0.41809347  0.50488970
   0.74838722  0.74794951  0.61024991
   0.25031258  0.74816354  0.61158749
   0.16924811  0.41745792  0.50701170
   0.33333333  0.58333333  0.40830017
   0.16821610  0.66547110  0.51071604
   0.16860608  0.16299291  0.50837041
   0.16588580  0.91789383  0.51051003
   0.49548614  0.00660696  0.60885944
   0.42241772  0.41220442  0.50650155
   0.41991605  0.91685688  0.50872070
   0.50035363  0.74890175  0.61103105
   0.67069641  0.16396032  0.50320657
   0.74899796  0.00457315  0.60786593
   0.74884846  0.24961449  0.60750954
   0.66758233  0.66386964  0.50339109
   0.75326285  0.49744058  0.60983376
   0.33333333  0.83333333  0.40830017
   0.49749080  0.25454393  0.60253540
   0.00420729  0.49503216  0.60311892
   0.58333333  0.33333333  0.40830017
   0.42469522  0.16215787  0.50401040
   0.24934253  0.25240217  0.60390912
   0.66600572  0.92056739  0.50205969
   0.91102912  0.92043181  0.50465953
   0.25217019  0.49612014  0.60458118
   0.58333333  0.58333333  0.40830017
   0.58333333  0.08333333  0.40830017
   0.33333333  0.33333333  0.40830017
   0.83333333  0.08333333  0.40830017
   0.24755827  0.00386027  0.60430519
   0.08333333  0.33333333  0.40830017
   0.90656828  0.16959164  0.50429274
   0.00239152  0.24814330  0.60308298
   0.83333333  0.83333333  0.40830017
   0.83333333  0.33333333  0.40830017
   0.67034631  0.41214538  0.50239447
   0.83333333  0.58333333  0.40830017
  -0.00103202  0.00353642  0.60257419
   0.58333333  0.83333333  0.40830017
   0.49954412  0.49564385  0.60171895
   0.42039147  0.66406795  0.50617910
Direct configuration=     7
   0.08333333  0.08333333  0.40830017
   0.33333333  0.08333333  0.40830017
   0.91242675  0.67157315  0.50853041
   0.00109265  0.74858784  0.61267338
   0.08333333  0.58333333  0.40830017
   0.08333333  0.83333333  0.40830017
   0.91561946  0.41458956  0.50643589
   0.74990649  0.74980663  0.61175342
   0.25209431  0.74866819  0.61367164
   0.16842518  0.41442063  0.50769182
   0.33333333  0.58333333  0.40830017
   0.16701026  0.66837570  0.51199433
   0.16584027  0.16822201  0.50890009
   0.16501684  0.91567379  0.51129247
   0.49702782  0.00580380  0.61046142
   0.42161846  0.41344330  0.50694542
   0.42203844  0.91407270  0.51021135
   0.49897716  0.74859876  0.61270471
   0.66784015  0.16463808  0.50485874
   0.74937318  0.00112738  0.60927167
   0.74957158  0.25142414  0.60893434
   0.66408469  0.66700233  0.50534578
   0.75259071  0.49645248  0.61140355
   0.33333333  0.83333333  0.40830017
   0.49773316  0.25267548  0.60380592
   0.00268437  0.49674262  0.60423261
   0.58333333  0.33333333  0.40830017
   0.42159098  0.16384909  0.50566204
   0.24977803  0.25180111  0.60500908
   0.66646477  0.91800198  0.50425424
   0.91527563  0.91677887  0.50653521
   0.25228896  0.49623814  0.60644946
   0.58333333  0.58333333  0.40830017
   0.58333333  0.08333333  0.40830017
   0.33333333  0.33333333  0.40830017
   0.83333333  0.08333333  0.40830017
   0.24887135  0.00215937  0.60654442
   0.08333333  0.33333333  0.40830017
   0.91299782  0.16736462  0.50591185
   0.00114292  0.24894632  0.60416043
   0.83333333  0.83333333  0.40830017
   0.83333333  0.33333333  0.40830017
   0.66677818  0.41501541  0.50433827
   0.83333333  0.58333333  0.40830017
  -0.00103889  0.00253910  0.60402345
   0.58333333  0.83333333  0.40830017
   0.50017553  0.49822373  0.60299141
   0.42011728  0.66460598  0.50788220
Direct configuration=     8
   0.08333333  0.08333333  0.40830017
   0.33333333  0.08333333  0.40830017
   0.91233748  0.67156866  0.50843225
   0.00127997  0.74852103  0.61257688
   0.08333333  0.58333333  0.40830017
   0.08333333  0.83333333  0.40830017
   0.91529471  0.41477461  0.50635423
   0.74982625  0.74970855  0.61167401
   0.25200021  0.74864154  0.61356157
   0.16846864  0.41458104  0.50765590
   0.33333333  0.58333333  0.40830017
   0.16707394  0.66822230  0.51192682
   0.16598634  0.16794584  0.50887212
   0.16506273  0.91579104  0.51125115
   0.49694640  0.00584622  0.61037682
   0.42166067  0.41337788  0.50692198
   0.42192635  0.91421974  0.51013262
   0.49904985  0.74861476  0.61261632
   0.66799100  0.16460229  0.50477149
   0.74935336  0.00130936  0.60919743
   0.74953339  0.25132857  0.60885910
   0.66426941  0.66683688  0.50524255
   0.75262621  0.49650466  0.61132064
   0.33333333  0.83333333  0.40830017
   0.49772036  0.25277416  0.60373882
   0.00276480  0.49665229  0.60417380
   0.58333333  0.33333333  0.40830017
   0.42175493  0.16375977  0.50557482
   0.24975503  0.25183285  0.60495099
   0.66644053  0.91813747  0.50413834
   0.91505136  0.91697179  0.50643615
   0.25228269  0.49623191  0.60635079
   0.58333333  0.58333333  0.40830017
   0.58333333  0.08333333  0.40830017
   0.33333333  0.33333333  0.40830017
   0.83333333  0.08333333  0.40830017
   0.24880201  0.00224920  0.60642616
   0.08333333  0.33333333  0.40830017
   0.91265826  0.16748224  0.50582634
   0.00120886  0.24890391  0.60410353
   0.83333333  0.83333333  0.40830017
   0.83333333  0.33333333  0.40830017
   0.66696663  0.41486384  0.50423561
   0.83333333  0.58333333  0.40830017
  -0.00103852  0.00259177  0.60394691
   0.58333333  0.83333333  0.40830017
   0.50014219  0.49808748  0.60292421
   0.42013176  0.66457757  0.50779225
Direct configuration=     9
   0.08333333  0.08333333  0.40830017
   0.33333333  0.08333333  0.40830017
   0.91322617  0.67051784  0.50860110
   0.00085348  0.74895248  0.61317283
   0.08333333  0.58333333  0.40830017
   0.08333333  0.83333333  0.40830017
   0.91488131  0.41543639  0.50651254
   0.75000470  0.74972148  0.61206712
   0.25171386  0.74895883  0.61415694
   0.16928025  0.41440138  0.50768057
   0.33333333  0.58333333  0.40830017
   0.16751904  0.66718612  0.51221076
   0.16686270  0.16681103  0.50895000
   0.16539379  0.91669828  0.51126113
   0.49719658  0.00519964  0.61072358
   0.41916572  0.41520316  0.50695655
   0.41980393  0.91559339  0.51035283
   0.49920631  0.74857035  0.61312997
   0.66887968  0.16356739  0.50533053
   0.74984485  0.00075235  0.60939855
   0.75000004  0.25085982  0.60896093
   0.66572729  0.66552277  0.50572172
   0.75202407  0.49729390  0.61153928
   0.33333333  0.83333333  0.40830017
   0.49817832  0.25213087  0.60411358
   0.00188937  0.49776449  0.60473617
   0.58333333  0.33333333  0.40830017
   0.41925621  0.16442031  0.50639683
   0.25006988  0.25104962  0.60515512
   0.66706919  0.91730344  0.50516367
   0.91561957  0.91700900  0.50715056
   0.25215085  0.49693201  0.60681501
   0.58333333  0.58333333  0.40830017
   0.58333333  0.08333333  0.40830017
   0.33333333  0.33333333  0.40830017
   0.83333333  0.08333333  0.40830017
   0.24897664  0.00193674  0.60703426
   0.08333333  0.33333333  0.40830017
   0.91517342  0.16601859  0.50649810
   0.00123875  0.24863271  0.60454939
   0.83333333  0.83333333  0.40830017
   0.83333333  0.33333333  0.40830017
   0.66690731  0.41616127  0.50519135
   0.83333333  0.58333333  0.40830017
  -0.00094678  0.00180155  0.60459086
   0.58333333  0.83333333  0.40830017
   0.50001145  0.49931355  0.60340440
   0.41926241  0.66469807  0.50832204
Direct configuration=    10
   0.08333333  0.08333333  0.40830017
   0.33333333  0.08333333  0.40830017
   0.91327007  0.67046593  0.50860944
   0.00083242  0.74897379  0.61320227
   0.08333333  0.58333333  0.40830017
   0.08333333  0.83333333  0.40830017
   0.91486089  0.41546908  0.50652036
   0.75001352  0.74972212  0.61208654
   0.25169972  0.74897450  0.61418636
   0.16932034  0.41439251  0.50768179
   0.33333333  0.58333333  0.40830017
   0.16754103  0.66713493  0.51222479
   0.16690600  0.16675496  0.50895384
   0.16541014  0.91674310  0.51126162
   0.49720894  0.00516770  0.61074071
   0.41904246  0.41529333  0.50695825
   0.41969908  0.91566126  0.51036371
   0.49921404  0.74856815  0.61315534
   0.66892358  0.16351627  0.50535815
   0.74986913  0.00072483  0.60940849
   0.75002310  0.25083667  0.60896596
   0.66579932  0.66545785  0.50574539
   0.75199433  0.49733289  0.61155008
   0.33333333  0.83333333  0.40830017
   0.49820094  0.25209909  0.60413210
   0.00184612  0.49781943  0.60476395
   0.58333333  0.33333333  0.40830017
   0.41913277  0.16445294  0.50643744
   0.25008543  0.25101093  0.60516520
   0.66710025  0.91726224  0.50521432
   0.91564765  0.91701084  0.50718585
   0.25214434  0.49696659  0.60683794
   0.58333333  0.58333333  0.40830017
   0.58333333  0.08333333  0.40830017
   0.33333333  0.33333333  0.40830017
   0.83333333  0.08333333  0.40830017
   0.24898527  0.00192130  0.60706430
   0.08333333  0.33333333  0.40830017
   0.91529767  0.16594629  0.50653128
   0.00124023  0.24861932  0.60457142
   0.83333333  0.83333333  0.40830017
   0.83333333  0.33333333  0.40830017
   0.66690438  0.41622536  0.50523856
   0.83333333  0.58333333  0.40830017
  -0.00094225  0.00176251  0.60462267
   0.58333333  0.83333333  0.40830017
   0.50000499  0.49937412  0.60342813
   0.41921947  0.66470402  0.50834821
Direct configuration=    11
   0.08333333  0.08333333  0.40830017
   0.33333333  0.08333333  0.40830017
   0.91388085  0.66993455  0.50839765
   0.00150498  0.74880047  0.61351390
   0.08333333  0.58333333  0.40830017
   0.08333333  0.83333333  0.40830017
   0.91472710  0.41533987  0.50643449
   0.74974876  0.74946400  0.61227856
   0.25097701  0.74929531  0.61444307
   0.16906171  0.41459886  0.50774221
   0.33333333  0.58333333  0.40830017
   0.16729083  0.66722094  0.51235530
   0.16689246  0.16647544  0.50904438
   0.16579056  0.91662318  0.51128712
   0.49721334  0.00472972  0.61082596
   0.41956503  0.41476124  0.50705030
   0.41966011  0.91551347  0.51026340
   0.49940675  0.74895303  0.61338928
   0.66890540  0.16398696  0.50544341
   0.74994318  0.00112498  0.60946277
   0.75006370  0.25038680  0.60881480
   0.66581061  0.66560939  0.50575458
   0.75193461  0.49773688  0.61157979
   0.33333333  0.83333333  0.40830017
   0.49844922  0.25234666  0.60416990
   0.00190643  0.49791173  0.60509293
   0.58333333  0.33333333  0.40830017
   0.41920147  0.16443273  0.50681389
   0.24991742  0.25101801  0.60522756
   0.66686614  0.91715990  0.50567951
   0.91585103  0.91703114  0.50743421
   0.25208053  0.49716885  0.60703214
   0.58333333  0.58333333  0.40830017
   0.58333333  0.08333333  0.40830017
   0.33333333  0.33333333  0.40830017
   0.83333333  0.08333333  0.40830017
   0.24874845  0.00191504  0.60734898
   0.08333333  0.33333333  0.40830017
   0.91514306  0.16605673  0.50679796
   0.00150963  0.24846653  0.60478198
   0.83333333  0.83333333  0.40830017
   0.83333333  0.33333333  0.40830017
   0.66727498  0.41564891  0.50569200
   0.83333333  0.58333333  0.40830017
  -0.00052966  0.00126027  0.60509072
   0.58333333  0.83333333  0.40830017
   0.49976533  0.49926686  0.60367051
   0.41892498  0.66514414  0.50850642
Direct configuration=    12
   0.08333333  0.08333333  0.40830017
   0.33333333  0.08333333  0.40830017
   0.91409914  0.66974463  0.50832196
   0.00174536  0.74873852  0.61362527
   0.08333333  0.58333333  0.40830017
   0.08333333  0.83333333  0.40830017
   0.91467928  0.41529369  0.50640380
   0.74965413  0.74937174  0.61234718
   0.25071871  0.74940996  0.61453482
   0.16896927  0.41467262  0.50776381
   0.33333333  0.58333333  0.40830017
   0.16720141  0.66725167  0.51240195
   0.16688762  0.16637553  0.50907673
   0.16592653  0.91658032  0.51129623
   0.49721491  0.00457319  0.61085643
   0.41975179  0.41457107  0.50708319
   0.41964619  0.91546065  0.51022755
   0.49947563  0.74909059  0.61347288
   0.66889891  0.16415518  0.50547389
   0.74996965  0.00126799  0.60948217
   0.75007821  0.25022601  0.60876077
   0.66581465  0.66566356  0.50575787
   0.75191327  0.49788127  0.61159040
   0.33333333  0.83333333  0.40830017
   0.49853796  0.25243514  0.60418341
   0.00192799  0.49794471  0.60521050
   0.58333333  0.33333333  0.40830017
   0.41922602  0.16442550  0.50694844
   0.24985737  0.25102054  0.60524985
   0.66678246  0.91712332  0.50584577
   0.91592372  0.91703839  0.50752297
   0.25205772  0.49724113  0.60710154
   0.58333333  0.58333333  0.40830017
   0.58333333  0.08333333  0.40830017
   0.33333333  0.33333333  0.40830017
   0.83333333  0.08333333  0.40830017
   0.24866381  0.00191280  0.60745072
   0.08333333  0.33333333  0.40830017
   0.91508780  0.16609620  0.50689327
   0.00160592  0.24841193  0.60485724
   0.83333333  0.83333333  0.40830017
   0.83333333  0.33333333  0.40830017
   0.66740744  0.41544289  0.50585406
   0.83333333  0.58333333  0.40830017
  -0.00038221  0.00108077  0.60525800
   0.58333333  0.83333333  0.40830017
   0.49967967  0.49922853  0.60375714
   0.41881973  0.66530144  0.50856297
Direct configuration=    13
   0.08333333  0.08333333  0.40830017
   0.33333333  0.08333333  0.40830017
   0.91405181  0.66976480  0.50815015
   0.00163723  0.74858488  0.61394050
   0.08333333  0.58333333  0.40830017
   0.08333333  0.83333333  0.40830017
   0.91476267  0.41501486  0.50635239
   0.75007863  0.74938340  0.61248414
   0.25095966  0.74947767  0.61479168
   0.16887064  0.41451750  0.50789175
   0.33333333  0.58333333  0.40830017
   0.16733139  0.66733153  0.51251953
   0.16669824  0.16654314  0.50919588
   0.16583354  0.91640856  0.51143080
   0.49710446  0.00473430  0.61090887
   0.42014409  0.41440272  0.50716087
   0.42000389  0.91521645  0.51009996
   0.49893394  0.74925491  0.61366128
   0.66895267  0.16403198  0.50534254
   0.75003455  0.00105999  0.60954705
   0.75030724  0.25035314  0.60865660
   0.66561465  0.66579721  0.50566432
   0.75204727  0.49755929  0.61157867
   0.33333333  0.83333333  0.40830017
   0.49838832  0.25264262  0.60425076
   0.00213376  0.49788775  0.60545591
   0.58333333  0.33333333  0.40830017
   0.41971566  0.16420220  0.50718584
   0.24977407  0.25117878  0.60530420
   0.66684807  0.91720648  0.50618768
   0.91581238  0.91711329  0.50769496
   0.25218817  0.49703188  0.60723886
   0.58333333  0.58333333  0.40830017
   0.58333333  0.08333333  0.40830017
   0.33333333  0.33333333  0.40830017
   0.83333333  0.08333333  0.40830017
   0.24849357  0.00187952  0.60767051
   0.08333333  0.33333333  0.40830017
   0.91483467  0.16607316  0.50706962
   0.00163449  0.24848422  0.60504037
   0.83333333  0.83333333  0.40830017
   0.83333333  0.33333333  0.40830017
   0.66747070  0.41527029  0.50617750
   0.83333333  0.58333333  0.40830017
   0.00005587  0.00089968  0.60571246
   0.58333333  0.83333333  0.40830017
   0.49938370  0.49931193  0.60400882
   0.41901042  0.66510722  0.50870424
Direct configuration=    14
   0.08333333  0.08333333  0.40830017
   0.33333333  0.08333333  0.40830017
   0.91403605  0.66977151  0.50809296
   0.00160124  0.74853374  0.61404542
   0.08333333  0.58333333  0.40830017
   0.08333333  0.83333333  0.40830017
   0.91479043  0.41492205  0.50633528
   0.75021992  0.74938728  0.61252972
   0.25103986  0.74950021  0.61487717
   0.16883781  0.41446587  0.50793433
   0.33333333  0.58333333  0.40830017
   0.16737465  0.66735811  0.51255867
   0.16663521  0.16659892  0.50923554
   0.16580259  0.91635139  0.51147558
   0.49706769  0.00478792  0.61092632
   0.42027467  0.41434668  0.50718672
   0.42012295  0.91513517  0.51005749
   0.49875364  0.74930960  0.61372399
   0.66897057  0.16399097  0.50529882
   0.75005616  0.00099076  0.60956865
   0.75038347  0.25039545  0.60862193
   0.66554808  0.66584170  0.50563319
   0.75209187  0.49745213  0.61157476
   0.33333333  0.83333333  0.40830017
   0.49833852  0.25271168  0.60427318
   0.00220225  0.49786878  0.60553759
   0.58333333  0.33333333  0.40830017
   0.41987863  0.16412787  0.50726485
   0.24974635  0.25123145  0.60532228
   0.66686991  0.91723416  0.50630149
   0.91577532  0.91713821  0.50775221
   0.25223158  0.49696223  0.60728456
   0.58333333  0.58333333  0.40830017
   0.58333333  0.08333333  0.40830017
   0.33333333  0.33333333  0.40830017
   0.83333333  0.08333333  0.40830017
   0.24843691  0.00186844  0.60774367
   0.08333333  0.33333333  0.40830017
   0.91475041  0.16606549  0.50712832
   0.00164400  0.24850829  0.60510132
   0.83333333  0.83333333  0.40830017
   0.83333333  0.33333333  0.40830017
   0.66749176  0.41521285  0.50628516
   0.83333333  0.58333333  0.40830017
   0.00020168  0.00083941  0.60586373
   0.58333333  0.83333333  0.40830017
   0.49928519  0.49933969  0.60409260
   0.41907389  0.66504258  0.50875126
Direct configuration=    15
   0.08333333  0.08333333  0.40830017
   0.33333333  0.08333333  0.40830017
   0.91380428  0.66989288  0.50808010
   0.00164851  0.74837985  0.61428795
   0.08333333  0.58333333  0.40830017
   0.08333333  0.83333333  0.40830017
   0.91471465  0.41501699  0.50636527
   0.75031284  0.74924980  0.61259023
   0.25119807  0.74926439  0.61510983
   0.16908846  0.41439592  0.50804129
   0.33333333  0.58333333  0.40830017
   0.16763174  0.66708079  0.51272533
   0.16684968  0.16628369  0.50935556
   0.16559681  0.91652234  0.51167344
   0.49693237  0.00498709  0.61097036
   0.41997662  0.41457068  0.50721970
   0.41995634  0.91531415  0.51003855
   0.49883747  0.74921468  0.61384182
   0.66912354  0.16358365  0.50513259
   0.75012675  0.00099945  0.60963681
   0.75051751  0.25031583  0.60860662
   0.66574929  0.66554783  0.50559580
   0.75199597  0.49762405  0.61153084
   0.33333333  0.83333333  0.40830017
   0.49835217  0.25263741  0.60438318
   0.00219484  0.49786567  0.60560302
   0.58333333  0.33333333  0.40830017
   0.41996852  0.16406700  0.50730139
   0.24976575  0.25125382  0.60541174
   0.66718860  0.91720474  0.50644700
   0.91575157  0.91704086  0.50787027
   0.25224960  0.49689860  0.60735450
   0.58333333  0.58333333  0.40830017
   0.58333333  0.08333333  0.40830017
   0.33333333  0.33333333  0.40830017
   0.83333333  0.08333333  0.40830017
   0.24846150  0.00204007  0.60781241
   0.08333333  0.33333333  0.40830017
   0.91486572  0.16577086  0.50721135
   0.00169886  0.24858451  0.60522637
   0.83333333  0.83333333  0.40830017
   0.83333333  0.33333333  0.40830017
   0.66739456  0.41545552  0.50639719
   0.83333333  0.58333333  0.40830017
   0.00029441  0.00079639  0.60614004
   0.58333333  0.83333333  0.40830017
   0.49918028  0.49943929  0.60433625
   0.41936014  0.66467533  0.50884137
Direct configuration=    16
   0.08333333  0.08333333  0.40830017
   0.33333333  0.08333333  0.40830017
   0.91377046  0.66991060  0.50807822
   0.00165540  0.74835738  0.61432336
   0.08333333  0.58333333  0.40830017
   0.08333333  0.83333333  0.40830017
   0.91470359  0.41503084  0.50636964
   0.75032640  0.74922973  0.61259906
   0.25122117  0.74922997  0.61514379
   0.16912504  0.41438571  0.50805691
   0.33333333  0.58333333  0.40830017
   0.16766927  0.66704031  0.51274965
   0.16688099  0.16623768  0.50937308
   0.16556677  0.91654730  0.51170232
   0.49691262  0.00501616  0.61097679
   0.41993311  0.41460337  0.50722451
   0.41993202  0.91534028  0.51003578
   0.49884970  0.74920083  0.61385902
   0.66914587  0.16352419  0.50510832
   0.75013705  0.00100072  0.60964676
   0.75053708  0.25030421  0.60860438
   0.66577866  0.66550494  0.50559034
   0.75198197  0.49764915  0.61152442
   0.33333333  0.83333333  0.40830017
   0.49835416  0.25262657  0.60439924
   0.00219376  0.49786521  0.60561257
   0.58333333  0.33333333  0.40830017
   0.41998164  0.16405812  0.50730672
   0.24976858  0.25125708  0.60542480
   0.66723511  0.91720045  0.50646824
   0.91574810  0.91702665  0.50788750
   0.25225223  0.49688931  0.60736470
   0.58333333  0.58333333  0.40830017
   0.58333333  0.08333333  0.40830017
   0.33333333  0.33333333  0.40830017
   0.83333333  0.08333333  0.40830017
   0.24846509  0.00206512  0.60782244
   0.08333333  0.33333333  0.40830017
   0.91488255  0.16572785  0.50722347
   0.00170687  0.24859564  0.60524463
   0.83333333  0.83333333  0.40830017
   0.83333333  0.33333333  0.40830017
   0.66738037  0.41549094  0.50641354
   0.83333333  0.58333333  0.40830017
   0.00030794  0.00079011  0.60618037
   0.58333333  0.83333333  0.40830017
   0.49916497  0.49945383  0.60437182
   0.41940192  0.66462172  0.50885452
Direct configuration=    17
   0.08333333  0.08333333  0.40830017
   0.33333333  0.08333333  0.40830017
   0.91385147  0.66985607  0.50814667
   0.00179320  0.74824908  0.61455890