  48  48   0   0
  0.5349325E+02  0.1100258E-08  0.1100258E-08  0.2449179E-08  0.3500000E-15
  1.000000000000000E-004
  CAR 
 unknown system                          
      6.38049904     -9.75977502  301     -1.07100121      1.00000000
     -9.760  0.0000E+00  0.0000E+00
     -9.706  0.0000E+00  0.0000E+00
     -9.652  0.0000E+00  0.0000E+00
     -9.598  0.0000E+00  0.0000E+00
     -9.545  0.0000E+00  0.0000E+00
     -9.491  0.0000E+00  0.0000E+00
     -9.437  0.0000E+00  0.0000E+00
     -9.383  0.0000E+00  0.0000E+00
     -9.329  0.7566E-17  0.4071E-18
     -9.276  0.3230E-14  0.1742E-15
     -9.222  0.7185E-12  0.3883E-13
     -9.168  0.9078E-10  0.4923E-11
     -9.114  0.6525E-08  0.3560E-09
     -9.060  0.2674E-06  0.1474E-07
     -9.007  0.6262E-05  0.3517E-06
     -8.953  0.8401E-04  0.4872E-05
     -8.899  0.6474E-03  0.3970E-04
     -8.845  0.2874E-02  0.1943E-03
     -8.791  0.7390E-02  0.5919E-03
     -8.738  0.1125E-01  0.1197E-02
     -8.684  0.1127E-01  0.1804E-02
     -8.630  0.1043E-01  0.2365E-02
     -8.576  0.1136E-01  0.2976E-02
     -8.522  0.1037E-01  0.3534E-02
     -8.469  0.6059E-02  0.3860E-02
     -8.415  0.2116E-02  0.3974E-02
     -8.361  0.4524E-03  0.3998E-02
     -8.307  0.2118E-03  0.4009E-02
     -8.253  0.8376E-03  0.4054E-02
     -8.200  0.2706E-02  0.4200E-02
     -8.146  0.5908E-02  0.4518E-02
     -8.092  0.9664E-02  0.5038E-02
     -8.038  0.1316E-01  0.5746E-02
     -7.984  0.1638E-01  0.6627E-02
     -7.931  0.1933E-01  0.7667E-02
     -7.877  0.2089E-01  0.8791E-02
     -7.823  0.2027E-01  0.9882E-02
     -7.769  0.1752E-01  0.1082E-01
     -7.715  0.1280E-01  0.1151E-01
     -7.662  0.8416E-02  0.1197E-01
     -7.608  0.8665E-02  0.1243E-01
     -7.554  0.1454E-01  0.1321E-01
     -7.500  0.2114E-01  0.1435E-01
     -7.446  0.2354E-01  0.1562E-01
     -7.393  0.2279E-01  0.1684E-01
     -7.339  0.2297E-01  0.1808E-01
     -7.285  0.2457E-01  0.1940E-01
     -7.231  0.2542E-01  0.2077E-01
     -7.177  0.2700E-01  0.2222E-01
     -7.124  0.3364E-01  0.2403E-01
     -7.070  0.4516E-01  0.2646E-01
     -7.016  0.5478E-01  0.2941E-01
     -6.962  0.5876E-01  0.3257E-01
     -6.908  0.6358E-01  0.3599E-01
     -6.855  0.7454E-01  0.4000E-01
     -6.801  0.8595E-01  0.4463E-01
     -6.747  0.8968E-01  0.4945E-01
     -6.693  0.8759E-01  0.5416E-01
     -6.639  0.8957E-01  0.5898E-01
     -6.586  0.9725E-01  0.6421E-01
     -6.532  0.1017E+00  0.6969E-01
     -6.478  0.1016E+00  0.7515E-01
     -6.424  0.1057E+00  0.8084E-01
     -6.370  0.1147E+00  0.8701E-01
     -6.317  0.1205E+00  0.9349E-01
     -6.263  0.1234E+00  0.1001E+00
     -6.209  0.1284E+00  0.1070E+00
     -6.155  0.1353E+00  0.1143E+00
     -6.101  0.1421E+00  0.1220E+00
     -6.048  0.1503E+00  0.1300E+00
     -5.994  0.1590E+00  0.1386E+00
     -5.940  0.1617E+00  0.1473E+00
     -5.886  0.1559E+00  0.1557E+00
     -5.832  0.1460E+00  0.1635E+00
     -5.779  0.1368E+00  0.1709E+00
     -5.725  0.1305E+00  0.1779E+00
     -5.671  0.1292E+00  0.1849E+00
     -5.617  0.1321E+00  0.1920E+00
     -5.563  0.1353E+00  0.1993E+00
     -5.510  0.1377E+00  0.2067E+00
     -5.456  0.1429E+00  0.2144E+00
     -5.402  0.1526E+00  0.2226E+00
     -5.348  0.1617E+00  0.2313E+00
     -5.294  0.1644E+00  0.2401E+00
     -5.240  0.1623E+00  0.2488E+00
     -5.187  0.1617E+00  0.2575E+00
     -5.133  0.1656E+00  0.2665E+00
     -5.079  0.1694E+00  0.2756E+00
     -5.025  0.1693E+00  0.2847E+00
     -4.971  0.1695E+00  0.2938E+00
     -4.918  0.1731E+00  0.3031E+00
     -4.864  0.1764E+00  0.3126E+00
     -4.810  0.1777E+00  0.3222E+00
     -4.756  0.1778E+00  0.3317E+00
     -4.702  0.1768E+00  0.3412E+00
     -4.649  0.1760E+00  0.3507E+00
     -4.595  0.1756E+00  0.3602E+00
     -4.541  0.1752E+00  0.3696E+00
     -4.487  0.1749E+00  0.3790E+00
     -4.433  0.1741E+00  0.3884E+00
     -4.380  0.1726E+00  0.3976E+00
     -4.326  0.1729E+00  0.4069E+00
     -4.272  0.1749E+00  0.4164E+00
     -4.218  0.1769E+00  0.4259E+00
     -4.164  0.1816E+00  0.4356E+00
     -4.111  0.1885E+00  0.4458E+00
     -4.057  0.1924E+00  0.4561E+00
     -4.003  0.1927E+00  0.4665E+00
     -3.949  0.1911E+00  0.4768E+00
     -3.895  0.1895E+00  0.4870E+00
     -3.842  0.1914E+00  0.4973E+00
     -3.788  0.1970E+00  0.5079E+00
     -3.734  0.2022E+00  0.5187E+00
     -3.680  0.2032E+00  0.5297E+00
     -3.626  0.1994E+00  0.5404E+00
     -3.573  0.1942E+00  0.5508E+00
     -3.519  0.1921E+00  0.5612E+00
     -3.465  0.1929E+00  0.5716E+00
     -3.411  0.1935E+00  0.5820E+00
     -3.357  0.1946E+00  0.5924E+00
     -3.304  0.1996E+00  0.6032E+00
     -3.250  0.2058E+00  0.6142E+00
     -3.196  0.2073E+00  0.6254E+00
     -3.142  0.2045E+00  0.6364E+00
     -3.088  0.2012E+00  0.6472E+00
     -3.035  0.1974E+00  0.6578E+00
     -2.981  0.1916E+00  0.6682E+00
     -2.927  0.1857E+00  0.6781E+00
     -2.873  0.1806E+00  0.6879E+00
     -2.819  0.1743E+00  0.6972E+00
     -2.766  0.1699E+00  0.7064E+00
     -2.712  0.1714E+00  0.7156E+00
     -2.658  0.1751E+00  0.7250E+00
     -2.604  0.1753E+00  0.7345E+00
     -2.550  0.1715E+00  0.7437E+00
     -2.497  0.1686E+00  0.7528E+00
     -2.443  0.1724E+00  0.7620E+00
     -2.389  0.1800E+00  0.7717E+00
     -2.335  0.1836E+00  0.7816E+00
     -2.281  0.1831E+00  0.7914E+00
     -2.228  0.1816E+00  0.8012E+00
     -2.174  0.1778E+00  0.8108E+00
     -2.120  0.1710E+00  0.8200E+00
     -2.066  0.1643E+00  0.8288E+00
     -2.012  0.1636E+00  0.8376E+00
     -1.959  0.1716E+00  0.8468E+00
     -1.905  0.1841E+00  0.8568E+00
     -1.851  0.1939E+00  0.8672E+00
     -1.797  0.1992E+00  0.8779E+00
     -1.743  0.2034E+00  0.8888E+00
     -1.690  0.2063E+00  0.8999E+00
     -1.636  0.2025E+00  0.9108E+00
     -1.582  0.1930E+00  0.9212E+00
     -1.528  0.1866E+00  0.9313E+00
     -1.474  0.1889E+00  0.9414E+00
     -1.421  0.1956E+00  0.9519E+00
     -1.367  0.1996E+00  0.9627E+00
     -1.313  0.1959E+00  0.9732E+00
     -1.259  0.1819E+00  0.9830E+00
     -1.205  0.1612E+00  0.9917E+00
     -1.152  0.1387E+00  0.9991E+00
     -1.098  0.1154E+00  0.1005E+01
     -1.044  0.9363E-01  0.1010E+01
     -0.990  0.7426E-01  0.1014E+01
     -0.936  0.5407E-01  0.1017E+01
     -0.883  0.3514E-01  0.1019E+01
     -0.829  0.2422E-01  0.1020E+01
     -0.775  0.2185E-01  0.1022E+01
     -0.721  0.2148E-01  0.1023E+01
     -0.667  0.1995E-01  0.1024E+01
     -0.614  0.2061E-01  0.1025E+01
     -0.560  0.2615E-01  0.1026E+01
     -0.506  0.3481E-01  0.1028E+01
     -0.452  0.4157E-01  0.1031E+01
     -0.398  0.4170E-01  0.1033E+01
     -0.345  0.3661E-01  0.1035E+01
     -0.291  0.3328E-01  0.1037E+01
     -0.237  0.3620E-01  0.1038E+01
     -0.183  0.4055E-01  0.1041E+01
     -0.129  0.3883E-01  0.1043E+01
     -0.076  0.3233E-01  0.1044E+01
     -0.022  0.2713E-01  0.1046E+01
      0.032  0.2509E-01  0.1047E+01
      0.086  0.2574E-01  0.1049E+01
      0.140  0.3024E-01  0.1050E+01
      0.193  0.3718E-01  0.1052E+01
      0.247  0.4134E-01  0.1055E+01
      0.301  0.4146E-01  0.1057E+01
      0.355  0.4022E-01  0.1059E+01
      0.409  0.3848E-01  0.1061E+01
      0.462  0.3652E-01  0.1063E+01
      0.516  0.3476E-01  0.1065E+01
      0.570  0.3445E-01  0.1067E+01
      0.624  0.3853E-01  0.1069E+01
      0.678  0.4419E-01  0.1071E+01
      0.731  0.4399E-01  0.1073E+01
      0.785  0.3697E-01  0.1075E+01
      0.839  0.2766E-01  0.1077E+01
      0.893  0.2046E-01  0.1078E+01
      0.947  0.1846E-01  0.1079E+01
      1.000  0.2018E-01  0.1080E+01
      1.054  0.2189E-01  0.1081E+01
      1.108  0.2226E-01  0.1083E+01
      1.162  0.2057E-01  0.1084E+01
      1.216  0.1736E-01  0.1085E+01
      1.269  0.1545E-01  0.1085E+01
      1.323  0.1517E-01  0.1086E+01
      1.377  0.1533E-01  0.1087E+01
      1.431  0.1743E-01  0.1088E+01
      1.485  0.2233E-01  0.1089E+01
      1.538  0.2761E-01  0.1091E+01
      1.592  0.3018E-01  0.1092E+01
      1.646  0.3195E-01  0.1094E+01
      1.700  0.3752E-01  0.1096E+01
      1.754  0.4438E-01  0.1098E+01
      1.807  0.4417E-01  0.1101E+01
      1.861  0.3365E-01  0.1103E+01
      1.915  0.1955E-01  0.1104E+01
      1.969  0.1230E-01  0.1104E+01
      2.023  0.1499E-01  0.1105E+01
      2.076  0.2124E-01  0.1106E+01
      2.130  0.2603E-01  0.1108E+01
      2.184  0.3107E-01  0.1109E+01
      2.238  0.3619E-01  0.1111E+01
      2.292  0.3880E-01  0.1113E+01
      2.345  0.4040E-01  0.1116E+01
      2.399  0.4194E-01  0.1118E+01
      2.453  0.4097E-01  0.1120E+01
      2.507  0.3789E-01  0.1122E+01
      2.561  0.3783E-01  0.1124E+01
      2.614  0.4380E-01  0.1126E+01
      2.668  0.5165E-01  0.1129E+01
      2.722  0.5400E-01  0.1132E+01
      2.776  0.4681E-01  0.1135E+01
      2.830  0.3306E-01  0.1136E+01
      2.883  0.2083E-01  0.1138E+01
      2.937  0.1561E-01  0.1138E+01
      2.991  0.1552E-01  0.1139E+01
      3.045  0.1729E-01  0.1140E+01
      3.099  0.2211E-01  0.1141E+01
      3.152  0.2837E-01  0.1143E+01
      3.206  0.2830E-01  0.1144E+01
      3.260  0.1932E-01  0.1145E+01
      3.314  0.9220E-02  0.1146E+01
      3.368  0.5578E-02  0.1146E+01
      3.421  0.8368E-02  0.1147E+01
      3.475  0.1383E-01  0.1147E+01
      3.529  0.2024E-01  0.1148E+01
      3.583  0.2813E-01  0.1150E+01
      3.637  0.3751E-01  0.1152E+01
      3.690  0.4565E-01  0.1154E+01
      3.744  0.4648E-01  0.1157E+01
      3.798  0.3770E-01  0.1159E+01
      3.852  0.2713E-01  0.1160E+01
      3.906  0.2248E-01  0.1162E+01
      3.959  0.2280E-01  0.1163E+01
      4.013  0.2504E-01  0.1164E+01
      4.067  0.2639E-01  0.1166E+01
      4.121  0.2515E-01  0.1167E+01
      4.175  0.2374E-01  0.1168E+01
      4.228  0.2358E-01  0.1170E+01
      4.282  0.2213E-01  0.1171E+01
      4.336  0.1891E-01  0.1172E+01
      4.390  0.1833E-01  0.1173E+01
      4.444  0.2259E-01  0.1174E+01
      4.497  0.2966E-01  0.1176E+01
      4.551  0.3962E-01  0.1178E+01
      4.605  0.5142E-01  0.1180E+01
      4.659  0.5809E-01  0.1184E+01
      4.713  0.5512E-01  0.1187E+01
      4.766  0.4892E-01  0.1189E+01
      4.820  0.4832E-01  0.1192E+01
      4.874  0.5302E-01  0.1195E+01
      4.928  0.5793E-01  0.1198E+01
      4.982  0.6289E-01  0.1201E+01
      5.035  0.6876E-01  0.1205E+01
      5.089  0.7002E-01  0.1209E+01
      5.143  0.6455E-01  0.1212E+01
      5.197  0.5903E-01  0.1215E+01
      5.251  0.5497E-01  0.1218E+01
      5.304  0.4630E-01  0.1221E+01
      5.358  0.3211E-01  0.1222E+01
      5.412  0.1798E-01  0.1223E+01
      5.466  0.7877E-02  0.1224E+01
      5.520  0.2475E-02  0.1224E+01
      5.573  0.5067E-03  0.1224E+01
      5.627  0.6336E-04  0.1224E+01
      5.681  0.4676E-05  0.1224E+01
      5.735  0.2001E-06  0.1224E+01
      5.789  0.4922E-08  0.1224E+01
      5.842  0.6918E-10  0.1224E+01
      5.896  0.5538E-12  0.1224E+01
      5.950  0.2518E-14  0.1224E+01
      6.004  0.6879E-17  0.1224E+01
      6.058  0.0000E+00  0.1224E+01
      6.111  0.0000E+00  0.1224E+01
      6.165  0.0000E+00  0.1224E+01
      6.219  0.0000E+00  0.1224E+01
      6.273  0.0000E+00  0.1224E+01
      6.327  0.0000E+00  0.1224E+01
      6.380  0.0000E+00  0.1224E+01
