unknown system                          
           1
    11.002582    0.000000    0.000000
     5.501291    9.528515    0.000000
     0.000000    0.000000   24.491785
   Au   Pd
  24  24
Direct configuration=     1
   0.25000000  0.75000000  0.59169983
   0.33333333  0.83333333  0.40830017
   0.16666667  0.91666667  0.50000000
   0.58333333  0.08333333  0.40830017
   0.41666667  0.41666667  0.50000000
   0.50000000  0.25000000  0.59169983
   0.58333333  0.58333333  0.40830017
   0.25000000  0.50000000  0.59169983
   0.50000000  0.50000000  0.59169983
   0.83333333  0.08333333  0.40830017
   0.66666667  0.16666667  0.50000000
   0.66666667  0.41666667  0.50000000
   0.66666667  0.66666667  0.50000000
   0.75000000  0.50000000  0.59169983
   0.83333333  0.83333333  0.40830017
   0.50000000  0.75000000  0.59169983
   0.16666667  0.66666667  0.50000000
   0.75000000  0.75000000  0.59169983
   0.16666667  0.41666667  0.50000000
   0.91666667  0.16666667  0.50000000
   0.00000000  0.00000000  0.59169983
   0.91666667  0.41666667  0.50000000
   0.00000000  0.75000000  0.59169983
   0.00000000  0.25000000  0.59169983
   0.33333333  0.58333333  0.40830017
   0.08333333  0.33333333  0.40830017
   0.83333333  0.58333333  0.40830017
   0.75000000  0.25000000  0.59169983
   0.83333333  0.33333333  0.40830017
   0.75000000  0.00000000  0.59169983
   0.08333333  0.58333333  0.40830017
   0.91666667  0.66666667  0.50000000
   0.41666667  0.91666667  0.50000000
   0.00000000  0.50000000  0.59169983
   0.25000000  0.25000000  0.59169983
   0.41666667  0.66666667  0.50000000
   0.08333333  0.83333333  0.40830017
   0.91666667  0.91666667  0.50000000
   0.58333333  0.33333333  0.40830017
   0.50000000  0.00000000  0.59169983
   0.41666667  0.16666667  0.50000000
   0.33333333  0.08333333  0.40830017
   0.66666667  0.91666667  0.50000000
   0.16666667  0.16666667  0.50000000
   0.25000000  0.00000000  0.59169983
   0.33333333  0.33333333  0.40830017
   0.58333333  0.83333333  0.40830017
   0.08333333  0.08333333  0.40830017
Direct configuration=     2
   0.25050011  0.75064014  0.59395780
   0.33311000  0.83382780  0.40647152
   0.16736616  0.91741223  0.49951592
   0.58156622  0.08375536  0.40644312
   0.41656562  0.41659581  0.49880279
   0.50047116  0.24809318  0.59387382
   0.58338876  0.58293022  0.40614089
   0.24922802  0.49910618  0.59428825
   0.50047777  0.49977698  0.59402624
   0.83435170  0.08350801  0.40606407
   0.66688279  0.16521150  0.50035251
   0.66652274  0.41609275  0.49949155
   0.66621506  0.66898508  0.49923241
   0.75079145  0.49927727  0.59432429
   0.83415083  0.83181833  0.40674229
   0.49870970  0.75190326  0.59355166
   0.16574910  0.66742477  0.49878281
   0.75027134  0.75113701  0.59356229
   0.16627621  0.41537677  0.49953129
   0.91739783  0.16632403  0.49953943
  -0.00100257  0.00050673  0.59392588
   0.91822767  0.41692547  0.49921312
  -0.00149067  0.75040310  0.59362296
   0.00138164  0.24970283  0.59394125
   0.33308562  0.58295590  0.40712379
   0.08360325  0.33286157  0.40720531
   0.83387899  0.58310558  0.40716384
   0.74999059  0.24955634  0.59319621
   0.83387062  0.33333167  0.40690586
   0.74963364 -0.00000947  0.59266636
   0.08344939  0.58315525  0.40719626
   0.91640276  0.66713790  0.49959201
   0.41660659  0.91811111  0.50000915
   0.00041060  0.49966867  0.59299928
   0.25009351  0.24917893  0.59265754
   0.41630891  0.66716412  0.49967366
   0.08350334  0.83294152  0.40712670
   0.91609194  0.91602760  0.49993946
   0.58275222  0.33390625  0.40687916
   0.49925372  0.00073146  0.59235975
   0.41594270  0.16513960  0.49995648
   0.33302917  0.08377556  0.40762320
   0.66616201  0.91684867  0.50023772
   0.16847087  0.16587706  0.49974156
   0.25069858  0.00067932  0.59265035
   0.33300251  0.33340177  0.40719416
   0.58307111  0.83375778  0.40736684
   0.08357871  0.08396106  0.40713719
Direct configuration=     3
   0.25200044  0.75256054  0.60073169
   0.33243999  0.83531118  0.40098556
   0.16946465  0.91964891  0.49806367
   0.57626487  0.08502144  0.40087199
   0.41626250  0.41638322  0.49521118
   0.50188466  0.24237272  0.60039578
   0.58355503  0.58172090  0.39966306
   0.24691207  0.49642474  0.60205351
   0.50191108  0.49910791  0.60100546
   0.83740679  0.08403204  0.39935578
   0.66753118  0.16084602  0.50141004
   0.66609096  0.41437098  0.49796621
   0.66486023  0.67594033  0.49692965
   0.75316581  0.49710909  0.60219765
   0.83660333  0.82727331  0.40206865
   0.49483881  0.75761303  0.59910713
   0.16299641  0.66969907  0.49513123
   0.75108537  0.75454804  0.59914965
   0.16510483  0.41150706  0.49812517
   0.91959133  0.16529613  0.49815772
  -0.00401027  0.00202692  0.60060404
   0.92291069  0.41770186  0.49685249
  -0.00596269  0.75161239  0.59939234
   0.00552655  0.24881130  0.60066549
   0.33234249  0.58182361  0.40359467
   0.08441299  0.33144629  0.40392073
   0.83551595  0.58242230  0.40375486
   0.74996237  0.24822535  0.59768536
   0.83548248  0.33332666  0.40272293
   0.74853455 -0.00003786  0.59556596
   0.08379756  0.58262101  0.40388453
   0.91561105  0.66855161  0.49836804
   0.41642634  0.92244444  0.50003659
   0.00164241  0.49867467  0.59689762
   0.25037403  0.24671574  0.59553066
   0.41523565  0.66865648  0.49869465
   0.08401336  0.83176607  0.40360628
   0.91436776  0.91411041  0.49975785
   0.58100886  0.33562499  0.40261613
   0.49701488  0.00292585  0.59433951
   0.41377080  0.16055838  0.49982592
   0.33211668  0.08510225  0.40559230
   0.66464805  0.91739468  0.50095089
   0.17388349  0.16350823  0.49896625
   0.25279434  0.00271728  0.59550192
   0.33201003  0.33360708  0.40387612
   0.58228442  0.83503110  0.40456684
   0.08431484  0.08584426  0.40364827
Direct configuration=     4
   0.24975751  0.75227613  0.60196333
   0.33290044  0.83489795  0.39920603
   0.16917090  0.91864338  0.49863062
   0.57823907  0.08492738  0.39945911
   0.41528726  0.41552827  0.49651168
   0.50059863  0.24470325  0.60190011
   0.58363283  0.58207875  0.39784866
   0.24802849  0.49679015  0.60339571
   0.50125363  0.49845831  0.60225227
   0.83604053  0.08380671  0.39758083
   0.66649957  0.16164719  0.50094510
   0.66715026  0.41590040  0.49850079
   0.66466283  0.67283555  0.49768708
   0.75299059  0.49815576  0.60350247
   0.83517180  0.82943610  0.40053998
   0.49789636  0.75590059  0.60022314
   0.16379863  0.66893264  0.49655486
   0.74894854  0.75301173  0.60062184
   0.16830493  0.41328347  0.49885788
   0.91971862  0.16545737  0.49871550
  -0.00295508  0.00171907  0.60197933
   0.91865444  0.41772054  0.49779691
  -0.00243143  0.75062201  0.60064406
   0.00474833  0.24863116  0.60205561
   0.33240393  0.58259536  0.40169019
   0.08489686  0.33114793  0.40192713
   0.83526747  0.58186448  0.40217150
   0.75006690  0.24881772  0.59841609
   0.83526234  0.33372403  0.40136476
   0.74844796  0.00046131  0.59673909
   0.08438151  0.58091188  0.40225708
   0.91551113  0.66914677  0.49888946
   0.41689872  0.91969173  0.49998063
   0.00085672  0.49867001  0.59756542
   0.25051113  0.24772027  0.59641449
   0.41613362  0.66876367  0.49895268
   0.08371817  0.83304675  0.40201831
   0.91489588  0.91479776  0.49969451
   0.58241629  0.33369682  0.40102956
   0.49760910  0.00226188  0.59536924
   0.41575805  0.16244921  0.49990123
   0.33141651  0.08512962  0.40429006
   0.66546096  0.91793189  0.50061720
   0.17126436  0.16381322  0.49935733
   0.25100144  0.00305770  0.59632725
   0.33111973  0.33370016  0.40236080
   0.58195793  0.83529985  0.40308221
   0.08467561  0.08593613  0.40221092
Direct configuration=     5
   0.24882035  0.75215730  0.60247795
   0.33309282  0.83472529  0.39846249
   0.16904817  0.91822325  0.49886751
   0.57906396  0.08488808  0.39886877
   0.41487977  0.41517105  0.49705507
   0.50006128  0.24567702  0.60252866
   0.58366533  0.58222827  0.39709055
   0.24849496  0.49694283  0.60395652
   0.50097893  0.49818689  0.60277322
   0.83546967  0.08371256  0.39683920
   0.66606853  0.16198194  0.50075083
   0.66759287  0.41653943  0.49872416
   0.66458035  0.67153827  0.49800356
   0.75291738  0.49859308  0.60404765
   0.83457366  0.83033978  0.39990126
   0.49917390  0.75518509  0.60068944
   0.16413382  0.66861241  0.49714969
   0.74805571  0.75236981  0.60123696
   0.16964203  0.41402571  0.49916403
   0.91977180  0.16552474  0.49894856
  -0.00251418  0.00159044  0.60255396
   0.91687606  0.41772834  0.49819152
  -0.00095597  0.75020820  0.60116706
   0.00442316  0.24855589  0.60263644
   0.33242961  0.58291782  0.40089445
   0.08509904  0.33102326  0.40109414
   0.83516365  0.58163141  0.40150992
   0.75011057  0.24906523  0.59872141
   0.83517036  0.33389006  0.40079727
   0.74841179  0.00066988  0.59722925
   0.08462550  0.58019776  0.40157709
   0.91546938  0.66939544  0.49910732
   0.41709609  0.91854157  0.49995725
   0.00052843  0.49866806  0.59784445
   0.25056841  0.24813999  0.59678378
   0.41650882  0.66880845  0.49906050
   0.08359483  0.83358186  0.40135480
   0.91511654  0.91508496  0.49966805
   0.58300435  0.33289118  0.40036664
   0.49785739  0.00198445  0.59579949
   0.41658838  0.16323925  0.49993270
   0.33112396  0.08514105  0.40374594
   0.66580062  0.91815636  0.50047777
   0.17017001  0.16394065  0.49952074
   0.25025231  0.00319994  0.59667210
   0.33074774  0.33373905  0.40172765
   0.58182152  0.83541215  0.40246189
   0.08482636  0.08597452  0.40161035
Direct configuration=     6
   0.24960813  0.75156694  0.60267952
   0.33302304  0.83453885  0.39795139
   0.16867232  0.91702660  0.49902287
   0.57969112  0.08484519  0.39844969
   0.41677488  0.41573580  0.49757571
   0.50005925  0.24667660  0.60293809
   0.58371828  0.58209390  0.39654881
   0.24889551  0.49741694  0.60440152
   0.50065295  0.49865067  0.60287132
   0.83514220  0.08392376  0.39636646
   0.66637641  0.16380519  0.50042442
   0.66613384  0.41681205  0.49894447
   0.66505846  0.67069109  0.49825440
   0.75224578  0.49859134  0.60441693
   0.83443077  0.83069167  0.39954848
   0.49858749  0.75378509  0.60090020
   0.16500353  0.66863599  0.49768690
   0.74921879  0.75202780  0.60158272
   0.16736385  0.41463714  0.49942014
   0.91889726  0.16502702  0.49913990
  -0.00235677  0.00174944  0.60285484
   0.91799319  0.41784387  0.49858625
  -0.00121813  0.74986463  0.60138041
   0.00332097  0.24908514  0.60299069
   0.33258504  0.58293144  0.40063673
   0.08467105  0.33159051  0.40083357
   0.83497782  0.58176135  0.40125028
   0.75015836  0.24951360  0.59856137
   0.83500273  0.33360041  0.40050020
   0.74885305  0.00023523  0.59748032
   0.08442284  0.58038780  0.40130863
   0.91520058  0.66909257  0.49930800
   0.41727483  0.91795006  0.49982863
   0.00037080  0.49904892  0.59767876
   0.25029927  0.24873693  0.59688692
   0.41657639  0.66784641  0.49915468
   0.08369662  0.83367596  0.40112006
   0.91577969  0.91585810  0.49958999
   0.58322650  0.33279517  0.40025396
   0.49784507  0.00218034  0.59599256
   0.41700505  0.16309152  0.49986432
   0.33155085  0.08489064  0.40350865
   0.66638156  0.91689851  0.50017766
   0.16906397  0.16571590  0.49968740
   0.25029264  0.00203685  0.59683902
   0.33108073  0.33371780  0.40122092
   0.58203100  0.83507641  0.40212157
   0.08436045  0.08564483  0.40125968
Direct configuration=     7
   0.24967215  0.75151895  0.60269590
   0.33301737  0.83452370  0.39790985
   0.16864178  0.91692934  0.49903549
   0.57974209  0.08484170  0.39841563
   0.41692891  0.41578170  0.49761802
   0.50005908  0.24675784  0.60297136
   0.58372258  0.58208298  0.39650478
   0.24892806  0.49745548  0.60443769
   0.50062646  0.49868837  0.60287929
   0.83511559  0.08394093  0.39632804
   0.66640144  0.16395337  0.50039789
   0.66601526  0.41683420  0.49896238
   0.66509732  0.67062224  0.49827478
   0.75219120  0.49859120  0.60444694
   0.83441916  0.83072027  0.39951981
   0.49853983  0.75367131  0.60091733
   0.16507421  0.66863790  0.49773056
   0.74931332  0.75200001  0.60161082
   0.16717869  0.41468683  0.49944096
   0.91882618  0.16498657  0.49915546
  -0.00234398  0.00176236  0.60287929
   0.91808398  0.41785326  0.49861833
  -0.00123944  0.74983670  0.60139775
   0.00323139  0.24912816  0.60301948
   0.33259767  0.58293255  0.40061579
   0.08463627  0.33163662  0.40081239
   0.83496272  0.58177191  0.40122918
   0.75016224  0.24955004  0.59854836
   0.83498910  0.33357687  0.40047606
   0.74888891  0.00019990  0.59750073
   0.08440637  0.58040325  0.40128681
   0.91517874  0.66906796  0.49932431
   0.41728936  0.91790199  0.49981818
   0.00035799  0.49907987  0.59766529
   0.25027739  0.24878545  0.59689530
   0.41658188  0.66776822  0.49916233
   0.08370489  0.83368361  0.40110098
   0.91583359  0.91592094  0.49958364
   0.58324456  0.33278737  0.40024480
   0.49784406  0.00219626  0.59600826
   0.41703892  0.16307951  0.49985876
   0.33158554  0.08487029  0.40348936
   0.66642877  0.91679628  0.50015327
   0.16897408  0.16586018  0.49970095
   0.25029592  0.00194232  0.59685258
   0.33110779  0.33371608  0.40117974
   0.58204803  0.83504913  0.40209391
   0.08432258  0.08561804  0.40123118
Direct configuration=     8
   0.24984784  0.75134780  0.60282753
   0.33290370  0.83452393  0.39773448
   0.16872119  0.91702974  0.49900551
   0.57980097  0.08479800  0.39824637
   0.41649013  0.41609212  0.49774052
   0.50045494  0.24673946  0.60312248
   0.58385012  0.58192627  0.39626595
   0.24879263  0.49774876  0.60469663
   0.50067739  0.49879623  0.60295204
   0.83517638  0.08404174  0.39604884
   0.66666804  0.16384830  0.50026110
   0.66626459  0.41710593  0.49895664
   0.66532520  0.67015229  0.49834340
   0.75178963  0.49870409  0.60465102
   0.83468362  0.83055631  0.39944794
   0.49836710  0.75335777  0.60092383
   0.16535604  0.66800215  0.49787924
   0.74955562  0.75206678  0.60175905
   0.16715305  0.41502851  0.49937061
   0.91865444  0.16517865  0.49912219
  -0.00232310  0.00165926  0.60302305
   0.91802725  0.41760235  0.49866517
  -0.00148822  0.74992044  0.60143461
   0.00293375  0.24937124  0.60317928
   0.33262898  0.58274413  0.40073579
   0.08430585  0.33193560  0.40084151
   0.83478307  0.58192512  0.40127935
   0.75009706  0.24965927  0.59838161
   0.83493563  0.33346124  0.40056716
   0.74892517  0.00022249  0.59737835
   0.08430078  0.58088083  0.40141387
   0.91513118  0.66941897  0.49930039
   0.41697667  0.91798623  0.49972179
   0.00040330  0.49918478  0.59758400
   0.25007178  0.24890118  0.59686957
   0.41658546  0.66760212  0.49908664
   0.08379660  0.83338887  0.40114626
   0.91586568  0.91599148  0.49951090
   0.58304985  0.33314295  0.40028662
   0.49781936  0.00215919  0.59593573
   0.41709263  0.16305345  0.49975608
   0.33181254  0.08477054  0.40354097
   0.66678982  0.91653979  0.49998148
   0.16883893  0.16592116  0.49973371
   0.25041059  0.00152169  0.59677639
   0.33140954  0.33383916  0.40122082
   0.58223345  0.83471239  0.40202959
   0.08405380  0.08543924  0.40126397
Direct configuration=     9
   0.24999332  0.75120607  0.60293652
   0.33280957  0.83452412  0.39758926
   0.16878694  0.91711287  0.49898068
   0.57984973  0.08476181  0.39810623
   0.41612681  0.41634915  0.49784194
   0.50078272  0.24672424  0.60324762
   0.58395572  0.58179651  0.39606820
   0.24868049  0.49799161  0.60491103
   0.50071956  0.49888554  0.60301227
   0.83522672  0.08412522  0.39581765
   0.66688879  0.16376130  0.50014785
   0.66647104  0.41733092  0.49895188
   0.66551388  0.66976317  0.49840021
   0.75145712  0.49879756  0.60481999
   0.83490260  0.83042055  0.39938843
   0.49822407  0.75309815  0.60092921
   0.16558940  0.66747574  0.49800235
   0.74975624  0.75212207  0.60188178
   0.16713182  0.41531143  0.49931236
   0.91851223  0.16533769  0.49909465
  -0.00230581  0.00157389  0.60314208
   0.91798027  0.41739459  0.49870395
  -0.00169422  0.74998977  0.60146513
   0.00268731  0.24957252  0.60331160
   0.33265490  0.58258812  0.40083515
   0.08403227  0.33218316  0.40086562
   0.83463432  0.58205198  0.40132089
   0.75004309  0.24974972  0.59824353
   0.83489136  0.33336549  0.40064259
   0.74895520  0.00024120  0.59727702
   0.08421335  0.58127627  0.40151908
   0.91509179  0.66970962  0.49928059
   0.41671775  0.91805599  0.49964197
   0.00044082  0.49927165  0.59751669
   0.24990154  0.24899701  0.59684826
   0.41658843  0.66746458  0.49902397
   0.08387253  0.83314481  0.40118376
   0.91589225  0.91604989  0.49945067
   0.58288863  0.33343738  0.40032125
   0.49779890  0.00212850  0.59587569
   0.41713711  0.16303187  0.49967106
   0.33200049  0.08468795  0.40358370
   0.66708877  0.91632741  0.49983923
   0.16872701  0.16597166  0.49976083
   0.25050554  0.00117339  0.59671329
   0.33165940  0.33394107  0.40125484
   0.58238698  0.83443356  0.40197633
   0.08383124  0.08529120  0.40129112
Direct configuration=    10
   0.24970370  0.75117956  0.60312446
   0.33277637  0.83446199  0.39737875
   0.16874664  0.91706481  0.49891991
   0.58001459  0.08462797  0.39788130
   0.41634137  0.41600106  0.49806429
   0.50088962  0.24667191  0.60338651
   0.58394303  0.58177790  0.39576475
   0.24869062  0.49794384  0.60530761
   0.50071914  0.49869665  0.60311561
   0.83518487  0.08412239  0.39541252
   0.66671641  0.16377696  0.49991808
   0.66639628  0.41747558  0.49889928
   0.66547742  0.66987434  0.49849687
   0.75136292  0.49905733  0.60513317
   0.83502618  0.83045388  0.39926617
   0.49843589  0.75315381  0.60087327
   0.16549238  0.66764175  0.49823538
   0.74940203  0.75223390  0.60203271
   0.16712219  0.41517465  0.49921525
   0.91866219  0.16523922  0.49906592
  -0.00230888  0.00151958  0.60329395
   0.91823605  0.41728159  0.49877285
  -0.00171651  0.75024871  0.60151517
   0.00259463  0.24964121  0.60351955
   0.33272444  0.58251149  0.40102145
   0.08390379  0.33237314  0.40096985
   0.83450789  0.58213061  0.40145342
   0.75006393  0.24969900  0.59801265
   0.83483311  0.33333149  0.40077064
   0.74889450  0.00040661  0.59700752
   0.08417122  0.58158895  0.40169879
   0.91499235  0.66993985  0.49923766
   0.41677337  0.91792330  0.49949699
   0.00034825  0.49928725  0.59740158
   0.24986623  0.24904179  0.59674417
   0.41655551  0.66754873  0.49886084
   0.08399690  0.83286363  0.40133263
   0.91626062  0.91593827  0.49932924
   0.58275135  0.33370297  0.40044626
   0.49777609  0.00201382  0.59564836
   0.41729594  0.16300401  0.49958666
   0.33198089  0.08472499  0.40368757
   0.66710274  0.91623610  0.49961694
   0.16869154  0.16606702  0.49979167
   0.25044240  0.00109340  0.59657422
   0.33180569  0.33404170  0.40137442
   0.58259648  0.83404175  0.40195918
   0.08375562  0.08516955  0.40138395
Direct configuration=    11
   0.24938843  0.75115070  0.60332903
   0.33274024  0.83439435  0.39714960
   0.16870278  0.91701249  0.49885375
   0.58019406  0.08448228  0.39763646
   0.41657494  0.41562214  0.49830633
   0.50100597  0.24661494  0.60353771
   0.58392921  0.58175764  0.39543443
   0.24870164  0.49789183  0.60573931
   0.50071869  0.49849105  0.60322811
   0.83513932  0.08411931  0.39497152
   0.66652876  0.16379402  0.49966798
   0.66631490  0.41763306  0.49884202
   0.66543772  0.66999535  0.49860208
   0.75126038  0.49934010  0.60547408
   0.83516070  0.83049015  0.39913308
   0.49866648  0.75321439  0.60081237
   0.16538678  0.66782247  0.49848904
   0.74901645  0.75235563  0.60219700
   0.16711171  0.41502575  0.49910955
   0.91882543  0.16513203  0.49903464
  -0.00231222  0.00146047  0.60345927
   0.91851448  0.41715859  0.49884786
  -0.00174077  0.75053057  0.60156965
   0.00249376  0.24971599  0.60374592
   0.33280013  0.58242807  0.40122424
   0.08376394  0.33257995  0.40108331
   0.83437026  0.58221621  0.40159768
   0.75008661  0.24964377  0.59776133
   0.83476971  0.33329448  0.40091004
   0.74882842  0.00058668  0.59671415
   0.08412536  0.58192931  0.40189441
   0.91488410  0.67019047  0.49919093
   0.41683391  0.91777886  0.49933918
   0.00024748  0.49930424  0.59727628
   0.24982779  0.24909053  0.59663086
   0.41651968  0.66764032  0.49868327
   0.08413229  0.83255754  0.40149467
   0.91666160  0.91581677  0.49919706
   0.58260192  0.33399207  0.40058234
   0.49775126  0.00188899  0.59540091
   0.41746883  0.16297370  0.49949478
   0.33195956  0.08476532  0.40380063
   0.66711795  0.91613670  0.49937496
   0.16865292  0.16617083  0.49982525
   0.25037368  0.00100632  0.59642284
   0.33196493  0.33415123  0.40150458
   0.58282453  0.83361525  0.40194051
   0.08367331  0.08503712  0.40148500
Direct configuration=    12
   0.24926463  0.75113936  0.60340937
   0.33272604  0.83436779  0.39705961
   0.16868555  0.91699194  0.49882778
   0.58026453  0.08442507  0.39754031
   0.41666666  0.41547334  0.49840137
   0.50105166  0.24659257  0.60359708
   0.58392378  0.58174968  0.39530471
   0.24870597  0.49787141  0.60590884
   0.50071851  0.49841031  0.60327228
   0.83512143  0.08411810  0.39479835
   0.66645508  0.16380071  0.49956976
   0.66628294  0.41769490  0.49881954
   0.66542213  0.67004287  0.49864340
   0.75122011  0.49945114  0.60560796
   0.83521353  0.83050439  0.39908082
   0.49875703  0.75323818  0.60078845
   0.16534530  0.66789344  0.49858865
   0.74886504  0.75240343  0.60226152
   0.16710760  0.41496729  0.49906805
   0.91888953  0.16508993  0.49902235
  -0.00231353  0.00143725  0.60352419
   0.91862381  0.41711028  0.49887731
  -0.00175029  0.75064125  0.60159104
   0.00245414  0.24974535  0.60383481
   0.33282985  0.58239532  0.40130387
   0.08370902  0.33266116  0.40112786
   0.83431622  0.58224982  0.40165433
   0.75009552  0.24962209  0.59766264
   0.83474481  0.33327994  0.40096478
   0.74880247  0.00065739  0.59659895
   0.08410735  0.58206296  0.40197123
   0.91484159  0.67028889  0.49917258
   0.41685769  0.91772214  0.49927720
   0.00020791  0.49931091  0.59722707
   0.24981269  0.24910967  0.59658637
   0.41650561  0.66767629  0.49861353
   0.08418546  0.83243734  0.40155831
   0.91681907  0.91576905  0.49914515
   0.58254325  0.33410559  0.40063578
   0.49774151  0.00183997  0.59530373
   0.41753672  0.16296179  0.49945871
   0.33195118  0.08478115  0.40384504
   0.66712392  0.91609767  0.49927994
   0.16863776  0.16621159  0.49983843
   0.25034669  0.00097213  0.59636340
   0.33202746  0.33419425  0.40155570
   0.58291408  0.83344776  0.40193318
   0.08364099  0.08498512  0.40152469
Direct configuration=    13
   0.24937074  0.75110340  0.60358034
   0.33275434  0.83438238  0.39687898
   0.16886063  0.91692455  0.49881798
   0.58028120  0.08430984  0.39730547
   0.41670952  0.41542619  0.49869239
   0.50089148  0.24644279  0.60369145
   0.58390073  0.58182049  0.39505201
   0.24861402  0.49761091  0.60629380
   0.50067507  0.49844325  0.60336516
   0.83511531  0.08410606  0.39442857
   0.66663407  0.16360267  0.49930947
   0.66624397  0.41777960  0.49880431
   0.66543826  0.67007421  0.49872289
   0.75133550  0.49938138  0.60590749
   0.83511516  0.83065122  0.39892385
   0.49848874  0.75332331  0.60070612
   0.16551970  0.66780193  0.49888031
   0.74885930  0.75259368  0.60236103
   0.16730041  0.41492516  0.49907988
   0.91887668  0.16500793  0.49902548
  -0.00241639  0.00168074  0.60365038
   0.91847097  0.41730421  0.49899981
  -0.00202021  0.75069795  0.60163786
   0.00245953  0.24966882  0.60402294
   0.33287560  0.58243354  0.40150907
   0.08376093  0.33267284  0.40119873
   0.83434351  0.58220391  0.40179553
   0.75019148  0.24963810  0.59743288
   0.83471216  0.33331425  0.40106377
   0.74871658  0.00067019  0.59625838
   0.08419717  0.58200085  0.40210707
   0.91475270  0.67033662  0.49919916
   0.41690507  0.91761092  0.49912564
   0.00009904  0.49947828  0.59714089
   0.24990326  0.24912037  0.59647384
   0.41650040  0.66771837  0.49849381
   0.08425383  0.83241447  0.40165864
   0.91674954  0.91594515  0.49903303
   0.58260429  0.33400224  0.40071311
   0.49766443  0.00195650  0.59501611
   0.41764335  0.16282014  0.49941205
   0.33186646  0.08482184  0.40390791
   0.66705804  0.91620935  0.49908985
   0.16880716  0.16601999  0.49987594
   0.25021245  0.00103664  0.59621997
   0.33203422  0.33416539  0.40165510
   0.58294777  0.83336477  0.40189173
   0.08372183  0.08498262  0.40158983
Direct configuration=    14
   0.24949497  0.75106129  0.60378052
   0.33278746  0.83439946  0.39666749
   0.16906560  0.91684565  0.49880651
   0.58030072  0.08417493  0.39703051
   0.41675971  0.41537098  0.49903311
   0.50070393  0.24626742  0.60380194
   0.58387374  0.58190340  0.39475616
   0.24850637  0.49730592  0.60674452
   0.50062422  0.49848181  0.60347391
   0.83510814  0.08409196  0.39399564
   0.66684364  0.16337080  0.49900472
   0.66619834  0.41787877  0.49878649
   0.66545715  0.67011090  0.49881596
   0.75147059  0.49929971  0.60625819
   0.83499999  0.83082313  0.39874006
   0.49817464  0.75342297  0.60060972
   0.16572389  0.66769480  0.49922178
   0.74885258  0.75281641  0.60247754
   0.16752615  0.41487584  0.49909373
   0.91886164  0.16491192  0.49902915
  -0.00253683  0.00196581  0.60379813
   0.91829201  0.41753126  0.49914323
  -0.00233622  0.75076433  0.60169268
   0.00246583  0.24957921  0.60424321
   0.33292916  0.58247830  0.40174932
   0.08382172  0.33268652  0.40128169
   0.83437546  0.58215017  0.40196085
   0.75030383  0.24965685  0.59716388
   0.83467394  0.33335443  0.40117966
   0.74861601  0.00068518  0.59585964
   0.08430232  0.58192814  0.40226611
   0.91464864  0.67039250  0.49923028
   0.41696055  0.91748069  0.49894819
  -0.00002843  0.49967424  0.59703998
   0.25000930  0.24913289  0.59634209
   0.41649431  0.66776764  0.49835364
   0.08433387  0.83238769  0.40177610
   0.91666814  0.91615131  0.49890176
   0.58267576  0.33388124  0.40080365
   0.49757417  0.00209295  0.59467936
   0.41776819  0.16265430  0.49935743
   0.33176727  0.08486947  0.40398153
   0.66698090  0.91634009  0.49886729
   0.16900551  0.16579567  0.49991985
   0.25005528  0.00111216  0.59605204
   0.33204213  0.33413160  0.40177148
   0.58298721  0.83326760  0.40184320
   0.08381649  0.08497969  0.40166609
Direct configuration=    15
   0.24953108  0.75104905  0.60383869
   0.33279708  0.83440442  0.39660603
   0.16912517  0.91682272  0.49880318
   0.58030639  0.08413573  0.39695061
   0.41677429  0.41535494  0.49913212
   0.50064943  0.24621646  0.60383405
   0.58386589  0.58192749  0.39467018
   0.24847508  0.49721729  0.60687551
   0.50060945  0.49849301  0.60350551
   0.83510606  0.08408786  0.39386983
   0.66690455  0.16330342  0.49891615
   0.66618508  0.41790759  0.49878131
   0.66546263  0.67012156  0.49884300
   0.75150985  0.49927597  0.60636010
   0.83496652  0.83087309  0.39868665
   0.49808336  0.75345193  0.60058171
   0.16578322  0.66766367  0.49932101
   0.74885063  0.75288114  0.60251140
   0.16759176  0.41486150  0.49909776
   0.91885727  0.16488402  0.49903021
  -0.00257183  0.00204865  0.60384107
   0.91824001  0.41759724  0.49918491
  -0.00242806  0.75078362  0.60170862
   0.00246767  0.24955317  0.60430722
   0.33294473  0.58249131  0.40181914
   0.08383938  0.33269050  0.40130581
   0.83438474  0.58213455  0.40200890
   0.75033648  0.24966230  0.59708571
   0.83466283  0.33336610  0.40121334
   0.74858679  0.00068953  0.59574376
   0.08433288  0.58190700  0.40231233
   0.91461839  0.67040874  0.49923932
   0.41697667  0.91744285  0.49889662
  -0.00006548  0.49973118  0.59701066
   0.25004011  0.24913653  0.59630380
   0.41649254  0.66778196  0.49831291
   0.08435714  0.83237990  0.40181024
   0.91664448  0.91621123  0.49886361
   0.58269653  0.33384607  0.40082996
   0.49754795  0.00213260  0.59458150
   0.41780447  0.16260611  0.49934156
   0.33173845  0.08488331  0.40400293
   0.66695849  0.91637809  0.49880261
   0.16906315  0.16573048  0.49993261
   0.25000961  0.00113411  0.59600324
   0.33204443  0.33412179  0.40180530
   0.58299868  0.83323936  0.40182910
   0.08384400  0.08497884  0.40168825
Direct configuration=    16
   0.24948568  0.75104559  0.60389769
   0.33280866  0.83452908  0.39652995
   0.16917176  0.91671920  0.49886285
   0.58003390  0.08425818  0.39679134
   0.41684482  0.41550360  0.49932059
   0.50070280  0.24621937  0.60381093
   0.58393546  0.58186371  0.39464227
   0.24824566  0.49737553  0.60707898
   0.50064528  0.49848919  0.60354544
   0.83531204  0.08410464  0.39371046
   0.66697153  0.16340714  0.49875921
   0.66613436  0.41794595  0.49880763
   0.66539999  0.67007830  0.49887331
   0.75154000  0.49917751  0.60650070
   0.83497102  0.83072654  0.39860920
   0.49797045  0.75340437  0.60050530
   0.16579085  0.66760182  0.49947981
   0.74874920  0.75296550  0.60249244
   0.16760231  0.41493489  0.49925436
   0.91888512  0.16499037  0.49901704
  -0.00260740  0.00195918  0.60386631
   0.91813937  0.41752810  0.49932840
  -0.00230656  0.75072937  0.60173558
   0.00264997  0.24960830  0.60434331
   0.33295483  0.58247530  0.40194808
   0.08392832  0.33252665  0.40134860
   0.83452545  0.58208604  0.40206196
   0.75009529  0.24984166  0.59700279
   0.83471884  0.33339688  0.40122576
   0.74854955  0.00073074  0.59555582
   0.08438816  0.58174164  0.40237077
   0.91473617  0.67043309  0.49928388
   0.41705630  0.91732208  0.49880582
  -0.00008500  0.49973855  0.59704231
   0.24987720  0.24910720  0.59628302
   0.41666492  0.66765468  0.49832962
   0.08427807  0.83258505  0.40183209
   0.91659133  0.91609913  0.49878496
   0.58275748  0.33358458  0.40081513
   0.49757917  0.00203649  0.59442696
   0.41783830  0.16260266  0.49928677
   0.33179364  0.08482492  0.40391935
   0.66698274  0.91635376  0.49869422
   0.16894208  0.16581225  0.49995551
   0.24993772  0.00128184  0.59598642
   0.33209311  0.33399101  0.40185265
   0.58286286  0.83347018  0.40176075
   0.08385718  0.08513823  0.40166366
Direct configuration=    17
   0.24945152  0.75104298  0.60394207
   0.33281737  0.83462285  0.39647272
   0.16920681  0.91664131  0.49890774
   0.57982891  0.08435030  0.39667152