  48  48   0   0
  0.5349325E+02  0.1100258E-08  0.1100258E-08  0.2449179E-08  0.3500000E-15
  1.000000000000000E-004
  CAR 
 unknown system                          
      6.38880586     -9.80689071  301     -1.08910429      1.00000000
     -9.807  0.0000E+00  0.0000E+00
     -9.753  0.0000E+00  0.0000E+00
     -9.699  0.0000E+00  0.0000E+00
     -9.645  0.0000E+00  0.0000E+00
     -9.591  0.0000E+00  0.0000E+00
     -9.537  0.0000E+00  0.0000E+00
     -9.483  0.0000E+00  0.0000E+00
     -9.429  0.0000E+00  0.0000E+00
     -9.375  0.7541E-17  0.4071E-18
     -9.321  0.3207E-14  0.1735E-15
     -9.267  0.7190E-12  0.3899E-13
     -9.213  0.9142E-10  0.4975E-11
     -9.159  0.6603E-08  0.3614E-09
     -9.105  0.2715E-06  0.1502E-07
     -9.051  0.6369E-05  0.3588E-06
     -8.997  0.8545E-04  0.4972E-05
     -8.943  0.6574E-03  0.4046E-04
     -8.889  0.2907E-02  0.1974E-03
     -8.835  0.7407E-02  0.5973E-03
     -8.781  0.1096E-01  0.1189E-02
     -8.727  0.9956E-02  0.1727E-02
     -8.673  0.7610E-02  0.2138E-02
     -8.619  0.8720E-02  0.2608E-02
     -8.565  0.1074E-01  0.3188E-02
     -8.511  0.8906E-02  0.3669E-02
     -8.457  0.4496E-02  0.3912E-02
     -8.403  0.1400E-02  0.3987E-02
     -8.349  0.5497E-03  0.4017E-02
     -8.295  0.1477E-02  0.4097E-02
     -8.241  0.4242E-02  0.4326E-02
     -8.187  0.7924E-02  0.4754E-02
     -8.133  0.1040E-01  0.5315E-02
     -8.079  0.1185E-01  0.5955E-02
     -8.025  0.1507E-01  0.6768E-02
     -7.971  0.1960E-01  0.7827E-02
     -7.917  0.1994E-01  0.8903E-02
     -7.863  0.1461E-01  0.9692E-02
     -7.809  0.1034E-01  0.1025E-01
     -7.755  0.1161E-01  0.1088E-01
     -7.701  0.1469E-01  0.1167E-01
     -7.647  0.1546E-01  0.1250E-01
     -7.593  0.1508E-01  0.1332E-01
     -7.539  0.1669E-01  0.1422E-01
     -7.486  0.2002E-01  0.1530E-01
     -7.432  0.2220E-01  0.1650E-01
     -7.378  0.2287E-01  0.1773E-01
     -7.324  0.2382E-01  0.1902E-01
     -7.270  0.2435E-01  0.2033E-01
     -7.216  0.2298E-01  0.2157E-01
     -7.162  0.2429E-01  0.2289E-01
     -7.108  0.3365E-01  0.2470E-01
     -7.054  0.4716E-01  0.2725E-01
     -7.000  0.5811E-01  0.3039E-01
     -6.946  0.6651E-01  0.3398E-01
     -6.892  0.7437E-01  0.3799E-01
     -6.838  0.7991E-01  0.4231E-01
     -6.784  0.8099E-01  0.4668E-01
     -6.730  0.7905E-01  0.5095E-01
     -6.676  0.7862E-01  0.5519E-01
     -6.622  0.8276E-01  0.5966E-01
     -6.568  0.8884E-01  0.6445E-01
     -6.514  0.9381E-01  0.6952E-01
     -6.460  0.9889E-01  0.7486E-01
     -6.406  0.1067E+00  0.8062E-01
     -6.352  0.1200E+00  0.8709E-01
     -6.298  0.1352E+00  0.9439E-01
     -6.244  0.1441E+00  0.1022E+00
     -6.190  0.1473E+00  0.1101E+00
     -6.136  0.1525E+00  0.1184E+00
     -6.082  0.1605E+00  0.1270E+00
     -6.028  0.1658E+00  0.1360E+00
     -5.974  0.1669E+00  0.1450E+00
     -5.920  0.1678E+00  0.1540E+00
     -5.866  0.1676E+00  0.1631E+00
     -5.812  0.1617E+00  0.1718E+00
     -5.758  0.1525E+00  0.1801E+00
     -5.704  0.1461E+00  0.1879E+00
     -5.650  0.1431E+00  0.1957E+00
     -5.596  0.1408E+00  0.2033E+00
     -5.542  0.1383E+00  0.2107E+00
     -5.488  0.1361E+00  0.2181E+00
     -5.434  0.1351E+00  0.2254E+00
     -5.380  0.1362E+00  0.2327E+00
     -5.326  0.1400E+00  0.2403E+00
     -5.272  0.1453E+00  0.2481E+00
     -5.218  0.1495E+00  0.2562E+00
     -5.164  0.1531E+00  0.2645E+00
     -5.110  0.1580E+00  0.2730E+00
     -5.056  0.1631E+00  0.2818E+00
     -5.002  0.1656E+00  0.2907E+00
     -4.948  0.1657E+00  0.2997E+00
     -4.894  0.1668E+00  0.3087E+00
     -4.840  0.1697E+00  0.3179E+00
     -4.786  0.1716E+00  0.3271E+00
     -4.732  0.1708E+00  0.3363E+00
     -4.678  0.1700E+00  0.3455E+00
     -4.624  0.1714E+00  0.3548E+00
     -4.570  0.1732E+00  0.3641E+00
     -4.516  0.1755E+00  0.3736E+00
     -4.462  0.1788E+00  0.3832E+00
     -4.408  0.1793E+00  0.3929E+00
     -4.354  0.1747E+00  0.4024E+00
     -4.300  0.1690E+00  0.4115E+00
     -4.246  0.1657E+00  0.4204E+00
     -4.192  0.1659E+00  0.4294E+00
     -4.138  0.1711E+00  0.4386E+00
     -4.084  0.1775E+00  0.4482E+00
     -4.030  0.1788E+00  0.4578E+00
     -3.976  0.1780E+00  0.4675E+00
     -3.922  0.1805E+00  0.4772E+00
     -3.868  0.1853E+00  0.4872E+00
     -3.814  0.1881E+00  0.4974E+00
     -3.760  0.1867E+00  0.5074E+00
     -3.707  0.1837E+00  0.5174E+00
     -3.653  0.1830E+00  0.5272E+00
     -3.599  0.1857E+00  0.5373E+00
     -3.545  0.1889E+00  0.5475E+00
     -3.491  0.1901E+00  0.5577E+00
     -3.437  0.1916E+00  0.5681E+00
     -3.383  0.1934E+00  0.5785E+00
     -3.329  0.1927E+00  0.5889E+00
     -3.275  0.1906E+00  0.5992E+00
     -3.221  0.1875E+00  0.6093E+00
     -3.167  0.1816E+00  0.6191E+00
     -3.113  0.1764E+00  0.6286E+00
     -3.059  0.1762E+00  0.6382E+00
     -3.005  0.1782E+00  0.6478E+00
     -2.951  0.1799E+00  0.6575E+00
     -2.897  0.1841E+00  0.6674E+00
     -2.843  0.1896E+00  0.6777E+00
     -2.789  0.1927E+00  0.6881E+00
     -2.735  0.1918E+00  0.6984E+00
     -2.681  0.1878E+00  0.7086E+00
     -2.627  0.1846E+00  0.7185E+00
     -2.573  0.1840E+00  0.7285E+00
     -2.519  0.1816E+00  0.7383E+00
     -2.465  0.1745E+00  0.7477E+00
     -2.411  0.1686E+00  0.7568E+00
     -2.357  0.1707E+00  0.7660E+00
     -2.303  0.1786E+00  0.7756E+00
     -2.249  0.1857E+00  0.7857E+00
     -2.195  0.1902E+00  0.7959E+00
     -2.141  0.1920E+00  0.8063E+00
     -2.087  0.1920E+00  0.8167E+00
     -2.033  0.1940E+00  0.8271E+00
     -1.979  0.2005E+00  0.8380E+00
     -1.925  0.2074E+00  0.8492E+00
     -1.871  0.2096E+00  0.8605E+00
     -1.817  0.2100E+00  0.8718E+00
     -1.763  0.2121E+00  0.8833E+00
     -1.709  0.2144E+00  0.8948E+00
     -1.655  0.2157E+00  0.9065E+00
     -1.601  0.2193E+00  0.9183E+00
     -1.547  0.2243E+00  0.9304E+00
     -1.493  0.2228E+00  0.9424E+00
     -1.439  0.2127E+00  0.9539E+00
     -1.385  0.1997E+00  0.9647E+00
     -1.331  0.1866E+00  0.9748E+00
     -1.277  0.1728E+00  0.9841E+00
     -1.223  0.1566E+00  0.9926E+00
     -1.169  0.1348E+00  0.9998E+00
     -1.115  0.1081E+00  0.1006E+01
     -1.061  0.8311E-01  0.1010E+01
     -1.007  0.6346E-01  0.1014E+01
     -0.953  0.4654E-01  0.1016E+01
     -0.899  0.3208E-01  0.1018E+01
     -0.845  0.2305E-01  0.1019E+01
     -0.791  0.1955E-01  0.1020E+01
     -0.737  0.1856E-01  0.1021E+01
     -0.683  0.1815E-01  0.1022E+01
     -0.629  0.1936E-01  0.1023E+01
     -0.575  0.2370E-01  0.1024E+01
     -0.521  0.3152E-01  0.1026E+01
     -0.467  0.4057E-01  0.1028E+01
     -0.413  0.4617E-01  0.1031E+01
     -0.359  0.4629E-01  0.1033E+01
     -0.305  0.4462E-01  0.1036E+01
     -0.251  0.4444E-01  0.1038E+01
     -0.197  0.4288E-01  0.1040E+01
     -0.143  0.3646E-01  0.1042E+01
     -0.089  0.2741E-01  0.1044E+01
     -0.035  0.2160E-01  0.1045E+01
      0.018  0.2109E-01  0.1046E+01
      0.072  0.2370E-01  0.1047E+01
      0.126  0.2743E-01  0.1049E+01
      0.180  0.3108E-01  0.1051E+01
      0.234  0.3268E-01  0.1052E+01
      0.288  0.3111E-01  0.1054E+01
      0.342  0.2964E-01  0.1056E+01
      0.396  0.3300E-01  0.1057E+01
      0.450  0.3964E-01  0.1060E+01
      0.504  0.4399E-01  0.1062E+01
      0.558  0.4512E-01  0.1064E+01
      0.612  0.4648E-01  0.1067E+01
      0.666  0.4949E-01  0.1070E+01
      0.720  0.5027E-01  0.1072E+01
      0.774  0.4470E-01  0.1075E+01
      0.828  0.3667E-01  0.1077E+01
      0.882  0.3122E-01  0.1078E+01
      0.936  0.2697E-01  0.1080E+01
      0.990  0.2302E-01  0.1081E+01
      1.044  0.2042E-01  0.1082E+01
      1.098  0.1733E-01  0.1083E+01
      1.152  0.1331E-01  0.1084E+01
      1.206  0.1214E-01  0.1085E+01
      1.260  0.1480E-01  0.1085E+01
      1.314  0.1726E-01  0.1086E+01
      1.368  0.1775E-01  0.1087E+01
      1.422  0.1911E-01  0.1088E+01
      1.476  0.2438E-01  0.1090E+01
      1.530  0.3045E-01  0.1091E+01
      1.584  0.3009E-01  0.1093E+01
      1.638  0.2485E-01  0.1094E+01
      1.692  0.2342E-01  0.1095E+01
      1.746  0.2739E-01  0.1097E+01
      1.800  0.3281E-01  0.1099E+01
      1.854  0.3584E-01  0.1101E+01
      1.908  0.3209E-01  0.1102E+01
      1.962  0.2258E-01  0.1104E+01
      2.016  0.1580E-01  0.1104E+01
      2.070  0.1635E-01  0.1105E+01
      2.124  0.2204E-01  0.1106E+01
      2.178  0.3177E-01  0.1108E+01
      2.232  0.4249E-01  0.1110E+01
      2.286  0.4859E-01  0.1113E+01
      2.340  0.5054E-01  0.1116E+01
      2.394  0.5212E-01  0.1119E+01
      2.448  0.5185E-01  0.1121E+01
      2.502  0.4719E-01  0.1124E+01
      2.556  0.4148E-01  0.1126E+01
      2.610  0.4035E-01  0.1128E+01
      2.664  0.4505E-01  0.1131E+01
      2.718  0.4776E-01  0.1133E+01
      2.772  0.4041E-01  0.1136E+01
      2.826  0.2690E-01  0.1137E+01
      2.880  0.1667E-01  0.1138E+01
      2.934  0.1325E-01  0.1139E+01
      2.988  0.1229E-01  0.1139E+01
      3.042  0.9518E-02  0.1140E+01
      3.096  0.8186E-02  0.1140E+01
      3.150  0.1211E-01  0.1141E+01
      3.204  0.1936E-01  0.1142E+01
      3.258  0.2511E-01  0.1143E+01
      3.312  0.2433E-01  0.1145E+01
      3.366  0.1698E-01  0.1146E+01
      3.420  0.1100E-01  0.1146E+01
      3.474  0.1291E-01  0.1147E+01
      3.528  0.2104E-01  0.1148E+01
      3.582  0.3058E-01  0.1150E+01
      3.636  0.3901E-01  0.1152E+01
      3.690  0.4443E-01  0.1154E+01
      3.744  0.4415E-01  0.1157E+01
      3.797  0.3778E-01  0.1159E+01
      3.851  0.2915E-01  0.1160E+01
      3.905  0.2385E-01  0.1161E+01
      3.959  0.2453E-01  0.1163E+01
      4.013  0.2921E-01  0.1164E+01
      4.067  0.3094E-01  0.1166E+01
      4.121  0.2541E-01  0.1167E+01
      4.175  0.1987E-01  0.1168E+01
      4.229  0.2081E-01  0.1170E+01
      4.283  0.2215E-01  0.1171E+01
      4.337  0.1880E-01  0.1172E+01
      4.391  0.1634E-01  0.1173E+01
      4.445  0.1940E-01  0.1174E+01
      4.499  0.2776E-01  0.1175E+01
      4.553  0.4063E-01  0.1177E+01
      4.607  0.5318E-01  0.1180E+01
      4.661  0.5875E-01  0.1183E+01
      4.715  0.5539E-01  0.1186E+01
      4.769  0.4778E-01  0.1189E+01
      4.823  0.4438E-01  0.1191E+01
      4.877  0.4798E-01  0.1194E+01
      4.931  0.5298E-01  0.1197E+01
      4.985  0.5725E-01  0.1200E+01
      5.039  0.6376E-01  0.1203E+01
      5.093  0.6842E-01  0.1207E+01
      5.147  0.6526E-01  0.1211E+01
      5.201  0.6076E-01  0.1214E+01
      5.255  0.5989E-01  0.1217E+01
      5.309  0.5361E-01  0.1220E+01
      5.363  0.3824E-01  0.1222E+01
      5.417  0.2172E-01  0.1223E+01
      5.471  0.9705E-02  0.1224E+01
      5.525  0.3103E-02  0.1224E+01
      5.579  0.6404E-03  0.1224E+01
      5.633  0.8006E-04  0.1224E+01
      5.687  0.5879E-05  0.1224E+01
      5.741  0.2499E-06  0.1224E+01
      5.795  0.6096E-08  0.1224E+01
      5.849  0.8495E-10  0.1224E+01
      5.903  0.6736E-12  0.1224E+01
      5.957  0.3030E-14  0.1224E+01
      6.011  0.8226E-17  0.1224E+01
      6.065  0.0000E+00  0.1224E+01
      6.119  0.0000E+00  0.1224E+01
      6.173  0.0000E+00  0.1224E+01
      6.227  0.0000E+00  0.1224E+01
      6.281  0.0000E+00  0.1224E+01
      6.335  0.0000E+00  0.1224E+01
      6.389  0.0000E+00  0.1224E+01
