       N       E                     dE             d eps       ncg     rms          rms(c)
DAV:   1     0.320064806277E+04    0.32006E+04   -0.18976E+05  3672   0.112E+03
DAV:   2     0.161977935225E+02   -0.31845E+04   -0.29278E+04  4380   0.263E+02
DAV:   3    -0.199781636189E+03   -0.21598E+03   -0.20064E+03  4128   0.652E+01
DAV:   4    -0.205620107085E+03   -0.58385E+01   -0.57694E+01  4212   0.109E+01
DAV:   5    -0.205818256710E+03   -0.19815E+00   -0.19747E+00  4404   0.200E+00    0.624E+01
RMM:   6    -0.196925935927E+03    0.88923E+01   -0.88620E+01  3680   0.150E+01    0.511E+01
RMM:   7    -0.202750005361E+03   -0.58241E+01   -0.47653E+01  3684   0.118E+01    0.374E+01
RMM:   8    -0.230677513315E+03   -0.27928E+02   -0.90488E+01  3672   0.139E+01    0.462E+01
RMM:   9    -0.210227638983E+03    0.20450E+02   -0.37834E+01  3674   0.917E+00    0.362E+01
RMM:  10    -0.195666937700E+03    0.14561E+02   -0.15683E+01  3683   0.657E+00    0.191E+01
RMM:  11    -0.191635951175E+03    0.40310E+01   -0.10739E+01  3680   0.532E+00    0.113E+01
RMM:  12    -0.189155425587E+03    0.24805E+01   -0.49009E+00  3679   0.343E+00    0.786E+00
RMM:  13    -0.189161419453E+03   -0.59939E-02   -0.16506E+00  3682   0.199E+00    0.733E+00
RMM:  14    -0.188910042117E+03    0.25138E+00   -0.68053E-01  3682   0.129E+00    0.490E+00
RMM:  15    -0.188831998797E+03    0.78043E-01   -0.20460E-01  3679   0.694E-01    0.438E+00
RMM:  16    -0.188740791847E+03    0.91207E-01   -0.12603E-01  3679   0.560E-01    0.297E+00
RMM:  17    -0.188689014300E+03    0.51778E-01   -0.13117E-01  3680   0.543E-01    0.257E+00
RMM:  18    -0.188615570730E+03    0.73444E-01   -0.77718E-02  3679   0.423E-01    0.103E+00
RMM:  19    -0.188608485864E+03    0.70849E-02   -0.12848E-02  3683   0.168E-01    0.679E-01
RMM:  20    -0.188607745510E+03    0.74035E-03   -0.32057E-03  3686   0.904E-02    0.547E-01
RMM:  21    -0.188605123650E+03    0.26219E-02   -0.16360E-03  3684   0.603E-02    0.351E-01
RMM:  22    -0.188603736525E+03    0.13871E-02   -0.18744E-03  3680   0.627E-02    0.247E-01
RMM:  23    -0.188602915809E+03    0.82072E-03   -0.12630E-03  3680   0.494E-02    0.978E-02
RMM:  24    -0.188603059570E+03   -0.14376E-03   -0.38001E-04  3685   0.274E-02    0.990E-02
RMM:  25    -0.188603208792E+03   -0.14922E-03   -0.17113E-04  3681   0.185E-02    0.461E-02
RMM:  26    -0.188603519495E+03   -0.31070E-03   -0.84082E-05  3682   0.132E-02    0.470E-02
RMM:  27    -0.188604191218E+03   -0.67172E-03   -0.70450E-05  3679   0.119E-02    0.300E-02
RMM:  28    -0.188604574069E+03   -0.38285E-03   -0.30782E-05  3670   0.773E-03    0.238E-02
RMM:  29    -0.188605380394E+03   -0.80633E-03   -0.39106E-05  3669   0.838E-03    0.193E-02
RMM:  30    -0.188605823792E+03   -0.44340E-03   -0.24889E-05  3564   0.693E-03    0.133E-02
RMM:  31    -0.188606293971E+03   -0.47018E-03   -0.31211E-05  3446   0.732E-03    0.897E-03
RMM:  32    -0.188606403636E+03   -0.10967E-03   -0.68095E-06  2760   0.319E-03    0.683E-03
RMM:  33    -0.188606508401E+03   -0.10477E-03   -0.34310E-06  2538   0.245E-03    0.302E-03
RMM:  34    -0.188606581108E+03   -0.72707E-04   -0.14217E-06  2223   0.165E-03    0.374E-03
RMM:  35    -0.188606635199E+03   -0.54091E-04   -0.11408E-06  2182   0.153E-03    0.198E-03
RMM:  36    -0.188606659839E+03   -0.24639E-04   -0.54451E-07  2139   0.103E-03    0.127E-03
RMM:  37    -0.188606672201E+03   -0.12362E-04   -0.27782E-07  1874   0.775E-04    0.101E-03
RMM:  38    -0.188606680440E+03   -0.82390E-05   -0.21115E-07  1808   0.665E-04    0.500E-04
RMM:  39    -0.188606681815E+03   -0.13750E-05   -0.60993E-08  1039   0.386E-04    0.437E-04
RMM:  40    -0.188606682594E+03   -0.77912E-06   -0.19988E-08   715   0.346E-04
   1 F= -.18860668E+03 E0= -.18848748E+03  d E =-.188607E+03
       N       E                     dE             d eps       ncg     rms          rms(c)
DAV:   1    -0.189184189073E+03   -0.57751E+00   -0.20639E+02  3684   0.220E+01    0.247E+00
RMM:   2    -0.189407101478E+03   -0.22291E+00   -0.22175E+00  3685   0.319E+00    0.190E+00
RMM:   3    -0.189596085670E+03   -0.18898E+00   -0.23289E-01  3711   0.803E-01    0.395E+00
RMM:   4    -0.189402783438E+03    0.19330E+00   -0.11235E-01  3686   0.523E-01    0.161E+00
RMM:   5    -0.189392946833E+03    0.98366E-02   -0.49600E-02  3685   0.358E-01    0.111E+00
RMM:   6    -0.189385585648E+03    0.73612E-02   -0.21138E-02  3686   0.240E-01    0.592E-01
RMM:   7    -0.189382739959E+03    0.28457E-02   -0.78395E-03  3682   0.143E-01    0.350E-01
RMM:   8    -0.189381454005E+03    0.12860E-02   -0.20959E-03  3683   0.714E-02    0.186E-01
RMM:   9    -0.189381144456E+03    0.30955E-03   -0.91333E-04  3686   0.475E-02    0.119E-01
RMM:  10    -0.189381006438E+03    0.13802E-03   -0.39247E-04  3686   0.306E-02    0.768E-02
RMM:  11    -0.189380965471E+03    0.40967E-04   -0.89396E-05  3688   0.151E-02    0.388E-02
RMM:  12    -0.189380959864E+03    0.56071E-05   -0.21761E-05  3681   0.763E-03    0.219E-02
RMM:  13    -0.189380956333E+03    0.35311E-05   -0.10382E-05  3319   0.523E-03    0.953E-03
RMM:  14    -0.189380956783E+03   -0.45035E-06   -0.27971E-06  2383   0.281E-03
   2 F= -.18938096E+03 E0= -.18926314E+03  d E =-.774274E+00
       N       E                     dE             d eps       ncg     rms          rms(c)
DAV:   1    -0.188739602356E+03    0.64135E+00   -0.14247E+03  3672   0.584E+01    0.527E+00
RMM:   2    -0.190198872926E+03   -0.14593E+01   -0.15089E+01  3683   0.834E+00    0.333E+00
RMM:   3    -0.190710323657E+03   -0.51145E+00   -0.10386E+00  3709   0.173E+00    0.629E+00
RMM:   4    -0.190176137128E+03    0.53419E+00   -0.36826E-01  3686   0.962E-01    0.327E+00
RMM:   5    -0.190142859611E+03    0.33278E-01   -0.18438E-01  3685   0.684E-01    0.245E+00
RMM:   6    -0.190107006262E+03    0.35853E-01   -0.13677E-01  3685   0.597E-01    0.142E+00
RMM:   7    -0.190091784140E+03    0.15222E-01   -0.48744E-02  3684   0.351E-01    0.910E-01
RMM:   8    -0.190082743804E+03    0.90403E-02   -0.14610E-02  3685   0.191E-01    0.464E-01
RMM:   9    -0.190081091619E+03    0.16522E-02   -0.51639E-03  3685   0.112E-01    0.334E-01
RMM:  10    -0.190079843566E+03    0.12481E-02   -0.21423E-03  3685   0.705E-02    0.149E-01
RMM:  11    -0.190079804390E+03    0.39176E-04   -0.57913E-04  3688   0.380E-02    0.115E-01
RMM:  12    -0.190079716474E+03    0.87915E-04   -0.21652E-04  3686   0.239E-02    0.550E-02
RMM:  13    -0.190079699633E+03    0.16841E-04   -0.76379E-05  3679   0.142E-02    0.248E-02
RMM:  14    -0.190079701043E+03   -0.14101E-05   -0.15992E-05  3677   0.644E-03    0.168E-02
RMM:  15    -0.190079702931E+03   -0.18883E-05   -0.65492E-06  3041   0.418E-03    0.916E-03
RMM:  16    -0.190079707993E+03   -0.50619E-05   -0.15066E-06  2119   0.216E-03    0.490E-03
RMM:  17    -0.190079711881E+03   -0.38872E-05   -0.67529E-07  2056   0.147E-03    0.374E-03
RMM:  18    -0.190079716465E+03   -0.45843E-05   -0.30736E-07  2054   0.929E-04    0.218E-03
RMM:  19    -0.190079719124E+03   -0.26595E-05   -0.96609E-08  1254   0.533E-04    0.150E-03
RMM:  20    -0.190079723111E+03   -0.39861E-05   -0.87010E-08  1399   0.507E-04    0.154E-03
RMM:  21    -0.190079728416E+03   -0.53059E-05   -0.15463E-07  1675   0.561E-04    0.211E-03
RMM:  22    -0.190079732479E+03   -0.40623E-05   -0.11731E-07  1349   0.467E-04    0.169E-03
RMM:  23    -0.190079736749E+03   -0.42702E-05   -0.18189E-07  1441   0.516E-04    0.102E-03
RMM:  24    -0.190079738353E+03   -0.16043E-05   -0.39237E-08   764   0.401E-04    0.713E-04
RMM:  25    -0.190079740092E+03   -0.17384E-05   -0.13857E-07  1516   0.481E-04    0.513E-04
RMM:  26    -0.190079740776E+03   -0.68466E-06   -0.29292E-08   680   0.322E-04
   3 F= -.19007974E+03 E0= -.18996492E+03  d E =-.147306E+01
       N       E                     dE             d eps       ncg     rms          rms(c)
DAV:   1    -0.190445892019E+03   -0.36615E+00   -0.36108E+02  3672   0.293E+01    0.214E+00
RMM:   2    -0.190851813004E+03   -0.40592E+00   -0.37462E+00  3684   0.420E+00    0.238E+00
RMM:   3    -0.190933616099E+03   -0.81803E-01   -0.28088E-01  3717   0.907E-01    0.362E+00
RMM:   4    -0.190798607286E+03    0.13501E+00   -0.51736E-02  3681   0.395E-01    0.142E+00
RMM:   5    -0.190792808756E+03    0.57985E-02   -0.31339E-02  3686   0.289E-01    0.124E+00
RMM:   6    -0.190785158361E+03    0.76504E-02   -0.46200E-02  3685   0.339E-01    0.795E-01
RMM:   7    -0.190780570864E+03    0.45875E-02   -0.15726E-02  3685   0.198E-01    0.518E-01
RMM:   8    -0.190777481595E+03    0.30893E-02   -0.29100E-03  3686   0.873E-02    0.189E-01
RMM:   9    -0.190777202990E+03    0.27860E-03   -0.10504E-03  3683   0.515E-02    0.144E-01
RMM:  10    -0.190776994797E+03    0.20819E-03   -0.36460E-04  3685   0.299E-02    0.886E-02
RMM:  11    -0.190776949087E+03    0.45710E-04   -0.15397E-04  3684   0.195E-02    0.677E-02
RMM:  12    -0.190776916773E+03    0.32315E-04   -0.12418E-04  3685   0.173E-02    0.384E-02
RMM:  13    -0.190776906333E+03    0.10440E-04   -0.34757E-05  3680   0.936E-03    0.163E-02
RMM:  14    -0.190776906318E+03    0.14887E-07   -0.43594E-06  2773   0.348E-03
   4 F= -.19077691E+03 E0= -.19066425E+03  d E =-.697166E+00
       N       E                     dE             d eps       ncg     rms          rms(c)
DAV:   1    -0.189276674334E+03    0.15002E+01   -0.28079E+03  3672   0.835E+01    0.510E+00
RMM:   2    -0.192002046768E+03   -0.27254E+01   -0.27314E+01  3683   0.114E+01    0.441E+00
RMM:   3    -0.192578539182E+03   -0.57649E+00   -0.16678E+00  3710   0.221E+00    0.757E+00
RMM:   4    -0.191861152200E+03    0.71739E+00   -0.30175E-01  3682   0.929E-01    0.383E+00
RMM:   5    -0.191803310692E+03    0.57842E-01   -0.13710E-01  3685   0.598E-01    0.308E+00
RMM:   6    -0.191770988659E+03    0.32322E-01   -0.32422E-01  3684   0.886E-01    0.265E+00
RMM:   7    -0.191738029260E+03    0.32959E-01   -0.17617E-01  3684   0.661E-01    0.200E+00
RMM:   8    -0.191697441759E+03    0.40588E-01   -0.40859E-02  3686   0.324E-01    0.687E-01
RMM:   9    -0.191693532647E+03    0.39091E-02   -0.10186E-02  3685   0.159E-01    0.496E-01
RMM:  10    -0.191691561054E+03    0.19716E-02   -0.41410E-03  3682   0.103E-01    0.378E-01
RMM:  11    -0.191690271333E+03    0.12897E-02   -0.24894E-03  3684   0.768E-02    0.214E-01
RMM:  12    -0.191689916328E+03    0.35500E-03   -0.17287E-03  3682   0.647E-02    0.122E-01
RMM:  13    -0.191689869708E+03    0.46620E-04   -0.58650E-04  3682   0.381E-02    0.791E-02
RMM:  14    -0.191689805403E+03    0.64305E-04   -0.10455E-04  3688   0.167E-02    0.296E-02
RMM:  15    -0.191689801131E+03    0.42720E-05   -0.21575E-05  3673   0.749E-03    0.240E-02
RMM:  16    -0.191689798794E+03    0.23366E-05   -0.14201E-05  3674   0.596E-03    0.128E-02
RMM:  17    -0.191689803959E+03   -0.51643E-05   -0.50920E-06  2977   0.357E-03    0.656E-03
RMM:  18    -0.191689807591E+03   -0.36318E-05   -0.13036E-06  2087   0.208E-03    0.288E-03
RMM:  19    -0.191689811031E+03   -0.34403E-05   -0.34352E-07  2015   0.104E-03    0.238E-03
RMM:  20    -0.191689813937E+03   -0.29058E-05   -0.14984E-07  1919   0.657E-04    0.142E-03
RMM:  21    -0.191689817387E+03   -0.34502E-05   -0.71705E-08  1165   0.464E-04    0.981E-04
RMM:  22    -0.191689820060E+03   -0.26729E-05   -0.56731E-08  1047   0.452E-04    0.101E-03
RMM:  23    -0.191689824464E+03   -0.44048E-05   -0.15382E-07  1743   0.536E-04    0.111E-03
RMM:  24    -0.191689826621E+03   -0.21561E-05   -0.54282E-08   819   0.370E-04    0.887E-04
RMM:  25    -0.191689828543E+03   -0.19223E-05   -0.13209E-07  1191   0.443E-04    0.521E-04
RMM:  26    -0.191689829262E+03   -0.71931E-06   -0.24346E-08   617   0.373E-04
   5 F= -.19168983E+03 E0= -.19158229E+03  d E =-.161009E+01
       N       E                     dE             d eps       ncg     rms          rms(c)
DAV:   1    -0.191618127620E+03    0.71701E-01   -0.10824E+02  3672   0.160E+01    0.952E-01
RMM:   2    -0.191742886509E+03   -0.12476E+00   -0.11514E+00  3683   0.233E+00    0.130E+00
RMM:   3    -0.191752075577E+03   -0.91891E-02   -0.78549E-02  3718   0.488E-01    0.161E+00
RMM:   4    -0.191727034796E+03    0.25041E-01   -0.11777E-02  3680   0.190E-01    0.730E-01
RMM:   5    -0.191724306961E+03    0.27278E-02   -0.48855E-03  3685   0.116E-01    0.562E-01
RMM:   6    -0.191722254372E+03    0.20526E-02   -0.14833E-02  3684   0.191E-01    0.423E-01
RMM:   7    -0.191721331073E+03    0.92330E-03   -0.62060E-03  3684   0.123E-01    0.290E-01
RMM:   8    -0.191720442265E+03    0.88881E-03   -0.10333E-03  3687   0.518E-02    0.127E-01
RMM:   9    -0.191720294081E+03    0.14818E-03   -0.33927E-04  3680   0.294E-02    0.839E-02
RMM:  10    -0.191720213247E+03    0.80834E-04   -0.14882E-04  3682   0.189E-02    0.486E-02
RMM:  11    -0.191720196809E+03    0.16438E-04   -0.61691E-05  3682   0.122E-02    0.339E-02
RMM:  12    -0.191720188002E+03    0.88075E-05   -0.57725E-05  3684   0.115E-02    0.174E-02
RMM:  13    -0.191720186904E+03    0.10982E-05   -0.12652E-05  3672   0.559E-03    0.105E-02
RMM:  14    -0.191720186373E+03    0.53045E-06   -0.14525E-06  2053   0.217E-03
   6 F= -.19172019E+03 E0= -.19161354E+03  d E =-.164045E+01
       N       E                     dE             d eps       ncg     rms          rms(c)
DAV:   1    -0.191563673745E+03    0.15651E+00   -0.48578E+02  3672   0.342E+01    0.239E+00
RMM:   2    -0.192103905472E+03   -0.54023E+00   -0.52444E+00  3686   0.492E+00    0.234E+00
RMM:   3    -0.192285383632E+03   -0.18148E+00   -0.37884E-01  3705   0.102E+00    0.444E+00
RMM:   4    -0.192057349351E+03    0.22803E+00   -0.74331E-02  3684   0.463E-01    0.157E+00
RMM:   5    -0.192045777676E+03    0.11572E-01   -0.28355E-02  3686   0.274E-01    0.123E+00
RMM:   6    -0.192038443733E+03    0.73339E-02   -0.52389E-02  3684   0.358E-01    0.862E-01
RMM:   7    -0.192034632572E+03    0.38112E-02   -0.25189E-02  3684   0.250E-01    0.621E-01
RMM:   8    -0.192030620049E+03    0.40125E-02   -0.43759E-03  3686   0.107E-01    0.275E-01
RMM:   9    -0.192029849909E+03    0.77014E-03   -0.15106E-03  3680   0.625E-02    0.152E-01
RMM:  10    -0.192029622092E+03    0.22782E-03   -0.48079E-04  3680   0.342E-02    0.948E-02
RMM:  11    -0.192029547802E+03    0.74291E-04   -0.21531E-04  3683   0.228E-02    0.636E-02
RMM:  12    -0.192029517218E+03    0.30584E-04   -0.17418E-04  3683   0.203E-02    0.381E-02
RMM:  13    -0.192029509023E+03    0.81950E-05   -0.42067E-05  3683   0.102E-02    0.183E-02
RMM:  14    -0.192029508189E+03    0.83337E-06   -0.65761E-06  3291   0.426E-03
   7 F= -.19202951E+03 E0= -.19192373E+03  d E =-.309322E+00
       N       E                     dE             d eps       ncg     rms          rms(c)
DAV:   1    -0.192029501501E+03    0.75212E-05   -0.29809E-02  3840   0.267E-01    0.172E-02
RMM:   2    -0.192029539058E+03   -0.37557E-04   -0.31959E-04  3686   0.388E-02    0.294E-02
RMM:   3    -0.192029537602E+03    0.14562E-05   -0.23647E-05  3709   0.822E-03    0.283E-02
RMM:   4    -0.192029530052E+03    0.75503E-05   -0.35033E-06  2554   0.336E-03    0.121E-02
RMM:   5    -0.192029530017E+03    0.34546E-07   -0.18684E-06  2060   0.253E-03
   8 F= -.19202953E+03 E0= -.19192379E+03  d E =-.309344E+00
       N       E                     dE             d eps       ncg     rms          rms(c)
DAV:   1    -0.192028398702E+03    0.11313E-02   -0.28652E+01  3684   0.828E+00    0.628E-01
RMM:   2    -0.192065080485E+03   -0.36682E-01   -0.33278E-01  3685   0.121E+00    0.816E-01
RMM:   3    -0.192071012649E+03   -0.59322E-02   -0.26364E-02  3704   0.266E-01    0.109E+00
RMM:   4    -0.192059503385E+03    0.11509E-01   -0.52082E-03  3685   0.121E-01    0.458E-01
RMM:   5    -0.192058290240E+03    0.12131E-02   -0.20627E-03  3685   0.751E-02    0.276E-01
RMM:   6    -0.192058288997E+03    0.12428E-05   -0.38728E-03  3683   0.971E-02    0.226E-01
RMM:   7    -0.192057855670E+03    0.43333E-03   -0.14406E-03  3683   0.594E-02    0.113E-01
RMM:   8    -0.192057729607E+03    0.12606E-03   -0.23150E-04  3686   0.242E-02    0.685E-02
RMM:   9    -0.192057672810E+03    0.56798E-04   -0.82810E-05  3679   0.147E-02    0.313E-02
RMM:  10    -0.192057664066E+03    0.87434E-05   -0.24539E-05  3678   0.765E-03    0.207E-02
RMM:  11    -0.192057660005E+03    0.40617E-05   -0.10861E-05  3671   0.500E-03    0.118E-02
RMM:  12    -0.192057659362E+03    0.64256E-06   -0.11039E-05  3674   0.500E-03    0.779E-03
RMM:  13    -0.192057659250E+03    0.11220E-06   -0.23535E-06  2174   0.255E-03
   9 F= -.19205766E+03 E0= -.19195243E+03  d E =-.281292E-01
       N       E                     dE             d eps       ncg     rms          rms(c)
DAV:   1    -0.192056984938E+03    0.67442E-03   -0.21659E+00  3684   0.228E+00    0.171E-01
RMM:   2    -0.192059764596E+03   -0.27797E-02   -0.25228E-02  3685   0.334E-01    0.232E-01
RMM:   3    -0.192060114750E+03   -0.35015E-03   -0.19921E-03  3704   0.732E-02    0.296E-01
RMM:   4    -0.192059264181E+03    0.85057E-03   -0.36738E-04  3685   0.324E-02    0.115E-01
RMM:   5    -0.192059221623E+03    0.42557E-04   -0.15081E-04  3685   0.203E-02    0.785E-02
RMM:   6    -0.192059240484E+03   -0.18861E-04   -0.29525E-04  3683   0.269E-02    0.640E-02
RMM:   7    -0.192059204729E+03    0.35756E-04   -0.11088E-04  3683   0.165E-02    0.282E-02
RMM:   8    -0.192059197939E+03    0.67899E-05   -0.17041E-05  3672   0.656E-03    0.189E-02
RMM:   9    -0.192059193558E+03    0.43811E-05   -0.61513E-06  3107   0.405E-03    0.834E-03
RMM:  10    -0.192059193082E+03    0.47543E-06   -0.17618E-06  1973   0.224E-03
  10 F= -.19205919E+03 E0= -.19195411E+03  d E =-.296631E-01
       N       E                     dE             d eps       ncg     rms          rms(c)
DAV:   1    -0.192059571377E+03   -0.37782E-03   -0.70113E+00  3672   0.407E+00    0.279E-01
RMM:   2    -0.192069069555E+03   -0.94982E-02   -0.85473E-02  3685   0.606E-01    0.433E-01
RMM:   3    -0.192069097777E+03   -0.28222E-04   -0.63340E-03  3706   0.131E-01    0.418E-01
RMM:   4    -0.192067459412E+03    0.16384E-02   -0.10715E-03  3685   0.551E-02    0.202E-01
RMM:   5    -0.192067217319E+03    0.24209E-03   -0.37876E-04  3685   0.324E-02    0.128E-01
RMM:   6    -0.192067289979E+03   -0.72661E-04   -0.10192E-03  3682   0.491E-02    0.136E-01
RMM:   7    -0.192067143188E+03    0.14679E-03   -0.53823E-04  3682   0.358E-02    0.595E-02
RMM:   8    -0.192067109547E+03    0.33641E-04   -0.65532E-05  3686   0.130E-02    0.367E-02
RMM:   9    -0.192067092061E+03    0.17486E-04   -0.22813E-05  3672   0.753E-03    0.184E-02
RMM:  10    -0.192067087918E+03    0.41429E-05   -0.10707E-05  3670   0.494E-03    0.110E-02
RMM:  11    -0.192067086837E+03    0.10803E-05   -0.51055E-06  2877   0.340E-03    0.658E-03
RMM:  12    -0.192067086628E+03    0.20919E-06   -0.37840E-06  2550   0.315E-03
  11 F= -.19206709E+03 E0= -.19196235E+03  d E =-.789355E-02
       N       E                     dE             d eps       ncg     rms          rms(c)
DAV:   1    -0.192066541859E+03    0.54498E-03   -0.13425E+00  3672   0.178E+00    0.121E-01
RMM:   2    -0.192068379310E+03   -0.18375E-02   -0.16396E-02  3685   0.265E-01    0.198E-01
RMM:   3    -0.192068310271E+03    0.69040E-04   -0.12173E-03  3706   0.573E-02    0.177E-01
RMM:   4    -0.192068032621E+03    0.27765E-03   -0.20160E-04  3685   0.240E-02    0.890E-02
RMM:   5    -0.192067989689E+03    0.42932E-04   -0.73619E-05  3685   0.143E-02    0.567E-02
RMM:   6    -0.192068013447E+03   -0.23758E-04   -0.19757E-04  3678   0.217E-02    0.611E-02
RMM:   7    -0.192067983894E+03    0.29553E-04   -0.10877E-04  3679   0.161E-02    0.255E-02
RMM:   8    -0.192067977879E+03    0.60148E-05   -0.12489E-05  3668   0.571E-03    0.161E-02
RMM:   9    -0.192067974568E+03    0.33115E-05   -0.42086E-06  2758   0.329E-03    0.835E-03
RMM:  10    -0.192067973808E+03    0.76008E-06   -0.21473E-06  1964   0.246E-03
  12 F= -.19206797E+03 E0= -.19196338E+03  d E =-.878073E-02
       N       E                     dE             d eps       ncg     rms          rms(c)
DAV:   1    -0.192067106357E+03    0.86821E-03   -0.43760E+00  3672   0.322E+00    0.209E-01
RMM:   2    -0.192072754724E+03   -0.56484E-02   -0.51790E-02  3684   0.478E-01    0.313E-01
RMM:   3    -0.192072866895E+03   -0.11217E-03   -0.37027E-03  3705   0.101E-01    0.319E-01
RMM:   4    -0.192071909135E+03    0.95776E-03   -0.61287E-04  3685   0.420E-02    0.149E-01
RMM:   5    -0.192071795807E+03    0.11333E-03   -0.22401E-04  3685   0.249E-02    0.105E-01
RMM:   6    -0.192071848686E+03   -0.52879E-04   -0.61218E-04  3684   0.383E-02    0.113E-01
RMM:   7    -0.192071749065E+03    0.99621E-04   -0.39203E-04  3685   0.307E-02    0.462E-02
RMM:   8    -0.192071730667E+03    0.18399E-04   -0.37932E-05  3682   0.995E-03    0.299E-02
RMM:   9    -0.192071719498E+03    0.11168E-04   -0.13099E-05  3672   0.580E-03    0.152E-02
RMM:  10    -0.192071716709E+03    0.27890E-05   -0.62961E-06  3294   0.382E-03    0.937E-03
RMM:  11    -0.192071715822E+03    0.88703E-06   -0.40579E-06  2671   0.316E-03
  13 F= -.19207172E+03 E0= -.19196724E+03  d E =-.374201E-02
       N       E                     dE             d eps       ncg     rms          rms(c)
DAV:   1    -0.192071447049E+03    0.26966E-03   -0.61045E-01  3684   0.120E+00    0.780E-02
RMM:   2    -0.192072251399E+03   -0.80435E-03   -0.72540E-03  3684   0.179E-01    0.126E-01
RMM:   3    -0.192072221610E+03    0.29789E-04   -0.52143E-04  3705   0.380E-02    0.114E-01
RMM:   4    -0.192072108923E+03    0.11269E-03   -0.85145E-05  3686   0.156E-02    0.574E-02
RMM:   5    -0.192072092707E+03    0.16216E-04   -0.31912E-05  3685   0.944E-03    0.392E-02
RMM:   6    -0.192072106409E+03   -0.13702E-04   -0.86456E-05  3681   0.144E-02    0.441E-02
RMM:   7    -0.192072091818E+03    0.14591E-04   -0.58143E-05  3682   0.118E-02    0.180E-02
RMM:   8    -0.192072089181E+03    0.26370E-05   -0.61257E-06  2950   0.403E-03    0.120E-02
RMM:   9    -0.192072087376E+03    0.18048E-05   -0.20020E-06  2138   0.245E-03    0.626E-03
RMM:  10    -0.192072087086E+03    0.28968E-06   -0.10281E-06  1948   0.176E-03
  14 F= -.19207209E+03 E0= -.19196766E+03  d E =-.411328E-02
       N       E                     dE             d eps       ncg     rms          rms(c)
DAV:   1    -0.192071237942E+03    0.84943E-03   -0.23195E+00  3672   0.235E+00    0.149E-01
RMM:   2    -0.192074151292E+03   -0.29134E-02   -0.27172E-02  3685   0.348E-01    0.220E-01
RMM:   3    -0.192074284488E+03   -0.13320E-03   -0.19464E-03  3706   0.737E-02    0.244E-01
RMM:   4    -0.192073734368E+03    0.55012E-03   -0.33248E-04  3686   0.306E-02    0.114E-01
RMM:   5    -0.192073662055E+03    0.72313E-04   -0.10979E-04  3685   0.176E-02    0.729E-02
RMM:   6    -0.192073689339E+03   -0.27284E-04   -0.27001E-04  3683   0.255E-02    0.843E-02
RMM:   7    -0.192073635420E+03    0.53919E-04   -0.23094E-04  3686   0.237E-02    0.298E-02
RMM:   8    -0.192073630624E+03    0.47964E-05   -0.22072E-05  3672   0.761E-03    0.229E-02
RMM:   9    -0.192073623993E+03    0.66315E-05   -0.67256E-06  3092   0.420E-03    0.112E-02
RMM:  10    -0.192073622610E+03    0.13825E-05   -0.31814E-06  2320   0.292E-03    0.800E-03
RMM:  11    -0.192073621830E+03    0.77965E-06   -0.25130E-06  1969   0.276E-03
  15 F= -.19207362E+03 E0= -.19196932E+03  d E =-.153474E-02
       N       E                     dE             d eps       ncg     rms          rms(c)
DAV:   1    -0.192073618057E+03    0.45531E-05   -0.19579E-02  3744   0.216E-01    0.140E-02
RMM:   2    -0.192073644821E+03   -0.26764E-04   -0.23445E-04  3686   0.323E-02    0.254E-02
RMM:   3    -0.192073642259E+03    0.25623E-05   -0.17346E-05  3694   0.696E-03    0.210E-02
RMM:   4    -0.192073638495E+03    0.37639E-05   -0.27438E-06  2376   0.290E-03    0.111E-02
RMM:   5    -0.192073637865E+03    0.63014E-06   -0.10630E-06  1947   0.197E-03
  16 F= -.19207364E+03 E0= -.19196936E+03  d E =-.155078E-02
       N       E                     dE             d eps       ncg     rms          rms(c)
DAV:   1    -0.192073342855E+03    0.29564E-03   -0.10949E+00  3672   0.162E+00    0.106E-01
RMM:   2    -0.192074719947E+03   -0.13771E-02   -0.12626E-02  3685   0.238E-01    0.156E-01
RMM:   3    -0.192074786560E+03   -0.66613E-04   -0.94082E-04  3704   0.511E-02    0.176E-01
RMM:   4    -0.192074499999E+03    0.28656E-03   -0.14962E-04  3685   0.207E-02    0.805E-02
RMM:   5    -0.192074470593E+03    0.29406E-04   -0.59071E-05  3685   0.128E-02    0.543E-02
RMM:   6    -0.192074477511E+03   -0.69182E-05   -0.15121E-04  3683   0.190E-02    0.541E-02
RMM:   7    -0.192074452667E+03    0.24844E-04   -0.96046E-05  3683   0.153E-02    0.163E-02
RMM:   8    -0.192074450896E+03    0.17709E-05   -0.63195E-06  2984   0.420E-03    0.127E-02
RMM:   9    -0.192074448915E+03    0.19808E-05   -0.21259E-06  2170   0.256E-03    0.735E-03
RMM:  10    -0.192074448316E+03    0.59887E-06   -0.15972E-06  1947   0.216E-03
  17 F= -.19207445E+03 E0= -.19197025E+03  d E =-.810451E-03
       N       E                     dE             d eps       ncg     rms          rms(c)
DAV:   1    -0.192074226949E+03    0.22197E-03   -0.33470E-01  3672   0.893E-01    0.584E-02
RMM:   2    -0.192074651160E+03   -0.42421E-03   -0.39004E-03  3685   0.132E-01    0.869E-02
RMM:   3    -0.192074671445E+03   -0.20285E-04   -0.29015E-04  3705   0.283E-02    0.984E-02
RMM:   4    -0.192074578263E+03    0.93182E-04   -0.45501E-05  3684   0.115E-02    0.387E-02
RMM:   5    -0.192074574725E+03    0.35384E-05   -0.18951E-05  3679   0.724E-03    0.312E-02
RMM:   6    -0.192074578399E+03   -0.36743E-05   -0.38148E-05  3679   0.959E-03    0.339E-02
RMM:   7    -0.192074569173E+03    0.92257E-05   -0.33269E-05  3681   0.902E-03    0.978E-03
RMM:   8    -0.192074568944E+03    0.22874E-06   -0.27738E-06  2432   0.279E-03
  18 F= -.19207457E+03 E0= -.19197042E+03  d E =-.931080E-03
       N       E                     dE             d eps       ncg     rms          rms(c)
DAV:   1    -0.192074030487E+03    0.53869E-03   -0.93249E-01  3672   0.149E+00    0.849E-02
RMM:   2    -0.192075116309E+03   -0.10858E-02   -0.10454E-02  3685   0.218E-01    0.116E-01
RMM:   3    -0.192075225024E+03   -0.10872E-03   -0.70496E-04  3708   0.446E-02    0.152E-01
RMM:   4    -0.192074984179E+03    0.24085E-03   -0.10391E-04  3678   0.175E-02    0.510E-02
RMM:   5    -0.192074981294E+03    0.28854E-05   -0.39406E-05  3686   0.104E-02    0.472E-02
RMM:   6    -0.192074982820E+03   -0.15258E-05   -0.90598E-05  3684   0.149E-02    0.499E-02
RMM:   7    -0.192074965051E+03    0.17769E-04   -0.82812E-05  3685   0.142E-02    0.168E-02
RMM:   8    -0.192074964318E+03    0.73331E-06   -0.75506E-06  3125   0.452E-03
  19 F= -.19207496E+03 E0= -.19197089E+03  d E =-.395373E-03
       N       E                     dE             d eps       ncg     rms          rms(c)
DAV:   1    -0.192074960295E+03    0.47561E-05   -0.91411E-04  3888   0.475E-02    0.875E-03
RMM:   2    -0.192074961954E+03   -0.16598E-05   -0.19959E-05  3672   0.849E-03    0.109E-02
RMM:   3    -0.192074962899E+03   -0.94446E-06   -0.34063E-06  2606   0.298E-03
  20 F= -.19207496E+03 E0= -.19197091E+03  d E =-.393955E-03
       N       E                     dE             d eps       ncg     rms          rms(c)
DAV:   1    -0.192074754072E+03    0.20788E-03   -0.40557E-01  3672   0.984E-01    0.535E-02
RMM:   2    -0.192075179995E+03   -0.42592E-03   -0.43933E-03  3682   0.142E-01    0.517E-02
RMM:   3    -0.192075195591E+03   -0.15596E-04   -0.26093E-04  3711   0.282E-02    0.611E-02
RMM:   4    -0.192075170830E+03    0.24761E-04   -0.38865E-05  3683   0.107E-02    0.455E-02
RMM:   5    -0.192075158007E+03    0.12823E-04   -0.13361E-05  3670   0.582E-03    0.312E-02
RMM:   6    -0.192075159606E+03   -0.15989E-05   -0.37004E-05  3681   0.954E-03    0.371E-02
RMM:   7    -0.192075149355E+03    0.10251E-04   -0.41479E-05  3679   0.101E-02    0.156E-02
RMM:   8    -0.192075148485E+03    0.87018E-06   -0.65416E-06  3010   0.413E-03
  21 F= -.19207515E+03 E0= -.19197112E+03  d E =-.185586E-03
