<?xml version="1.0" encoding="ISO-8859-1"?>
<modeling>
 <generator>
  <i name="program" type="string">vasp </i>
  <i name="version" type="string">5.4.1  </i>
  <i name="subversion" type="string">24Jun15 (build Mar 14 2019 10:18:33) complex                          parallel </i>
  <i name="platform" type="string">INTEL-19.0.2+OPENMPI-3.1.3 </i>
  <i name="date" type="string">2023 01 31 </i>
  <i name="time" type="string">00:34:18 </i>
 </generator>
 <incar>
  <i type="int" name="ISTART">     0</i>
  <i type="string" name="PREC">normal</i>
  <i type="string" name="ALGO"> Fast</i>
  <i type="int" name="NELM">   500</i>
  <i type="int" name="IBRION">     2</i>
  <i type="int" name="NFREE">     2</i>
  <i name="EDIFF">      0.00000100</i>
  <i name="EDIFFG">     -0.02000000</i>
  <i type="int" name="NSW">   500</i>
  <i type="int" name="ISIF">     0</i>
  <i type="int" name="ISYM">     2</i>
  <i name="ENCUT">    400.00000000</i>
  <i name="POTIM">      0.35000000</i>
  <i type="string" name="LREAL"> Auto</i>
  <i type="logical" name="LPLANE"> T  </i>
  <i type="int" name="ISMEAR">     0</i>
  <i name="SIGMA">      0.10000000</i>
  <i type="int" name="NWRITE">     1</i>
  <i type="logical" name="LWAVE"> F  </i>
  <i type="logical" name="LCHARG"> F  </i>
  <i type="logical" name="LVTOT"> F  </i>
  <i type="logical" name="LORBIT"> F  </i>
  <i type="logical" name="LAECHG"> F  </i>
  <v type="int" name="KPOINT_BSE">    -1     0     0     0</v>
  <i type="int" name="NELM">   500</i>
  <i type="string" name="GGA"> PE          ! optPBE-vdW XC-functional</i>
  <i type="int" name="VOSKOWN">     1</i>
  <i type="logical" name="LDIPOL"> T  </i>
  <i type="logical" name="LMONO"> F  </i>
  <i type="int" name="IDIPOL">     3</i>
  <v name="DIPOL">      0.00000000      0.00000000      0.50000000</v>
 </incar>
 <kpoints>
  <generation param="Monkhorst-Pack">
   <v type="int" name="divisions">       2        2        1 </v>
   <v name="usershift">      0.00000000       0.00000000       0.00000000 </v>
   <v name="genvec1">      0.50000000      -0.00000000       0.00000000 </v>
   <v name="genvec2">      0.00000000       0.50000000       0.00000000 </v>
   <v name="genvec3">      0.00000000       0.00000000       1.00000000 </v>
   <v name="shift">      0.50000000       0.50000000       0.00000000 </v>
  </generation>
  <varray name="kpointlist" >
   <v>       0.25000000       0.25000000       0.00000000 </v>
   <v>       0.00000000       0.25000000       0.00000000 </v>
   <v>      -0.25000000       0.00000000       0.00000000 </v>
   <v>      -0.25000000       0.25000000       0.00000000 </v>
   <v>       0.50000000      -0.25000000       0.00000000 </v>
   <v>      -0.25000000       0.50000000       0.00000000 </v>
  </varray>
  <varray name="weights" >
   <v>       0.16666667 </v>
   <v>       0.16666667 </v>
   <v>       0.16666667 </v>
   <v>       0.16666667 </v>
   <v>       0.16666667 </v>
   <v>       0.16666667 </v>
  </varray>
 </kpoints>
 <parameters>
  <separator name="general" >
   <i type="string" name="SYSTEM">unknown system</i>
   <i type="logical" name="LCOMPAT"> F  </i>
  </separator>
  <separator name="electronic" >
   <i type="string" name="PREC">normal</i>
   <i name="ENMAX">    400.00000000</i>
   <i name="ENAUG">    416.23000000</i>
   <i name="EDIFF">      0.00000100</i>
   <i type="int" name="IALGO">    68</i>
   <i type="int" name="IWAVPR">    11</i>
   <i type="int" name="NBANDS">   306</i>
   <i name="NELECT">    504.00000000</i>
   <i type="int" name="TURBO">     0</i>
   <i type="int" name="IRESTART">     0</i>
   <i type="int" name="NREBOOT">     0</i>
   <i type="int" name="NMIN">     0</i>
   <i name="EREF">      0.00000000</i>
   <separator name="electronic smearing" >
    <i type="int" name="ISMEAR">     0</i>
    <i name="SIGMA">      0.10000000</i>
    <i name="KSPACING">      0.50000000</i>
    <i type="logical" name="KGAMMA"> T  </i>
   </separator>
   <separator name="electronic projectors" >
    <i type="logical" name="LREAL"> T  </i>
    <v name="ROPT">     -0.00050000     -0.00050000</v>
    <i type="int" name="LMAXPAW">  -100</i>
    <i type="int" name="LMAXMIX">     2</i>
    <i type="logical" name="NLSPLINE"> F  </i>
   </separator>
   <separator name="electronic startup" >
    <i type="int" name="ISTART">     0</i>
    <i type="int" name="ICHARG">     2</i>
    <i type="int" name="INIWAV">     1</i>
   </separator>
   <separator name="electronic spin" >
    <i type="int" name="ISPIN">     1</i>
    <i type="logical" name="LNONCOLLINEAR"> F  </i>
    <v name="MAGMOM">      1.00000000      1.00000000      1.00000000      1.00000000      1.00000000      1.00000000      1.00000000      1.00000000      1.00000000      1.00000000      1.00000000      1.00000000      1.00000000      1.00000000      1.00000000      1.00000000      1.00000000      1.00000000      1.00000000      1.00000000
      1.00000000      1.00000000      1.00000000      1.00000000      1.00000000      1.00000000      1.00000000      1.00000000      1.00000000      1.00000000      1.00000000      1.00000000      1.00000000      1.00000000      1.00000000      1.00000000      1.00000000      1.00000000      1.00000000      1.00000000
      1.00000000      1.00000000      1.00000000      1.00000000      1.00000000      1.00000000      1.00000000      1.00000000</v>
    <i name="NUPDOWN">     -1.00000000</i>
    <i type="logical" name="LSORBIT"> F  </i>
    <v name="SAXIS">      0.00000000      0.00000000      1.00000000</v>
    <i type="logical" name="LSPIRAL"> F  </i>
    <v name="QSPIRAL">      0.00000000      0.00000000      0.00000000</v>
    <i type="logical" name="LZEROZ"> F  </i>
   </separator>
   <separator name="electronic exchange-correlation" >
    <i type="logical" name="LASPH"> F  </i>
    <i type="logical" name="LMETAGGA"> F  </i>
   </separator>
   <separator name="electronic convergence" >
    <i type="int" name="NELM">   500</i>
    <i type="int" name="NELMDL">    -5</i>
    <i type="int" name="NELMIN">     2</i>
    <i name="ENINI">    400.00000000</i>
    <separator name="electronic convergence detail" >
     <i type="logical" name="LDIAG"> T  </i>
     <i type="logical" name="LSUBROT"> F  </i>
     <i name="WEIMIN">      0.00100000</i>
     <i name="EBREAK">      0.00000000</i>
     <i name="DEPER">      0.30000000</i>
     <i type="int" name="NRMM">     4</i>
     <i name="TIME">      0.40000000</i>
    </separator>
   </separator>
   <separator name="electronic mixer" >
    <i name="AMIX">      0.40000000</i>
    <i name="BMIX">      1.00000000</i>
    <i name="AMIN">      0.10000000</i>
    <i name="AMIX_MAG">      1.60000000</i>
    <i name="BMIX_MAG">      1.00000000</i>
    <separator name="electronic mixer details" >
     <i type="int" name="IMIX">     4</i>
     <i type="logical" name="MIXFIRST"> F  </i>
     <i type="int" name="MAXMIX">   -45</i>
     <i name="WC">    100.00000000</i>
     <i type="int" name="INIMIX">     1</i>
     <i type="int" name="MIXPRE">     1</i>
     <i type="int" name="MREMOVE">     5</i>
    </separator>
   </separator>
   <separator name="electronic dipolcorrection" >
    <i type="logical" name="LDIPOL"> T  </i>
    <i type="logical" name="LMONO"> F  </i>
    <i type="int" name="IDIPOL">     3</i>
    <i name="EPSILON">      1.00000000</i>
    <v name="DIPOL">      0.00000000      0.00000000      0.50000000</v>
    <i name="EFIELD">      0.00000000</i>
   </separator>
  </separator>
  <separator name="grids" >
   <i type="int" name="NGX">    54</i>
   <i type="int" name="NGY">    54</i>
   <i type="int" name="NGZ">   120</i>
   <i type="int" name="NGXF">   108</i>
   <i type="int" name="NGYF">   108</i>
   <i type="int" name="NGZF">   240</i>
   <i type="logical" name="ADDGRID"> F  </i>
  </separator>
  <separator name="ionic" >
   <i type="int" name="NSW">   500</i>
   <i type="int" name="IBRION">     2</i>
   <i type="int" name="ISIF">     0</i>
   <i name="PSTRESS">      0.00000000</i>
   <i name="EDIFFG">     -0.02000000</i>
   <i type="int" name="NFREE">     2</i>
   <i name="POTIM">      0.35000000</i>
   <i name="SMASS">     -3.00000000</i>
   <i name="SCALEE">      1.00000000</i>
  </separator>
  <separator name="ionic md" >
   <i name="TEBEG">      0.00010000</i>
   <i name="TEEND">      0.00010000</i>
   <i type="int" name="NBLOCK">     1</i>
   <i type="int" name="KBLOCK">   500</i>
   <i type="int" name="NPACO">   256</i>
   <i name="APACO">     16.00000000</i>
  </separator>
  <separator name="symmetry" >
   <i type="int" name="ISYM">     2</i>
   <i name="SYMPREC">      0.00001000</i>
  </separator>
  <separator name="dos" >
   <i type="logical" name="LORBIT"> F  </i>
   <v name="RWIGS">     -1.00000000     -1.00000000</v>
   <i type="int" name="NEDOS">   301</i>
   <i name="EMIN">     10.00000000</i>
   <i name="EMAX">    -10.00000000</i>
   <i name="EFERMI">      0.00000000</i>
  </separator>
  <separator name="writing" >
   <i type="int" name="NWRITE">     1</i>
   <i type="logical" name="LWAVE"> F  </i>
   <i type="logical" name="LCHARG"> F  </i>
   <i type="logical" name="LPARD"> F  </i>
   <i type="logical" name="LVTOT"> F  </i>
   <i type="logical" name="LVHAR"> F  </i>
   <i type="logical" name="LELF"> F  </i>
   <i type="logical" name="LOPTICS"> F  </i>
   <v name="STM">      0.00000000      0.00000000      0.00000000      0.00000000      0.00000000      0.00000000      0.00000000</v>
  </separator>
  <separator name="performance" >
   <i type="int" name="NPAR">     6</i>
   <i type="int" name="NSIM">     4</i>
   <i type="int" name="NBLK">    -1</i>
   <i type="logical" name="LPLANE"> T  </i>
   <i type="logical" name="LSCALAPACK"> T  </i>
   <i type="logical" name="LSCAAWARE"> F  </i>
   <i type="logical" name="LSCALU"> F  </i>
   <i type="logical" name="LASYNC"> F  </i>
   <i type="logical" name="LORBITALREAL"> F  </i>
  </separator>
  <separator name="miscellaneous" >
   <i type="int" name="IDIOT">     3</i>
   <i type="logical" name="LMUSIC"> F  </i>
   <v name="POMASS">    196.96600000    106.42000000</v>
   <v name="DARWINR">      0.00000000      0.00000000</v>
   <v name="DARWINV">      1.00000000      1.00000000</v>
   <i type="logical" name="LCORR"> T  </i>
  </separator>
  <i type="logical" name="GGA_COMPAT"> T  </i>
  <i type="logical" name="LBERRY"> F  </i>
  <i type="int" name="ICORELEVEL">     0</i>
  <i type="logical" name="LDAU"> F  </i>
  <i type="int" name="I_CONSTRAINED_M">     0</i>
  <separator name="electronic exchange-correlation" >
   <i type="string" name="GGA">PE</i>
   <i type="int" name="VOSKOWN">     1</i>
   <i type="logical" name="LHFCALC"> F  </i>
   <i type="string" name="PRECFOCK"></i>
   <i type="logical" name="LSYMGRAD"> F  </i>
   <i type="logical" name="LHFONE"> F  </i>
   <i type="logical" name="LRHFCALC"> F  </i>
   <i type="logical" name="LTHOMAS"> F  </i>
   <i type="logical" name="LMODELHF"> F  </i>
   <i name="ENCUT4O">     -1.00000000</i>
   <i type="int" name="EXXOEP">     0</i>
   <i type="int" name="FOURORBIT">     0</i>
   <i name="AEXX">      0.00000000</i>
   <i name="HFALPHA">      0.00000000</i>
   <i name="MCALPHA">      0.00000000</i>
   <i name="ALDAX">      1.00000000</i>
   <i name="AGGAX">      1.00000000</i>
   <i name="ALDAC">      1.00000000</i>
   <i name="AGGAC">      1.00000000</i>
   <i type="int" name="NKREDX">     1</i>
   <i type="int" name="NKREDY">     1</i>
   <i type="int" name="NKREDZ">     1</i>
   <i type="logical" name="SHIFTRED"> F  </i>
   <i type="logical" name="ODDONLY"> F  </i>
   <i type="logical" name="EVENONLY"> F  </i>
   <i type="int" name="LMAXFOCK">     0</i>
   <i type="int" name="NMAXFOCKAE">     0</i>
   <i type="logical" name="LFOCKAEDFT"> F  </i>
   <i name="HFSCREEN">      0.00000000</i>
   <i name="HFSCREENC">      0.00000000</i>
   <i type="int" name="NBANDSGWLOW">     0</i>
  </separator>
  <separator name="vdW DFT" >
   <i type="logical" name="LUSE_VDW"> F  </i>
   <i name="Zab_VDW">     -0.84910000</i>
   <i name="PARAM1">      0.12340000</i>
   <i name="PARAM2">      1.00000000</i>
   <i name="PARAM3">      0.00000000</i>
  </separator>
  <separator name="model GW" >
   <i type="int" name="MODEL_GW">     0</i>
   <i name="MODEL_EPS0">     32.09595293</i>
   <i name="MODEL_ALPHA">      1.00000000</i>
  </separator>
  <separator name="linear response parameters" >
   <i type="logical" name="LEPSILON"> F  </i>
   <i type="logical" name="LRPA"> F  </i>
   <i type="logical" name="LNABLA"> F  </i>
   <i type="logical" name="LVEL"> F  </i>
   <i type="int" name="KINTER">     0</i>
   <i name="CSHIFT">      0.10000000</i>
   <i name="OMEGAMAX">     -1.00000000</i>
   <i name="DEG_THRESHOLD">      0.00200000</i>
  </separator>
  <separator name="orbital magnetization" >
   <i type="logical" name="NUCIND"> F  </i>
   <v name="MAGPOS">      0.00000000      0.00000000      0.00000000</v>
   <i type="logical" name="LNICSALL"> T  </i>
   <i type="logical" name="ORBITALMAG"> F  </i>
   <i type="logical" name="LMAGBLOCH"> F  </i>
   <i type="logical" name="LCHIMAG"> F  </i>
   <i type="logical" name="LGAUGE"> T  </i>
   <i type="int" name="MAGATOM">     0</i>
   <v name="MAGDIPOL">      0.00000000      0.00000000      0.00000000</v>
   <v name="AVECCONST">      0.00000000      0.00000000      0.00000000</v>
  </separator>
  <separator name="response functions" >
   <i type="logical" name="LADDER"> F  </i>
   <i type="logical" name="LFXC"> F  </i>
   <i type="logical" name="LHARTREE"> T  </i>
   <i type="int" name="IBSE">     0</i>
   <v type="int" name="KPOINT">    -1     0     0     0</v>
   <i type="logical" name="LTCTE"> F  </i>
   <i type="logical" name="LTETE"> F  </i>
   <i type="logical" name="LTRIPLET"> F  </i>
   <i type="logical" name="LFXCEPS"> F  </i>
   <i type="logical" name="LFXHEG"> F  </i>
   <i type="int" name="NATURALO">     0</i>
   <i type="logical" name="L2ORDER"> F  </i>
   <i type="logical" name="LUSEW"> F  </i>
   <i name="ENCUTGW">     -2.00000000</i>
   <i name="ENCUTGWSOFT">     -2.00000000</i>
   <i name="ENCUTLF">     -1.00000000</i>
   <i type="int" name="LMAXMP2">    -1</i>
   <i name="SCISSOR">      0.00000000</i>
   <i type="int" name="NOMEGA">     0</i>
   <i type="int" name="NOMEGAR">     0</i>
   <i type="int" name="NBANDSGW">    -1</i>
   <i type="int" name="NBANDSO">    -1</i>
   <i type="int" name="NBANDSV">    -1</i>
   <i type="int" name="NELM">   500</i>
   <i type="int" name="NELMHF">     1</i>
   <i type="int" name="DIM">     3</i>
   <i type="int" name="ANTIRES">     0</i>
   <i name="OMEGAMAX">    -30.00000000</i>
   <i name="OMEGAMIN">    -30.00000000</i>
   <i name="OMEGATL">   -200.00000000</i>
   <i type="int" name="OMEGAGRID">     0</i>
   <i name="CSHIFT">     -0.10000000</i>
   <i type="logical" name="SELFENERGY"> F  </i>
   <i type="logical" name="LSPECTRAL"> F  </i>
   <i type="logical" name="LSPECTRALGW"> F  </i>
   <i type="logical" name="LSINGLES"> F  </i>
   <i type="logical" name="LFERMIGW"> F  </i>
   <i type="logical" name="ODDONLYGW"> F  </i>
   <i type="logical" name="EVENONLYGW"> F  </i>
   <i type="int" name="NKREDLFX">     1</i>
   <i type="int" name="NKREDLFY">     1</i>
   <i type="int" name="NKREDLFZ">     1</i>
   <i type="int" name="MAXMEM">  1800</i>
   <i type="int" name="TELESCOPE">     0</i>
   <i type="int" name="TAUPAR">     1</i>
   <i type="int" name="OMEGAPAR">    -1</i>
   <i name="LAMBDA">      1.00000000</i>
  </separator>
  <separator name="External order field" >
   <i name="OFIELD_KAPPA">      0.00000000</i>
   <v name="OFIELD_K">      0.00000000      0.00000000      0.00000000</v>
   <i name="OFIELD_Q6_NEAR">      0.00000000</i>
   <i name="OFIELD_Q6_FAR">      0.00000000</i>
   <i name="OFIELD_A">      0.00000000</i>
  </separator>
 </parameters>
 <atominfo>
  <atoms>      48 </atoms>
  <types>       2 </types>
  <array name="atoms" >
   <dimension dim="1">ion</dimension>
   <field type="string">element</field>
   <field type="int">atomtype</field>
   <set>
    <rc><c>Au</c><c>   1</c></rc>
    <rc><c>Au</c><c>   1</c></rc>
    <rc><c>Au</c><c>   1</c></rc>
    <rc><c>Au</c><c>   1</c></rc>
    <rc><c>Au</c><c>   1</c></rc>
    <rc><c>Au</c><c>   1</c></rc>
    <rc><c>Au</c><c>   1</c></rc>
    <rc><c>Au</c><c>   1</c></rc>
    <rc><c>Au</c><c>   1</c></rc>
    <rc><c>Au</c><c>   1</c></rc>
    <rc><c>Au</c><c>   1</c></rc>
    <rc><c>Au</c><c>   1</c></rc>
    <rc><c>Au</c><c>   1</c></rc>
    <rc><c>Au</c><c>   1</c></rc>
    <rc><c>Au</c><c>   1</c></rc>
    <rc><c>Au</c><c>   1</c></rc>
    <rc><c>Au</c><c>   1</c></rc>
    <rc><c>Au</c><c>   1</c></rc>
    <rc><c>Au</c><c>   1</c></rc>
    <rc><c>Au</c><c>   1</c></rc>
    <rc><c>Au</c><c>   1</c></rc>
    <rc><c>Au</c><c>   1</c></rc>
    <rc><c>Au</c><c>   1</c></rc>
    <rc><c>Au</c><c>   1</c></rc>
    <rc><c>Pd</c><c>   2</c></rc>
    <rc><c>Pd</c><c>   2</c></rc>
    <rc><c>Pd</c><c>   2</c></rc>
    <rc><c>Pd</c><c>   2</c></rc>
    <rc><c>Pd</c><c>   2</c></rc>
    <rc><c>Pd</c><c>   2</c></rc>
    <rc><c>Pd</c><c>   2</c></rc>
    <rc><c>Pd</c><c>   2</c></rc>
    <rc><c>Pd</c><c>   2</c></rc>
    <rc><c>Pd</c><c>   2</c></rc>
    <rc><c>Pd</c><c>   2</c></rc>
    <rc><c>Pd</c><c>   2</c></rc>
    <rc><c>Pd</c><c>   2</c></rc>
    <rc><c>Pd</c><c>   2</c></rc>
    <rc><c>Pd</c><c>   2</c></rc>
    <rc><c>Pd</c><c>   2</c></rc>
    <rc><c>Pd</c><c>   2</c></rc>
    <rc><c>Pd</c><c>   2</c></rc>
    <rc><c>Pd</c><c>   2</c></rc>
    <rc><c>Pd</c><c>   2</c></rc>
    <rc><c>Pd</c><c>   2</c></rc>
    <rc><c>Pd</c><c>   2</c></rc>
    <rc><c>Pd</c><c>   2</c></rc>
    <rc><c>Pd</c><c>   2</c></rc>
   </set>
  </array>
  <array name="atomtypes" >
   <dimension dim="1">type</dimension>
   <field type="int">atomspertype</field>
   <field type="string">element</field>
   <field>mass</field>
   <field>valence</field>
   <field type="string">pseudopotential</field>
   <set>
    <rc><c>  24</c><c>Au</c><c>    196.96600000</c><c>     11.00000000</c><c>  PAW_PBE Au 04Oct2007                  </c></rc>
    <rc><c>  24</c><c>Pd</c><c>    106.42000000</c><c>     10.00000000</c><c>  PAW_PBE Pd 04Jan2005                  </c></rc>
   </set>
  </array>
 </atominfo>
 <structure name="initialpos" >
  <crystal>
   <varray name="basis" >
    <v>      11.00258152       0.00000000       0.00000000 </v>
    <v>       5.50129076       9.52851510       0.00000000 </v>
    <v>       0.00000000       0.00000000      24.49178509 </v>
   </varray>
   <i name="volume">   2567.67623402 </i>
   <varray name="rec_basis" >
    <v>       0.09088776      -0.05247407       0.00000000 </v>
    <v>       0.00000000       0.10494815       0.00000000 </v>
    <v>       0.00000000       0.00000000       0.04083002 </v>
   </varray>
  </crystal>
  <varray name="positions" >
   <v>       0.08333333       0.08333333       0.40830017 </v>
   <v>       0.91666667       0.41666667       0.50000000 </v>
   <v>       0.00000000       0.50000000       0.59169983 </v>
   <v>       0.33333333       0.08333333       0.40830017 </v>
   <v>       0.16666667       0.16666667       0.50000000 </v>
   <v>       0.91666667       0.66666667       0.50000000 </v>
   <v>       0.00000000       0.00000000       0.59169983 </v>
   <v>       0.75000000       0.75000000       0.59169983 </v>
   <v>       0.16666667       0.41666667       0.50000000 </v>
   <v>       0.33333333       0.58333333       0.40830017 </v>
   <v>       0.25000000       0.50000000       0.59169983 </v>
   <v>       0.33333333       0.83333333       0.40830017 </v>
   <v>       0.91666667       0.91666667       0.50000000 </v>
   <v>       0.50000000       0.00000000       0.59169983 </v>
   <v>       0.41666667       0.41666667       0.50000000 </v>
   <v>       0.50000000       0.25000000       0.59169983 </v>
   <v>       0.41666667       0.66666667       0.50000000 </v>
   <v>       0.58333333       0.83333333       0.40830017 </v>
   <v>       0.50000000       0.75000000       0.59169983 </v>
   <v>       0.83333333       0.08333333       0.40830017 </v>
   <v>       0.75000000       0.00000000       0.59169983 </v>
   <v>       0.66666667       0.41666667       0.50000000 </v>
   <v>       0.66666667       0.66666667       0.50000000 </v>
   <v>       0.58333333       0.08333333       0.40830017 </v>
   <v>       0.58333333       0.58333333       0.40830017 </v>
   <v>       0.08333333       0.83333333       0.40830017 </v>
   <v>       0.58333333       0.33333333       0.40830017 </v>
   <v>       0.41666667       0.16666667       0.50000000 </v>
   <v>       0.25000000       0.00000000       0.59169983 </v>
   <v>       0.66666667       0.91666667       0.50000000 </v>
   <v>       0.16666667       0.91666667       0.50000000 </v>
   <v>       0.16666667       0.66666667       0.50000000 </v>
   <v>       0.33333333       0.33333333       0.40830017 </v>
   <v>       0.00000000       0.75000000       0.59169983 </v>
   <v>       0.08333333       0.58333333       0.40830017 </v>
   <v>       0.75000000       0.50000000       0.59169983 </v>
   <v>       0.00000000       0.25000000       0.59169983 </v>
   <v>       0.75000000       0.25000000       0.59169983 </v>
   <v>       0.83333333       0.83333333       0.40830017 </v>
   <v>       0.91666667       0.16666667       0.50000000 </v>
   <v>       0.83333333       0.58333333       0.40830017 </v>
   <v>       0.25000000       0.25000000       0.59169983 </v>
   <v>       0.83333333       0.33333333       0.40830017 </v>
   <v>       0.08333333       0.33333333       0.40830017 </v>
   <v>       0.66666667       0.16666667       0.50000000 </v>
   <v>       0.41666667       0.91666667       0.50000000 </v>
   <v>       0.50000000       0.50000000       0.59169983 </v>
   <v>       0.25000000       0.75000000       0.59169983 </v>
  </varray>
  <varray name="selective"  type="logical" >
   <v type="logical" >  F  F  F </v>
   <v type="logical" >  T  T  T </v>
   <v type="logical" >  T  T  T </v>
   <v type="logical" >  F  F  F </v>
   <v type="logical" >  T  T  T </v>
   <v type="logical" >  T  T  T </v>
   <v type="logical" >  T  T  T </v>
   <v type="logical" >  T  T  T </v>
   <v type="logical" >  T  T  T </v>
   <v type="logical" >  F  F  F </v>
   <v type="logical" >  T  T  T </v>
   <v type="logical" >  F  F  F </v>
   <v type="logical" >  T  T  T </v>
   <v type="logical" >  T  T  T </v>
   <v type="logical" >  T  T  T </v>
   <v type="logical" >  T  T  T </v>
   <v type="logical" >  T  T  T </v>
   <v type="logical" >  F  F  F </v>
   <v type="logical" >  T  T  T </v>
   <v type="logical" >  F  F  F </v>
   <v type="logical" >  T  T  T </v>
   <v type="logical" >  T  T  T </v>
   <v type="logical" >  T  T  T </v>
   <v type="logical" >  F  F  F </v>
   <v type="logical" >  F  F  F </v>
   <v type="logical" >  F  F  F </v>
   <v type="logical" >  F  F  F </v>
   <v type="logical" >  T  T  T </v>
   <v type="logical" >  T  T  T </v>
   <v type="logical" >  T  T  T </v>
   <v type="logical" >  T  T  T </v>
   <v type="logical" >  T  T  T </v>
   <v type="logical" >  F  F  F </v>
   <v type="logical" >  T  T  T </v>
   <v type="logical" >  F  F  F </v>
   <v type="logical" >  T  T  T </v>
   <v type="logical" >  T  T  T </v>
   <v type="logical" >  T  T  T </v>
   <v type="logical" >  F  F  F </v>
   <v type="logical" >  T  T  T </v>
   <v type="logical" >  F  F  F </v>
   <v type="logical" >  T  T  T </v>
   <v type="logical" >  F  F  F </v>
   <v type="logical" >  F  F  F </v>
   <v type="logical" >  T  T  T </v>
   <v type="logical" >  T  T  T </v>
   <v type="logical" >  T  T  T </v>
   <v type="logical" >  T  T  T </v>
  </varray>
  <nose>
   <v>      -3.00000000       0.00000000       0.00010000       0.00010000 </v>
  </nose>
 </structure>
 <calculation>
  <scstep>
   <time name="dav">    6.85    6.87</time>
   <time name="total">    6.91    6.93</time>
   <dipole>
    <v name="dipole">      0.00000000       0.00000000      -0.00000074 </v>
    <i name="Tr[quadrupol]"> -10301.70160665 </i>
    <i name="Echarged">      0.00000000 </i>
    <i name="Edipol_quadrupol">      0.00000000 </i>
    <i name="Eion">      0.00000000 </i>
   </dipole>
   <energy>
    <i name="alphaZ">    805.86936440 </i>
    <i name="ewald"> 200392.27436724 </i>
    <i name="hartreedc">-242807.13102436 </i>
    <i name="XCdc">   -327.56391425 </i>
    <i name="pawpsdc">  40340.05962942 </i>
    <i name="pawaedc"> -38292.62782345 </i>
    <i name="eentropy">     -0.13707985 </i>
    <i name="bandstr">   1430.11867130 </i>
    <i name="atom">  41659.78587232 </i>
    <i name="e_fr_energy">   3200.64806277 </i>
    <i name="e_wo_entrp">   3200.78514262 </i>
    <i name="e_0_energy">   3200.71660270 </i>
   </energy>
  </scstep>
  <scstep>
   <time name="dav">    8.33    8.35</time>
   <time name="total">    8.33    8.36</time>
   <dipole>
    <v name="dipole">      0.00000000       0.00000000      -0.00000074 </v>
    <i name="Tr[quadrupol]"> -10301.70160665 </i>
    <i name="Echarged">      0.00000000 </i>
    <i name="Edipol_quadrupol">      0.00000000 </i>
    <i name="Eion">      0.00000000 </i>
   </dipole>
   <energy>
    <i name="e_fr_energy">     16.19779352 </i>
    <i name="e_wo_entrp">     16.33043700 </i>
    <i name="e_0_energy">     16.26411526 </i>
   </energy>
  </scstep>
  <scstep>
   <time name="dav">    7.91    7.93</time>
   <time name="total">    7.92    7.94</time>
   <dipole>
    <v name="dipole">      0.00000000       0.00000000      -0.00000074 </v>
    <i name="Tr[quadrupol]"> -10301.70160665 </i>
    <i name="Echarged">      0.00000000 </i>
    <i name="Edipol_quadrupol">      0.00000000 </i>
    <i name="Eion">      0.00000000 </i>
   </dipole>
   <energy>
    <i name="e_fr_energy">   -199.78163619 </i>
    <i name="e_wo_entrp">   -199.57257733 </i>
    <i name="e_0_energy">   -199.67710676 </i>
   </energy>
  </scstep>
  <scstep>
   <time name="dav">    8.07    8.19</time>
   <time name="total">    8.08    8.20</time>
   <dipole>
    <v name="dipole">      0.00000000       0.00000000      -0.00000074 </v>
    <i name="Tr[quadrupol]"> -10301.70160665 </i>
    <i name="Echarged">      0.00000000 </i>
    <i name="Edipol_quadrupol">      0.00000000 </i>
    <i name="Eion">      0.00000000 </i>
   </dipole>
   <energy>
    <i name="e_fr_energy">   -205.62010708 </i>
    <i name="e_wo_entrp">   -205.40100688 </i>
    <i name="e_0_energy">   -205.51055698 </i>
   </energy>
  </scstep>
  <scstep>
   <time name="dav">    8.34    8.38</time>
   <time name="total">    8.58    8.63</time>
   <dipole>
    <v name="dipole">      0.00000000       0.00000000      -0.00000074 </v>
    <i name="Tr[quadrupol]"> -10301.70160665 </i>
    <i name="Echarged">      0.00000000 </i>
    <i name="Edipol_quadrupol">      0.00000000 </i>
    <i name="Eion">      0.00000000 </i>
   </dipole>
   <energy>
    <i name="e_fr_energy">   -205.81825671 </i>
    <i name="e_wo_entrp">   -205.59998164 </i>
    <i name="e_0_energy">   -205.70911918 </i>
   </energy>
  </scstep>
  <scstep>
   <time name="diag">    1.22    1.22</time>
   <time name="diis">    3.41    3.41</time>
   <time name="orth">    0.29    0.29</time>
   <time name="total">    5.21    5.23</time>
   <dipole>
    <v name="dipole">      0.00000000       0.00000000      -0.33347827 </v>
    <i name="Tr[quadrupol]"> -10302.43504026 </i>
    <i name="Echarged">      0.00000000 </i>
    <i name="Edipol_quadrupol">      0.00000000 </i>
    <i name="Eion">      0.00000000 </i>
   </dipole>
   <energy>
    <i name="e_fr_energy">   -196.92593593 </i>
    <i name="e_wo_entrp">   -196.67579119 </i>
    <i name="e_0_energy">   -196.80086356 </i>
   </energy>
  </scstep>
  <scstep>
   <time name="diag">    1.23    1.23</time>
   <time name="diis">    3.45    3.46</time>
   <time name="orth">    0.29    0.29</time>
   <time name="total">    5.26    5.28</time>
   <dipole>
    <v name="dipole">      0.00000000       0.00000000       0.92746308 </v>
    <i name="Tr[quadrupol]"> -10301.98572116 </i>
    <i name="Echarged">      0.00000000 </i>
    <i name="Edipol_quadrupol">      0.00000000 </i>
    <i name="Eion">      0.00000000 </i>
   </dipole>
   <energy>
    <i name="e_fr_energy">   -202.75000536 </i>
    <i name="e_wo_entrp">   -202.58891597 </i>
    <i name="e_0_energy">   -202.66946066 </i>
   </energy>
  </scstep>
  <scstep>
   <time name="diag">    1.24    1.24</time>
   <time name="diis">    3.38    3.39</time>
   <time name="orth">    0.29    0.29</time>
   <time name="total">    5.19    5.21</time>
   <dipole>
    <v name="dipole">      0.00000000       0.00000000      -2.23142077 </v>
    <i name="Tr[quadrupol]"> -10303.98679454 </i>
    <i name="Echarged">      0.00000000 </i>
    <i name="Edipol_quadrupol">      0.00000000 </i>
    <i name="Eion">      0.00000000 </i>
   </dipole>
   <energy>
    <i name="e_fr_energy">   -230.67751332 </i>
    <i name="e_wo_entrp">   -230.31277508 </i>
    <i name="e_0_energy">   -230.49514420 </i>
   </energy>
  </scstep>
  <scstep>
   <time name="diag">    1.22    1.23</time>
   <time name="diis">    3.45    3.46</time>
   <time name="orth">    0.29    0.29</time>
   <time name="total">    5.25    5.27</time>
   <dipole>
    <v name="dipole">      0.00000000       0.00000000       0.37966805 </v>
    <i name="Tr[quadrupol]"> -10304.91498378 </i>
    <i name="Echarged">      0.00000000 </i>
    <i name="Edipol_quadrupol">      0.00000000 </i>
    <i name="Eion">      0.00000000 </i>
   </dipole>
   <energy>
    <i name="e_fr_energy">   -210.22763898 </i>
    <i name="e_wo_entrp">   -210.05416419 </i>
    <i name="e_0_energy">   -210.14090159 </i>
   </energy>
  </scstep>
  <scstep>
   <time name="diag">    1.21    1.21</time>
   <time name="diis">    3.35    3.45</time>
   <time name="orth">    0.29    0.29</time>
   <time name="total">    5.14    5.24</time>
   <dipole>
    <v name="dipole">      0.00000000       0.00000000      -0.21149817 </v>
    <i name="Tr[quadrupol]"> -10303.38946360 </i>
    <i name="Echarged">      0.00000000 </i>
    <i name="Edipol_quadrupol">      0.00000000 </i>
    <i name="Eion">      0.00000000 </i>
   </dipole>
   <energy>
    <i name="e_fr_energy">   -195.66693770 </i>
    <i name="e_wo_entrp">   -195.49293749 </i>
    <i name="e_0_energy">   -195.57993759 </i>
   </energy>
  </scstep>
  <scstep>
   <time name="diag">    1.22    1.22</time>
   <time name="diis">    3.41    3.42</time>
   <time name="orth">    0.29    0.29</time>
   <time name="total">    5.21    5.22</time>
   <dipole>
    <v name="dipole">      0.00000000       0.00000000      -0.12419775 </v>
    <i name="Tr[quadrupol]"> -10304.09738508 </i>
    <i name="Echarged">      0.00000000 </i>
    <i name="Edipol_quadrupol">      0.00000000 </i>
    <i name="Eion">      0.00000000 </i>
   </dipole>
   <energy>
    <i name="e_fr_energy">   -191.63595117 </i>
    <i name="e_wo_entrp">   -191.42825631 </i>
    <i name="e_0_energy">   -191.53210374 </i>
   </energy>
  </scstep>
  <scstep>
   <time name="diag">    1.23    1.23</time>
   <time name="diis">    3.43    3.44</time>
   <time name="orth">    0.29    0.29</time>
   <time name="total">    5.23    5.25</time>
   <dipole>
    <v name="dipole">      0.00000000       0.00000000      -0.08458511 </v>
    <i name="Tr[quadrupol]"> -10304.45528440 </i>
    <i name="Echarged">      0.00000000 </i>
    <i name="Edipol_quadrupol">      0.00000000 </i>
    <i name="Eion">      0.00000000 </i>
   </dipole>
   <energy>
    <i name="e_fr_energy">   -189.15542559 </i>
    <i name="e_wo_entrp">   -188.93122360 </i>
    <i name="e_0_energy">   -189.04332459 </i>
   </energy>
  </scstep>
  <scstep>
   <time name="diag">    1.22    1.22</time>
   <time name="diis">    3.40    3.41</time>
   <time name="orth">    0.28    0.29</time>
   <time name="total">    5.20    5.21</time>
   <dipole>
    <v name="dipole">      0.00000000       0.00000000      -0.00868978 </v>
    <i name="Tr[quadrupol]"> -10304.70966180 </i>
    <i name="Echarged">      0.00000000 </i>
    <i name="Edipol_quadrupol">      0.00000000 </i>
    <i name="Eion">      0.00000000 </i>
   </dipole>
   <energy>
    <i name="e_fr_energy">   -189.16141945 </i>
    <i name="e_wo_entrp">   -188.95136116 </i>
    <i name="e_0_energy">   -189.05639031 </i>
   </energy>
  </scstep>
  <scstep>
   <time name="diag">    1.22    1.22</time>
   <time name="diis">    3.41    3.42</time>
   <time name="orth">    0.28    0.29</time>
   <time name="total">    5.20    5.22</time>
   <dipole>
    <v name="dipole">      0.00000000       0.00000000       0.02793627 </v>
    <i name="Tr[quadrupol]"> -10304.77713344 </i>
    <i name="Echarged">      0.00000000 </i>
    <i name="Edipol_quadrupol">      0.00000000 </i>
    <i name="Eion">      0.00000000 </i>
   </dipole>
   <energy>
    <i name="e_fr_energy">   -188.91004212 </i>
    <i name="e_wo_entrp">   -188.68474871 </i>
    <i name="e_0_energy">   -188.79739541 </i>
   </energy>
  </scstep>
  <scstep>
   <time name="diag">    1.22    1.22</time>
   <time name="diis">    3.42    3.45</time>
   <time name="orth">    0.29    0.29</time>
   <time name="total">    5.21    5.25</time>
   <dipole>
    <v name="dipole">      0.00000000       0.00000000       0.01287895 </v>
    <i name="Tr[quadrupol]"> -10304.96421040 </i>
    <i name="Echarged">      0.00000000 </i>
    <i name="Edipol_quadrupol">      0.00000000 </i>
    <i name="Eion">      0.00000000 </i>
   </dipole>
   <energy>
    <i name="e_fr_energy">   -188.83199880 </i>
    <i name="e_wo_entrp">   -188.60183762 </i>
    <i name="e_0_energy">   -188.71691821 </i>
   </energy>
  </scstep>
  <scstep>
   <time name="diag">    1.22    1.22</time>
   <time name="diis">    3.44    3.44</time>
   <time name="orth">    0.28    0.28</time>
   <time name="total">    5.22    5.24</time>
   <dipole>
    <v name="dipole">      0.00000000       0.00000000       0.01517466 </v>
    <i name="Tr[quadrupol]"> -10305.35383613 </i>
    <i name="Echarged">      0.00000000 </i>
    <i name="Edipol_quadrupol">      0.00000000 </i>
    <i name="Eion">      0.00000000 </i>
   </dipole>
   <energy>
    <i name="e_fr_energy">   -188.74079185 </i>
    <i name="e_wo_entrp">   -188.49948534 </i>
    <i name="e_0_energy">   -188.62013859 </i>
   </energy>
  </scstep>
  <scstep>
   <time name="diag">    1.21    1.21</time>
   <time name="diis">    3.42    3.43</time>
   <time name="orth">    0.28    0.29</time>
   <time name="total">    5.20    5.22</time>
   <dipole>
    <v name="dipole">      0.00000000       0.00000000      -0.00269392 </v>
    <i name="Tr[quadrupol]"> -10305.76454356 </i>
    <i name="Echarged">      0.00000000 </i>
    <i name="Edipol_quadrupol">      0.00000000 </i>
    <i name="Eion">      0.00000000 </i>
   </dipole>
   <energy>
    <i name="e_fr_energy">   -188.68901430 </i>
    <i name="e_wo_entrp">   -188.44561286 </i>
    <i name="e_0_energy">   -188.56731358 </i>
   </energy>
  </scstep>
  <scstep>
   <time name="diag">    1.20    1.23</time>
   <time name="diis">    3.35    3.42</time>
   <time name="orth">    0.28    0.28</time>
   <time name="total">    5.13    5.22</time>
   <dipole>
    <v name="dipole">      0.00000000       0.00000000       0.00125665 </v>
    <i name="Tr[quadrupol]"> -10306.00819136 </i>
    <i name="Echarged">      0.00000000 </i>
    <i name="Edipol_quadrupol">      0.00000000 </i>
    <i name="Eion">      0.00000000 </i>
   </dipole>
   <energy>
    <i name="e_fr_energy">   -188.61557073 </i>
    <i name="e_wo_entrp">   -188.38065672 </i>
    <i name="e_0_energy">   -188.49811372 </i>
   </energy>
  </scstep>
  <scstep>
   <time name="diag">    1.21    1.22</time>
   <time name="diis">    3.40    3.41</time>
   <time name="orth">    0.28    0.28</time>
   <time name="total">    5.18    5.20</time>
   <dipole>
    <v name="dipole">      0.00000000       0.00000000      -0.00246379 </v>
    <i name="Tr[quadrupol]"> -10306.07932683 </i>
    <i name="Echarged">      0.00000000 </i>
    <i name="Edipol_quadrupol">      0.00000000 </i>
    <i name="Eion">      0.00000000 </i>
   </dipole>
   <energy>
    <i name="e_fr_energy">   -188.60848586 </i>
    <i name="e_wo_entrp">   -188.37261315 </i>
    <i name="e_0_energy">   -188.49054951 </i>
   </energy>
  </scstep>
  <scstep>
   <time name="diag">    1.21    1.22</time>
   <time name="diis">    3.40    3.41</time>
   <time name="orth">    0.28    0.28</time>
   <time name="total">    5.18    5.20</time>
   <dipole>
    <v name="dipole">      0.00000000       0.00000000      -0.00372819 </v>
    <i name="Tr[quadrupol]"> -10306.12828690 </i>
    <i name="Echarged">      0.00000000 </i>
    <i name="Edipol_quadrupol">      0.00000000 </i>
    <i name="Eion">      0.00000000 </i>
   </dipole>
   <energy>
    <i name="e_fr_energy">   -188.60774551 </i>
    <i name="e_wo_entrp">   -188.36962257 </i>
    <i name="e_0_energy">   -188.48868404 </i>
   </energy>
  </scstep>
  <scstep>
   <time name="diag">    1.21    1.22</time>
   <time name="diis">    3.45    3.46</time>
   <time name="orth">    0.28    0.28</time>
   <time name="total">    5.24    5.26</time>
   <dipole>
    <v name="dipole">      0.00000000       0.00000000       0.00330301 </v>
    <i name="Tr[quadrupol]"> -10306.23510687 </i>
    <i name="Echarged">      0.00000000 </i>
    <i name="Edipol_quadrupol">      0.00000000 </i>
    <i name="Eion">      0.00000000 </i>
   </dipole>
   <energy>
    <i name="e_fr_energy">   -188.60512365 </i>
    <i name="e_wo_entrp">   -188.36653653 </i>
    <i name="e_0_energy">   -188.48583009 </i>
   </energy>
  </scstep>
  <scstep>
   <time name="diag">    1.20    1.21</time>
   <time name="diis">    3.39    3.40</time>
   <time name="orth">    0.28    0.28</time>
   <time name="total">    5.17    5.19</time>
   <dipole>
    <v name="dipole">      0.00000000       0.00000000       0.00254998 </v>
    <i name="Tr[quadrupol]"> -10306.37936998 </i>
    <i name="Echarged">      0.00000000 </i>
    <i name="Edipol_quadrupol">      0.00000000 </i>
    <i name="Eion">      0.00000000 </i>
   </dipole>
   <energy>
    <i name="e_fr_energy">   -188.60373652 </i>
    <i name="e_wo_entrp">   -188.36480546 </i>
    <i name="e_0_energy">   -188.48427099 </i>
   </energy>
  </scstep>
  <scstep>
   <time name="diag">    1.21    1.22</time>
   <time name="diis">    3.39    3.40</time>
   <time name="orth">    0.28    0.28</time>
   <time name="total">    5.17    5.19</time>
   <dipole>
    <v name="dipole">      0.00000000       0.00000000       0.00001744 </v>
    <i name="Tr[quadrupol]"> -10306.53328603 </i>
    <i name="Echarged">      0.00000000 </i>
    <i name="Edipol_quadrupol">      0.00000000 </i>
    <i name="Eion">      0.00000000 </i>
   </dipole>
   <energy>
    <i name="e_fr_energy">   -188.60291581 </i>
    <i name="e_wo_entrp">   -188.36465924 </i>
    <i name="e_0_energy">   -188.48378752 </i>
   </energy>
  </scstep>
  <scstep>
   <time name="diag">    1.21    1.22</time>
   <time name="diis">    3.40    3.41</time>
   <time name="orth">    0.28    0.28</time>
   <time name="total">    5.18    5.20</time>
   <dipole>
    <v name="dipole">      0.00000000       0.00000000      -0.00173793 </v>
    <i name="Tr[quadrupol]"> -10306.62443967 </i>
    <i name="Echarged">      0.00000000 </i>
    <i name="Edipol_quadrupol">      0.00000000 </i>
    <i name="Eion">      0.00000000 </i>
   </dipole>
   <energy>
    <i name="e_fr_energy">   -188.60305957 </i>
    <i name="e_wo_entrp">   -188.36496236 </i>
    <i name="e_0_energy">   -188.48401097 </i>
   </energy>
  </scstep>
  <scstep>
   <time name="diag">    1.21    1.22</time>
   <time name="diis">    3.38    3.39</time>
   <time name="orth">    0.27    0.29</time>
   <time name="total">    5.16    5.23</time>
   <dipole>
    <v name="dipole">      0.00000000       0.00000000      -0.00077375 </v>
    <i name="Tr[quadrupol]"> -10306.70337151 </i>
    <i name="Echarged">      0.00000000 </i>
    <i name="Edipol_quadrupol">      0.00000000 </i>
    <i name="Eion">      0.00000000 </i>
   </dipole>
   <energy>
    <i name="e_fr_energy">   -188.60320879 </i>
    <i name="e_wo_entrp">   -188.36493680 </i>
    <i name="e_0_energy">   -188.48407280 </i>
   </energy>
  </scstep>
  <scstep>
   <time name="diag">    1.20    1.22</time>
   <time name="diis">    3.39    3.40</time>
   <time name="orth">    0.28    0.28</time>
   <time name="total">    5.16    5.19</time>
   <dipole>
    <v name="dipole">      0.00000000       0.00000000       0.00012082 </v>
    <i name="Tr[quadrupol]"> -10306.76813322 </i>
    <i name="Echarged">      0.00000000 </i>
    <i name="Edipol_quadrupol">      0.00000000 </i>
    <i name="Eion">      0.00000000 </i>
   </dipole>
   <energy>
    <i name="e_fr_energy">   -188.60351949 </i>
    <i name="e_wo_entrp">   -188.36526115 </i>
    <i name="e_0_energy">   -188.48439032 </i>
   </energy>
  </scstep>
  <scstep>
   <time name="diag">    1.21    1.21</time>
   <time name="diis">    3.36    3.41</time>
   <time name="orth">    0.28    0.28</time>
   <time name="total">    5.14    5.19</time>
   <dipole>
    <v name="dipole">      0.00000000       0.00000000       0.00111393 </v>
    <i name="Tr[quadrupol]"> -10306.87082812 </i>
    <i name="Echarged">      0.00000000 </i>
    <i name="Edipol_quadrupol">      0.00000000 </i>
    <i name="Eion">      0.00000000 </i>
   </dipole>
   <energy>
    <i name="e_fr_energy">   -188.60419122 </i>
    <i name="e_wo_entrp">   -188.36588892 </i>
    <i name="e_0_energy">   -188.48504007 </i>
   </energy>
  </scstep>
  <scstep>
   <time name="diag">    1.21    1.22</time>
   <time name="diis">    3.43    3.44</time>
   <time name="orth">    0.28    0.28</time>
   <time name="total">    5.22    5.23</time>
   <dipole>
    <v name="dipole">      0.00000000       0.00000000       0.00171877 </v>
    <i name="Tr[quadrupol]"> -10306.92035664 </i>
    <i name="Echarged">      0.00000000 </i>
    <i name="Edipol_quadrupol">      0.00000000 </i>
    <i name="Eion">      0.00000000 </i>
   </dipole>
   <energy>
    <i name="e_fr_energy">   -188.60457407 </i>
    <i name="e_wo_entrp">   -188.36615701 </i>
    <i name="e_0_energy">   -188.48536554 </i>
   </energy>
  </scstep>
  <scstep>
   <time name="diag">    1.21    1.21</time>
   <time name="diis">    3.44    3.45</time>
   <time name="orth">    0.28    0.28</time>
   <time name="total">    5.23    5.24</time>
   <dipole>
    <v name="dipole">      0.00000000       0.00000000       0.00221373 </v>
    <i name="Tr[quadrupol]"> -10307.00353524 </i>
    <i name="Echarged">      0.00000000 </i>
    <i name="Edipol_quadrupol">      0.00000000 </i>
    <i name="Eion">      0.00000000 </i>
   </dipole>
   <energy>
    <i name="e_fr_energy">   -188.60538039 </i>
    <i name="e_wo_entrp">   -188.36702996 </i>
    <i name="e_0_energy">   -188.48620518 </i>
   </energy>
  </scstep>
  <scstep>
   <time name="diag">    1.20    1.20</time>
   <time name="diis">    3.27    3.28</time>
   <time name="orth">    0.28    0.28</time>
   <time name="total">    5.05    5.06</time>
   <dipole>
    <v name="dipole">      0.00000000       0.00000000       0.00270686 </v>
    <i name="Tr[quadrupol]"> -10307.04721352 </i>
    <i name="Echarged">      0.00000000 </i>
    <i name="Edipol_quadrupol">      0.00000000 </i>
    <i name="Eion">      0.00000000 </i>
   </dipole>
   <energy>
    <i name="e_fr_energy">   -188.60582379 </i>
    <i name="e_wo_entrp">   -188.36738713 </i>
    <i name="e_0_energy">   -188.48660546 </i>
   </energy>
  </scstep>
  <scstep>
   <time name="diag">    1.22    1.23</time>
   <time name="diis">    3.17    3.18</time>
   <time name="orth">    0.28    0.28</time>
   <time name="total">    4.96    4.98</time>
   <dipole>
    <v name="dipole">      0.00000000       0.00000000       0.00352699 </v>
    <i name="Tr[quadrupol]"> -10307.10279197 </i>
    <i name="Echarged">      0.00000000 </i>
    <i name="Edipol_quadrupol">      0.00000000 </i>
    <i name="Eion">      0.00000000 </i>
   </dipole>
   <energy>
    <i name="e_fr_energy">   -188.60629397 </i>
    <i name="e_wo_entrp">   -188.36786017 </i>
    <i name="e_0_energy">   -188.48707707 </i>
   </energy>
  </scstep>
  <scstep>
   <time name="diag">    1.21    1.22</time>
   <time name="diis">    2.61    2.62</time>
   <time name="orth">    0.28    0.29</time>
   <time name="total">    4.40    4.42</time>
   <dipole>
    <v name="dipole">      0.00000000       0.00000000       0.00380782 </v>
    <i name="Tr[quadrupol]"> -10307.11876713 </i>
    <i name="Echarged">      0.00000000 </i>
    <i name="Edipol_quadrupol">      0.00000000 </i>
    <i name="Eion">      0.00000000 </i>
   </dipole>
   <energy>
    <i name="e_fr_energy">   -188.60640364 </i>
    <i name="e_wo_entrp">   -188.36795963 </i>
    <i name="e_0_energy">   -188.48718164 </i>
   </energy>
  </scstep>
  <scstep>
   <time name="diag">    1.21    1.22</time>
   <time name="diis">    2.42    2.42</time>
   <time name="orth">    0.29    0.29</time>
   <time name="total">    4.21    4.25</time>
   <dipole>
    <v name="dipole">      0.00000000       0.00000000       0.00399147 </v>
    <i name="Tr[quadrupol]"> -10307.13295470 </i>
    <i name="Echarged">      0.00000000 </i>
    <i name="Edipol_quadrupol">      0.00000000 </i>
    <i name="Eion">      0.00000000 </i>
   </dipole>
   <energy>
    <i name="e_fr_energy">   -188.60650840 </i>
    <i name="e_wo_entrp">   -188.36809489 </i>
    <i name="e_0_energy">   -188.48730165 </i>
   </energy>
  </scstep>
  <scstep>
   <time name="diag">    1.19    1.25</time>
   <time name="diis">    2.16    2.17</time>
   <time name="orth">    0.28    0.29</time>
   <time name="total">    3.93    4.00</time>
   <dipole>
    <v name="dipole">      0.00000000       0.00000000       0.00413399 </v>
    <i name="Tr[quadrupol]"> -10307.14167953 </i>
    <i name="Echarged">      0.00000000 </i>
    <i name="Edipol_quadrupol">      0.00000000 </i>
    <i name="Eion">      0.00000000 </i>
   </dipole>
   <energy>
    <i name="e_fr_energy">   -188.60658111 </i>
    <i name="e_wo_entrp">   -188.36818235 </i>
    <i name="e_0_energy">   -188.48738173 </i>
   </energy>
  </scstep>
  <scstep>
   <time name="diag">    1.21    1.22</time>
   <time name="diis">    2.11    2.12</time>
   <time name="orth">    0.28    0.28</time>
   <time name="total">    3.90    3.91</time>
   <dipole>
    <v name="dipole">      0.00000000       0.00000000       0.00425177 </v>
    <i name="Tr[quadrupol]"> -10307.14957538 </i>
    <i name="Echarged">      0.00000000 </i>
    <i name="Edipol_quadrupol">      0.00000000 </i>
    <i name="Eion">      0.00000000 </i>
   </dipole>
   <energy>
    <i name="e_fr_energy">   -188.60663520 </i>
    <i name="e_wo_entrp">   -188.36823411 </i>
    <i name="e_0_energy">   -188.48743465 </i>
   </energy>
  </scstep>
  <scstep>
   <time name="diag">    1.21    1.21</time>
   <time name="diis">    2.09    2.10</time>
   <time name="orth">    0.28    0.28</time>
   <time name="total">    3.88    3.89</time>
   <dipole>
    <v name="dipole">      0.00000000       0.00000000       0.00438788 </v>
    <i name="Tr[quadrupol]"> -10307.15495491 </i>
    <i name="Echarged">      0.00000000 </i>
    <i name="Edipol_quadrupol">      0.00000000 </i>
    <i name="Eion">      0.00000000 </i>
   </dipole>
   <energy>
    <i name="e_fr_energy">   -188.60665984 </i>
    <i name="e_wo_entrp">   -188.36825010 </i>
    <i name="e_0_energy">   -188.48745497 </i>
   </energy>
  </scstep>
  <scstep>
   <time name="diag">    1.21    1.21</time>
   <time name="diis">    1.96    1.96</time>
   <time name="orth">    0.28    0.28</time>
   <time name="total">    3.74    3.76</time>
   <dipole>
    <v name="dipole">      0.00000000       0.00000000       0.00447597 </v>
    <i name="Tr[quadrupol]"> -10307.15875689 </i>
    <i name="Echarged">      0.00000000 </i>
    <i name="Edipol_quadrupol">      0.00000000 </i>
    <i name="Eion">      0.00000000 </i>
   </dipole>
   <energy>
    <i name="e_fr_energy">   -188.60667220 </i>
    <i name="e_wo_entrp">   -188.36826051 </i>
    <i name="e_0_energy">   -188.48746636 </i>
   </energy>
  </scstep>
  <scstep>
   <time name="diag">    1.21    1.22</time>
   <time name="diis">    1.92    1.93</time>
   <time name="orth">    0.28    0.28</time>
   <time name="total">    3.70    3.72</time>
   <dipole>
    <v name="dipole">      0.00000000       0.00000000       0.00454624 </v>
    <i name="Tr[quadrupol]"> -10307.16350482 </i>
    <i name="Echarged">      0.00000000 </i>
    <i name="Edipol_quadrupol">      0.00000000 </i>
    <i name="Eion">      0.00000000 </i>
   </dipole>
   <energy>
    <i name="e_fr_energy">   -188.60668044 </i>
    <i name="e_wo_entrp">   -188.36827208 </i>
    <i name="e_0_energy">   -188.48747626 </i>
   </energy>
  </scstep>
  <scstep>
   <time name="diag">    1.21    1.21</time>
   <time name="diis">    1.60    1.60</time>
   <time name="orth">    0.28    0.28</time>
   <time name="total">    3.37    3.38</time>
   <dipole>
    <v name="dipole">      0.00000000       0.00000000       0.00457940 </v>
    <i name="Tr[quadrupol]"> -10307.16581379 </i>
    <i name="Echarged">      0.00000000 </i>
    <i name="Edipol_quadrupol">      0.00000000 </i>
    <i name="Eion">      0.00000000 </i>
   </dipole>
   <energy>
    <i name="e_fr_energy">   -188.60668181 </i>
    <i name="e_wo_entrp">   -188.36827526 </i>
    <i name="e_0_energy">   -188.48747854 </i>
   </energy>
  </scstep>
  <scstep>
   <time name="diag">    1.21    1.21</time>
   <time name="diis">    1.46    1.47</time>
   <time name="orth">    0.28    0.28</time>
   <time name="total">    3.00    3.01</time>
   <dipole>
    <v name="dipole">      0.00000000       0.00000000       0.00460455 </v>
    <i name="Tr[quadrupol]"> -10307.16774569 </i>
    <i name="Echarged">      0.00000000 </i>
    <i name="Edipol_quadrupol">      0.00000000 </i>
    <i name="Eion">      0.00000000 </i>
   </dipole>
   <energy>
    <i name="alphaZ">    805.86863474 </i>
    <i name="ewald"> 200392.27436724 </i>
    <i name="hartreedc">-242588.20914344 </i>
    <i name="XCdc">   -343.17607339 </i>
    <i name="pawpsdc">  49400.48177795 </i>
    <i name="pawaedc"> -47477.75217734 </i>
    <i name="eentropy">     -0.23840769 </i>
    <i name="bandstr">  -2037.64153297 </i>
    <i name="atom">  41659.78587232 </i>
    <i name="e_fr_energy">   -188.60668259 </i>
    <i name="e_wo_entrp">   -188.36827490 </i>
    <i name="e_0_energy">   -188.48747875 </i>
   </energy>
  </scstep>
  <structure>
   <crystal>
    <varray name="basis" >
     <v>      11.00258152       0.00000000       0.00000000 </v>
     <v>       5.50129076       9.52851510       0.00000000 </v>
     <v>       0.00000000       0.00000000      24.49178509 </v>
    </varray>
    <i name="volume">   2567.67623402 </i>
    <varray name="rec_basis" >
     <v>       0.09088776      -0.05247407       0.00000000 </v>
     <v>       0.00000000       0.10494815       0.00000000 </v>
     <v>       0.00000000       0.00000000       0.04083002 </v>
    </varray>
   </crystal>
   <varray name="positions" >
    <v>       0.08333333       0.08333333       0.40830017 </v>
    <v>       0.91666667       0.41666667       0.50000000 </v>
    <v>       0.00000000       0.50000000       0.59169983 </v>
    <v>       0.33333333       0.08333333       0.40830017 </v>
    <v>       0.16666667       0.16666667       0.50000000 </v>
    <v>       0.91666667       0.66666667       0.50000000 </v>
    <v>       0.00000000       0.00000000       0.59169983 </v>
    <v>       0.75000000       0.75000000       0.59169983 </v>
    <v>       0.16666667       0.41666667       0.50000000 </v>
    <v>       0.33333333       0.58333333       0.40830017 </v>
    <v>       0.25000000       0.50000000       0.59169983 </v>
    <v>       0.33333333       0.83333333       0.40830017 </v>
    <v>       0.91666667       0.91666667       0.50000000 </v>
    <v>       0.50000000       0.00000000       0.59169983 </v>
    <v>       0.41666667       0.41666667       0.50000000 </v>
    <v>       0.50000000       0.25000000       0.59169983 </v>
    <v>       0.41666667       0.66666667       0.50000000 </v>
    <v>       0.58333333       0.83333333       0.40830017 </v>
    <v>       0.50000000       0.75000000       0.59169983 </v>
    <v>       0.83333333       0.08333333       0.40830017 </v>
    <v>       0.75000000       0.00000000       0.59169983 </v>
    <v>       0.66666667       0.41666667       0.50000000 </v>
    <v>       0.66666667       0.66666667       0.50000000 </v>
    <v>       0.58333333       0.08333333       0.40830017 </v>
    <v>       0.58333333       0.58333333       0.40830017 </v>
    <v>       0.08333333       0.83333333       0.40830017 </v>
    <v>       0.58333333       0.33333333       0.40830017 </v>
    <v>       0.41666667       0.16666667       0.50000000 </v>
    <v>       0.25000000       0.00000000       0.59169983 </v>
    <v>       0.66666667       0.91666667       0.50000000 </v>
    <v>       0.16666667       0.91666667       0.50000000 </v>
    <v>       0.16666667       0.66666667       0.50000000 </v>
    <v>       0.33333333       0.33333333       0.40830017 </v>
    <v>       0.00000000       0.75000000       0.59169983 </v>
    <v>       0.08333333       0.58333333       0.40830017 </v>
    <v>       0.75000000       0.50000000       0.59169983 </v>
    <v>       0.00000000       0.25000000       0.59169983 </v>
    <v>       0.75000000       0.25000000       0.59169983 </v>
    <v>       0.83333333       0.83333333       0.40830017 </v>
    <v>       0.91666667       0.16666667       0.50000000 </v>
    <v>       0.83333333       0.58333333       0.40830017 </v>
    <v>       0.25000000       0.25000000       0.59169983 </v>
    <v>       0.83333333       0.33333333       0.40830017 </v>
    <v>       0.08333333       0.33333333       0.40830017 </v>
    <v>       0.66666667       0.16666667       0.50000000 </v>
    <v>       0.41666667       0.91666667       0.50000000 </v>
    <v>       0.50000000       0.50000000       0.59169983 </v>
    <v>       0.25000000       0.75000000       0.59169983 </v>
   </varray>
  </structure>
  <varray name="forces" >
   <v>      -0.24169507       0.12176298      -1.38310990 </v>
   <v>      -0.32241928      -0.36829986      -0.26763971 </v>
   <v>      -0.12143741      -0.18965431       1.86733708 </v>
   <v>       0.13832878       0.30269527      -1.37823246 </v>
   <v>      -0.00698425      -0.26121839       0.50353552 </v>
   <v>       0.33832896       0.34738540      -0.59677956 </v>
   <v>       0.34802386       0.10527824       1.26321313 </v>
   <v>       0.09950314      -0.07625608       1.65009752 </v>
   <v>       0.26737683      -0.18629129      -0.54001993 </v>
   <v>      -0.26874182      -0.09643781      -1.58472801 </v>
   <v>       0.12557173       0.36527049       1.61098712 </v>
   <v>      -0.13732749      -0.09195788      -1.40482350 </v>
   <v>       0.17320202      -0.21311416      -0.26267481 </v>
   <v>      -0.31755422       0.22435901       1.12866749 </v>
   <v>       0.04307908      -0.34095883      -0.25255926 </v>
   <v>       0.12303179       0.03811822       1.39601465 </v>
   <v>      -0.29495615       0.31310354       0.28593649 </v>
   <v>       0.24469856      -0.25571175      -1.36208897 </v>
   <v>      -0.36973459      -0.02586478       1.56229577 </v>
   <v>       0.01652681       0.10687196      -1.30698328 </v>
   <v>       0.12083786       0.13452798       1.36426770 </v>
   <v>       0.03993480      -0.53059645       0.02657313 </v>
   <v>       0.00649330       0.03689893      -0.33212369 </v>
   <v>       0.10220703       0.18742693      -1.11668584 </v>
   <v>       0.15752554      -0.25741626      -1.05578988 </v>
   <v>      -0.13045951      -0.14475382      -0.70822878 </v>
   <v>       0.10105474       0.02191368      -0.86831705 </v>
   <v>       0.07390318      -0.10154122      -0.02453260 </v>
   <v>      -0.11771455       0.11885598       0.64001497 </v>
   <v>      -0.04209076       0.23757557      -0.22075339 </v>
   <v>      -0.02642104      -0.12509419       0.24012303 </v>
   <v>      -0.02122008       0.35330093      -0.04241097 </v>
   <v>      -0.05788702       0.09245611      -0.83121629 </v>
   <v>       0.23199757      -0.04256962       0.91562217 </v>
   <v>      -0.05082510       0.03653346      -0.83207948 </v>
   <v>      -0.15494569      -0.31767636       1.07150926 </v>
   <v>      -0.05357425      -0.07951335       0.84719037 </v>
   <v>       0.15223491       0.24874655       0.73850171 </v>
   <v>       0.07404540      -0.24545241      -0.83398560 </v>
   <v>      -0.11527191       0.11619115       0.16018506 </v>
   <v>       0.06919429      -0.09100896      -0.97341648 </v>
   <v>      -0.19516886      -0.23406438       0.87216967 </v>
   <v>      -0.05983790       0.18520792      -0.84712383 </v>
   <v>       0.01530407       0.26517708      -0.99316661 </v>
   <v>       0.06099764       0.08852474      -0.06972772 </v>
   <v>      -0.07148900       0.23719768       0.22237614 </v>
   <v>       0.12999615      -0.02102071       1.02322920 </v>
   <v>      -0.07564211       0.01109305       0.69935042 </v>
  </varray>
  <energy>
   <i name="e_fr_energy">   -188.60668259 </i>
   <i name="e_wo_entrp">   -188.48747875 </i>
   <i name="e_0_energy">     -0.23840769 </i>
  </energy>
  <time name="totalsc">  211.08  212.28</time>
 </calculation>
 <calculation>
  <scstep>
   <time name="dav">    6.99    7.03</time>
   <time name="total">    7.28    7.32</time>
   <dipole>
    <v name="dipole">      0.00000000       0.00000000       0.00463131 </v>
    <i name="Tr[quadrupol]"> -10287.64478085 </i>
    <i name="Echarged">      0.00000000 </i>
    <i name="Edipol_quadrupol">      0.00000000 </i>
    <i name="Eion">      0.00000000 </i>
   </dipole>
   <energy>
    <i name="alphaZ">    805.86658911 </i>
    <i name="ewald"> 198986.24179700 </i>
    <i name="hartreedc">-241190.74070028 </i>
    <i name="XCdc">   -344.33664706 </i>
    <i name="pawpsdc">  49400.47363131 </i>
    <i name="pawaedc"> -47477.74411985 </i>
    <i name="eentropy">     -0.23429859 </i>
    <i name="bandstr">  -2028.49631302 </i>
    <i name="atom">  41659.78587232 </i>
    <i name="e_fr_energy">   -189.18418907 </i>
    <i name="e_wo_entrp">   -188.94989048 </i>
    <i name="e_0_energy">   -189.06703978 </i>
   </energy>
  </scstep>
  <scstep>
   <time name="diag">    1.21    1.21</time>
   <time name="diis">    3.37    3.41</time>
   <time name="orth">    0.27    0.30</time>
   <time name="total">    5.14    5.23</time>
   <dipole>
    <v name="dipole">      0.00000000       0.00000000       0.05420313 </v>
    <i name="Tr[quadrupol]"> -10287.51455450 </i>
    <i name="Echarged">      0.00000000 </i>
    <i name="Edipol_quadrupol">      0.00000000 </i>
    <i name="Eion">      0.00000000 </i>
   </dipole>
   <energy>
    <i name="e_fr_energy">   -189.40710148 </i>
    <i name="e_wo_entrp">   -189.17224211 </i>
    <i name="e_0_energy">   -189.28967179 </i>
   </energy>
  </scstep>
  <scstep>
   <time name="diag">    1.20    1.21</time>
   <time name="diis">    3.47    3.48</time>
   <time name="orth">    0.28    0.28</time>
   <time name="total">    5.24    5.26</time>
   <dipole>
    <v name="dipole">      0.00000000       0.00000000      -0.10572211 </v>
    <i name="Tr[quadrupol]"> -10287.65847491 </i>
    <i name="Echarged">      0.00000000 </i>
    <i name="Edipol_quadrupol">      0.00000000 </i>
    <i name="Eion">      0.00000000 </i>
   </dipole>
   <energy>
    <i name="e_fr_energy">   -189.59608567 </i>
    <i name="e_wo_entrp">   -189.38662004 </i>
    <i name="e_0_energy">   -189.49135286 </i>
   </energy>
  </scstep>
  <scstep>
   <time name="diag">    1.22    1.22</time>
   <time name="diis">    3.46    3.47</time>
   <time name="orth">    0.28    0.28</time>
   <time name="total">    5.24    5.26</time>
   <dipole>
    <v name="dipole">      0.00000000       0.00000000       0.01766522 </v>
    <i name="Tr[quadrupol]"> -10287.74751830 </i>
    <i name="Echarged">      0.00000000 </i>
    <i name="Edipol_quadrupol">      0.00000000 </i>
    <i name="Eion">      0.00000000 </i>
   </dipole>
   <energy>
    <i name="e_fr_energy">   -189.40278344 </i>
    <i name="e_wo_entrp">   -189.16056745 </i>
    <i name="e_0_energy">   -189.28167545 </i>
   </energy>
  </scstep>
  <scstep>
   <time name="diag">    1.20    1.20</time>
   <time name="diis">    3.37    3.38</time>
   <time name="orth">    0.28    0.28</time>
   <time name="total">    5.14    5.15</time>
   <dipole>
    <v name="dipole">      0.00000000       0.00000000       0.00546512 </v>
    <i name="Tr[quadrupol]"> -10287.64782759 </i>
    <i name="Echarged">      0.00000000 </i>
    <i name="Edipol_quadrupol">      0.00000000 </i>
    <i name="Eion">      0.00000000 </i>
   </dipole>
   <energy>
    <i name="e_fr_energy">   -189.39294683 </i>
    <i name="e_wo_entrp">   -189.16350653 </i>
    <i name="e_0_energy">   -189.27822668 </i>
   </energy>
  </scstep>
  <scstep>
   <time name="diag">    1.21    1.21</time>
   <time name="diis">    3.37    3.39</time>
   <time name="orth">    0.28    0.28</time>
   <time name="total">    5.14    5.17</time>
   <dipole>
    <v name="dipole">      0.00000000       0.00000000       0.02488181 </v>
    <i name="Tr[quadrupol]"> -10287.68165653 </i>
    <i name="Echarged">      0.00000000 </i>
    <i name="Edipol_quadrupol">      0.00000000 </i>
    <i name="Eion">      0.00000000 </i>
   </dipole>
   <energy>
    <i name="e_fr_energy">   -189.38558565 </i>
    <i name="e_wo_entrp">   -189.14919233 </i>
    <i name="e_0_energy">   -189.26738899 </i>
   </energy>
  </scstep>
  <scstep>
   <time name="diag">    1.20    1.21</time>
   <time name="diis">    3.40    3.41</time>
   <time name="orth">    0.28    0.28</time>
   <time name="total">    5.17    5.19</time>
   <dipole>
    <v name="dipole">      0.00000000       0.00000000       0.02074390 </v>
    <i name="Tr[quadrupol]"> -10287.67048878 </i>
    <i name="Echarged">      0.00000000 </i>
    <i name="Edipol_quadrupol">      0.00000000 </i>
    <i name="Eion">      0.00000000 </i>
   </dipole>
   <energy>
    <i name="e_fr_energy">   -189.38273996 </i>
    <i name="e_wo_entrp">   -189.14646093 </i>
    <i name="e_0_energy">   -189.26460044 </i>
   </energy>
  </scstep>
  <scstep>
   <time name="diag">    1.21    1.21</time>
   <time name="diis">    3.39    3.40</time>
   <time name="orth">    0.28    0.28</time>
   <time name="total">    5.16    5.18</time>
   <dipole>
    <v name="dipole">      0.00000000       0.00000000       0.01345463 </v>
    <i name="Tr[quadrupol]"> -10287.65862095 </i>
    <i name="Echarged">      0.00000000 </i>
    <i name="Edipol_quadrupol">      0.00000000 </i>
    <i name="Eion">      0.00000000 </i>
   </dipole>
   <energy>
    <i name="e_fr_energy">   -189.38145401 </i>
    <i name="e_wo_entrp">   -189.14652439 </i>
    <i name="e_0_energy">   -189.26398920 </i>
   </energy>
  </scstep>
  <scstep>
   <time name="diag">    1.20    1.21</time>
   <time name="diis">    3.41    3.42</time>
   <time name="orth">    0.29    0.29</time>
   <time name="total">    5.19    5.21</time>
   <dipole>
    <v name="dipole">      0.00000000       0.00000000       0.01286580 </v>
    <i name="Tr[quadrupol]"> -10287.65700326 </i>
    <i name="Echarged">      0.00000000 </i>
    <i name="Edipol_quadrupol">      0.00000000 </i>
    <i name="Eion">      0.00000000 </i>
   </dipole>
   <energy>
    <i name="e_fr_energy">   -189.38114446 </i>
    <i name="e_wo_entrp">   -189.14541962 </i>
    <i name="e_0_energy">   -189.26328204 </i>
   </energy>
  </scstep>
  <scstep>
   <time name="diag">    1.22    1.23</time>
   <time name="diis">    3.30    3.40</time>
   <time name="orth">    0.28    0.28</time>
   <time name="total">    5.08    5.19</time>
   <dipole>
    <v name="dipole">      0.00000000       0.00000000       0.01465879 </v>
    <i name="Tr[quadrupol]"> -10287.65515924 </i>
    <i name="Echarged">      0.00000000 </i>
    <i name="Edipol_quadrupol">      0.00000000 </i>
    <i name="Eion">      0.00000000 </i>
   </dipole>
   <energy>
    <i name="e_fr_energy">   -189.38100644 </i>
    <i name="e_wo_entrp">   -189.14554025 </i>
    <i name="e_0_energy">   -189.26327334 </i>
   </energy>
  </scstep>
  <scstep>
   <time name="diag">    1.20    1.21</time>
   <time name="diis">    3.43    3.44</time>
   <time name="orth">    0.28    0.28</time>
   <time name="total">    5.20    5.22</time>
   <dipole>
    <v name="dipole">      0.00000000       0.00000000       0.01418206 </v>
    <i name="Tr[quadrupol]"> -10287.65536922 </i>
    <i name="Echarged">      0.00000000 </i>
    <i name="Edipol_quadrupol">      0.00000000 </i>
    <i name="Eion">      0.00000000 </i>
   </dipole>
   <energy>
    <i name="e_fr_energy">   -189.38096547 </i>
    <i name="e_wo_entrp">   -189.14525725 </i>
    <i name="e_0_energy">   -189.26311136 </i>
   </energy>
  </scstep>
  <scstep>
   <time name="diag">    1.24    1.24</time>
   <time name="diis">    3.42    3.43</time>
   <time name="orth">    0.28    0.28</time>
   <time name="total">    5.22    5.24</time>
   <dipole>
    <v name="dipole">      0.00000000       0.00000000       0.01409539 </v>
    <i name="Tr[quadrupol]"> -10287.65795308 </i>
    <i name="Echarged">      0.00000000 </i>
    <i name="Edipol_quadrupol">      0.00000000 </i>
    <i name="Eion">      0.00000000 </i>
   </dipole>
   <energy>
    <i name="e_fr_energy">   -189.38095986 </i>
    <i name="e_wo_entrp">   -189.14539238 </i>
    <i name="e_0_energy">   -189.26317612 </i>
   </energy>
  </scstep>
  <scstep>
   <time name="diag">    1.20    1.21</time>
   <time name="diis">    3.08    3.09</time>
   <time name="orth">    0.28    0.28</time>
   <time name="total">    4.85    4.86</time>
   <dipole>
    <v name="dipole">      0.00000000       0.00000000       0.01403178 </v>
    <i name="Tr[quadrupol]"> -10287.66025523 </i>
    <i name="Echarged">      0.00000000 </i>
    <i name="Edipol_quadrupol">      0.00000000 </i>
    <i name="Eion">      0.00000000 </i>
   </dipole>
   <energy>
    <i name="e_fr_energy">   -189.38095633 </i>
    <i name="e_wo_entrp">   -189.14526566 </i>
    <i name="e_0_energy">   -189.26311100 </i>
   </energy>
  </scstep>
  <scstep>
   <time name="diag">    1.21    1.22</time>
   <time name="diis">    2.31    2.31</time>
   <time name="orth">    0.27    0.28</time>
   <time name="total">    3.85    3.86</time>
   <dipole>
    <v name="dipole">      0.00000000       0.00000000       0.01396155 </v>
    <i name="Tr[quadrupol]"> -10287.66229620 </i>
    <i name="Echarged">      0.00000000 </i>
    <i name="Edipol_quadrupol">      0.00000000 </i>
    <i name="Eion">      0.00000000 </i>
   </dipole>
   <energy>
    <i name="alphaZ">    805.86099367 </i>
    <i name="ewald"> 198986.24179700 </i>
    <i name="hartreedc">-241191.55062251 </i>
    <i name="XCdc">   -344.30575598 </i>
    <i name="pawpsdc">  49163.54348828 </i>
    <i name="pawaedc"> -47239.21024946 </i>
    <i name="eentropy">     -0.23563299 </i>
    <i name="bandstr">  -2029.51084710 </i>
    <i name="atom">  41659.78587232 </i>
    <i name="e_fr_energy">   -189.38095678 </i>
    <i name="e_wo_entrp">   -189.14532379 </i>
    <i name="e_0_energy">   -189.26314029 </i>
   </energy>
  </scstep>
  <structure>
   <crystal>
    <varray name="basis" >
     <v>      11.00258152       0.00000000       0.00000000 </v>
     <v>       5.50129076       9.52851510       0.00000000 </v>
     <v>       0.00000000       0.00000000      24.49178509 </v>
    </varray>
    <i name="volume">   2567.67623402 </i>
    <varray name="rec_basis" >
     <v>       0.09088776      -0.05247407       0.00000000 </v>
     <v>       0.00000000       0.10494815       0.00000000 </v>
     <v>       0.00000000       0.00000000       0.04083002 </v>
    </varray>
   </crystal>
   <varray name="positions" >
    <v>       0.08333333       0.08333333       0.40830017 </v>
    <v>       0.91632972       0.41536138       0.49963097 </v>
    <v>      -0.00003665       0.49932785       0.59427456 </v>
    <v>       0.33333333       0.08333333       0.40830017 </v>
    <v>       0.16710812       0.16574089       0.50069429 </v>
    <v>       0.91708951       0.66789783       0.49917715 </v>
    <v>       0.00088162       0.00037311       0.59344158 </v>
    <v>       0.75044053       0.74972974       0.59397502 </v>
    <v>       0.16781743       0.41600643       0.49925541 </v>
    <v>       0.33333333       0.58333333       0.40830017 </v>
    <v>       0.24973814       0.50129455       0.59392110 </v>
    <v>       0.33333333       0.83333333       0.40830017 </v>
    <v>       0.91757592       0.91591137       0.49963782 </v>
    <v>       0.49862777       0.00079515       0.59325606 </v>
    <v>       0.41740308       0.41545828       0.49965177 </v>
    <v>       0.50031007       0.25013509       0.59362469 </v>
    <v>       0.41520653       0.66777633       0.50039426 </v>
    <v>       0.58333333       0.83333333       0.40830017 </v>
    <v>       0.49891102       0.74990833       0.59385396 </v>
    <v>       0.83333333       0.08333333       0.40830017 </v>
    <v>       0.75013249       0.00047678       0.59358092 </v>
    <v>       0.66772948       0.41478619       0.50003664 </v>
    <v>       0.66662121       0.66679744       0.49954206 </v>
    <v>       0.58333333       0.08333333       0.40830017 </v>
    <v>       0.58333333       0.58333333       0.40830017 </v>
    <v>       0.08333333       0.83333333       0.40830017 </v>
    <v>       0.58333333       0.33333333       0.40830017 </v>
    <v>       0.41707343       0.16630680       0.49996617 </v>
    <v>       0.24942808       0.00042124       0.59258230 </v>
    <v>       0.66611649       0.91750865       0.49969562 </v>
    <v>       0.16680725       0.91622332       0.50033109 </v>
    <v>       0.16597547       0.66791879       0.49994152 </v>
    <v>       0.33333333       0.33333333       0.40830017 </v>
    <v>       0.00078750       0.74984913       0.59296231 </v>
    <v>       0.08333333       0.58333333       0.40830017 </v>
    <v>       0.75008737       0.49887413       0.59317725 </v>
    <v>      -0.00002353       0.24971820       0.59286796 </v>
    <v>       0.75002646       0.25088158       0.59271809 </v>
    <v>       0.83333333       0.83333333       0.40830017 </v>
    <v>       0.91610697       0.16707846       0.50022087 </v>
    <v>       0.83333333       0.58333333       0.40830017 </v>
    <v>       0.24981575       0.24917046       0.59290240 </v>
    <v>       0.83333333       0.33333333       0.40830017 </v>
    <v>       0.08333333       0.33333333       0.40830017 </v>
    <v>       0.66669702       0.16698041       0.49990386 </v>
    <v>       0.41602692       0.91750732       0.50030662 </v>
    <v>       0.50043624       0.49992550       0.59311068 </v>
    <v>       0.24974818       0.75003931       0.59266411 </v>
   </varray>
  </structure>
  <varray name="forces" >
   <v>      -0.22499012       0.12836215      -1.29248231 </v>
   <v>      -0.00421282      -0.09073288       0.17840001 </v>
   <v>      -0.05673387      -0.12001607       1.15008799 </v>
   <v>       0.10337534       0.31343542      -1.33546567 </v>
   <v>      -0.02668061      -0.12753572       0.46627864 </v>
   <v>       0.08664895       0.02327975       0.09903294 </v>
   <v>       0.14822152       0.06373861       0.94614887 </v>
   <v>       0.03549039      -0.07430860       1.08557605 </v>
   <v>       0.08188964      -0.00748511       0.13058295 </v>
   <v>      -0.24958341      -0.08587197      -1.54773261 </v>
   <v>       0.05078658       0.15557040       1.08741173 </v>
   <v>      -0.12900212      -0.08668644      -1.35917595 </v>
   <v>       0.10733664       0.02299013       0.20980655 </v>
   <v>      -0.14681750       0.07654542       0.85308315 </v>
   <v>       0.00221219      -0.15013822       0.23093380 </v>
   <v>       0.05472943       0.08759865       1.03341573 </v>
   <v>      -0.08383919       0.08541352       0.43749256 </v>
   <v>       0.21224488      -0.22819699      -1.37192407 </v>
   <v>      -0.15781423      -0.04732290       1.13716905 </v>
   <v>       0.02874421       0.11684279      -1.30950347 </v>
   <v>       0.12129376       0.05674818       0.94968896 </v>
   <v>      -0.05986687      -0.16245972       0.21840573 </v>
   <v>      -0.00222562       0.02981217       0.24321507 </v>
   <v>       0.10789777       0.20537711      -1.15330343 </v>
   <v>       0.11031948      -0.27262743      -0.98633526 </v>
   <v>      -0.09532309      -0.13661630      -0.75828613 </v>
   <v>       0.11709925       0.02328209      -0.92728498 </v>
   <v>       0.09459277      -0.08222842       0.24655550 </v>
   <v>      -0.08673531       0.04726110       0.60241882 </v>
   <v>      -0.00432916       0.14029161       0.23929904 </v>
   <v>      -0.06299984      -0.00957153       0.31562758 </v>
   <v>       0.00818384       0.08326083       0.19027115 </v>
   <v>      -0.03854798       0.05925014      -0.92485366 </v>
   <v>       0.09491953      -0.00245565       0.67535341 </v>
   <v>      -0.01919390       0.02980783      -0.91738776 </v>
   <v>      -0.08667878      -0.14393965       0.75418840 </v>
   <v>      -0.03522829      -0.00917338       0.70337484 </v>
   <v>       0.09844181       0.13624864       0.63413345 </v>
   <v>       0.05753867      -0.20033359      -0.93800031 </v>
   <v>      -0.07751498      -0.08579323       0.29627786 </v>
   <v>       0.07140327      -0.11068262      -1.01057683 </v>
   <v>      -0.09293659      -0.03167937       0.66128776 </v>
   <v>      -0.07837758       0.16580539      -0.91843168 </v>
   <v>      -0.00018685       0.21114995      -0.98591612 </v>
   <v>       0.01788547      -0.05696143       0.22318976 </v>
   <v>       0.00543035       0.07332330       0.38998176 </v>
   <v>       0.06358195      -0.02551937       0.72283889 </v>
   <v>      -0.06044898       0.01294144       0.62513220 </v>
  </varray>
  <energy>
   <i name="e_fr_energy">   -189.38095678 </i>
   <i name="e_wo_entrp">   -189.26314029 </i>
   <i name="e_0_energy">     -0.23563299 </i>
  </energy>
  <time name="totalsc">   75.36   75.81</time>
 </calculation>
 <calculation>
  <scstep>
   <time name="dav">    6.92    6.94</time>
   <time name="total">    7.21    7.23</time>
   <dipole>
    <v name="dipole">      0.00000000       0.00000000       0.01378253 </v>
    <i name="Tr[quadrupol]"> -10237.52581406 </i>
    <i name="Echarged">      0.00000000 </i>
    <i name="Edipol_quadrupol">      0.00000000 </i>
    <i name="Eion">      0.00000000 </i>
   </dipole>
   <energy>
    <i name="alphaZ">    805.84537079 </i>
    <i name="ewald"> 195382.40719036 </i>
    <i name="hartreedc">-237606.30407529 </i>
    <i name="XCdc">   -346.79831817 </i>
    <i name="pawpsdc">  49163.45176266 </i>
    <i name="pawaedc"> -47239.11847684 </i>
    <i name="eentropy">     -0.22724576 </i>
    <i name="bandstr">  -2007.78168242 </i>
    <i name="atom">  41659.78587232 </i>
    <i name="e_fr_energy">   -188.73960236 </i>
    <i name="e_wo_entrp">   -188.51235659 </i>
    <i name="e_0_energy">   -188.62597947 </i>
   </energy>
  </scstep>
  <scstep>
   <time name="diag">    1.21    1.22</time>
   <time name="diis">    3.37    3.38</time>
   <time name="orth">    0.27    0.28</time>
   <time name="total">    5.15    5.20</time>
   <dipole>
    <v name="dipole">      0.00000000       0.00000000       0.10727945 </v>
    <i name="Tr[quadrupol]"> -10237.14122261 </i>
    <i name="Echarged">      0.00000000 </i>
    <i name="Edipol_quadrupol">      0.00000000 </i>
    <i name="Eion">      0.00000000 </i>
   </dipole>
   <energy>
    <i name="e_fr_energy">   -190.19887293 </i>
    <i name="e_wo_entrp">   -189.97653102 </i>
    <i name="e_0_energy">   -190.08770197 </i>
   </energy>
  </scstep>
  <scstep>
   <time name="diag">    1.21    1.22</time>
   <time name="diis">    3.48    3.58</time>
   <time name="orth">    0.27    0.28</time>
   <time name="total">    5.25    5.35</time>
   <dipole>
    <v name="dipole">      0.00000000       0.00000000      -0.17195518 </v>
    <i name="Tr[quadrupol]"> -10237.64310379 </i>
    <i name="Echarged">      0.00000000 </i>
    <i name="Edipol_quadrupol">      0.00000000 </i>
    <i name="Eion">      0.00000000 </i>
   </dipole>
   <energy>
    <i name="e_fr_energy">   -190.71032366 </i>
    <i name="e_wo_entrp">   -190.50874558 </i>
    <i name="e_0_energy">   -190.60953462 </i>
   </energy>
  </scstep>
  <scstep>
   <time name="diag">    1.21    1.21</time>
   <time name="diis">    3.39    3.40</time>
   <time name="orth">    0.27    0.28</time>
   <time name="total">    5.16    5.18</time>
   <dipole>
    <v name="dipole">      0.00000000       0.00000000       0.07615464 </v>
    <i name="Tr[quadrupol]"> -10237.62656399 </i>
    <i name="Echarged">      0.00000000 </i>
    <i name="Edipol_quadrupol">      0.00000000 </i>
    <i name="Eion">      0.00000000 </i>
   </dipole>
   <energy>
    <i name="e_fr_energy">   -190.17613713 </i>
    <i name="e_wo_entrp">   -189.94210410 </i>
    <i name="e_0_energy">   -190.05912062 </i>
   </energy>
  </scstep>
  <scstep>
   <time name="diag">    1.22    1.22</time>
   <time name="diis">    3.41    3.42</time>
   <time name="orth">    0.27    0.27</time>
   <time name="total">    5.19    5.20</time>
   <dipole>
    <v name="dipole">      0.00000000       0.00000000       0.01398887 </v>
    <i name="Tr[quadrupol]"> -10237.46992321 </i>
    <i name="Echarged">      0.00000000 </i>
    <i name="Edipol_quadrupol">      0.00000000 </i>
    <i name="Eion">      0.00000000 </i>
   </dipole>
   <energy>
    <i name="e_fr_energy">   -190.14285961 </i>
    <i name="e_wo_entrp">   -189.93086437 </i>
    <i name="e_0_energy">   -190.03686199 </i>
   </energy>
  </scstep>
  <scstep>
   <time name="diag">    1.21    1.21</time>
   <time name="diis">    3.36    3.37</time>
   <time name="orth">    0.27    0.28</time>
   <time name="total">    5.12    5.14</time>
   <dipole>
    <v name="dipole">      0.00000000       0.00000000       0.07371510 </v>
    <i name="Tr[quadrupol]"> -10237.60083572 </i>
    <i name="Echarged">      0.00000000 </i>
    <i name="Edipol_quadrupol">      0.00000000 </i>
    <i name="Eion">      0.00000000 </i>
   </dipole>
   <energy>
    <i name="e_fr_energy">   -190.10700626 </i>
    <i name="e_wo_entrp">   -189.87580964 </i>
    <i name="e_0_energy">   -189.99140795 </i>
   </energy>
  </scstep>
  <scstep>
   <time name="diag">    1.21    1.22</time>
   <time name="diis">    3.44    3.45</time>
   <time name="orth">    0.27    0.28</time>
   <time name="total">    5.21    5.23</time>
   <dipole>
    <v name="dipole">      0.00000000       0.00000000       0.04931111 </v>
    <i name="Tr[quadrupol]"> -10237.53737314 </i>
    <i name="Echarged">      0.00000000 </i>
    <i name="Edipol_quadrupol">      0.00000000 </i>
    <i name="Eion">      0.00000000 </i>
   </dipole>
   <energy>
    <i name="e_fr_energy">   -190.09178414 </i>
    <i name="e_wo_entrp">   -189.86057634 </i>
    <i name="e_0_energy">   -189.97618024 </i>
   </energy>
  </scstep>
  <scstep>
   <time name="diag">    1.21    1.21</time>
   <time name="diis">    3.39    3.40</time>
   <time name="orth">    0.27    0.28</time>
   <time name="total">    5.16    5.18</time>
   <dipole>
    <v name="dipole">      0.00000000       0.00000000       0.03780862 </v>
    <i name="Tr[quadrupol]"> -10237.51306454 </i>
    <i name="Echarged">      0.00000000 </i>
    <i name="Edipol_quadrupol">      0.00000000 </i>
    <i name="Eion">      0.00000000 </i>
   </dipole>
   <energy>
[...]
       <r>    -9.3210     0.0000     0.0000 </r>
       <r>    -9.2670     0.0000     0.0000 </r>
       <r>    -9.2130     0.0000     0.0000 </r>
       <r>    -9.1591     0.0000     0.0000 </r>
       <r>    -9.1051     0.0001     0.0000 </r>
       <r>    -9.0511     0.0032     0.0002 </r>
       <r>    -8.9971     0.0427     0.0025 </r>
       <r>    -8.9431     0.3287     0.0202 </r>
       <r>    -8.8891     1.4535     0.0987 </r>
       <r>    -8.8351     3.7035     0.2986 </r>
       <r>    -8.7812     5.4825     0.5946 </r>
       <r>    -8.7272     4.9778     0.8633 </r>
       <r>    -8.6732     3.8050     1.0688 </r>
       <r>    -8.6192     4.3600     1.3041 </r>
       <r>    -8.5652     5.3718     1.5941 </r>
       <r>    -8.5112     4.4531     1.8345 </r>
       <r>    -8.4572     2.2480     1.9559 </r>
       <r>    -8.4033     0.6998     1.9937 </r>
       <r>    -8.3493     0.2749     2.0085 </r>
       <r>    -8.2953     0.7386     2.0484 </r>
       <r>    -8.2413     2.1211     2.1629 </r>
       <r>    -8.1873     3.9619     2.3768 </r>
       <r>    -8.1333     5.2020     2.6576 </r>
       <r>    -8.0793     5.9251     2.9775 </r>
       <r>    -8.0254     7.5344     3.3842 </r>
       <r>    -7.9714     9.8014     3.9134 </r>
       <r>    -7.9174     9.9712     4.4517 </r>
       <r>    -7.8634     7.3062     4.8461 </r>
       <r>    -7.8094     5.1705     5.1252 </r>
       <r>    -7.7554     5.8036     5.4385 </r>
       <r>    -7.7015     7.3469     5.8352 </r>
       <r>    -7.6475     7.7302     6.2525 </r>
       <r>    -7.5935     7.5399     6.6595 </r>
       <r>    -7.5395     8.3426     7.1099 </r>
       <r>    -7.4855    10.0125     7.6505 </r>
       <r>    -7.4315    11.1013     8.2498 </r>
       <r>    -7.3775    11.4355     8.8671 </r>
       <r>    -7.3236    11.9080     9.5100 </r>
       <r>    -7.2696    12.1733    10.1672 </r>
       <r>    -7.2156    11.4898    10.7874 </r>
       <r>    -7.1616    12.1467    11.4432 </r>
       <r>    -7.1076    16.8237    12.3514 </r>
       <r>    -7.0536    23.5814    13.6245 </r>
       <r>    -6.9996    29.0566    15.1931 </r>
       <r>    -6.9457    33.2527    16.9883 </r>
       <r>    -6.8917    37.1870    18.9959 </r>
       <r>    -6.8377    39.9547    21.1528 </r>
       <r>    -6.7837    40.4964    23.3391 </r>
       <r>    -6.7297    39.5260    25.4729 </r>
       <r>    -6.6757    39.3098    27.5951 </r>
       <r>    -6.6217    41.3809    29.8290 </r>
       <r>    -6.5678    44.4183    32.2270 </r>
       <r>    -6.5138    46.9045    34.7592 </r>
       <r>    -6.4598    49.4462    37.4285 </r>
       <r>    -6.4058    53.3578    40.3091 </r>
       <r>    -6.3518    59.9824    43.5473 </r>
       <r>    -6.2978    67.5945    47.1964 </r>
       <r>    -6.2438    72.0450    51.0858 </r>
       <r>    -6.1899    73.6638    55.0626 </r>
       <r>    -6.1359    76.2268    59.1778 </r>
       <r>    -6.0819    80.2274    63.5089 </r>
       <r>    -6.0279    82.9144    67.9851 </r>
       <r>    -5.9739    83.4621    72.4908 </r>
       <r>    -5.9199    83.8820    77.0193 </r>
       <r>    -5.8659    83.8090    81.5437 </r>
       <r>    -5.8120    80.8551    85.9088 </r>
       <r>    -5.7580    76.2480    90.0251 </r>
       <r>    -5.7040    73.0631    93.9694 </r>
       <r>    -5.6500    71.5611    97.8327 </r>
       <r>    -5.5960    70.4156   101.6341 </r>
       <r>    -5.5420    69.1694   105.3683 </r>
       <r>    -5.4880    68.0507   109.0420 </r>
       <r>    -5.4341    67.5480   112.6887 </r>
       <r>    -5.3801    68.1107   116.3657 </r>
       <r>    -5.3261    70.0192   120.1457 </r>
       <r>    -5.2721    72.6597   124.0683 </r>
       <r>    -5.2181    74.7546   128.1039 </r>
       <r>    -5.1641    76.5369   132.2358 </r>
       <r>    -5.1101    79.0004   136.5007 </r>
       <r>    -5.0562    81.5510   140.9033 </r>
       <r>    -5.0022    82.7952   145.3731 </r>
       <r>    -4.9482    82.8658   149.8466 </r>
       <r>    -4.8942    83.3753   154.3477 </r>
       <r>    -4.8402    84.8446   158.9281 </r>
       <r>    -4.7862    85.7804   163.5590 </r>
       <r>    -4.7322    85.3853   168.1686 </r>
       <r>    -4.6783    84.9875   172.7567 </r>
       <r>    -4.6243    85.6808   177.3822 </r>
       <r>    -4.5703    86.6157   182.0582 </r>
       <r>    -4.5163    87.7430   186.7951 </r>
       <r>    -4.4623    89.4082   191.6218 </r>
       <r>    -4.4083    89.6463   196.4615 </r>
       <r>    -4.3543    87.3347   201.1763 </r>
       <r>    -4.3004    84.4991   205.7380 </r>
       <r>    -4.2464    82.8572   210.2111 </r>
       <r>    -4.1924    82.9269   214.6880 </r>
       <r>    -4.1384    85.5513   219.3065 </r>
       <r>    -4.0844    88.7307   224.0967 </r>
       <r>    -4.0304    89.4089   228.9235 </r>
       <r>    -3.9764    89.0108   233.7288 </r>
       <r>    -3.9225    90.2284   238.5999 </r>
       <r>    -3.8685    92.6442   243.6013 </r>
       <r>    -3.8145    94.0362   248.6779 </r>
       <r>    -3.7605    93.3431   253.7171 </r>
       <r>    -3.7065    91.8535   258.6759 </r>
       <r>    -3.6525    91.5131   263.6163 </r>
       <r>    -3.5985    92.8419   268.6284 </r>
       <r>    -3.5446    94.4337   273.7265 </r>
       <r>    -3.4906    95.0695   278.8589 </r>
       <r>    -3.4366    95.8027   284.0308 </r>
       <r>    -3.3826    96.7028   289.2514 </r>
       <r>    -3.3286    96.3308   294.4519 </r>
       <r>    -3.2746    95.3162   299.5976 </r>
       <r>    -3.2206    93.7644   304.6595 </r>
       <r>    -3.1667    90.7798   309.5603 </r>
       <r>    -3.1127    88.1952   314.3216 </r>
       <r>    -3.0587    88.0990   319.0777 </r>
       <r>    -3.0047    89.0806   323.8868 </r>
       <r>    -2.9507    89.9748   328.7441 </r>
       <r>    -2.8967    92.0387   333.7129 </r>
       <r>    -2.8427    94.7867   338.8300 </r>
       <r>    -2.7888    96.3417   344.0311 </r>
       <r>    -2.7348    95.9018   349.2084 </r>
       <r>    -2.6808    93.9037   354.2779 </r>
       <r>    -2.6268    92.2971   359.2606 </r>
       <r>    -2.5728    91.9930   364.2269 </r>
       <r>    -2.5188    90.7855   369.1280 </r>
       <r>    -2.4648    87.2660   373.8391 </r>
       <r>    -2.4109    84.2824   378.3891 </r>
       <r>    -2.3569    85.3396   382.9963 </r>
       <r>    -2.3029    89.2828   387.8162 </r>
       <r>    -2.2489    92.8570   392.8292 </r>
       <r>    -2.1949    95.1029   397.9634 </r>
       <r>    -2.1409    95.9966   403.1458 </r>
       <r>    -2.0869    96.0096   408.3290 </r>
       <r>    -2.0330    97.0196   413.5666 </r>
       <r>    -1.9790   100.2534   418.9789 </r>
       <r>    -1.9250   103.6822   424.5762 </r>
       <r>    -1.8710   104.8224   430.2351 </r>
       <r>    -1.8170   104.9945   435.9033 </r>
       <r>    -1.7630   106.0569   441.6289 </r>
       <r>    -1.7090   107.1801   447.4151 </r>
       <r>    -1.6551   107.8412   453.2370 </r>
       <r>    -1.6011   109.6692   459.1575 </r>
       <r>    -1.5471   112.1363   465.2113 </r>
       <r>    -1.4931   111.3783   471.2241 </r>
       <r>    -1.4391   106.3377   476.9648 </r>
       <r>    -1.3851    99.8621   482.3559 </r>
       <r>    -1.3311    93.3070   487.3932 </r>
       <r>    -1.2772    86.3759   492.0562 </r>
       <r>    -1.2232    78.3138   496.2841 </r>
       <r>    -1.1692    67.4126   499.9234 </r>
       <r>    -1.1152    54.0391   502.8407 </r>
       <r>    -1.0612    41.5570   505.0842 </r>
       <r>    -1.0072    31.7315   506.7972 </r>
       <r>    -0.9532    23.2702   508.0535 </r>
       <r>    -0.8993    16.0402   508.9194 </r>
       <r>    -0.8453    11.5272   509.5417 </r>
       <r>    -0.7913     9.7752   510.0695 </r>
       <r>    -0.7373     9.2813   510.5705 </r>
       <r>    -0.6833     9.0773   511.0606 </r>
       <r>    -0.6293     9.6783   511.5831 </r>
       <r>    -0.5753    11.8495   512.2228 </r>
       <r>    -0.5214    15.7606   513.0736 </r>
       <r>    -0.4674    20.2834   514.1686 </r>
       <r>    -0.4134    23.0867   515.4150 </r>
       <r>    -0.3594    23.1446   516.6645 </r>
       <r>    -0.3054    22.3118   517.8690 </r>
       <r>    -0.2514    22.2175   519.0684 </r>
       <r>    -0.1974    21.4419   520.2259 </r>
       <r>    -0.1435    18.2318   521.2102 </r>
       <r>    -0.0895    13.7071   521.9502 </r>
       <r>    -0.0355    10.8015   522.5333 </r>
       <r>     0.0185    10.5469   523.1027 </r>
       <r>     0.0725    11.8523   523.7426 </r>
       <r>     0.1265    13.7152   524.4830 </r>
       <r>     0.1805    15.5380   525.3218 </r>
       <r>     0.2344    16.3424   526.2041 </r>
       <r>     0.2884    15.5562   527.0439 </r>
       <r>     0.3424    14.8223   527.8441 </r>
       <r>     0.3964    16.4991   528.7348 </r>
       <r>     0.4504    19.8223   529.8049 </r>
       <r>     0.5044    21.9962   530.9924 </r>
       <r>     0.5584    22.5625   532.2104 </r>
       <r>     0.6123    23.2395   533.4650 </r>
       <r>     0.6663    24.7455   534.8009 </r>
       <r>     0.7203    25.1338   536.1578 </r>
       <r>     0.7743    22.3504   537.3644 </r>
       <r>     0.8283    18.3325   538.3541 </r>
       <r>     0.8823    15.6106   539.1968 </r>
       <r>     0.9363    13.4836   539.9248 </r>
       <r>     0.9902    11.5119   540.5462 </r>
       <r>     1.0442    10.2122   541.0976 </r>
       <r>     1.0982     8.6665   541.5654 </r>
       <r>     1.1522     6.6530   541.9246 </r>
       <r>     1.2062     6.0705   542.2523 </r>
       <r>     1.2602     7.3990   542.6518 </r>
       <r>     1.3142     8.6307   543.1177 </r>
       <r>     1.3681     8.8741   543.5968 </r>
       <r>     1.4221     9.5544   544.1126 </r>
       <r>     1.4761    12.1877   544.7705 </r>
       <r>     1.5301    15.2236   545.5924 </r>
       <r>     1.5841    15.0442   546.4046 </r>
       <r>     1.6381    12.4251   547.0753 </r>
       <r>     1.6921    11.7096   547.7075 </r>
       <r>     1.7460    13.6939   548.4468 </r>
       <r>     1.8000    16.4034   549.3323 </r>
       <r>     1.8540    17.9187   550.2997 </r>
       <r>     1.9080    16.0431   551.1658 </r>
       <r>     1.9620    11.2884   551.7752 </r>
       <r>     2.0160     7.9016   552.2017 </r>
       <r>     2.0700     8.1739   552.6430 </r>
       <r>     2.1239    11.0190   553.2379 </r>
       <r>     2.1779    15.8830   554.0953 </r>
       <r>     2.2319    21.2446   555.2422 </r>
       <r>     2.2859    24.2966   556.5539 </r>
       <r>     2.3399    25.2694   557.9181 </r>
       <r>     2.3939    26.0625   559.3251 </r>
       <r>     2.4479    25.9238   560.7246 </r>
       <r>     2.5018    23.5969   561.9985 </r>
       <r>     2.5558    20.7379   563.1180 </r>
       <r>     2.6098    20.1768   564.2073 </r>
       <r>     2.6638    22.5240   565.4233 </r>
       <r>     2.7178    23.8820   566.7126 </r>
       <r>     2.7718    20.2057   567.8034 </r>
       <r>     2.8258    13.4502   568.5295 </r>
       <r>     2.8797     8.3327   568.9793 </r>
       <r>     2.9337     6.6251   569.3370 </r>
       <r>     2.9877     6.1460   569.6688 </r>
       <r>     3.0417     4.7591   569.9257 </r>
       <r>     3.0957     4.0929   570.1467 </r>
       <r>     3.1497     6.0556   570.4736 </r>
       <r>     3.2037     9.6775   570.9960 </r>
       <r>     3.2576    12.5551   571.6738 </r>
       <r>     3.3116    12.1631   572.3305 </r>
       <r>     3.3656     8.4886   572.7887 </r>
       <r>     3.4196     5.4989   573.0856 </r>
       <r>     3.4736     6.4539   573.4340 </r>
       <r>     3.5276    10.5220   574.0021 </r>
       <r>     3.5816    15.2909   574.8276 </r>
       <r>     3.6355    19.5044   575.8805 </r>
       <r>     3.6895    22.2145   577.0798 </r>
       <r>     3.7435    22.0766   578.2716 </r>
       <r>     3.7975    18.8904   579.2914 </r>
       <r>     3.8515    14.5725   580.0781 </r>
       <r>     3.9055    11.9247   580.7219 </r>
       <r>     3.9595    12.2659   581.3841 </r>
       <r>     4.0134    14.6055   582.1725 </r>
       <r>     4.0674    15.4695   583.0077 </r>
       <r>     4.1214    12.7073   583.6937 </r>
       <r>     4.1754     9.9341   584.2300 </r>
       <r>     4.2294    10.4074   584.7918 </r>
       <r>     4.2834    11.0754   585.3897 </r>
       <r>     4.3374     9.3990   585.8971 </r>
       <r>     4.3913     8.1710   586.3383 </r>
       <r>     4.4453     9.7014   586.8620 </r>
       <r>     4.4993    13.8787   587.6113 </r>
       <r>     4.5533    20.3155   588.7080 </r>
       <r>     4.6073    26.5907   590.1435 </r>
       <r>     4.6613    29.3761   591.7294 </r>
       <r>     4.7153    27.6948   593.2245 </r>
       <r>     4.7692    23.8880   594.5141 </r>
       <r>     4.8232    22.1905   595.7121 </r>
       <r>     4.8772    23.9907   597.0073 </r>
       <r>     4.9312    26.4923   598.4375 </r>
       <r>     4.9852    28.6245   599.9828 </r>
       <r>     5.0392    31.8817   601.7039 </r>
       <r>     5.0932    34.2100   603.5508 </r>
       <r>     5.1471    32.6308   605.3124 </r>
       <r>     5.2011    30.3794   606.9524 </r>
       <r>     5.2551    29.9471   608.5691 </r>
       <r>     5.3091    26.8032   610.0161 </r>
       <r>     5.3631    19.1196   611.0483 </r>
       <r>     5.4171    10.8613   611.6347 </r>
       <r>     5.4710     4.8524   611.8966 </r>
       <r>     5.5250     1.5517   611.9804 </r>
       <r>     5.5790     0.3202   611.9977 </r>
       <r>     5.6330     0.0400   611.9998 </r>
       <r>     5.6870     0.0029   612.0000 </r>
       <r>     5.7410     0.0001   612.0000 </r>
       <r>     5.7950     0.0000   612.0000 </r>
       <r>     5.8489     0.0000   612.0000 </r>
       <r>     5.9029     0.0000   612.0000 </r>
       <r>     5.9569     0.0000   612.0000 </r>
       <r>     6.0109     0.0000   612.0000 </r>
       <r>     6.0649     0.0000   612.0000 </r>
       <r>     6.1189     0.0000   612.0000 </r>
       <r>     6.1729     0.0000   612.0000 </r>
       <r>     6.2268     0.0000   612.0000 </r>
       <r>     6.2808     0.0000   612.0000 </r>
       <r>     6.3348     0.0000   612.0000 </r>
       <r>     6.3888     0.0000   612.0000 </r>
      </set>
     </set>
    </array>
   </total>
  </dos>
 </calculation>
 <structure name="finalpos" >
  <crystal>
   <varray name="basis" >
    <v>      11.00258152       0.00000000       0.00000000 </v>
    <v>       5.50129076       9.52851510       0.00000000 </v>
    <v>       0.00000000       0.00000000      24.49178509 </v>
   </varray>
   <i name="volume">   2567.67623402 </i>
   <varray name="rec_basis" >
    <v>       0.09088776      -0.05247407       0.00000000 </v>
    <v>       0.00000000       0.10494815       0.00000000 </v>
    <v>       0.00000000       0.00000000       0.04083002 </v>
   </varray>
  </crystal>
  <varray name="positions" >
   <v>       0.08333333       0.08333333       0.40830017 </v>
   <v>       0.91831249       0.41351364       0.50676601 </v>
   <v>      -0.00060122       0.49880987       0.61372507 </v>
   <v>       0.33333333       0.08333333       0.40830017 </v>
   <v>       0.16894123       0.16285191       0.50912358 </v>
   <v>       0.91806759       0.66658548       0.50629666 </v>
   <v>       0.00120601       0.00157477       0.60956240 </v>
   <v>       0.75042623       0.74896804       0.61231159 </v>
   <v>       0.16960329       0.41473514       0.50653782 </v>
   <v>       0.33333333       0.58333333       0.40830017 </v>
   <v>       0.24846802       0.50346770       0.61168382 </v>
   <v>       0.33333333       0.83333333       0.40830017 </v>
   <v>       0.91912486       0.91489019       0.50714043 </v>
   <v>       0.49722042       0.00169251       0.60919314 </v>
   <v>       0.41916807       0.41226507       0.50776729 </v>
   <v>       0.49960116       0.25219676       0.61121828 </v>
   <v>       0.41549373       0.66781201       0.50975273 </v>
   <v>       0.58333333       0.83333333       0.40830017 </v>
   <v>       0.49716132       0.74936176       0.61346198 </v>
   <v>       0.83333333       0.08333333       0.40830017 </v>
   <v>       0.75073771       0.00158486       0.61019877 </v>
   <v>       0.66866035       0.41233508       0.50643732 </v>
   <v>       0.66693220       0.66689240       0.50799534 </v>
   <v>       0.58333333       0.08333333       0.40830017 </v>
   <v>       0.58333333       0.58333333       0.40830017 </v>
   <v>       0.08333333       0.83333333       0.40830017 </v>
   <v>       0.58333333       0.33333333       0.40830017 </v>
   <v>       0.42057267       0.16288378       0.50858162 </v>
   <v>       0.24828336       0.00163390       0.60577270 </v>
   <v>       0.66682215       0.91693532       0.50884559 </v>
   <v>       0.16719198       0.91512598       0.50851186 </v>
   <v>       0.16816004       0.66565826       0.50733334 </v>
   <v>       0.33333333       0.33333333       0.40830017 </v>
   <v>       0.00018742       0.75024041       0.60527952 </v>
   <v>       0.08333333       0.58333333       0.40830017 </v>
   <v>       0.74947830       0.49848296       0.60587839 </v>
   <v>      -0.00093295       0.25109648       0.60577718 </v>
   <v>       0.74971964       0.25325133       0.60490523 </v>
   <v>       0.83333333       0.83333333       0.40830017 </v>
   <v>       0.91740761       0.16375531       0.50826074 </v>
   <v>       0.83333333       0.58333333       0.40830017 </v>
   <v>       0.24835061       0.25082916       0.60546242 </v>
   <v>       0.83333333       0.33333333       0.40830017 </v>
   <v>       0.08333333       0.33333333       0.40830017 </v>
   <v>       0.66820118       0.16364499       0.50850519 </v>
   <v>       0.41766148       0.91599936       0.51015387 </v>
   <v>       0.50057354       0.50006923       0.60625581 </v>
   <v>       0.24832785       0.75102166       0.60536499 </v>
  </varray>
  <varray name="selective"  type="logical" >
   <v type="logical" >  F  F  F </v>
   <v type="logical" >  T  T  T </v>
   <v type="logical" >  T  T  T </v>
   <v type="logical" >  F  F  F </v>
   <v type="logical" >  T  T  T </v>
   <v type="logical" >  T  T  T </v>
   <v type="logical" >  T  T  T </v>
   <v type="logical" >  T  T  T </v>
   <v type="logical" >  T  T  T </v>
   <v type="logical" >  F  F  F </v>
   <v type="logical" >  T  T  T </v>
   <v type="logical" >  F  F  F </v>
   <v type="logical" >  T  T  T </v>
   <v type="logical" >  T  T  T </v>
   <v type="logical" >  T  T  T </v>
   <v type="logical" >  T  T  T </v>
   <v type="logical" >  T  T  T </v>
   <v type="logical" >  F  F  F </v>
   <v type="logical" >  T  T  T </v>
   <v type="logical" >  F  F  F </v>
   <v type="logical" >  T  T  T </v>
   <v type="logical" >  T  T  T </v>
   <v type="logical" >  T  T  T </v>
   <v type="logical" >  F  F  F </v>
   <v type="logical" >  F  F  F </v>
   <v type="logical" >  F  F  F </v>
   <v type="logical" >  F  F  F </v>
   <v type="logical" >  T  T  T </v>
   <v type="logical" >  T  T  T </v>
   <v type="logical" >  T  T  T </v>
   <v type="logical" >  T  T  T </v>
   <v type="logical" >  T  T  T </v>
   <v type="logical" >  F  F  F </v>
   <v type="logical" >  T  T  T </v>
   <v type="logical" >  F  F  F </v>
   <v type="logical" >  T  T  T </v>
   <v type="logical" >  T  T  T </v>
   <v type="logical" >  T  T  T </v>
   <v type="logical" >  F  F  F </v>
   <v type="logical" >  T  T  T </v>
   <v type="logical" >  F  F  F </v>
   <v type="logical" >  T  T  T </v>
   <v type="logical" >  F  F  F </v>
   <v type="logical" >  F  F  F </v>
   <v type="logical" >  T  T  T </v>
   <v type="logical" >  T  T  T </v>
   <v type="logical" >  T  T  T </v>
   <v type="logical" >  T  T  T </v>
  </varray>
  <nose>
   <v>      -3.00000000       0.00000000       0.00010000       0.00010000 </v>
  </nose>
 </structure>
</modeling>
