unknown system                          
           1
    11.002582    0.000000    0.000000
     5.501291    9.528515    0.000000
     0.000000    0.000000   26.191785
   Au   O    Pd
  24   8  24
Direct configuration=     1
   0.08333333  0.08333333  0.38179910
   0.24383364  0.75539501  0.56081728
   0.66774063  0.66348614  0.47416327
   0.83333333  0.58333333  0.38179910
   0.83333333  0.33333333  0.38179910
   0.76492944  0.99261598  0.59260024
   0.66434655  0.16413373  0.48083112
   0.83333333  0.08333333  0.38179910
   0.51983893  0.74180778  0.57161216
   0.41253382  0.91802650  0.47682387
   0.41591553  0.66566515  0.47305460
   0.24607842  0.50139664  0.56444373
   0.91436505  0.91510681  0.47822267
   0.45184899  0.27063293  0.60459544
   0.33333333  0.08333333  0.38179910
   0.15547177  0.17052760  0.48017041
   0.25712933  0.01198577  0.57919600
   0.41469537  0.41461872  0.47892259
   0.33333333  0.33333333  0.38179910
   0.58333333  0.33333333  0.38179910
   0.50623475  0.00065602  0.56872158
   0.33333333  0.58333333  0.38179910
   0.41231793  0.16731957  0.47679600
   0.99731935  0.75331131  0.56664662
   0.07106950  0.06069489  0.62494727
   0.16754074  0.30152832  0.63650132
   0.09944737  0.60613537  0.62643591
   0.34418570  0.80797348  0.61827839
   0.57887352  0.35335206  0.61713758
   0.80273290  0.63063164  0.62134815
   0.58446870  0.07368185  0.63519179
   0.81231052  0.33131751  0.61622631
   0.99891029  0.49698333  0.62926985
   0.16255054  0.66755969  0.47239114
   0.08333333  0.83333333  0.38179910
   0.58333333  0.08333333  0.38179910
   0.58333333  0.58333333  0.38179910
   0.49790119  0.50623405  0.56610866
   0.75785680  0.74910630  0.55874689
   0.58333333  0.83333333  0.38179910
   0.91892283  0.66298848  0.47126014
   0.33333333  0.83333333  0.38179910
   0.08333333  0.58333333  0.38179910
   0.00772739  0.26712097  0.61983985
   0.91520483  0.41664262  0.47530587
   0.66716608  0.41536800  0.47590596
   0.74502451  0.24354490  0.56618011
   0.08333333  0.33333333  0.38179910
   0.99606419  0.00799837  0.56586440
   0.77008955  0.49566311  0.57277780
   0.91053918  0.17032519  0.47750234
   0.83333333  0.83333333  0.38179910
   0.66577390  0.91568180  0.47356728
   0.15970425  0.92008321  0.47174359
   0.16039370  0.41857778  0.47328418
   0.23835460  0.25996283  0.56407890
Direct configuration=     2
   0.08333333  0.08333333  0.38179910
   0.24414666  0.75518705  0.56082685
   0.66781234  0.66353968  0.47418619
   0.83333333  0.58333333  0.38179910
   0.83333333  0.33333333  0.38179910
   0.76533034  0.99241596  0.59251580
   0.66445062  0.16399747  0.48075001
   0.83333333  0.08333333  0.38179910
   0.52000714  0.74154015  0.57158960
   0.41243384  0.91806743  0.47687625
   0.41572466  0.66571979  0.47303557
   0.24633449  0.50131655  0.56431317
   0.91418120  0.91526737  0.47821299
   0.45190734  0.27053463  0.60464723
   0.33333333  0.08333333  0.38179910
   0.15545937  0.17026331  0.48013148
   0.25696033  0.01203211  0.57921761
   0.41446501  0.41470101  0.47895400
   0.33333333  0.33333333  0.38179910
   0.58333333  0.33333333  0.38179910
   0.50613680  0.00063708  0.56865894
   0.33333333  0.58333333  0.38179910
   0.41237187  0.16736916  0.47686015
   0.99702967  0.75376669  0.56666846
   0.07130947  0.06032504  0.62472835
   0.16697261  0.30226536  0.63656235
   0.09974513  0.60636823  0.62653198
   0.34420697  0.80789502  0.61825125
   0.57884770  0.35307866  0.61702032
   0.80255918  0.63081152  0.62131476
   0.58426252  0.07374022  0.63512128
   0.81191205  0.33118244  0.61643231
   0.99922454  0.49617237  0.62902330
   0.16263730  0.66733149  0.47242841
   0.08333333  0.83333333  0.38179910
   0.58333333  0.08333333  0.38179910
   0.58333333  0.58333333  0.38179910
   0.49802702  0.50640654  0.56599923
   0.75789670  0.74895854  0.55863781
   0.58333333  0.83333333  0.38179910
   0.91892718  0.66290058  0.47122438
   0.33333333  0.83333333  0.38179910
   0.08333333  0.58333333  0.38179910
   0.00838032  0.26735102  0.61982278
   0.91504889  0.41675864  0.47542597
   0.66725869  0.41538515  0.47592810
   0.74535033  0.24377885  0.56621972
   0.08333333  0.33333333  0.38179910
   0.99601327  0.00772345  0.56580439
   0.77015167  0.49605175  0.57281173
   0.91061114  0.17027142  0.47754329
   0.83333333  0.83333333  0.38179910
   0.66595218  0.91571607  0.47352215
   0.15985487  0.92017848  0.47173102
   0.16021178  0.41878362  0.47323843
   0.23783437  0.26014124  0.56430853
Direct configuration=     3
   0.08333333  0.08333333  0.38179910
   0.24436412  0.75504258  0.56083350
   0.66786216  0.66357687  0.47420211
   0.83333333  0.58333333  0.38179910
   0.83333333  0.33333333  0.38179910
   0.76560885  0.99227700  0.59245714
   0.66452292  0.16390280  0.48069366
   0.83333333  0.08333333  0.38179910
   0.52012399  0.74135422  0.57157392
   0.41236438  0.91809585  0.47691263
   0.41559205  0.66575775  0.47302236
   0.24651239  0.50126091  0.56422247
   0.91405347  0.91537891  0.47820625
   0.45194788  0.27046634  0.60468322
   0.33333333  0.08333333  0.38179910
   0.15545076  0.17007970  0.48010444
   0.25684291  0.01206430  0.57923262
   0.41430498  0.41475818  0.47897583
   0.33333333  0.33333333  0.38179910
   0.58333333  0.33333333  0.38179910
   0.50606876  0.00062392  0.56861543
   0.33333333  0.58333333  0.38179910
   0.41240935  0.16740362  0.47690471
   0.99682843  0.75408305  0.56668363
   0.07147618  0.06006809  0.62457626
   0.16657793  0.30277739  0.63660474
   0.09995199  0.60653001  0.62659872
   0.34422175  0.80784051  0.61823240
   0.57882976  0.35288872  0.61693886
   0.80243850  0.63093648  0.62129157
   0.58411928  0.07378077  0.63507229
   0.81163522  0.33108860  0.61657542
   0.99944285  0.49560899  0.62885202
   0.16269757  0.66717296  0.47245430
   0.08333333  0.83333333  0.38179910
   0.58333333  0.08333333  0.38179910
   0.58333333  0.58333333  0.38179910
   0.49811444  0.50652636  0.56592321
   0.75792442  0.74885589  0.55856202
   0.58333333  0.83333333  0.38179910
   0.91893021  0.66283952  0.47119953
   0.33333333  0.83333333  0.38179910
   0.08333333  0.58333333  0.38179910
   0.00883391  0.26751084  0.61981092
   0.91494055  0.41683925  0.47550941
   0.66732303  0.41539706  0.47594348
   0.74557667  0.24394138  0.56624724
   0.08333333  0.33333333  0.38179910
   0.99597789  0.00753247  0.56576270
   0.77019483  0.49632174  0.57283530
   0.91066113  0.17023406  0.47757174
   0.83333333  0.83333333  0.38179910
   0.66607603  0.91573988  0.47349080
   0.15995951  0.92024467  0.47172228
   0.16008540  0.41892662  0.47320665
   0.23747295  0.26026519  0.56446807
Direct configuration=     4
   0.08333333  0.08333333  0.38179910
   0.24467105  0.75474874  0.56083167
   0.66783027  0.66369851  0.47420174
   0.83333333  0.58333333  0.38179910
   0.83333333  0.33333333  0.38179910
   0.76570855  0.99227519  0.59238458
   0.66461514  0.16390079  0.48060054
   0.83333333  0.08333333  0.38179910
   0.52026244  0.74113374  0.57155068
   0.41233795  0.91813199  0.47699480
   0.41543657  0.66581021  0.47297306
   0.24663916  0.50128884  0.56413145
   0.91399525  0.91546373  0.47816207
   0.45185949  0.27035529  0.60471571
   0.33333333  0.08333333  0.38179910
   0.15546850  0.16993526  0.48007780
   0.25669876  0.01203223  0.57927405
   0.41415877  0.41475920  0.47898284
   0.33333333  0.33333333  0.38179910
   0.58333333  0.33333333  0.38179910
   0.50593057  0.00058505  0.56852722
   0.33333333  0.58333333  0.38179910
   0.41237362  0.16749288  0.47701729
   0.99686153  0.75423811  0.56677285
   0.07178770  0.05969963  0.62422942
   0.16631036  0.30357233  0.63681079
   0.10023579  0.60676716  0.62661594
   0.34431330  0.80773999  0.61819620
   0.57878012  0.35261978  0.61674169
   0.80256951  0.63085887  0.62120340
   0.58400994  0.07371205  0.63491928
   0.81195188  0.33104006  0.61684512
   0.99939628  0.49597190  0.62848269
   0.16266133  0.66704837  0.47250836
   0.08333333  0.83333333  0.38179910
   0.58333333  0.08333333  0.38179910
   0.58333333  0.58333333  0.38179910
   0.49840610  0.50656492  0.56578705
   0.75801455  0.74873649  0.55841816
   0.58333333  0.83333333  0.38179910
   0.91895624  0.66277498  0.47114917
   0.33333333  0.83333333  0.38179910
   0.08333333  0.58333333  0.38179910
   0.00856690  0.26728484  0.61981355
   0.91483252  0.41689884  0.47568733
   0.66738047  0.41542397  0.47597037
   0.74600799  0.24412625  0.56623888
   0.08333333  0.33333333  0.38179910
   0.99595804  0.00720392  0.56565572
   0.77038299  0.49650592  0.57299655
   0.91073069  0.17018855  0.47763008
   0.83333333  0.83333333  0.38179910
   0.66624272  0.91576287  0.47342102
   0.16010149  0.92025023  0.47171358
   0.15985579  0.41901746  0.47316189
   0.23686912  0.26051975  0.56464716
Direct configuration=     5
   0.08333333  0.08333333  0.38179910
   0.24523557  0.75420831  0.56082829
   0.66777160  0.66392223  0.47420105
   0.83333333  0.58333333  0.38179910
   0.83333333  0.33333333  0.38179910
   0.76589192  0.99227186  0.59225112
   0.66478475  0.16389709  0.48042927
   0.83333333  0.08333333  0.38179910
   0.52051709  0.74072821  0.57150795
   0.41228933  0.91819845  0.47714593
   0.41515060  0.66590669  0.47288238
   0.24687232  0.50134021  0.56396404
   0.91388817  0.91561974  0.47808081
   0.45169691  0.27015104  0.60477548
   0.33333333  0.08333333  0.38179910
   0.15550114  0.16966961  0.48002881
   0.25643364  0.01197323  0.57935027
   0.41388987  0.41476107  0.47899574
   0.33333333  0.33333333  0.38179910
   0.58333333  0.33333333  0.38179910
   0.50567641  0.00051356  0.56836497
   0.33333333  0.58333333  0.38179910
   0.41230791  0.16765705  0.47722436
   0.99692243  0.75452329  0.56693695
   0.07236067  0.05902193  0.62359151
   0.16581823  0.30503442  0.63718976
   0.10075778  0.60720333  0.62664762
   0.34448168  0.80755509  0.61812961
   0.57868883  0.35212514  0.61637906
   0.80281046  0.63071611  0.62104124
   0.58380883  0.07358564  0.63463785
   0.81253430  0.33095077  0.61734116
   0.99931061  0.49663939  0.62780340
   0.16259467  0.66681921  0.47260779
   0.08333333  0.83333333  0.38179910
   0.58333333  0.08333333  0.38179910
   0.58333333  0.58333333  0.38179910
   0.49894254  0.50663583  0.56553662
   0.75818032  0.74851687  0.55815355
   0.58333333  0.83333333  0.38179910
   0.91900412  0.66265627  0.47105655
   0.33333333  0.83333333  0.38179910
   0.08333333  0.58333333  0.38179910
   0.00807580  0.26686918  0.61981840
   0.91463383  0.41700844  0.47601457
   0.66748611  0.41547347  0.47601983
   0.74680130  0.24446628  0.56622350
   0.08333333  0.33333333  0.38179910
   0.99592154  0.00659963  0.56545894
   0.77072906  0.49684466  0.57329312
   0.91085862  0.17010483  0.47773740
   0.83333333  0.83333333  0.38179910
   0.66654929  0.91580515  0.47329266
   0.16036262  0.92026046  0.47169758
   0.15943348  0.41918454  0.47307956
   0.23575853  0.26098794  0.56497654
Direct configuration=     6
   0.08333333  0.08333333  0.38179910
   0.24538188  0.75389145  0.56077944
   0.66750805  0.66404592  0.47411257
   0.83333333  0.58333333  0.38179910
   0.83333333  0.33333333  0.38179910
   0.76538070  0.99266361  0.59217192
   0.66476780  0.16425111  0.48037427
   0.83333333  0.08333333  0.38179910
   0.52063222  0.74076334  0.57148285
   0.41245902  0.91822761  0.47723415
   0.41520614  0.66589069  0.47277503
   0.24695199  0.50122531  0.56399027
   0.91421910  0.91537115  0.47799724
   0.45098878  0.27026439  0.60468782
   0.33333333  0.08333333  0.38179910
   0.15559302  0.16988627  0.48004501
   0.25671145  0.01182395  0.57936784
   0.41401405  0.41460342  0.47892195
   0.33333333  0.33333333  0.38179910
   0.58333333  0.33333333  0.38179910
   0.50544662  0.00042835  0.56825740
   0.33333333  0.58333333  0.38179910
   0.41210029  0.16779469  0.47738081
   0.99734653  0.75421254  0.56706574
   0.07271356  0.05863058  0.62328176
   0.16544157  0.30576858  0.63739738
   0.10114051  0.60738439  0.62660724
   0.34473548  0.80742112  0.61811608
   0.57886349  0.35195591  0.61607902
   0.80278066  0.63103466  0.62084655
   0.58394381  0.07315906  0.63441583
   0.81225863  0.33126400  0.61761972
   0.99945341  0.49728153  0.62733308
   0.16235666  0.66700207  0.47265163
   0.08333333  0.83333333  0.38179910
   0.58333333  0.08333333  0.38179910
   0.58333333  0.58333333  0.38179910
   0.49950912  0.50620946  0.56538536
   0.75831330  0.74863969  0.55800193
   0.58333333  0.83333333  0.38179910
   0.91903478  0.66271420  0.47099041
   0.33333333  0.83333333  0.38179910
   0.08333333  0.58333333  0.38179910
   0.00855717  0.26680200  0.62006262
   0.91463111  0.41694060  0.47625595
   0.66742035  0.41555394  0.47601021
   0.74721675  0.24465637  0.56616730
   0.08333333  0.33333333  0.38179910
   0.99586035  0.00611630  0.56514986
   0.77103807  0.49643177  0.57361235
   0.91094217  0.17014861  0.47778146
   0.83333333  0.83333333  0.38179910
   0.66649504  0.91588420  0.47318298
   0.16040312  0.92004807  0.47169201
   0.15929833  0.41891911  0.47306850
   0.23502660  0.26135820  0.56507670
Direct configuration=     7
   0.08333333  0.08333333  0.38179910
   0.24554416  0.75354002  0.56072525
   0.66721574  0.66418310  0.47401444
   0.83333333  0.58333333  0.38179910
   0.83333333  0.33333333  0.38179910
   0.76481370  0.99309810  0.59208407
   0.66474899  0.16464375  0.48031328
   0.83333333  0.08333333  0.38179910
   0.52075993  0.74080229  0.57145502
   0.41264723  0.91825995  0.47733199
   0.41526773  0.66587295  0.47265595
   0.24704035  0.50109786  0.56401935
   0.91458615  0.91509543  0.47790455
   0.45020339  0.27039011  0.60459060
   0.33333333  0.08333333  0.38179910
   0.15569493  0.17012658  0.48006299
   0.25701958  0.01165838  0.57938733
   0.41415178  0.41442856  0.47884012
   0.33333333  0.33333333  0.38179910
   0.58333333  0.33333333  0.38179910
   0.50519175  0.00033385  0.56813810
   0.33333333  0.58333333  0.38179910
   0.41187002  0.16794735  0.47755434
   0.99781691  0.75386788  0.56720860
   0.07310495  0.05819653  0.62293820
   0.16502380  0.30658285  0.63762765
   0.10156500  0.60758520  0.62656245
   0.34501698  0.80727252  0.61810108
   0.57905721  0.35176821  0.61574624
   0.80274761  0.63138797  0.62063062
   0.58409352  0.07268594  0.63416959
   0.81195289  0.33161142  0.61792867
   0.99961179  0.49799374  0.62681144
   0.16209267  0.66720488  0.47270024
   0.08333333  0.83333333  0.38179910
   0.58333333  0.08333333  0.38179910
   0.58333333  0.58333333  0.38179910
   0.50013752  0.50573657  0.56521759
   0.75846078  0.74877591  0.55783377
   0.58333333  0.83333333  0.38179910
   0.91906878  0.66277845  0.47091705
   0.33333333  0.83333333  0.38179910
   0.08333333  0.58333333  0.38179910
   0.00909107  0.26672750  0.62033349
   0.91462809  0.41686535  0.47652367
   0.66734741  0.41564319  0.47599953
   0.74767753  0.24486720  0.56610498
   0.08333333  0.33333333  0.38179910
   0.99579249  0.00558023  0.56480706
   0.77138079  0.49597382  0.57396641
   0.91103483  0.17019716  0.47783032
   0.83333333  0.83333333  0.38179910
   0.66643486  0.91597187  0.47306134
   0.16044804  0.91981251  0.47168584
   0.15914843  0.41862470  0.47305623
   0.23421479  0.26176887  0.56518778
Direct configuration=     8
   0.08333333  0.08333333  0.38179910
   0.24593790  0.75325813  0.56067176
   0.66717539  0.66409297  0.47390453
   0.83333333  0.58333333  0.38179910
   0.83333333  0.33333333  0.38179910
   0.76474774  0.99335021  0.59179358
   0.66487412  0.16476376  0.48032543
   0.83333333  0.08333333  0.38179910
   0.52107420  0.74068112  0.57141188
   0.41266607  0.91831498  0.47733500
   0.41535703  0.66581613  0.47256065
   0.24734010  0.50083951  0.56394892
   0.91461279  0.91489766  0.47780276
   0.44991232  0.27027692  0.60448763
   0.33333333  0.08333333  0.38179910
   0.15578395  0.17018791  0.48009021
   0.25730596  0.01150170  0.57943700
   0.41409144  0.41449831  0.47871085
   0.33333333  0.33333333  0.38179910
   0.58333333  0.33333333  0.38179910
   0.50504576  0.00026983  0.56805601
   0.33333333  0.58333333  0.38179910
   0.41177656  0.16807330  0.47767867
   0.99765239  0.75395429  0.56724211
   0.07318374  0.05800997  0.62259356
   0.16503616  0.30704745  0.63768780
   0.10216288  0.60774387  0.62672455
   0.34531028  0.80713777  0.61806242
   0.57919000  0.35131190  0.61548492
   0.80247553  0.63222885  0.62037205
   0.58374043  0.07250143  0.63402563
   0.81247210  0.33129386  0.61822442
   0.99979289  0.49828749  0.62643438
   0.16213756  0.66713468  0.47269155
   0.08333333  0.83333333  0.38179910
   0.58333333  0.08333333  0.38179910
   0.58333333  0.58333333  0.38179910
   0.50048288  0.50551501  0.56499993
   0.75852774  0.74901283  0.55764737
   0.58333333  0.83333333  0.38179910
   0.91898287  0.66279004  0.47086046
   0.33333333  0.83333333  0.38179910
   0.08333333  0.58333333  0.38179910
   0.00891780  0.26732804  0.62091342
   0.91447036  0.41692520  0.47676854
   0.66731242  0.41577201  0.47588749
   0.74807182  0.24484941  0.56602932
   0.08333333  0.33333333  0.38179910
   0.99585284  0.00529764  0.56454473
   0.77134785  0.49555480  0.57425572
   0.91123410  0.17027863  0.47778798
   0.83333333  0.83333333  0.38179910
   0.66629335  0.91628715  0.47295101
   0.16056730  0.91972404  0.47166113
   0.15919975  0.41848815  0.47307740
   0.23346275  0.26205797  0.56522079
Direct configuration=     9
   0.08333333  0.08333333  0.38179910
   0.24665441  0.75274516  0.56057444
   0.66710198  0.66392896  0.47370453
   0.83333333  0.58333333  0.38179910
   0.83333333  0.33333333  0.38179910
   0.76462771  0.99380897  0.59126495
   0.66510182  0.16498214  0.48034754
   0.83333333  0.08333333  0.38179910
   0.52164610  0.74046062  0.57133337
   0.41270035  0.91841511  0.47734047
   0.41551954  0.66571273  0.47238721
   0.24788557  0.50036937  0.56382076
   0.91466127  0.91453778  0.47761753
   0.44938264  0.27007094  0.60430026
   0.33333333  0.08333333  0.38179910
   0.15594595  0.17029950  0.48013975
   0.25782708  0.01121658  0.57952738
   0.41398164  0.41462524  0.47847560
   0.33333333  0.33333333  0.38179910
   0.58333333  0.33333333  0.38179910
   0.50478010  0.00015335  0.56790663
   0.33333333  0.58333333  0.38179910
   0.41160651  0.16830249  0.47790492
   0.99735300  0.75411153  0.56730311
   0.07332712  0.05767048  0.62196640
   0.16505866  0.30789292  0.63779725
   0.10325087  0.60803260  0.62701953
   0.34584401  0.80689254  0.61799208
   0.57943163  0.35048153  0.61500939
   0.80198042  0.63375904  0.61990150
   0.58309789  0.07216568  0.63376366
   0.81341692  0.33071597  0.61876261
   0.00012245  0.49882204  0.62574822
   0.16221925  0.66700694  0.47267574
   0.08333333  0.83333333  0.38179910
   0.58333333  0.08333333  0.38179910
   0.58333333  0.58333333  0.38179910
   0.50111135  0.50511182  0.56460385
   0.75864960  0.74944397  0.55730817
   0.58333333  0.83333333  0.38179910
   0.91882654  0.66281113  0.47075749
   0.33333333  0.83333333  0.38179910
   0.08333333  0.58333333  0.38179910
   0.00860250  0.26842088  0.62196875
   0.91418335  0.41703410  0.47721414
   0.66724876  0.41600642  0.47568360
   0.74878932  0.24481703  0.56589166
   0.08333333  0.33333333  0.38179910
   0.99596268  0.00478340  0.56406735
   0.77128790  0.49479229  0.57478220
   0.91159672  0.17042690  0.47771092
   0.83333333  0.83333333  0.38179910
   0.66603585  0.91686088  0.47275023
   0.16078432  0.91956305  0.47161616
   0.15929315  0.41823964  0.47311593
   0.23209422  0.26258406  0.56528087
Direct configuration=    10
   0.08333333  0.08333333  0.38179910
   0.24690334  0.75255301  0.56052999
   0.66717392  0.66392637  0.47365207
   0.83333333  0.58333333  0.38179910
   0.83333333  0.33333333  0.38179910
   0.76440908  0.99412903  0.59101741
   0.66521925  0.16497503  0.48037431
   0.83333333  0.08333333  0.38179910
   0.52196012  0.74024024  0.57128350
   0.41267783  0.91842101  0.47729855
   0.41552243  0.66575540  0.47233278
   0.24789126  0.50047679  0.56376247
   0.91456586  0.91450362  0.47752372
   0.44943412  0.26978441  0.60422320
   0.33333333  0.08333333  0.38179910
   0.15595305  0.17022723  0.48014020
   0.25782898  0.01123694  0.57960008
   0.41392129  0.41468441  0.47834893
   0.33333333  0.33333333  0.38179910
   0.58333333  0.33333333  0.38179910
   0.50478904  0.00011607  0.56788030
   0.33333333  0.58333333  0.38179910
   0.41165098  0.16840091  0.47796565
   0.99752150  0.75392324  0.56734509
   0.07324518  0.05787729  0.62169950
   0.16515910  0.30812442  0.63781273
   0.10369565  0.60811721  0.62711346
   0.34609189  0.80678826  0.61794460
   0.57949944  0.35008110  0.61482153
   0.80211960  0.63407404  0.61974540
   0.58288049  0.07204108  0.63361964
   0.81358767  0.33020626  0.61898293
  -0.00001333  0.49955695  0.62551336
   0.16232139  0.66688539  0.47266479
   0.08333333  0.83333333  0.38179910
   0.58333333  0.08333333  0.38179910
   0.58333333  0.58333333  0.38179910
   0.50136786  0.50492856  0.56445675
   0.75852786  0.74966061  0.55708339
   0.58333333  0.83333333  0.38179910
   0.91877429  0.66272196  0.47071296
   0.33333333  0.83333333  0.38179910
   0.08333333  0.58333333  0.38179910
   0.00878770  0.26847911  0.62253425
   0.91411330  0.41712534  0.47738902
   0.66729808  0.41596365  0.47555925
   0.74917400  0.24484294  0.56587738
   0.08333333  0.33333333  0.38179910
   0.99610577  0.00467645  0.56391148
   0.77107597  0.49477191  0.57496926
   0.91174091  0.17046253  0.47763159
   0.83333333  0.83333333  0.38179910
   0.66590718  0.91710898  0.47267328
   0.16088737  0.91956572  0.47159062
   0.15928889  0.41832031  0.47312421
   0.23159204  0.26271160  0.56528207
Direct configuration=    11
   0.08333333  0.08333333  0.38179910
   0.24740179  0.75216825  0.56044098
   0.66731798  0.66392119  0.47354704
   0.83333333  0.58333333  0.38179910
   0.83333333  0.33333333  0.38179910
   0.76397131  0.99476991  0.59052175
   0.66545438  0.16496079  0.48042791
   0.83333333  0.08333333  0.38179910
   0.52258890  0.73979895  0.57118366
   0.41263275  0.91843283  0.47721461
   0.41552823  0.66584083  0.47222377
   0.24790265  0.50069187  0.56364575
   0.91437483  0.91443522  0.47733588
   0.44953720  0.26921070  0.60406891
   0.33333333  0.08333333  0.38179910
   0.15596726  0.17008252  0.48014109
   0.25783278  0.01127770  0.57974566
   0.41380045  0.41480287  0.47809530
   0.33333333  0.33333333  0.38179910
   0.58333333  0.33333333  0.38179910
   0.50480693  0.00004142  0.56782760
   0.33333333  0.58333333  0.38179910
   0.41174002  0.16859798  0.47808726
   0.99785889  0.75354620  0.56742914
   0.07308110  0.05829141  0.62116507
   0.16536021  0.30858796  0.63784371
   0.10458625  0.60828661  0.62730155
   0.34658823  0.80657945  0.61784953
   0.57963520  0.34927929  0.61444535
   0.80239829  0.63470477  0.61943282
   0.58244519  0.07179159  0.63333127
   0.81392958  0.32918565  0.61942410
  -0.00028520  0.50102850  0.62504309
   0.16252592  0.66664201  0.47264286
   0.08333333  0.83333333  0.38179910
   0.58333333  0.08333333  0.38179910
   0.58333333  0.58333333  0.38179910
   0.50188148  0.50456161  0.56416220
   0.75828409  0.75009440  0.55663328
   0.58333333  0.83333333  0.38179910
   0.91866968  0.66254341  0.47062380
   0.33333333  0.83333333  0.38179910
   0.08333333  0.58333333  0.38179910
   0.00915854  0.26859570  0.62366656
   0.91397306  0.41730803  0.47773918
   0.66739685  0.41587801  0.47531026
   0.74994426  0.24489483  0.56584879
   0.08333333  0.33333333  0.38179910
   0.99639229  0.00446231  0.56359937
   0.77065162  0.49473108  0.57534383
   0.91202963  0.17053386  0.47747274
   0.83333333  0.83333333  0.38179910
   0.66564954  0.91760575  0.47251919
   0.16109372  0.91957107  0.47153949
   0.15928036  0.41848184  0.47314079
   0.23058649  0.26296697  0.56528448
Direct configuration=    12
   0.08333333  0.08333333  0.38179910
   0.24745333  0.75218864  0.56042120
   0.66735254  0.66399563  0.47353776
   0.83333333  0.58333333  0.38179910
   0.83333333  0.33333333  0.38179910
   0.76390417  0.99488421  0.59030552
   0.66547899  0.16496870  0.48047788
   0.83333333  0.08333333  0.38179910
   0.52256178  0.73971099  0.57114671
   0.41264576  0.91845426  0.47716652
   0.41551792  0.66593729  0.47222855
   0.24794312  0.50066946  0.56363692
   0.91442812  0.91440760  0.47731030
   0.44938102  0.26925827  0.60393040
   0.33333333  0.08333333  0.38179910
   0.15594817  0.17002780  0.48009881
   0.25783366  0.01138554  0.57979147
   0.41386658  0.41478698  0.47802390
   0.33333333  0.33333333  0.38179910
   0.58333333  0.33333333  0.38179910
   0.50477418 -0.00006199  0.56781546
   0.33333333  0.58333333  0.38179910
   0.41177716  0.16865179  0.47807017
   0.99806107  0.75346528  0.56743361
   0.07291535  0.05880051  0.62113875
   0.16527949  0.30897992  0.63786873
   0.10484926  0.60823829  0.62733792
   0.34675062  0.80653776  0.61777927
   0.57965696  0.34915970  0.61437234
   0.80236730  0.63480620  0.61936780
   0.58262827  0.07153808  0.63327818
   0.81400783  0.32878165  0.61955673
  -0.00000672  0.50108867  0.62500868
   0.16248720  0.66670964  0.47262403
   0.08333333  0.83333333  0.38179910
   0.58333333  0.08333333  0.38179910
   0.58333333  0.58333333  0.38179910
   0.50202264  0.50434005  0.56413174
   0.75823134  0.75016659  0.55649282
   0.58333333  0.83333333  0.38179910
   0.91875789  0.66243352  0.47059037
   0.33333333  0.83333333  0.38179910
   0.08333333  0.58333333  0.38179910
   0.00909543  0.26887322  0.62402745
   0.91408476  0.41731847  0.47780685
   0.66750016  0.41568336  0.47521538
   0.75033161  0.24485208  0.56582344
   0.08333333  0.33333333  0.38179910
   0.99635368  0.00448197  0.56350436
   0.77067190  0.49462944  0.57550357
   0.91201511  0.17049397  0.47737733
   0.83333333  0.83333333  0.38179910
   0.66555807  0.91763707  0.47248517
   0.16107721  0.91956870  0.47152239
   0.15921771  0.41862881  0.47313162
   0.23050209  0.26300148  0.56523724
Direct configuration=    13
   0.08333333  0.08333333  0.38179910
   0.24751604  0.75221344  0.56039713
   0.66739458  0.66408621  0.47352647
   0.83333333  0.58333333  0.38179910
   0.83333333  0.33333333  0.38179910
   0.76382249  0.99502326  0.59004246
   0.66550894  0.16497831  0.48053867
   0.83333333  0.08333333  0.38179910
   0.52252879  0.73960398  0.57110175
   0.41266160  0.91848033  0.47710801
   0.41550537  0.66605465  0.47223437
   0.24799235  0.50064219  0.56362617
   0.91449295  0.91437399  0.47727919
   0.44919101  0.26931615  0.60376189
   0.33333333  0.08333333  0.38179910
   0.15592495  0.16996122  0.48004737
   0.25783473  0.01151673  0.57984720
   0.41394703  0.41476765  0.47793704
   0.33333333  0.33333333  0.38179910
   0.58333333  0.33333333  0.38179910
   0.50473432 -0.00018780  0.56780068
   0.33333333  0.58333333  0.38179910
   0.41182234  0.16871725  0.47804938
   0.99830705  0.75336684  0.56743904
   0.07271371  0.05941988  0.62110673
   0.16518129  0.30945678  0.63789917
   0.10516923  0.60817950  0.62738218
   0.34694819  0.80648704  0.61769381
   0.57968344  0.34901421  0.61428351
   0.80232960  0.63492959  0.61928870
   0.58285101  0.07122967  0.63321358
   0.81410303  0.32829015  0.61971808
   0.00033207  0.50116189  0.62496683
   0.16244009  0.66679193  0.47260111
   0.08333333  0.83333333  0.38179910
   0.58333333  0.08333333  0.38179910
   0.58333333  0.58333333  0.38179910
   0.50219438  0.50407049  0.56409468
   0.75816715  0.75025441  0.55632193
   0.58333333  0.83333333  0.38179910
   0.91886520  0.66229983  0.47054970
   0.33333333  0.83333333  0.38179910
   0.08333333  0.58333333  0.38179910
   0.00901865  0.26921084  0.62446650
   0.91422065  0.41733117  0.47788917
   0.66762584  0.41544655  0.47509995
   0.75080287  0.24480008  0.56579259
   0.08333333  0.33333333  0.38179910
   0.99630671  0.00450589  0.56338877
   0.77069657  0.49450577  0.57569791
   0.91199745  0.17044544  0.47726126
   0.83333333  0.83333333  0.38179910
   0.66544679  0.91767517  0.47244379
   0.16105711  0.91956582  0.47150158
   0.15914148  0.41880761  0.47312046
   0.23039940  0.26304348  0.56517978
Direct configuration=    14
   0.08333333  0.08333333  0.38179910
   0.24764147  0.75226305  0.56034900
   0.66747866  0.66426735  0.47350390
   0.83333333  0.58333333  0.38179910
   0.83333333  0.33333333  0.38179910
   0.76365913  0.99530137  0.58951634
   0.66556883  0.16499754  0.48066026
   0.83333333  0.08333333  0.38179910
   0.52246280  0.73938997  0.57101185
   0.41269328  0.91853247  0.47699099
   0.41548028  0.66628935  0.47224601
   0.24809082  0.50058764  0.56360469
   0.91462262  0.91430679  0.47721697
   0.44881100  0.26943192  0.60342487
   0.33333333  0.08333333  0.38179910
   0.15587851  0.16982807  0.47994450
   0.25783687  0.01177911  0.57995866
   0.41410792  0.41472898  0.47776332
   0.33333333  0.33333333  0.38179910
   0.58333333  0.33333333  0.38179910
   0.50465462 -0.00043942  0.56777112
   0.33333333  0.58333333  0.38179910
   0.41191269  0.16884817  0.47800780
   0.99879899  0.75316995  0.56744991
   0.07231043  0.06065861  0.62104269
   0.16498488  0.31041048  0.63796005
   0.10580917  0.60806193  0.62747069
   0.34734332  0.80638561  0.61752288
   0.57973640  0.34872322  0.61410585
   0.80225420  0.63517638  0.61913050
   0.58329648  0.07061284  0.63308439
   0.81429344  0.32730715  0.62004078
   0.00100965  0.50130831  0.62488313
   0.16234587  0.66695649  0.47255529
   0.08333333  0.83333333  0.38179910
   0.58333333  0.08333333  0.38179910
   0.58333333  0.58333333  0.38179910
   0.50253786  0.50353138  0.56402056
   0.75803879  0.75043004  0.55598015
   0.58333333  0.83333333  0.38179910
   0.91907983  0.66203245  0.47046835
   0.33333333  0.83333333  0.38179910
   0.08333333  0.58333333  0.38179910
   0.00886510  0.26988608  0.62534459
   0.91449244  0.41735658  0.47805381