  48  48   0   0
  0.5349325E+02  0.1100258E-08  0.1100258E-08  0.2449179E-08  0.3500000E-15
  1.000000000000000E-004
  CAR 
 unknown system                          
      6.36899301     -9.73072392  301     -1.11030110      1.00000000
     -9.731  0.0000E+00  0.0000E+00
     -9.677  0.0000E+00  0.0000E+00
     -9.623  0.0000E+00  0.0000E+00
     -9.570  0.0000E+00  0.0000E+00
     -9.516  0.0000E+00  0.0000E+00
     -9.462  0.0000E+00  0.0000E+00
     -9.409  0.0000E+00  0.0000E+00
     -9.355  0.0000E+00  0.0000E+00
     -9.301  0.6896E-17  0.3701E-18
     -9.248  0.2645E-14  0.1423E-15
     -9.194  0.5899E-12  0.3180E-13
     -9.140  0.7497E-10  0.4055E-11
     -9.087  0.5441E-08  0.2961E-09
     -9.033  0.2260E-06  0.1242E-07
     -8.979  0.5382E-05  0.3013E-06
     -8.926  0.7372E-04  0.4257E-05
     -8.872  0.5820E-03  0.3549E-04
     -8.818  0.2655E-02  0.1780E-03
     -8.765  0.7023E-02  0.5549E-03
     -8.711  0.1087E-01  0.1138E-02
     -8.657  0.1039E-01  0.1696E-02
     -8.604  0.8242E-02  0.2138E-02
     -8.550  0.9177E-02  0.2631E-02
     -8.496  0.1091E-01  0.3216E-02
     -8.443  0.8807E-02  0.3689E-02
     -8.389  0.4313E-02  0.3920E-02
     -8.335  0.1290E-02  0.3989E-02
     -8.282  0.5279E-03  0.4018E-02
     -8.228  0.1568E-02  0.4102E-02
     -8.174  0.4552E-02  0.4346E-02
     -8.121  0.8278E-02  0.4790E-02
     -8.067  0.1017E-01  0.5336E-02
     -8.013  0.1052E-01  0.5901E-02
     -7.960  0.1251E-01  0.6572E-02
     -7.906  0.1672E-01  0.7470E-02
     -7.852  0.1932E-01  0.8506E-02
     -7.799  0.1730E-01  0.9435E-02
     -7.745  0.1387E-01  0.1018E-01
     -7.691  0.1400E-01  0.1093E-01
     -7.638  0.1611E-01  0.1180E-01
     -7.584  0.1567E-01  0.1264E-01
     -7.530  0.1373E-01  0.1337E-01
     -7.477  0.1492E-01  0.1417E-01
     -7.423  0.1943E-01  0.1522E-01
     -7.369  0.2304E-01  0.1645E-01
     -7.316  0.2326E-01  0.1770E-01
     -7.262  0.2210E-01  0.1889E-01
     -7.208  0.2292E-01  0.2012E-01
     -7.155  0.2494E-01  0.2146E-01
     -7.101  0.2672E-01  0.2289E-01
     -7.047  0.3054E-01  0.2453E-01
     -6.994  0.3781E-01  0.2656E-01
     -6.940  0.4711E-01  0.2909E-01
     -6.886  0.5791E-01  0.3219E-01
     -6.833  0.7013E-01  0.3596E-01
     -6.779  0.8012E-01  0.4026E-01
     -6.725  0.8396E-01  0.4476E-01
     -6.672  0.8434E-01  0.4929E-01
     -6.618  0.8830E-01  0.5403E-01
     -6.564  0.9799E-01  0.5929E-01
     -6.511  0.1088E+00  0.6512E-01
     -6.457  0.1158E+00  0.7134E-01
     -6.403  0.1182E+00  0.7768E-01
     -6.350  0.1208E+00  0.8417E-01
     -6.296  0.1274E+00  0.9100E-01
     -6.242  0.1358E+00  0.9829E-01
     -6.189  0.1459E+00  0.1061E+00
     -6.135  0.1587E+00  0.1146E+00
     -6.081  0.1685E+00  0.1237E+00
     -6.028  0.1707E+00  0.1328E+00
     -5.974  0.1678E+00  0.1418E+00
     -5.920  0.1633E+00  0.1506E+00
     -5.867  0.1572E+00  0.1590E+00
     -5.813  0.1505E+00  0.1671E+00
     -5.759  0.1479E+00  0.1751E+00
     -5.706  0.1492E+00  0.1831E+00
     -5.652  0.1486E+00  0.1910E+00
     -5.598  0.1433E+00  0.1987E+00
     -5.545  0.1365E+00  0.2061E+00
     -5.491  0.1314E+00  0.2131E+00
     -5.437  0.1280E+00  0.2200E+00
     -5.384  0.1282E+00  0.2269E+00
     -5.330  0.1349E+00  0.2341E+00
     -5.276  0.1487E+00  0.2421E+00
     -5.223  0.1668E+00  0.2510E+00
     -5.169  0.1821E+00  0.2608E+00
     -5.115  0.1879E+00  0.2709E+00
     -5.062  0.1843E+00  0.2808E+00
     -5.008  0.1789E+00  0.2904E+00
     -4.954  0.1766E+00  0.2998E+00
     -4.901  0.1748E+00  0.3092E+00
     -4.847  0.1720E+00  0.3185E+00
     -4.793  0.1706E+00  0.3276E+00
     -4.740  0.1721E+00  0.3369E+00
     -4.686  0.1748E+00  0.3462E+00
     -4.632  0.1767E+00  0.3557E+00
     -4.579  0.1786E+00  0.3653E+00
     -4.525  0.1806E+00  0.3750E+00
     -4.471  0.1802E+00  0.3847E+00
     -4.418  0.1773E+00  0.3942E+00
     -4.364  0.1737E+00  0.4035E+00
     -4.310  0.1728E+00  0.4128E+00
     -4.257  0.1754E+00  0.4222E+00
     -4.203  0.1769E+00  0.4317E+00
     -4.149  0.1757E+00  0.4411E+00
     -4.096  0.1760E+00  0.4505E+00
     -4.042  0.1767E+00  0.4600E+00
     -3.988  0.1757E+00  0.4695E+00
     -3.935  0.1765E+00  0.4789E+00
     -3.881  0.1809E+00  0.4886E+00
     -3.827  0.1849E+00  0.4986E+00
     -3.774  0.1844E+00  0.5085E+00
     -3.720  0.1832E+00  0.5183E+00
     -3.666  0.1860E+00  0.5283E+00
     -3.613  0.1903E+00  0.5385E+00
     -3.559  0.1919E+00  0.5488E+00
     -3.506  0.1931E+00  0.5591E+00
     -3.452  0.1966E+00  0.5697E+00
     -3.398  0.1982E+00  0.5803E+00
     -3.345  0.1931E+00  0.5907E+00
     -3.291  0.1834E+00  0.6005E+00
     -3.237  0.1762E+00  0.6100E+00
     -3.184  0.1763E+00  0.6194E+00
     -3.130  0.1822E+00  0.6292E+00
     -3.076  0.1878E+00  0.6393E+00
     -3.023  0.1904E+00  0.6495E+00
     -2.969  0.1919E+00  0.6598E+00
     -2.915  0.1932E+00  0.6702E+00
     -2.862  0.1946E+00  0.6806E+00
     -2.808  0.1948E+00  0.6911E+00
     -2.754  0.1944E+00  0.7015E+00
     -2.701  0.1959E+00  0.7120E+00
     -2.647  0.1976E+00  0.7226E+00
     -2.593  0.1953E+00  0.7331E+00
     -2.540  0.1909E+00  0.7434E+00
     -2.486  0.1905E+00  0.7536E+00
     -2.432  0.1939E+00  0.7640E+00
     -2.379  0.1968E+00  0.7746E+00
     -2.325  0.1978E+00  0.7852E+00
     -2.271  0.1974E+00  0.7958E+00
     -2.218  0.1943E+00  0.8062E+00
     -2.164  0.1890E+00  0.8163E+00
     -2.110  0.1849E+00  0.8263E+00
     -2.057  0.1844E+00  0.8362E+00
     -2.003  0.1867E+00  0.8462E+00
     -1.949  0.1900E+00  0.8564E+00
     -1.896  0.1925E+00  0.8667E+00
     -1.842  0.1942E+00  0.8771E+00
     -1.788  0.1973E+00  0.8877E+00
     -1.735  0.1999E+00  0.8984E+00
     -1.681  0.1971E+00  0.9090E+00
     -1.627  0.1912E+00  0.9193E+00
     -1.574  0.1885E+00  0.9294E+00
     -1.520  0.1902E+00  0.9396E+00
     -1.466  0.1936E+00  0.9500E+00
     -1.413  0.1945E+00  0.9604E+00
     -1.359  0.1907E+00  0.9707E+00
     -1.305  0.1835E+00  0.9805E+00
     -1.252  0.1716E+00  0.9897E+00
     -1.198  0.1512E+00  0.9978E+00
     -1.144  0.1246E+00  0.1005E+01
     -1.091  0.9830E-01  0.1010E+01
     -1.037  0.7500E-01  0.1014E+01
     -0.983  0.5362E-01  0.1017E+01
     -0.930  0.3535E-01  0.1019E+01
     -0.876  0.2362E-01  0.1020E+01
     -0.822  0.1885E-01  0.1021E+01
     -0.769  0.1733E-01  0.1022E+01
     -0.715  0.1633E-01  0.1023E+01
     -0.661  0.1584E-01  0.1024E+01
     -0.608  0.1831E-01  0.1025E+01
     -0.554  0.2752E-01  0.1026E+01
     -0.500  0.4028E-01  0.1028E+01
     -0.447  0.4694E-01  0.1031E+01
     -0.393  0.4398E-01  0.1033E+01
     -0.339  0.3830E-01  0.1035E+01
     -0.286  0.3844E-01  0.1037E+01
     -0.232  0.4342E-01  0.1039E+01
     -0.178  0.4329E-01  0.1042E+01
     -0.125  0.3525E-01  0.1044E+01
     -0.071  0.2721E-01  0.1045E+01
     -0.017  0.2383E-01  0.1046E+01
      0.036  0.2371E-01  0.1048E+01
      0.090  0.2639E-01  0.1049E+01
      0.144  0.3077E-01  0.1051E+01
      0.197  0.3257E-01  0.1053E+01
      0.251  0.3224E-01  0.1054E+01
      0.305  0.3418E-01  0.1056E+01
      0.358  0.3803E-01  0.1058E+01
      0.412  0.4162E-01  0.1060E+01
      0.466  0.4456E-01  0.1063E+01
      0.519  0.4535E-01  0.1065E+01
      0.573  0.4222E-01  0.1067E+01
      0.627  0.3747E-01  0.1069E+01
      0.680  0.3621E-01  0.1071E+01
      0.734  0.3930E-01  0.1074E+01
      0.788  0.4036E-01  0.1076E+01
      0.841  0.3480E-01  0.1078E+01
      0.895  0.2662E-01  0.1079E+01
      0.949  0.2159E-01  0.1080E+01
      1.002  0.2083E-01  0.1081E+01
      1.056  0.2158E-01  0.1082E+01
      1.110  0.2121E-01  0.1084E+01
      1.163  0.1899E-01  0.1085E+01
      1.217  0.1506E-01  0.1085E+01
      1.271  0.1167E-01  0.1086E+01
      1.324  0.1187E-01  0.1087E+01
      1.378  0.1524E-01  0.1087E+01
      1.432  0.1975E-01  0.1089E+01
      1.485  0.2547E-01  0.1090E+01
      1.539  0.3156E-01  0.1092E+01
      1.593  0.3482E-01  0.1093E+01
      1.646  0.3411E-01  0.1095E+01
      1.700  0.3267E-01  0.1097E+01
      1.754  0.3203E-01  0.1099E+01
      1.807  0.3083E-01  0.1100E+01
      1.861  0.2917E-01  0.1102E+01
      1.915  0.2601E-01  0.1103E+01
      1.968  0.2181E-01  0.1105E+01
      2.022  0.1972E-01  0.1106E+01
      2.076  0.2098E-01  0.1107E+01
      2.129  0.2499E-01  0.1108E+01
      2.183  0.2904E-01  0.1110E+01
      2.237  0.3216E-01  0.1111E+01
      2.290  0.3767E-01  0.1113E+01
      2.344  0.4659E-01  0.1116E+01
      2.398  0.5384E-01  0.1119E+01
      2.451  0.5351E-01  0.1122E+01
      2.505  0.4653E-01  0.1124E+01
      2.559  0.4131E-01  0.1126E+01
      2.612  0.4306E-01  0.1129E+01
      2.666  0.4771E-01  0.1131E+01
      2.720  0.4817E-01  0.1134E+01
      2.773  0.3985E-01  0.1136E+01
      2.827  0.2524E-01  0.1137E+01
      2.881  0.1359E-01  0.1138E+01
      2.934  0.1059E-01  0.1139E+01
      2.988  0.1171E-01  0.1139E+01
      3.042  0.1076E-01  0.1140E+01
      3.095  0.1060E-01  0.1140E+01
      3.149  0.1627E-01  0.1141E+01
      3.203  0.2423E-01  0.1143E+01
      3.256  0.2725E-01  0.1144E+01
      3.310  0.2422E-01  0.1145E+01
      3.364  0.1997E-01  0.1146E+01
      3.417  0.1895E-01  0.1147E+01
      3.471  0.2040E-01  0.1148E+01
      3.525  0.2180E-01  0.1150E+01
      3.578  0.2533E-01  0.1151E+01
      3.632  0.3216E-01  0.1153E+01
      3.686  0.3709E-01  0.1155E+01
      3.739  0.3763E-01  0.1157E+01
      3.793  0.3587E-01  0.1159E+01
      3.847  0.3053E-01  0.1160E+01
      3.900  0.2298E-01  0.1162E+01
      3.954  0.2140E-01  0.1163E+01
      4.008  0.2798E-01  0.1164E+01
      4.061  0.3249E-01  0.1166E+01
      4.115  0.2854E-01  0.1167E+01
      4.169  0.2400E-01  0.1169E+01
      4.222  0.2363E-01  0.1170E+01
      4.276  0.2130E-01  0.1171E+01
      4.330  0.1656E-01  0.1172E+01
      4.383  0.1727E-01  0.1173E+01
      4.437  0.2447E-01  0.1174E+01
      4.491  0.3248E-01  0.1176E+01
      4.544  0.3969E-01  0.1178E+01
      4.598  0.4650E-01  0.1181E+01
      4.652  0.5022E-01  0.1183E+01
      4.705  0.4905E-01  0.1186E+01
      4.759  0.4554E-01  0.1188E+01
      4.813  0.4491E-01  0.1191E+01
      4.866  0.4930E-01  0.1193E+01
      4.920  0.5569E-01  0.1196E+01
      4.974  0.6304E-01  0.1200E+01
      5.027  0.7138E-01  0.1204E+01
      5.081  0.7481E-01  0.1208E+01
      5.135  0.6901E-01  0.1211E+01
      5.188  0.6046E-01  0.1215E+01
      5.242  0.5568E-01  0.1218E+01
      5.296  0.4952E-01  0.1220E+01
      5.349  0.3647E-01  0.1222E+01
      5.403  0.2071E-01  0.1223E+01
      5.457  0.8707E-02  0.1224E+01
      5.510  0.2550E-02  0.1224E+01
      5.564  0.4858E-03  0.1224E+01
      5.618  0.5716E-04  0.1224E+01
      5.671  0.4022E-05  0.1224E+01
      5.725  0.1661E-06  0.1224E+01
      5.779  0.3982E-08  0.1224E+01
      5.832  0.5501E-10  0.1224E+01
      5.886  0.4360E-12  0.1224E+01
      5.940  0.1975E-14  0.1224E+01
      5.993  0.4138E-17  0.1224E+01
      6.047  0.0000E+00  0.1224E+01
      6.101  0.0000E+00  0.1224E+01
      6.154  0.0000E+00  0.1224E+01
      6.208  0.0000E+00  0.1224E+01
      6.262  0.0000E+00  0.1224E+01
      6.315  0.0000E+00  0.1224E+01
      6.369  0.0000E+00  0.1224E+01
