unknown system                          
           1
    11.002582    0.000000    0.000000
     5.501291    9.528515    0.000000
     0.000000    0.000000   24.491785
   Au   Pd
  24  24
Direct configuration=     1
   0.08333333  0.08333333  0.40830017
   0.83333333  0.83333333  0.40830017
   0.75000000  0.25000000  0.59169983
   0.66666667  0.41666667  0.50000000
   0.66666667  0.16666667  0.50000000
   0.50000000  0.75000000  0.59169983
   0.41666667  0.66666667  0.50000000
   0.58333333  0.58333333  0.40830017
   0.50000000  0.25000000  0.59169983
   0.41666667  0.41666667  0.50000000
   0.50000000  0.00000000  0.59169983
   0.58333333  0.08333333  0.40830017
   0.66666667  0.91666667  0.50000000
   0.16666667  0.91666667  0.50000000
   0.33333333  0.58333333  0.40830017
   0.75000000  0.75000000  0.59169983
   0.08333333  0.58333333  0.40830017
   0.33333333  0.33333333  0.40830017
   0.91666667  0.66666667  0.50000000
   0.00000000  0.50000000  0.59169983
   0.33333333  0.08333333  0.40830017
   0.00000000  0.75000000  0.59169983
   0.25000000  0.00000000  0.59169983
   0.91666667  0.16666667  0.50000000
   0.00000000  0.00000000  0.59169983
   0.66666667  0.66666667  0.50000000
   0.83333333  0.08333333  0.40830017
   0.08333333  0.33333333  0.40830017
   0.83333333  0.33333333  0.40830017
   0.75000000  0.00000000  0.59169983
   0.91666667  0.41666667  0.50000000
   0.75000000  0.50000000  0.59169983
   0.83333333  0.58333333  0.40830017
   0.00000000  0.25000000  0.59169983
   0.16666667  0.41666667  0.50000000
   0.58333333  0.83333333  0.40830017
   0.50000000  0.50000000  0.59169983
   0.08333333  0.83333333  0.40830017
   0.58333333  0.33333333  0.40830017
   0.91666667  0.91666667  0.50000000
   0.41666667  0.16666667  0.50000000
   0.16666667  0.16666667  0.50000000
   0.33333333  0.83333333  0.40830017
   0.25000000  0.50000000  0.59169983
   0.16666667  0.66666667  0.50000000
   0.25000000  0.25000000  0.59169983
   0.41666667  0.91666667  0.50000000
   0.25000000  0.75000000  0.59169983
Direct configuration=     2
   0.08298196  0.08355389  0.40627076
   0.83367944  0.83362526  0.40612620
   0.75087096  0.24992270  0.59420458
   0.66777070  0.41750636  0.49996514
   0.66752758  0.16543202  0.49962839
   0.50030696  0.74878512  0.59360437
   0.41588447  0.66796498  0.50038667
   0.58433185  0.58366543  0.40616896
   0.49892278  0.25045073  0.59387663
   0.41511700  0.41704197  0.50046480
   0.49929906  0.00106223  0.59358757
   0.58351120  0.08351799  0.40612182
   0.66587457  0.91656248  0.49993527
   0.16650032  0.91571140  0.50001762
   0.33279050  0.58434953  0.40605318
   0.74978688  0.74963309  0.59390271
   0.08312908  0.58313215  0.40640777
   0.33299456  0.33306929  0.40641872
   0.91723811  0.66527975  0.49957076
   0.00103248  0.49786003  0.59348383
   0.33327625  0.08266521  0.40679868
   0.00098778  0.75100600  0.59351203
   0.24871173  0.00108996  0.59349999
   0.91754306  0.16666891  0.49997104
   0.00005486 -0.00029035  0.59287899
   0.66714994  0.66631541  0.49971368
   0.83341630  0.08352546  0.40707313
   0.08210000  0.33407444  0.40762805
   0.83351539  0.33364099  0.40714388
   0.75066458 -0.00004607  0.59301294
   0.91712921  0.41638865  0.49976760
   0.75009923  0.49967569  0.59270646
   0.83340235  0.58236742  0.40738067
   0.00016892  0.25028484  0.59260756
   0.16679088  0.41557739  0.50026766
   0.58318993  0.83265356  0.40728839
   0.49944630  0.50059681  0.59313400
   0.08317061  0.83359327  0.40730715
   0.58444229  0.33277784  0.40680445
   0.91743965  0.91675235  0.49998498
   0.41485080  0.16702977  0.50021533
   0.16681251  0.16826751  0.50024522
   0.33353350  0.83346336  0.40707877
   0.25024243  0.50007313  0.59263627
   0.16631335  0.66691805  0.50032136
   0.24948869  0.25047484  0.59240270
   0.41676470  0.91691473  0.49955910
   0.24974428  0.74941446  0.59286420
Direct configuration=     3
   0.08192783  0.08421555  0.40018253
   0.83471776  0.83450105  0.39960429
   0.75348384  0.24969081  0.60171885
   0.67108280  0.42002546  0.49986055
   0.67011031  0.16172810  0.49851357
   0.50122785  0.74514047  0.59931797
   0.41353790  0.67185991  0.50154668
   0.58732741  0.58466171  0.39977535
   0.49569112  0.25180290  0.60040704
   0.41046801  0.41816786  0.50185921
   0.49719623  0.00424893  0.59925078
   0.58404481  0.08407196  0.39958676
   0.66349827  0.91624991  0.49974110
   0.16600129  0.91284560  0.50007049
   0.33116199  0.58739811  0.39931222
   0.74914751  0.74853236  0.60051136
   0.08251634  0.58252859  0.40073056
   0.33197824  0.33227715  0.40077436
   0.91895245  0.66111900  0.49828303
   0.00412990  0.49144013  0.59883584
   0.33310500  0.08066082  0.40229423
   0.00395112  0.75402400  0.59894865
   0.24484691  0.00435984  0.59890047
   0.92017224  0.16667566  0.49988414
   0.00021943 -0.00116141  0.59641646
   0.66859975  0.66526162  0.49885471
   0.83366522  0.08410183  0.40339202
   0.07839998  0.33629777  0.40561168
   0.83406154  0.33456396  0.40367501
   0.75265831 -0.00018429  0.59695226
   0.91851684  0.41555460  0.49907039
   0.75039693  0.49870277  0.59572633
   0.83360941  0.57946967  0.40462216
   0.00067568  0.25113935  0.59533074
   0.16716353  0.41230956  0.50107064
   0.58275974  0.83061422  0.40425304
   0.49778520  0.50238722  0.59743651
   0.08268246  0.83437310  0.40432808
   0.58776917  0.33111134  0.40231729
   0.91975860  0.91700942  0.49993993
   0.40940319  0.16811907  0.50086131
   0.16725005  0.17307005  0.50098087
   0.33413400  0.83385344  0.40341457
   0.25096972  0.50029251  0.59544557
   0.16525340  0.66767219  0.50128545
   0.24795478  0.25189938  0.59451129
   0.41705878  0.91765894  0.49823638
   0.24897713  0.74765783  0.59635729
Direct configuration=     4
   0.08185225  0.08426300  0.39974597
   0.83479222  0.83456385  0.39913663
   0.75367120  0.24967418  0.60225766
   0.67132030  0.42020609  0.49985305
   0.67029551  0.16146250  0.49843363
   0.50129389  0.74487913  0.59972767
   0.41336964  0.67213920  0.50162986
   0.58754221  0.58473315  0.39931689
   0.49545940  0.25189986  0.60087531
   0.41013465  0.41824860  0.50195920
   0.49704544  0.00447743  0.59965687
   0.58408307  0.08411168  0.39911816
   0.66332788  0.91622750  0.49972717
   0.16596551  0.91264011  0.50007428
   0.33104521  0.58761671  0.39882886
   0.74910166  0.74845343  0.60098524
   0.08247240  0.58248531  0.40032348
   0.33190537  0.33222035  0.40036963
   0.91907537  0.66082065  0.49819069
   0.00435200  0.49097978  0.59921961
   0.33309272  0.08051710  0.40197123
   0.00416361  0.75424041  0.59933848
   0.24456978  0.00459431  0.59928771
   0.92036077  0.16667614  0.49987791
   0.00023123 -0.00122387  0.59667011
   0.66870371  0.66518606  0.49879312
   0.83368307  0.08414316  0.40312806
   0.07813467  0.33645720  0.40546710
   0.83410071  0.33463014  0.40342627
   0.75280127 -0.00019420  0.59723473
   0.91861634  0.41549480  0.49902040
   0.75041828  0.49863300  0.59594288
   0.83362426  0.57926189  0.40442436
   0.00071202  0.25120062  0.59552601
   0.16719025  0.41207523  0.50112822
   0.58272889  0.83046799  0.40403539
   0.49766609  0.50251560  0.59774502
   0.08264745  0.83442902  0.40411446
   0.58800773  0.33099185  0.40199553
   0.91992488  0.91702785  0.49993670
   0.40901256  0.16819718  0.50090763
   0.16728143  0.17341442  0.50103362
   0.33417706  0.83388141  0.40315182
   0.25102188  0.50030824  0.59564702
   0.16517740  0.66772627  0.50135458
   0.24784479  0.25200152  0.59466249
   0.41707987  0.91771230  0.49814154
   0.24892212  0.74753187  0.59660777
Direct configuration=     5
   0.08202687  0.08413173  0.39854796
   0.83407888  0.83426885  0.39784610
   0.75242203  0.24984982  0.60364367
   0.66847170  0.41903800  0.49988768
   0.66785557  0.16418491  0.49891242
   0.50014518  0.74721980  0.60095139
   0.41587015  0.66940641  0.50113419
   0.58564098  0.58390591  0.39790288
   0.49760272  0.25197434  0.60215064
   0.41341579  0.41716336  0.50119259
   0.49752636  0.00265910  0.60082846
   0.58371728  0.08358090  0.39775013
   0.66488772  0.91549067  0.49991950
   0.16622030  0.91602219  0.50001187
   0.33271130  0.58642610  0.39773373
   0.75085945  0.74821957  0.60207774
   0.08283443  0.58261180  0.39907750
   0.33234313  0.33266753  0.39933555
   0.91899441  0.66285597  0.49876404
   0.00265813  0.49471438  0.60050799
   0.33269057  0.08134693  0.40079281
   0.00208379  0.75226476  0.60044838
   0.24569503  0.00291919  0.60021480
   0.92062146  0.16656898  0.49994446
   0.00025733  0.00020829  0.59751082
   0.66787057  0.66656903  0.49927021
   0.83419143  0.08442246  0.40222193
   0.07898181  0.33553146  0.40476045
   0.83394676  0.33379480  0.40243470
   0.75157245  0.00038397  0.59771727
   0.91895778  0.41569166  0.49943777
   0.75066166  0.49840952  0.59665896
   0.83400438  0.58052674  0.40330087
  -0.00013784  0.25025830  0.59631516
   0.16596183  0.41488670  0.50058153
   0.58391468  0.83127747  0.40312455
   0.49877443  0.50051996  0.59846585
   0.08269659  0.83461292  0.40332886
   0.58688570  0.33270742  0.40172826
   0.91827395  0.91526616  0.49982296
   0.41206203  0.16725496  0.50051825
   0.16724270  0.16999622  0.50058719
   0.33387297  0.83331339  0.40229673
   0.24981189  0.50092909  0.59682000
   0.16428984  0.66600239  0.50079885
   0.24882920  0.25131990  0.59595270
   0.41560950  0.91835450  0.49894908
   0.25009510  0.74827150  0.59782056
Direct configuration=     6
   0.08209272  0.08408223  0.39809623
   0.83380990  0.83415761  0.39735948
   0.75195101  0.24991604  0.60416629
   0.66739759  0.41859755  0.49990074
   0.66693555  0.16521143  0.49909296
   0.49971204  0.74810239  0.60141282
   0.41681301  0.66837596  0.50094730
   0.58492408  0.58359399  0.39736971
   0.49841090  0.25200242  0.60263152
   0.41465300  0.41675415  0.50090352
   0.49770770  0.00197347  0.60127022
   0.58357935  0.08338077  0.39723430
   0.66547588  0.91521284  0.49999202
   0.16631638  0.91729746  0.49998833
   0.33333953  0.58597716  0.39732079
   0.75152225  0.74813139  0.60248969
   0.08297095  0.58265949  0.39860768
   0.33250820  0.33283615  0.39894563
   0.91896389  0.66362342  0.49898023
   0.00201943  0.49612257  0.60099380
   0.33253893  0.08165983  0.40034847
   0.00129955  0.75151981  0.60086689
   0.24611933  0.00228756  0.60056438
   0.92071976  0.16652857  0.49996956
   0.00026718  0.00074830  0.59782782
   0.66755643  0.66709051  0.49945010
   0.83438312  0.08452777  0.40188026
   0.07930124  0.33518239  0.40449399
   0.83388871  0.33347983  0.40206081
   0.75110910  0.00060198  0.59789922
   0.91908653  0.41576589  0.49959515
   0.75075343  0.49832525  0.59692897
   0.83414771  0.58100368  0.40287724
  -0.00045829  0.24990297  0.59661272
   0.16549863  0.41594681  0.50037540
   0.58436180  0.83158270  0.40278110
   0.49919235  0.49976747  0.59873765
   0.08271512  0.83468226  0.40303264
   0.58646262  0.33335430  0.40162748
   0.91765144  0.91460188  0.49978007
   0.41321189  0.16689968  0.50037143
   0.16722810  0.16870733  0.50041886
   0.33375831  0.83309921  0.40197430
   0.24935565  0.50116320  0.59726229
   0.16395517  0.66535238  0.50058930
   0.24920038  0.25106289  0.59643920
   0.41505507  0.91859665  0.49925357
   0.25053739  0.74855039  0.59827787
Direct configuration=     7
   0.08229786  0.08385126  0.39760233
   0.83372275  0.83419343  0.39689191
   0.75157912  0.24983728  0.60466217
   0.66809974  0.41787385  0.49995430
   0.66714608  0.16514162  0.49930481
   0.50009247  0.74818962  0.60175185
   0.41616906  0.66845274  0.50074135
   0.58503901  0.58377417  0.39697270
   0.49872401  0.25159807  0.60300463
   0.41429859  0.41673664  0.50062514
   0.49841017  0.00146811  0.60156551
   0.58377391  0.08352226  0.39685471
   0.66550417  0.91559134  0.50007580
   0.16668826  0.91612935  0.49997383
   0.33330289  0.58547436  0.39699010
   0.75113780  0.74848326  0.60287093
   0.08325863  0.58294372  0.39813445
   0.33286131  0.33306824  0.39871344
   0.91789035  0.66441399  0.49913444
   0.00184914  0.49633955  0.60142641
   0.33262764  0.08183617  0.40003531
   0.00112165  0.75176891  0.60115411
   0.24659886  0.00192074  0.60095961
   0.91866196  0.16689741  0.49993929
  -0.00000701  0.00026909  0.59789421
   0.66740732  0.66690802  0.49966869
   0.83392043  0.08460330  0.40183842
   0.07991663  0.33475805  0.40432908
   0.83349602  0.33370629  0.40193076
   0.75053617  0.00082054  0.59785532
   0.91832668  0.41645127  0.49987101
   0.75033072  0.49863330  0.59695348
   0.83377596  0.58150520  0.40268600
  -0.00044798  0.25016874  0.59686215
   0.16627312  0.41556270  0.50018570
   0.58447471  0.83167629  0.40270298
   0.49940733  0.49984768  0.59882368
   0.08293022  0.83442317  0.40298634
   0.58593773  0.33329810  0.40168144
   0.91724968  0.91478179  0.49975657
   0.41402420  0.16688559  0.50022283
   0.16808496  0.16820643  0.50025326
   0.33383182  0.83306437  0.40187145
   0.24966432  0.50097299  0.59742008
   0.16513342  0.66555344  0.50033737
   0.24932083  0.25112411  0.59655428
   0.41530418  0.91858033  0.49968442
   0.25025311  0.74869315  0.59829135
Direct configuration=     8
   0.08238558  0.08375249  0.39739112
   0.83368548  0.83420875  0.39669196
   0.75142009  0.24980360  0.60487423
   0.66840001  0.41756436  0.49997721
   0.66723611  0.16511176  0.49939541
   0.50025515  0.74822692  0.60189683
   0.41589368  0.66848557  0.50065328
   0.58508816  0.58385121  0.39680292
   0.49885791  0.25142515  0.60316418
   0.41414702  0.41672915  0.50050609
   0.49871058  0.00125200  0.60169179
   0.58385711  0.08358277  0.39669239
   0.66551627  0.91575320  0.50011163
   0.16684729  0.91562982  0.49996763
   0.33328722  0.58525934  0.39684868
   0.75097339  0.74863374  0.60303397
   0.08338165  0.58306526  0.39793207
   0.33301232  0.33316749  0.39861415
   0.91743126  0.66475207  0.49920039
   0.00177632  0.49643234  0.60161140
   0.33266558  0.08191157  0.39990139
   0.00104558  0.75187543  0.60127693
   0.24680393  0.00176387  0.60112863
   0.91778196  0.16705514  0.49992635
  -0.00012426  0.00006416  0.59792260
   0.66734355  0.66682998  0.49976217
   0.83372257  0.08463559  0.40182052
   0.08017979  0.33457658  0.40425855
   0.83332809  0.33380314  0.40187514
   0.75029116  0.00091401  0.59783655
   0.91800174  0.41674436  0.49998898
   0.75014995  0.49876503  0.59696396
   0.83361699  0.58171967  0.40260422
  -0.00044357  0.25028238  0.59696882
   0.16660433  0.41539843  0.50010458
   0.58452299  0.83171631  0.40266957
   0.49949927  0.49988199  0.59886047
   0.08302221  0.83431237  0.40296654
   0.58571326  0.33327407  0.40170451
   0.91707787  0.91485872  0.49974653
   0.41437158  0.16687957  0.50015929
   0.16845138  0.16799222  0.50018245
   0.33386326  0.83304947  0.40182747
   0.24979632  0.50089166  0.59748755
   0.16563729  0.66563942  0.50022963
   0.24937234  0.25115030  0.59660350
   0.41541070  0.91857335  0.49986867
   0.25013155  0.74875420  0.59829711
Direct configuration=     9
   0.08223991  0.08365324  0.39713327
   0.83385888  0.83424632  0.39634042
   0.75157398  0.24974386  0.60533545
   0.66820132  0.41803443  0.50001402
   0.66701329  0.16490719  0.49953520
   0.50039406  0.74785957  0.60210860
   0.41627836  0.66819581  0.50052226
   0.58524177  0.58403433  0.39659840
   0.49853022  0.25138123  0.60341027
   0.41397886  0.41673835  0.50046737
   0.49876293  0.00151604  0.60188002
   0.58403662  0.08363456  0.39643081
   0.66510352  0.91605943  0.50006308
   0.16610865  0.91588716  0.49998096
   0.33334822  0.58527585  0.39649968
   0.75081575  0.74870239  0.60340246
   0.08308927  0.58320552  0.39767757
   0.33309983  0.33307738  0.39839870
   0.91764421  0.66464029  0.49923339
   0.00196778  0.49622488  0.60185302
   0.33305792  0.08174953  0.39975985
   0.00122373  0.75200191  0.60136057
   0.24667881  0.00195475  0.60138381
   0.91812559  0.16658657  0.49995346
  -0.00031447 -0.00008424  0.59781468
   0.66687405  0.66672928  0.49987115
   0.83350634  0.08460142  0.40185636
   0.08020513  0.33472259  0.40427767
   0.83328414  0.33399959  0.40188391
   0.75018816  0.00090648  0.59780753
   0.91815683  0.41679318  0.50015548
   0.74987832  0.49888732  0.59697655
   0.83372014  0.58171091  0.40261880
  -0.00027194  0.25026776  0.59696615
   0.16651523  0.41534549  0.50000277
   0.58431569  0.83186336  0.40282467
   0.49938163  0.50025064  0.59875273
   0.08302469  0.83427797  0.40297906
   0.58559874  0.33315968  0.40180849
   0.91736473  0.91481480  0.49969663
   0.41470314  0.16677643  0.50007790
   0.16828817  0.16797234  0.50011147
   0.33408024  0.83307572  0.40185155
   0.25019279  0.50071583  0.59741327
   0.16567140  0.66574490  0.50008719
   0.24944389  0.25113704  0.59645628
   0.41586604  0.91837423  0.50016779
   0.24995344  0.74864674  0.59819929
Direct configuration=    10
   0.08214371  0.08358770  0.39696298
   0.83397339  0.83427112  0.39610825
   0.75167560  0.24970441  0.60564005
   0.66807010  0.41834487  0.50003834
   0.66686614  0.16477208  0.49962753
   0.50048579  0.74761696  0.60224845
   0.41653241  0.66800445  0.50043574
   0.58534322  0.58415526  0.39646333
   0.49831381  0.25135222  0.60357279
   0.41386780  0.41674442  0.50044180
   0.49879750  0.00169042  0.60200433
   0.58415517  0.08366876  0.39625807
   0.66483094  0.91626167  0.50003102
   0.16562084  0.91605711  0.49998976
   0.33338851  0.58528676  0.39626920
   0.75071164  0.74874773  0.60364582
   0.08289618  0.58329815  0.39750949
   0.33315762  0.33301787  0.39825642
   0.91778484  0.66456647  0.49925519
   0.00209423  0.49608788  0.60201259
   0.33331703  0.08164252  0.39966637
   0.00134138  0.75208544  0.60141581
   0.24659619  0.00208082  0.60155233
   0.91835252  0.16627712  0.49997136
  -0.00044008 -0.00018225  0.59774340
   0.66656399  0.66666277  0.49994313
   0.83336354  0.08457884  0.40188002
   0.08022186  0.33481901  0.40429029
   0.83325511  0.33412932  0.40188970
   0.75012013  0.00090150  0.59778837
   0.91825926  0.41682541  0.50026544
   0.74969894  0.49896808  0.59698486
   0.83378827  0.58170513  0.40262843
  -0.00015860  0.25025810  0.59696438
   0.16645639  0.41531052  0.49993553
   0.58417878  0.83196047  0.40292710
   0.49930395  0.50049410  0.59868157
   0.08302633  0.83425525  0.40298733
   0.58552311  0.33308414  0.40187716
   0.91755418  0.91478579  0.49966368
   0.41492211  0.16670831  0.50002415
   0.16818038  0.16795920  0.50006459
   0.33422353  0.83309306  0.40186745
   0.25045462  0.50059971  0.59736422
   0.16569393  0.66581455  0.49999313
   0.24949115  0.25112828  0.59635905
   0.41616675  0.91824272  0.50036534
   0.24983582  0.74857577  0.59813469
Direct configuration=    11
   0.08203261  0.08365026  0.39669627
   0.83401585  0.83430945  0.39568482
   0.75177841  0.24977306  0.60619970
   0.66823717  0.41808091  0.50005005
   0.66683851  0.16492465  0.49981039
   0.50015564  0.74767396  0.60251425
   0.41632346  0.66829160  0.50025767
   0.58547957  0.58418645  0.39621871
   0.49814983  0.25164580  0.60385113
   0.41379572  0.41671680  0.50042663
   0.49856692  0.00185608  0.60224404
   0.58437169  0.08354830  0.39592713
   0.66507382  0.91577990  0.49994743
   0.16585523  0.91618574  0.49999402
   0.33347313  0.58545795  0.39580508
   0.75084613  0.74866251  0.60407509
   0.08269263  0.58330502  0.39722737
   0.33298072  0.33301751  0.39800753
   0.91786204  0.66458806  0.49930490
   0.00231334  0.49602183  0.60224831
   0.33347045  0.08149113  0.39960783
   0.00142393  0.75184508  0.60143673
   0.24645482  0.00215180  0.60178883
   0.91843997  0.16651978  0.49999013
  -0.00054782 -0.00003168  0.59764097
   0.66651151  0.66683370  0.50006055
   0.83327536  0.08467941  0.40197170
   0.08016352  0.33487632  0.40436343
   0.83334120  0.33420514  0.40202977
   0.75016709  0.00082441  0.59776501
   0.91852054  0.41663191  0.50043793
   0.74977820  0.49885164  0.59705459
   0.83393206  0.58171378  0.40278509
  -0.00009269  0.25014500  0.59689557
   0.16624431  0.41534101  0.49981893
   0.58420882  0.83207487  0.40321203
   0.49922774  0.50045977  0.59850934
   0.08309889  0.83425372  0.40295486
   0.58556607  0.33317644  0.40206781
   0.91742597  0.91452707  0.49955918
   0.41463765  0.16677821  0.49990621
   0.16809541  0.16779769  0.49995106
   0.33429502  0.83323299  0.40201700
   0.25065495  0.50052412  0.59716457
   0.16552890  0.66566028  0.49980091
   0.24950490  0.25108044  0.59605461
   0.41595530  0.91813874  0.50074306
   0.24987549  0.74854140  0.59792177
Direct configuration=    12
   0.08191376  0.08371719  0.39641094
   0.83406127  0.83435046  0.39523183
   0.75188839  0.24984650  0.60679839
   0.66841589  0.41779854  0.50006257
   0.66680896  0.16508786  0.50000601
   0.49980246  0.74773494  0.60279860
   0.41609994  0.66859878  0.50006717
   0.58562542  0.58421982  0.39595702
   0.49797442  0.25195985  0.60414889
   0.41371861  0.41668726  0.50041041
   0.49832025  0.00203331  0.60250048
   0.58460332  0.08341943  0.39557311
   0.66533366  0.91526451  0.49985801
   0.16610598  0.91632333  0.49999859
   0.33356365  0.58564109  0.39530859
   0.75099000  0.74857135  0.60453431
   0.08247487  0.58331236  0.39692558
   0.33279148  0.33301714  0.39774129
   0.91794463  0.66461115  0.49935808
   0.00254774  0.49595118  0.60250048
   0.33363457  0.08132918  0.39954521
   0.00151225  0.75158794  0.60145911
   0.24630360  0.00222774  0.60204184
   0.91853353  0.16677938  0.50001020
  -0.00066307  0.00012940  0.59753139
   0.66645537  0.66701656  0.50018616
   0.83318103  0.08478698  0.40206977
   0.08010111  0.33493764  0.40444167
   0.83343328  0.33428624  0.40217962
   0.75021733  0.00074193  0.59774003
   0.91880006  0.41642491  0.50062246
   0.74986298  0.49872707  0.59712918
   0.83408588  0.58172304  0.40295269
  -0.00002218  0.25002402  0.59682196
   0.16601745  0.41537363  0.49969419
   0.58424094  0.83219726  0.40351684
   0.49914622  0.50042303  0.59832510
   0.08317651  0.83425208  0.40292012
   0.58561202  0.33327517  0.40227176
   0.91728883  0.91425029  0.49944738
   0.41433335  0.16685298  0.49978004
   0.16800452  0.16762490  0.49982961
   0.33437150  0.83338268  0.40217698
   0.25086925  0.50044326  0.59695099
   0.16535237  0.66549524  0.49959528
   0.24951961  0.25102925  0.59572892
   0.41572909  0.91802751  0.50114713
   0.24991792  0.74850463  0.59769400
Direct configuration=    13
   0.08201356  0.08385954  0.39628961
   0.83404023  0.83432602  0.39485643
   0.75173286  0.24987459  0.60718255
   0.66836930  0.41789767  0.50013644
   0.66694097  0.16487598  0.50018588
   0.49984068  0.74790846  0.60298468
   0.41602460  0.66829598  0.49991070
   0.58567640  0.58416748  0.39585358
   0.49845426  0.25182552  0.60428707
   0.41371760  0.41673689  0.50025337
   0.49844671  0.00183091  0.60261720
   0.58446424  0.08358914  0.39544077
   0.66535296  0.91546110  0.49994146
   0.16608188  0.91632232  0.49994598
   0.33352065  0.58557894  0.39497669
   0.75085607  0.74851891  0.60477703
   0.08284527  0.58328445  0.39672384
   0.33282694  0.33318210  0.39762323
   0.91775159  0.66443703  0.49941934
   0.00258136  0.49594176  0.60258575
   0.33338034  0.08142295  0.39964099
   0.00148127  0.75144673  0.60136098
   0.24610608  0.00219656  0.60220218
   0.91830951  0.16676167  0.50000495
  -0.00067616  0.00018109  0.59744153
   0.66689256  0.66669914  0.50041760
   0.83336639  0.08491259  0.40220929
   0.08009090  0.33471150  0.40447688
   0.83350670  0.33427281  0.40232144
   0.75014289  0.00078025  0.59772125
   0.91855604  0.41665200  0.50074783
   0.75004963  0.49873316  0.59721892
   0.83394731  0.58188061  0.40322612
  -0.00011761  0.25003050  0.59683303
   0.16601628  0.41546847  0.49957269
   0.58454385  0.83206492  0.40373999
   0.49943031  0.50011369  0.59819457
   0.08320874  0.83427779  0.40287364
   0.58549615  0.33350475  0.40242356
   0.91713872  0.91443033  0.49933936
   0.41438804  0.16654129  0.49963352
   0.16827445  0.16739725  0.49968667
   0.33429768  0.83347516  0.40227537
   0.25048533  0.50060727  0.59672921
   0.16535738  0.66541595  0.49936201
   0.24949268  0.25102873  0.59545275
   0.41545473  0.91842024  0.50144903
   0.24984168  0.74865778  0.59745303
Direct configuration=    14
   0.08204544  0.08390502  0.39625085
   0.83403351  0.83431821  0.39473652
   0.75168318  0.24988357  0.60730526
   0.66835441  0.41792933  0.50016004
   0.66698314  0.16480830  0.50024334
   0.49985290  0.74796389  0.60304412
   0.41600053  0.66819926  0.49986072
   0.58569268  0.58415076  0.39582053
   0.49860754  0.25178261  0.60433121
   0.41371728  0.41675275  0.50020321
   0.49848711  0.00176625  0.60265449
   0.58441981  0.08364335  0.39539849
   0.66535913  0.91552390  0.49996812
   0.16607418  0.91632200  0.49992917
   0.33350692  0.58555908  0.39487066
   0.75081329  0.74850216  0.60485456
   0.08296359  0.58327554  0.39665940
   0.33283827  0.33323479  0.39758552
   0.91768993  0.66438141  0.49943891
   0.00259209  0.49593875  0.60261299
   0.33329913  0.08145290  0.39967159
   0.00147138  0.75140162  0.60132963
   0.24604298  0.00218660  0.60225340
   0.91823794  0.16675601  0.50000328
  -0.00068034  0.00019760  0.59741283
   0.66703222  0.66659775  0.50049153
   0.83342559  0.08495271  0.40225385
   0.08008764  0.33463926  0.40448813
   0.83353015  0.33426853  0.40236674
   0.75011911  0.00079249  0.59771525
   0.91847810  0.41672454  0.50078788
   0.75010926  0.49873511  0.59724758
   0.83390305  0.58193095  0.40331347
  -0.00014809  0.25003256  0.59683657
   0.16601591  0.41549876  0.49953388
   0.58464061  0.83202265  0.40381128
   0.49952105  0.50001488  0.59815288
   0.08321904  0.83428601  0.40285879
   0.58545913  0.33357809  0.40247205
   0.91709077  0.91448785  0.49930485
   0.41440551  0.16644172  0.49958671
   0.16836067  0.16732453  0.49964100
   0.33427410  0.83350471  0.40230680
   0.25036269  0.50065966  0.59665836
   0.16535899  0.66539062  0.49928750
   0.24948408  0.25102856  0.59536453
   0.41536709  0.91854570  0.50154547
   0.24981732  0.74870670  0.59737605
Direct configuration=    15
   0.08210194  0.08386237  0.39622982
   0.83403400  0.83430511  0.39447551
   0.75175565  0.24983562  0.60754813
   0.66826780  0.41801161  0.50028148
   0.66678982  0.16486655  0.50035849
   0.49991880  0.74782590  0.60312889
   0.41625531  0.66807506  0.49976763
   0.58557611  0.58422365  0.39584777
   0.49864092  0.25161757  0.60431438
   0.41384835  0.41640813  0.50003257
   0.49852818  0.00181405  0.60269792
   0.58431085  0.08381700  0.39543666
   0.66532801  0.91568431  0.50010303
   0.16585811  0.91628785  0.49983771
   0.33357250  0.58560284  0.39462289
   0.75079214  0.74850565  0.60497526
   0.08302846  0.58330719  0.39653890
   0.33295972  0.33320137  0.39753940
   0.91763303  0.66453944  0.49947381
   0.00250567  0.49588993  0.60261587
   0.33333766  0.08148229  0.39979696
   0.00125641  0.75159327  0.60113178
   0.24592084  0.00224353  0.60234517
   0.91816282  0.16675240  0.50006023
  -0.00080016  0.00014838  0.59735099
   0.66689938  0.66658296  0.50078299
   0.83348966  0.08496220  0.40235166
   0.08002737  0.33476357  0.40449318
   0.83352270  0.33431728  0.40248468
   0.75020949  0.00064854  0.59776656
   0.91843290  0.41658531  0.50089002
   0.75019452  0.49872146  0.59740568
   0.83395212  0.58196252  0.40357326
  -0.00029902  0.25009338  0.59684284
   0.16610018  0.41552283  0.49937260
   0.58469631  0.83201859  0.40403409
   0.49963801  0.50006630  0.59806813
   0.08316710  0.83441719  0.40277714
   0.58548434  0.33358630  0.40256982
   0.91716425  0.91442065  0.49919652
   0.41465836  0.16645681  0.49946048
   0.16820012  0.16738272  0.49956045
   0.33434246  0.83340319  0.40236050
   0.25023450  0.50064860  0.59642594
   0.16520208  0.66552319  0.49904156
   0.24969884  0.25088667  0.59516066
   0.41554362  0.91841860  0.50172750
   0.24985777  0.74871006  0.59714254
Direct configuration=    16
   0.08212986  0.08384129  0.39621942
   0.83403423  0.83429864  0.39434654
   0.75179146  0.24981192  0.60766813
   0.66822500  0.41805226  0.50034148
   0.66669430  0.16489533  0.50041538
   0.49995136  0.74775771  0.60317077
   0.41638121  0.66801370  0.49972163
   0.58551851  0.58425967  0.39586122
   0.49865742  0.25153602  0.60430606
   0.41391311  0.41623785  0.49994825
   0.49854848  0.00183767  0.60271939
   0.58425701  0.08390280  0.39545552
   0.66531264  0.91576358  0.50016970
   0.16575135  0.91627098  0.49979251
   0.33360490  0.58562446  0.39450045
   0.75078169  0.74850737  0.60503490
   0.08306052  0.58332283  0.39647936
   0.33301973  0.33318485  0.39751661
   0.91760491  0.66461753  0.49949105
   0.00246297  0.49586581  0.60261730
   0.33335669  0.08149681  0.39985890
   0.00115019  0.75168796  0.60103403
   0.24586048  0.00227166  0.60239051
   0.91812570  0.16675062  0.50008838
  -0.00085936  0.00012406  0.59732043
   0.66683374  0.66657565  0.50092700
   0.83352131  0.08496689  0.40239999
   0.07999758  0.33482500  0.40449567
   0.83351902  0.33434137  0.40254296
   0.75025414  0.00057741  0.59779191
   0.91841057  0.41651651  0.50094049
   0.75023665  0.49871471  0.59748379
   0.83397636  0.58197812  0.40370163
  -0.00037359  0.25012343  0.59684593
   0.16614182  0.41553473  0.49929291
   0.58472383  0.83201659  0.40414419
   0.49969580  0.50009171  0.59802626
   0.08314144  0.83448201  0.40273680
   0.58549679  0.33359036  0.40261813
   0.91720056  0.91438744  0.49914299
   0.41478330  0.16646426  0.49939811
   0.16812080  0.16741147  0.49952064
   0.33437624  0.83335304  0.40238703
   0.25017116  0.50064314  0.59631109
   0.16512456  0.66558869  0.49892003
   0.24980495  0.25081656  0.59505993
   0.41563085  0.91835579  0.50181744
   0.24987776  0.74871173  0.59702716
Direct configuration=    17
   0.08214350  0.08380708  0.39625780
   0.83392943  0.83437670  0.39420220
   0.75184791  0.24972517  0.60783172
   0.66835201  0.41780915  0.50050154