  48  48   0   0
  0.5349325E+02  0.1100258E-08  0.1100258E-08  0.2449179E-08  0.3500000E-15
  1.000000000000000E-004
  CAR 
 unknown system                          
      6.36143177     -9.83497887  301     -1.10619845      1.00000000
     -9.835  0.0000E+00  0.0000E+00
     -9.781  0.0000E+00  0.0000E+00
     -9.727  0.0000E+00  0.0000E+00
     -9.673  0.0000E+00  0.0000E+00
     -9.619  0.0000E+00  0.0000E+00
     -9.565  0.0000E+00  0.0000E+00
     -9.511  0.0000E+00  0.0000E+00
     -9.457  0.0000E+00  0.0000E+00
     -9.403  0.9597E-17  0.5181E-18
     -9.349  0.3907E-14  0.2115E-15
     -9.295  0.8646E-12  0.4689E-13
     -9.241  0.1083E-09  0.5891E-11
     -9.187  0.7686E-08  0.4208E-09
     -9.133  0.3101E-06  0.1716E-07
     -9.079  0.7130E-05  0.4021E-06
     -9.025  0.9367E-04  0.5459E-05
     -8.971  0.7051E-03  0.4352E-04
     -8.917  0.3051E-02  0.2082E-03
     -8.863  0.7633E-02  0.6203E-03
     -8.809  0.1128E-01  0.1230E-02
     -8.755  0.1097E-01  0.1822E-02
     -8.701  0.1000E-01  0.2362E-02
     -8.647  0.1103E-01  0.2958E-02
     -8.593  0.1031E-01  0.3515E-02
     -8.539  0.6207E-02  0.3850E-02
     -8.485  0.2244E-02  0.3971E-02
     -8.431  0.5059E-03  0.3998E-02
     -8.377  0.2784E-03  0.4013E-02
     -8.323  0.1005E-02  0.4067E-02
     -8.269  0.2753E-02  0.4216E-02
     -8.215  0.4961E-02  0.4484E-02
     -8.161  0.6923E-02  0.4858E-02
     -8.107  0.8788E-02  0.5332E-02
     -8.053  0.1065E-01  0.5907E-02
     -7.999  0.1272E-01  0.6594E-02
     -7.945  0.1489E-01  0.7398E-02
     -7.891  0.1597E-01  0.8260E-02
     -7.837  0.1479E-01  0.9058E-02
     -7.783  0.1177E-01  0.9694E-02
     -7.729  0.1011E-01  0.1024E-01
     -7.675  0.1213E-01  0.1089E-01
     -7.621  0.1475E-01  0.1169E-01
     -7.567  0.1443E-01  0.1247E-01
     -7.513  0.1292E-01  0.1317E-01
     -7.460  0.1406E-01  0.1393E-01
     -7.406  0.1951E-01  0.1498E-01
     -7.352  0.2697E-01  0.1644E-01
     -7.298  0.3197E-01  0.1816E-01
     -7.244  0.3387E-01  0.1999E-01
     -7.190  0.3552E-01  0.2191E-01
     -7.136  0.3879E-01  0.2400E-01
     -7.082  0.4335E-01  0.2634E-01
     -7.028  0.4898E-01  0.2899E-01
     -6.974  0.5441E-01  0.3192E-01
     -6.920  0.5796E-01  0.3505E-01
     -6.866  0.6005E-01  0.3830E-01
     -6.812  0.6103E-01  0.4159E-01
     -6.758  0.6375E-01  0.4503E-01
     -6.704  0.7235E-01  0.4894E-01
     -6.650  0.8403E-01  0.5347E-01
     -6.596  0.9260E-01  0.5847E-01
     -6.542  0.9712E-01  0.6372E-01
     -6.488  0.1019E+00  0.6922E-01
     -6.434  0.1100E+00  0.7516E-01
     -6.380  0.1188E+00  0.8157E-01
     -6.326  0.1274E+00  0.8845E-01
     -6.272  0.1379E+00  0.9589E-01
     -6.218  0.1470E+00  0.1038E+00
     -6.164  0.1533E+00  0.1121E+00
     -6.110  0.1604E+00  0.1208E+00
     -6.056  0.1667E+00  0.1298E+00
     -6.002  0.1668E+00  0.1388E+00
     -5.948  0.1624E+00  0.1475E+00
     -5.894  0.1613E+00  0.1562E+00
     -5.840  0.1634E+00  0.1651E+00
     -5.786  0.1612E+00  0.1738E+00
     -5.732  0.1539E+00  0.1821E+00
     -5.678  0.1468E+00  0.1900E+00
     -5.624  0.1411E+00  0.1976E+00
     -5.570  0.1359E+00  0.2050E+00
     -5.516  0.1328E+00  0.2121E+00
     -5.462  0.1332E+00  0.2193E+00
     -5.408  0.1374E+00  0.2267E+00
     -5.354  0.1435E+00  0.2345E+00
     -5.300  0.1487E+00  0.2425E+00
     -5.246  0.1527E+00  0.2508E+00
     -5.192  0.1572E+00  0.2592E+00
     -5.138  0.1635E+00  0.2681E+00
     -5.084  0.1712E+00  0.2773E+00
     -5.030  0.1783E+00  0.2869E+00
     -4.976  0.1833E+00  0.2968E+00
     -4.922  0.1836E+00  0.3067E+00
     -4.868  0.1778E+00  0.3163E+00
     -4.814  0.1694E+00  0.3255E+00
     -4.760  0.1634E+00  0.3343E+00
     -4.706  0.1625E+00  0.3431E+00
     -4.652  0.1652E+00  0.3520E+00
     -4.598  0.1681E+00  0.3611E+00
     -4.544  0.1709E+00  0.3703E+00
     -4.490  0.1740E+00  0.3797E+00
     -4.436  0.1760E+00  0.3892E+00
     -4.382  0.1752E+00  0.3986E+00
     -4.328  0.1723E+00  0.4079E+00
     -4.274  0.1706E+00  0.4172E+00
     -4.220  0.1721E+00  0.4264E+00
     -4.166  0.1741E+00  0.4358E+00
     -4.112  0.1733E+00  0.4452E+00
     -4.058  0.1727E+00  0.4545E+00
     -4.004  0.1783E+00  0.4641E+00
     -3.950  0.1878E+00  0.4743E+00
     -3.896  0.1930E+00  0.4847E+00
     -3.842  0.1888E+00  0.4949E+00
     -3.788  0.1808E+00  0.5047E+00
     -3.734  0.1803E+00  0.5144E+00
     -3.680  0.1905E+00  0.5247E+00
     -3.626  0.2008E+00  0.5355E+00
     -3.572  0.2014E+00  0.5464E+00
     -3.518  0.1962E+00  0.5570E+00
     -3.464  0.1936E+00  0.5674E+00
     -3.410  0.1950E+00  0.5780E+00
     -3.356  0.1967E+00  0.5886E+00
     -3.302  0.1959E+00  0.5992E+00
     -3.248  0.1943E+00  0.6097E+00
     -3.194  0.1937E+00  0.6201E+00
     -3.140  0.1941E+00  0.6306E+00
     -3.086  0.1926E+00  0.6410E+00
     -3.032  0.1886E+00  0.6512E+00
     -2.978  0.1858E+00  0.6612E+00
     -2.925  0.1853E+00  0.6712E+00
     -2.871  0.1864E+00  0.6813E+00
     -2.817  0.1903E+00  0.6915E+00
     -2.763  0.1960E+00  0.7021E+00
     -2.709  0.1990E+00  0.7129E+00
     -2.655  0.1952E+00  0.7234E+00
     -2.601  0.1858E+00  0.7334E+00
     -2.547  0.1783E+00  0.7431E+00
     -2.493  0.1782E+00  0.7527E+00
     -2.439  0.1825E+00  0.7625E+00
     -2.385  0.1860E+00  0.7726E+00
     -2.331  0.1886E+00  0.7828E+00
     -2.277  0.1910E+00  0.7931E+00
     -2.223  0.1920E+00  0.8034E+00
     -2.169  0.1915E+00  0.8138E+00
     -2.115  0.1896E+00  0.8240E+00
     -2.061  0.1880E+00  0.8342E+00
     -2.007  0.1900E+00  0.8444E+00
     -1.953  0.1946E+00  0.8549E+00
     -1.899  0.1979E+00  0.8656E+00
     -1.845  0.1988E+00  0.8764E+00
     -1.791  0.1980E+00  0.8870E+00
     -1.737  0.1964E+00  0.8977E+00
     -1.683  0.1980E+00  0.9083E+00
     -1.629  0.2036E+00  0.9193E+00
     -1.575  0.2066E+00  0.9305E+00
     -1.521  0.2025E+00  0.9414E+00
     -1.467  0.1947E+00  0.9519E+00
     -1.413  0.1881E+00  0.9621E+00
     -1.359  0.1837E+00  0.9720E+00
     -1.305  0.1757E+00  0.9815E+00
     -1.251  0.1597E+00  0.9901E+00
     -1.197  0.1393E+00  0.9976E+00
     -1.143  0.1203E+00  0.1004E+01
     -1.089  0.1024E+00  0.1010E+01
     -1.035  0.8026E-01  0.1014E+01
     -0.981  0.5378E-01  0.1017E+01
     -0.927  0.3163E-01  0.1019E+01
     -0.873  0.2028E-01  0.1020E+01
     -0.819  0.1786E-01  0.1021E+01
     -0.765  0.1893E-01  0.1022E+01
     -0.711  0.2019E-01  0.1023E+01
     -0.657  0.2187E-01  0.1024E+01
     -0.603  0.2622E-01  0.1025E+01
     -0.549  0.3482E-01  0.1027E+01
     -0.495  0.4364E-01  0.1030E+01
     -0.441  0.4570E-01  0.1032E+01
     -0.387  0.4036E-01  0.1034E+01
     -0.333  0.3514E-01  0.1036E+01
     -0.279  0.3623E-01  0.1038E+01
     -0.225  0.4033E-01  0.1040E+01
     -0.171  0.3983E-01  0.1042E+01
     -0.117  0.3294E-01  0.1044E+01
     -0.063  0.2477E-01  0.1046E+01
     -0.009  0.2059E-01  0.1047E+01
      0.045  0.2211E-01  0.1048E+01
      0.099  0.2782E-01  0.1049E+01
      0.153  0.3224E-01  0.1051E+01
      0.207  0.3104E-01  0.1053E+01
      0.261  0.2799E-01  0.1054E+01
      0.315  0.2905E-01  0.1056E+01
      0.369  0.3356E-01  0.1058E+01
      0.423  0.3691E-01  0.1060E+01
      0.477  0.3932E-01  0.1062E+01
      0.531  0.4564E-01  0.1064E+01
      0.585  0.5382E-01  0.1067E+01
      0.639  0.5537E-01  0.1070E+01
      0.693  0.4997E-01  0.1073E+01
      0.747  0.4377E-01  0.1075E+01
      0.801  0.3751E-01  0.1077E+01
      0.855  0.2876E-01  0.1079E+01
      0.909  0.1952E-01  0.1080E+01
      0.963  0.1497E-01  0.1081E+01
      1.017  0.1669E-01  0.1082E+01
      1.071  0.2141E-01  0.1083E+01
      1.125  0.2457E-01  0.1084E+01
      1.179  0.2306E-01  0.1085E+01
      1.233  0.1744E-01  0.1086E+01
      1.287  0.1217E-01  0.1087E+01
      1.341  0.1042E-01  0.1087E+01
      1.395  0.1220E-01  0.1088E+01
      1.449  0.1782E-01  0.1089E+01
      1.503  0.2633E-01  0.1090E+01
      1.556  0.3318E-01  0.1092E+01
      1.610  0.3481E-01  0.1094E+01
      1.664  0.3204E-01  0.1096E+01
      1.718  0.2913E-01  0.1097E+01
      1.772  0.3083E-01  0.1099E+01
      1.826  0.3474E-01  0.1101E+01
      1.880  0.3325E-01  0.1103E+01
      1.934  0.2644E-01  0.1104E+01
      1.988  0.2094E-01  0.1105E+01
      2.042  0.2001E-01  0.1106E+01
      2.096  0.2325E-01  0.1108E+01
      2.150  0.2867E-01  0.1109E+01
      2.204  0.3481E-01  0.1111E+01
      2.258  0.4154E-01  0.1113E+01
      2.312  0.4684E-01  0.1116E+01
      2.366  0.4788E-01  0.1118E+01
      2.420  0.4664E-01  0.1121E+01
      2.474  0.4565E-01  0.1123E+01
      2.528  0.4373E-01  0.1126E+01
      2.582  0.4207E-01  0.1128E+01
      2.636  0.4371E-01  0.1130E+01
      2.690  0.4602E-01  0.1133E+01
      2.744  0.4201E-01  0.1135E+01
      2.798  0.3042E-01  0.1137E+01
      2.852  0.1855E-01  0.1138E+01
      2.906  0.1323E-01  0.1139E+01
      2.960  0.1236E-01  0.1139E+01
      3.014  0.1010E-01  0.1140E+01
      3.068  0.7795E-02  0.1140E+01
      3.122  0.9966E-02  0.1141E+01
      3.176  0.1603E-01  0.1142E+01
      3.230  0.2254E-01  0.1143E+01
      3.284  0.2580E-01  0.1144E+01
      3.338  0.2372E-01  0.1145E+01
      3.392  0.2044E-01  0.1147E+01
      3.446  0.2119E-01  0.1148E+01
      3.500  0.2550E-01  0.1149E+01
      3.554  0.3134E-01  0.1151E+01
      3.608  0.3650E-01  0.1153E+01
      3.662  0.3807E-01  0.1155E+01
      3.716  0.3689E-01  0.1157E+01
      3.770  0.3498E-01  0.1159E+01
      3.824  0.3029E-01  0.1160E+01
      3.878  0.2330E-01  0.1162E+01
      3.932  0.1988E-01  0.1163E+01
      3.986  0.2354E-01  0.1164E+01
      4.040  0.2921E-01  0.1166E+01
      4.094  0.2937E-01  0.1167E+01
      4.148  0.2622E-01  0.1169E+01
      4.202  0.2489E-01  0.1170E+01
      4.256  0.2184E-01  0.1171E+01
      4.310  0.1615E-01  0.1172E+01
      4.364  0.1579E-01  0.1173E+01
      4.418  0.2290E-01  0.1174E+01
      4.472  0.3019E-01  0.1176E+01
      4.526  0.3580E-01  0.1178E+01
      4.580  0.4376E-01  0.1180E+01
      4.634  0.5149E-01  0.1183E+01
      4.688  0.5430E-01  0.1186E+01
      4.742  0.5153E-01  0.1188E+01
      4.796  0.4550E-01  0.1191E+01
      4.850  0.4399E-01  0.1193E+01
      4.904  0.5024E-01  0.1196E+01
      4.958  0.5764E-01  0.1199E+01
      5.012  0.6337E-01  0.1202E+01
      5.066  0.6765E-01  0.1206E+01
      5.120  0.6696E-01  0.1210E+01
      5.174  0.6340E-01  0.1213E+01
      5.228  0.6217E-01  0.1217E+01
      5.282  0.5748E-01  0.1220E+01
      5.336  0.4290E-01  0.1222E+01
      5.390  0.2424E-01  0.1223E+01
      5.444  0.1013E-01  0.1224E+01
      5.498  0.2981E-02  0.1224E+01
      5.552  0.5771E-03  0.1224E+01
      5.606  0.6943E-04  0.1224E+01
      5.660  0.5002E-05  0.1224E+01
      5.714  0.2111E-06  0.1224E+01
      5.768  0.5152E-08  0.1224E+01
      5.822  0.7211E-10  0.1224E+01
      5.876  0.5756E-12  0.1224E+01
      5.930  0.2610E-14  0.1224E+01
      5.984  0.5484E-17  0.1224E+01
      6.038  0.0000E+00  0.1224E+01
      6.091  0.0000E+00  0.1224E+01
      6.145  0.0000E+00  0.1224E+01
      6.199  0.0000E+00  0.1224E+01
      6.253  0.0000E+00  0.1224E+01
      6.307  0.0000E+00  0.1224E+01
      6.361  0.0000E+00  0.1224E+01
