 vasp.5.4.1 24Jun15 (build Mar 14 2019 10:18:33) complex                        
  
 executed on INTEL-19.0.2+OPENMPI date 2022.07.11  20:54:05
 running on   36 total cores
 distrk:  each k-point on   36 cores,    1 groups
 distr:  one band on NCORES_PER_BAND=   6 cores,    6 groups


--------------------------------------------------------------------------------------------------------


 INCAR:
 POTCAR:    PAW_PBE Au 04Oct2007                  
 POTCAR:    PAW_PBE Pd 04Jan2005                  
 POTCAR:    PAW_PBE Au 04Oct2007                  
  local pseudopotential read in
  partial core-charges read in
  partial kinetic energy density read in
  atomic valenz-charges read in
  non local Contribution for L=           2  read in
    real space projection operators read in
  non local Contribution for L=           2  read in
    real space projection operators read in
  non local Contribution for L=           0  read in
    real space projection operators read in
  non local Contribution for L=           0  read in
    real space projection operators read in
  non local Contribution for L=           1  read in
    real space projection operators read in
  non local Contribution for L=           1  read in
    real space projection operators read in
    PAW grid and wavefunctions read in
 
   number of l-projection  operators is LMAX  =           6
   number of lm-projection operators is LMMAX =          18
 
 POTCAR:    PAW_PBE Pd 04Jan2005                  
  local pseudopotential read in
  partial core-charges read in
  partial kinetic energy density read in
  atomic valenz-charges read in
  non local Contribution for L=           2  read in
    real space projection operators read in
  non local Contribution for L=           2  read in
    real space projection operators read in
  non local Contribution for L=           0  read in
    real space projection operators read in
  non local Contribution for L=           0  read in
    real space projection operators read in
  non local Contribution for L=           1  read in
    real space projection operators read in
  non local Contribution for L=           1  read in
    real space projection operators read in
    PAW grid and wavefunctions read in
 
   number of l-projection  operators is LMAX  =           6
   number of lm-projection operators is LMMAX =          18
 
 Optimization of the real space projectors (new method)

 maximal supplied QI-value         = 15.12
 optimisation between [QCUT,QGAM] = [ 10.13, 20.41] = [ 28.73,116.64] Ry 
 Optimized for a Real-space Cutoff    1.51 Angstroem

   l    n(q)    QCUT    max X(q) W(low)/X(q) W(high)/X(q)  e(spline) 
   2      8    10.129    60.898    0.46E-03    0.46E-03    0.14E-06
   2      8    10.129    58.894    0.47E-03    0.47E-03    0.14E-06
   0      9    10.129   109.617    0.16E-03    0.11E-03    0.54E-07
   0      9    10.129    75.026    0.15E-03    0.11E-03    0.52E-07
   1      9    10.129    16.344    0.96E-04    0.15E-03    0.14E-06
   1      9    10.129    10.160    0.81E-04    0.12E-03    0.11E-06
 Optimization of the real space projectors (new method)

 maximal supplied QI-value         = 14.36
 optimisation between [QCUT,QGAM] = [ 10.20, 20.39] = [ 29.12,116.47] Ry 
 Optimized for a Real-space Cutoff    1.51 Angstroem

   l    n(q)    QCUT    max X(q) W(low)/X(q) W(high)/X(q)  e(spline) 
   2      8    10.197    59.108    0.26E-03    0.14E-03    0.96E-07
   2      8    10.197    58.101    0.27E-03    0.14E-03    0.98E-07
   0      9    10.197   102.235    0.54E-04    0.60E-05    0.72E-07
   0      9    10.197    58.388    0.52E-04    0.60E-05    0.68E-07
   1      9    10.197    22.191    0.18E-03    0.25E-03    0.79E-07
   1      9    10.197    15.590    0.15E-03    0.21E-03    0.69E-07
  PAW_PBE Au 04Oct2007                  :
 energy of atom  1       EATOM= -926.0867
 kinetic energy error for atom=    0.0062 (will be added to EATOM!!)
  PAW_PBE Pd 04Jan2005                  :
 energy of atom  2       EATOM= -809.7530
 kinetic energy error for atom=    0.0091 (will be added to EATOM!!)
 
 
 POSCAR: Au Pd                                   
  positions in cartesian coordinates
  No initial velocities read in
 exchange correlation table for  LEXCH =        8
   RHO(1)=    0.500       N(1)  =     2000
   RHO(2)=  100.500       N(2)  =     4000

 VTST: version 3.2, (02/03/18)

 CHAIN: initializing optimizer
 
 OPT: Using VASP Conjugate-Gradient optimizer
 CHAIN: Read ICHAIN            0
 
 POSCAR: Au Pd                                   
  positions in cartesian coordinates
  No initial velocities read in
 


--------------------------------------------------------------------------------------------------------


 ion  position               nearest neighbor table
   1  0.083  0.083  0.408-  17 2.75  13 2.75  19 2.75  33 2.75  39 2.75  20 2.75  26 2.75  43 2.75
                            18 2.75
   2  0.833  0.833  0.408-  40 2.75  31 2.75  35 2.75  26 2.75  41 2.75   6 2.75  39 2.75  21 2.75
                            42 2.75
   3  0.750  0.500  0.592-   4 2.75  23 2.75  29 2.75  30 2.75  47 2.75  48 2.75  22 2.75  36 2.75
                            28 2.75
   4  0.667  0.667  0.500-   8 2.75   3 2.75  29 2.75  28 2.75  23 2.75  34 2.75  42 2.75  21 2.75
                             7 2.75   6 2.75  31 2.75  48 2.75
   5  0.667  0.167  0.500-  41 2.75  27 2.75   9 2.75  38 2.75  40 2.75  28 2.75  42 2.75  12 2.75
                            18 2.75  10 2.75  26 2.75  30 2.75
   6  0.583  0.833  0.408-  42 2.75  20 2.75  31 2.75  41 2.75   8 2.75   2 2.75  13 2.75   4 2.75
                            34 2.75
   7  0.417  0.667  0.500-  46 2.75  36 2.75  16 2.75  28 2.75  38 2.75  43 2.75  34 2.75  45 2.75
                             4 2.75  13 2.75   8 2.75  29 2.75
   8  0.583  0.583  0.408-   4 2.75   6 2.75  10 2.75  13 2.75  33 2.75  31 2.75  46 2.75  28 2.75
                             7 2.75
   9  0.500  0.250  0.592-  38 2.75   5 2.75  27 2.75  36 2.75  11 2.75  44 2.75  30 2.75  14 2.75
                            12 2.75
  10  0.583  0.333  0.408-  28 2.75  26 2.75   8 2.75  41 2.75  46 2.75  33 2.75  37 2.75   5 2.75
                            38 2.75
  11  0.500  0.000  0.592-  12 2.75  42 2.75  14 2.75  29 2.75   9 2.75  48 2.75  27 2.75  25 2.75
                            34 2.75
  12  0.417  0.167  0.500-  20 2.75  11 2.75  14 2.75  15 2.75  34 2.75  38 2.75  42 2.75   5 2.75
                            17 2.75  37 2.75  41 2.75   9 2.75
  13  0.333  0.833  0.408-  34 2.75   8 2.75  20 2.75   1 2.75  46 2.75  39 2.75   6 2.75   7 2.75
                            43 2.75
  14  0.250  0.250  0.592-  15 2.75  12 2.75  11 2.75  22 2.75  25 2.75  44 2.75   9 2.75  47 2.75
                            17 2.75
  15  0.167  0.417  0.500-  19 2.75  14 2.75  22 2.75  12 2.75  21 2.75  17 2.75  45 2.75  38 2.75
                            23 2.75  35 2.75  44 2.75  37 2.75
  16  0.250  0.750  0.592-  43 2.75   7 2.75  32 2.75  36 2.75  25 2.75  44 2.75  24 2.75  29 2.75
                            45 2.75
  17  0.167  0.167  0.500-   1 2.75  25 2.75  47 2.75  15 2.75  34 2.75  43 2.75  23 2.75  18 2.75
                            12 2.75  19 2.75  20 2.75  14 2.75
  18  0.917  0.167  0.500-  26 2.75  32 2.75  30 2.75  23 2.75  28 2.75  40 2.75  43 2.75  17 2.75
                             5 2.75  33 2.75   1 2.75  47 2.75
  19  0.083  0.333  0.408-  15 2.75   1 2.75  20 2.75  31 2.75  35 2.75  33 2.75  37 2.75  17 2.75
                            23 2.75
  20  0.333  0.083  0.408-  12 2.75   6 2.75  13 2.75  19 2.75  37 2.75   1 2.75  41 2.75  34 2.75
                            17 2.75
  21  0.917  0.667  0.500-  31 2.75  22 2.75  48 2.75  15 2.75  40 2.75  42 2.75  23 2.75  45 2.75
                             4 2.75   2 2.75  24 2.75  35 2.75
  22  0.000  0.500  0.592-  21 2.75  15 2.75  14 2.75  24 2.75  47 2.75  48 2.75   3 2.75  44 2.75
                            23 2.75
  23  0.917  0.417  0.500-  33 2.75  47 2.75   3 2.75  18 2.75  21 2.75   4 2.75  17 2.75  15 2.75
                            28 2.75  31 2.75  19 2.75  22 2.75
  24  0.000  0.750  0.592-  40 2.75  45 2.75  32 2.75  22 2.75  44 2.75  27 2.75  16 2.75  48 2.75
                            21 2.75
  25  0.250  0.000  0.592-  17 2.75  34 2.75  14 2.75  29 2.75  16 2.75  47 2.75  11 2.75  32 2.75
                            43 2.75
  26  0.833  0.083  0.408-  18 2.75  10 2.75   2 2.75  33 2.75  39 2.75   1 2.75  41 2.75  40 2.75
                             5 2.75
  27  0.750  0.000  0.592-   5 2.75  40 2.75  24 2.75  30 2.75   9 2.75  48 2.75  11 2.75  32 2.75
                            42 2.75
  28  0.667  0.417  0.500-  10 2.75  30 2.75  36 2.75   4 2.75  18 2.75   5 2.75   7 2.75  23 2.75
                            38 2.75   8 2.75   3 2.75  33 2.75
  29  0.500  0.750  0.592-  34 2.75   4 2.75  11 2.75  25 2.75   3 2.75  36 2.75  16 2.75  48 2.75
                             7 2.75
  30  0.750  0.250  0.592-  28 2.75  18 2.75  27 2.75   3 2.75  32 2.75  36 2.75   9 2.75  47 2.75
                             5 2.75
  31  0.833  0.583  0.408-  21 2.75   6 2.75  19 2.75   2 2.75  33 2.75   8 2.75  35 2.75  23 2.75
                             4 2.75
  32  0.000  0.000  0.592-  18 2.75  43 2.75  24 2.75  30 2.75  16 2.75  47 2.75  27 2.75  25 2.75
                            40 2.75
  33  0.833  0.333  0.408-  23 2.75   8 2.75   1 2.75  26 2.75  31 2.75  19 2.75  10 2.75  18 2.75
                            28 2.75
  34  0.417  0.917  0.500-  13 2.75  29 2.75  25 2.75   4 2.75  17 2.75   7 2.75  12 2.75  42 2.75
                            43 2.75  20 2.75   6 2.75  11 2.75
  35  0.083  0.583  0.408-  45 2.75  19 2.75  37 2.75  39 2.75   2 2.75  31 2.75  46 2.75  15 2.75
                            21 2.75
  36  0.500  0.500  0.592-   7 2.75  28 2.75  16 2.75   9 2.75  29 2.75  30 2.75   3 2.75  44 2.75
                            38 2.75
  37  0.333  0.333  0.408-  38 2.75  35 2.75  20 2.75  41 2.75  46 2.75  19 2.75  10 2.75  12 2.75
                            15 2.75
  38  0.417  0.417  0.500-  37 2.75   9 2.75  44 2.75  12 2.75   7 2.75   5 2.75  45 2.75  28 2.75
                            15 2.75  46 2.75  10 2.75  36 2.75
  39  0.083  0.833  0.408-  43 2.75  26 2.75  35 2.75   1 2.75  46 2.75   2 2.75  13 2.75  45 2.75
                            40 2.75
  40  0.917  0.917  0.500-   2 2.75  24 2.75  27 2.75  21 2.75   5 2.75  18 2.75  45 2.75  43 2.75
                            42 2.75  26 2.75  39 2.75  32 2.75
  41  0.583  0.083  0.408-   5 2.75   2 2.75   6 2.75  10 2.75  37 2.75  26 2.75  20 2.75  42 2.75
                            12 2.75
  42  0.667  0.917  0.500-   6 2.75  48 2.75  11 2.75   5 2.75  12 2.75  21 2.75   4 2.75  40 2.75
                            34 2.75  41 2.75   2 2.75  27 2.75
  43  0.167  0.917  0.500-  39 2.75  16 2.75  32 2.75  18 2.75   7 2.75  17 2.75  45 2.75  40 2.75
                            34 2.75   1 2.75  25 2.75  13 2.75
  44  0.250  0.500  0.592-  45 2.75  38 2.75  16 2.75  24 2.75   9 2.75  14 2.75  22 2.75  36 2.75
                            15 2.75
  45  0.167  0.667  0.500-  35 2.75  44 2.75  24 2.75  38 2.75  40 2.75  43 2.75  15 2.75   7 2.75
                            21 2.75  39 2.75  16 2.75  46 2.75
  46  0.333  0.583  0.408-   7 2.75  10 2.75  13 2.75  37 2.75  39 2.75   8 2.75  35 2.75  38 2.75
                            45 2.75
  47  0.000  0.250  0.592-  23 2.75  17 2.75  22 2.75   3 2.75  25 2.75  32 2.75  30 2.75  14 2.75
                            18 2.75
  48  0.750  0.750  0.592-  42 2.75  21 2.75   3 2.75  22 2.75  27 2.75  11 2.75  29 2.75  24 2.75
                             4 2.75
 
  LATTYP: Found a hexagonal cell.
 ALAT       =    11.0025815153
 C/A-ratio  =     2.2260035120
  
  Lattice vectors:
  
 A1 = (   5.5012907576,  -9.5285150994,   0.0000000000)
 A2 = ( -11.0025815153,   0.0000000000,   0.0000000000)
 A3 = (   0.0000000000,   0.0000000000, -24.4917850943)


Analysis of symmetry for initial positions (statically):
=====================================================================
 Subroutine PRICEL returns:
 Original cell was already a primitive cell.
 

 Routine SETGRP: Setting up the symmetry group for a 
 hexagonal supercell.


 Subroutine GETGRP returns: Found  1 space group operations
 (whereof  1 operations were pure point group operations)
 out of a pool of 24 trial point group operations.


The static configuration has the point symmetry C_1 .


Analysis of symmetry for dynamics (positions and initial velocities):
=====================================================================
 Subroutine PRICEL returns:
 Original cell was already a primitive cell.
 

 Routine SETGRP: Setting up the symmetry group for a 
 hexagonal supercell.


 Subroutine GETGRP returns: Found  1 space group operations
 (whereof  1 operations were pure point group operations)
 out of a pool of 24 trial point group operations.


The dynamic configuration has the point symmetry C_1 .
 
 
 KPOINTS: Automatic mesh                          

Automatic generation of k-mesh.
Space group operators:
 irot       det(A)        alpha          n_x          n_y          n_z        tau_x        tau_y        tau_z
    1     1.000000     0.000000     1.000000     0.000000     0.000000     0.000000     0.000000     0.000000
 
 Subroutine IBZKPT returns following result:
 ===========================================
 
 Found      6 irreducible k-points:
 
 Following reciprocal coordinates:
            Coordinates               Weight
  0.250000  0.250000  0.000000     16.000000
  0.000000  0.250000  0.000000     16.000000
 -0.250000  0.000000  0.000000     16.000000
 -0.250000  0.250000  0.000000     16.000000
  0.500000 -0.250000  0.000000     16.000000
 -0.250000  0.500000  0.000000     16.000000
 
 Following cartesian coordinates:
            Coordinates               Weight
  0.022722  0.013119  0.000000     16.000000
  0.000000  0.026237  0.000000     16.000000
 -0.022722  0.013119  0.000000     16.000000
 -0.022722  0.039356  0.000000     16.000000
  0.045444 -0.052474  0.000000     16.000000
 -0.022722  0.065593  0.000000     16.000000
 


--------------------------------------------------------------------------------------------------------




 Dimension of arrays:
   k-points           NKPTS =      6   k-points in BZ     NKDIM =      6   number of bands    NBANDS=    306
   number of dos      NEDOS =    301   number of ions     NIONS =     48
   non local maximal  LDIM  =      6   non local SUM 2l+1 LMDIM =     18
   total plane-waves  NPLWV = 349920
   max r-space proj   IRMAX =   2009   max aug-charges    IRDMAX=   8532
   dimension x,y,z NGX =    54 NGY =   54 NGZ =  120
   dimension x,y,z NGXF=   108 NGYF=  108 NGZF=  240
   support grid    NGXF=   108 NGYF=  108 NGZF=  240
   ions per type =              24  24
 NGX,Y,Z   is equivalent  to a cutoff of   8.16,  8.16,  8.15 a.u.
 NGXF,Y,Z  is equivalent  to a cutoff of  16.32, 16.32, 16.29 a.u.


 I would recommend the setting:
   dimension x,y,z NGX =    54 NGY =   54 NGZ =  120
 SYSTEM =  unknown system                          
 POSCAR =  Au Pd                                   

 Startparameter for this run:
   NWRITE =      1    write-flag & timer
   PREC   = normal    normal or accurate (medium, high low for compatibility)
   ISTART =      0    job   : 0-new  1-cont  2-samecut
   ICHARG =      2    charge: 1-file 2-atom 10-const
   ISPIN  =      1    spin polarized calculation?
   LNONCOLLINEAR =      F non collinear calculations
   LSORBIT =      F    spin-orbit coupling
   INIWAV =      1    electr: 0-lowe 1-rand  2-diag
   LASPH  =      F    aspherical Exc in radial PAW
   METAGGA=      F    non-selfconsistent MetaGGA calc.

 Electronic Relaxation 1
   ENCUT  =  400.0 eV  29.40 Ry    5.42 a.u.  17.94 17.94 39.94*2*pi/ulx,y,z
   ENINI  =  400.0     initial cutoff
   ENAUG  =  416.2 eV  augmentation charge cutoff
   NELM   =    500;   NELMIN=  2; NELMDL= -5     # of ELM steps 
   EDIFF  = 0.1E-05   stopping-criterion for ELM
   LREAL  =      T    real-space projection
   NLSPLINE    = F    spline interpolate recip. space projectors
   LCOMPAT=      F    compatible to vasp.4.4
   GGA_COMPAT  = T    GGA compatible to vasp.4.4-vasp.4.6
   LMAXPAW     = -100 max onsite density
   LMAXMIX     =    2 max onsite mixed and CHGCAR
   VOSKOWN=      1    Vosko Wilk Nusair interpolation
   ROPT   =   -0.00050  -0.00050
 Ionic relaxation
   EDIFFG = -.2E-01   stopping-criterion for IOM
   NSW    =    500    number of steps for IOM
   NBLOCK =      1;   KBLOCK =    500    inner block; outer block 
   IBRION =      2    ionic relax: 0-MD 1-quasi-New 2-CG
   NFREE  =      2    steps in history (QN), initial steepest desc. (CG)
   ISIF   =      0    stress and relaxation
   IWAVPR =     11    prediction:  0-non 1-charg 2-wave 3-comb
   ISYM   =      2    0-nonsym 1-usesym 2-fastsym
   LCORR  =      T    Harris-Foulkes like correction to forces

   POTIM  = 0.3500    time-step for ionic-motion
   TEIN   =    0.0    initial temperature
   TEBEG  =    0.0;   TEEND  =   0.0 temperature during run
   SMASS  =  -3.00    Nose mass-parameter (am)
   estimated Nose-frequenzy (Omega)   =  0.10E-29 period in steps =****** mass=  -0.277E-26a.u.
   SCALEE = 1.0000    scale energy and forces
   NPACO  =    256;   APACO  = 16.0  distance and # of slots for P.C.
   PSTRESS=    0.0 pullay stress

  Mass of Ions in am
   POMASS = 196.97106.42
  Ionic Valenz
   ZVAL   =  11.00 10.00
  Atomic Wigner-Seitz radii
   RWIGS  =  -1.00 -1.00
  virtual crystal weights 
   VCA    =   1.00  1.00
   NELECT =     504.0000    total number of electrons
   NUPDOWN=      -1.0000    fix difference up-down

 DOS related values:
   EMIN   =  10.00;   EMAX   =-10.00  energy-range for DOS
   EFERMI =   0.00
   ISMEAR =     0;   SIGMA  =   0.10  broadening in eV -4-tet -1-fermi 0-gaus

 Electronic relaxation 2 (details)
   IALGO  =     68    algorithm
   LDIAG  =      T    sub-space diagonalisation (order eigenvalues)
   LSUBROT=      F    optimize rotation matrix (better conditioning)
   TURBO    =      0    0=normal 1=particle mesh
   IRESTART =      0    0=no restart 2=restart with 2 vectors
   NREBOOT  =      0    no. of reboots
   NMIN     =      0    reboot dimension
   EREF     =   0.00    reference energy to select bands
   IMIX   =      4    mixing-type and parameters
     AMIX     =   0.40;   BMIX     =  1.00
     AMIX_MAG =   1.60;   BMIX_MAG =  1.00
     AMIN     =   0.10
     WC   =   100.;   INIMIX=   1;  MIXPRE=   1;  MAXMIX= -45

 Intra band minimization:
   WEIMIN = 0.0010     energy-eigenvalue tresh-hold
   EBREAK =  0.82E-09  absolut break condition
   DEPER  =   0.30     relativ break condition  

   TIME   =   0.40     timestep for ELM

  volume/ion in A,a.u.               =      53.49       360.99
  Fermi-wavevector in a.u.,A,eV,Ry     =   0.951418  1.797920 12.315955  0.905197
  Thomas-Fermi vector in A             =   2.079887
 
 Write flags
   LWAVE  =      F    write WAVECAR
   LCHARG =      F    write CHGCAR
   LVTOT  =      F    write LOCPOT, total local potential
   LVHAR  =      F    write LOCPOT, Hartree potential only
   LELF   =      F    write electronic localiz. function (ELF)
   LORBIT =      0    0 simple, 1 ext, 2 COOP (PROOUT)


 Dipole corrections
   LMONO  =      F    monopole corrections only (constant potential shift)
   LDIPOL =      T    correct potential (dipole corrections)
   IDIPOL =      3    1-x, 2-y, 3-z, 4-all directions 
   EPSILON=  1.0000000 bulk dielectric constant

 Exchange correlation treatment:
   GGA     =    PE    GGA type
   LEXCH   =     8    internal setting for exchange type
   VOSKOWN=      1    Vosko Wilk Nusair interpolation
   LHFCALC =     F    Hartree Fock is set to
   LHFONE  =     F    Hartree Fock one center treatment
   AEXX    =    0.0000 exact exchange contribution

 Linear response parameters
   LEPSILON=     F    determine dielectric tensor
   LRPA    =     F    only Hartree local field effects (RPA)
   LNABLA  =     F    use nabla operator in PAW spheres
   LVEL    =     F    velocity operator in full k-point grid
   LINTERFAST=   F  fast interpolation
   KINTER  =     0    interpolate to denser k-point grid
   CSHIFT  =0.1000    complex shift for real part using Kramers Kronig
   OMEGAMAX=  -1.0    maximum frequency
   DEG_THRESHOLD= 0.2000000E-02 threshold for treating states as degnerate
   RTIME   =    0.100 relaxation time in fs

 Orbital magnetization related:
   ORBITALMAG=     F  switch on orbital magnetization
   LCHIMAG   =     F  perturbation theory with respect to B field
   DQ        =  0.001000  dq finite difference perturbation B field



--------------------------------------------------------------------------------------------------------


 conjugate gradient relaxation of ions
 charge density and potential will be updated during run
 non-spin polarized calculation
 RMM-DIIS sequential band-by-band and
  variant of blocked Davidson during initial phase
 perform sub-space diagonalisation
    before iterative eigenvector-optimisation
 modified Broyden-mixing scheme, WC =      100.0
 initial mixing is a Kerker type mixing with AMIX =  0.4000 and BMIX =      1.0000
 Hartree-type preconditioning will be used
 using additional bands           54
 real space projection scheme for non local part
 use partial core corrections
 calculate Harris-corrections to forces 
   (improved forces if not selfconsistent)
 use gradient corrections 
 use of overlap-Matrix (Vanderbilt PP)
 Gauss-broadening in eV      SIGMA  =   0.10


--------------------------------------------------------------------------------------------------------


  energy-cutoff  :      400.00
  volume of cell :     2567.68
      direct lattice vectors                 reciprocal lattice vectors
    11.002581515  0.000000000  0.000000000     0.090887761 -0.052474073  0.000000000
     5.501290758  9.528515099  0.000000000     0.000000000  0.104948147  0.000000000
     0.000000000  0.000000000 24.491785094     0.000000000  0.000000000  0.040830017

  length of vectors
    11.002581515 11.002581515 24.491785094     0.104948147  0.104948147  0.040830017


 
 k-points in units of 2pi/SCALE and weight: Automatic mesh                          
   0.02272194  0.01311852  0.00000000       0.167
   0.00000000  0.02623704  0.00000000       0.167
  -0.02272194  0.01311852  0.00000000       0.167
  -0.02272194  0.03935555  0.00000000       0.167
   0.04544388 -0.05247407  0.00000000       0.167
  -0.02272194  0.06559259  0.00000000       0.167
 
 k-points in reciprocal lattice and weights: Automatic mesh                          
   0.25000000  0.25000000  0.00000000       0.167
   0.00000000  0.25000000  0.00000000       0.167
  -0.25000000  0.00000000  0.00000000       0.167
  -0.25000000  0.25000000  0.00000000       0.167
   0.50000000 -0.25000000  0.00000000       0.167
  -0.25000000  0.50000000  0.00000000       0.167
 
 position of ions in fractional coordinates (direct lattice) 
   0.08333333  0.08333333  0.40830017
   0.83333333  0.83333333  0.40830017
   0.75000000  0.50000000  0.59169983
   0.66666667  0.66666667  0.50000000
   0.66666667  0.16666667  0.50000000
   0.58333333  0.83333333  0.40830017
   0.41666667  0.66666667  0.50000000
   0.58333333  0.58333333  0.40830017
   0.50000000  0.25000000  0.59169983
   0.58333333  0.33333333  0.40830017
   0.50000000  0.00000000  0.59169983
   0.41666667  0.16666667  0.50000000
   0.33333333  0.83333333  0.40830017
   0.25000000  0.25000000  0.59169983
   0.16666667  0.41666667  0.50000000
   0.25000000  0.75000000  0.59169983
   0.16666667  0.16666667  0.50000000
   0.91666667  0.16666667  0.50000000
   0.08333333  0.33333333  0.40830017
   0.33333333  0.08333333  0.40830017
   0.91666667  0.66666667  0.50000000
   0.00000000  0.50000000  0.59169983
   0.91666667  0.41666667  0.50000000
   0.00000000  0.75000000  0.59169983
   0.25000000  0.00000000  0.59169983
   0.83333333  0.08333333  0.40830017
   0.75000000  0.00000000  0.59169983
   0.66666667  0.41666667  0.50000000
   0.50000000  0.75000000  0.59169983
   0.75000000  0.25000000  0.59169983
   0.83333333  0.58333333  0.40830017
   0.00000000  0.00000000  0.59169983
   0.83333333  0.33333333  0.40830017
   0.41666667  0.91666667  0.50000000
   0.08333333  0.58333333  0.40830017
   0.50000000  0.50000000  0.59169983
   0.33333333  0.33333333  0.40830017
   0.41666667  0.41666667  0.50000000
   0.08333333  0.83333333  0.40830017
   0.91666667  0.91666667  0.50000000
   0.58333333  0.08333333  0.40830017
   0.66666667  0.91666667  0.50000000
   0.16666667  0.91666667  0.50000000
   0.25000000  0.50000000  0.59169983
   0.16666667  0.66666667  0.50000000
   0.33333333  0.58333333  0.40830017
   0.00000000  0.25000000  0.59169983
   0.75000000  0.75000000  0.59169983
 
 position of ions in cartesian coordinates  (Angst):
   1.37532269  0.79404292 10.00000000
  13.75322689  7.94042925 10.00000000
  11.00258152  4.76425755 14.49178509
  11.00258152  6.35234340 12.24589255
   8.25193614  1.58808585 12.24589255
  11.00258152  7.94042925 10.00000000
   8.25193614  6.35234340 12.24589255
   9.62725883  5.55830047 10.00000000
   6.87661345  2.38212877 14.49178509
   8.25193614  3.17617170 10.00000000
   5.50129076  0.00000000 14.49178509
   5.50129076  1.58808585 12.24589255
   8.25193614  7.94042925 10.00000000
   4.12596807  2.38212877 14.49178509
   4.12596807  3.97021462 12.24589255
   6.87661345  7.14638632 14.49178509
   2.75064538  1.58808585 12.24589255
  11.00258152  1.58808585 12.24589255
   2.75064538  3.17617170 10.00000000
   4.12596807  0.79404292 10.00000000
  13.75322689  6.35234340 12.24589255
   2.75064538  4.76425755 14.49178509
  12.37790420  3.97021462 12.24589255
   4.12596807  7.14638632 14.49178509
   2.75064538  0.00000000 14.49178509
   9.62725883  0.79404292 10.00000000
   8.25193614  0.00000000 14.49178509
   9.62725883  3.97021462 12.24589255
   9.62725883  7.14638632 14.49178509
   9.62725883  2.38212877 14.49178509
  12.37790420  5.55830047 10.00000000
   0.00000000  0.00000000 14.49178509
  11.00258152  3.17617170 10.00000000
   9.62725883  8.73447217 12.24589255
   4.12596807  5.55830047 10.00000000
   8.25193614  4.76425755 14.49178509
   5.50129076  3.17617170 10.00000000
   6.87661345  3.97021462 12.24589255
   5.50129076  7.94042925 10.00000000
  15.12854958  8.73447217 12.24589255
   6.87661345  0.79404292 10.00000000
  12.37790420  8.73447217 12.24589255
   6.87661345  8.73447217 12.24589255
   5.50129076  4.76425755 14.49178509
   5.50129076  6.35234340 12.24589255
   6.87661345  5.55830047 10.00000000
   1.37532269  2.38212877 14.49178509
  12.37790420  7.14638632 14.49178509
 


--------------------------------------------------------------------------------------------------------


 k-point  1 :   0.2500 0.2500 0.0000  plane waves:   46635
 k-point  2 :   0.0000 0.2500 0.0000  plane waves:   46635
 k-point  3 :  -0.2500 0.0000 0.0000  plane waves:   46635
 k-point  4 :  -0.2500 0.2500 0.0000  plane waves:   46644
 k-point  5 :   0.5000-0.2500 0.0000  plane waves:   46644
 k-point  6 :  -0.2500 0.5000 0.0000  plane waves:   46644

 maximum and minimum number of plane-waves per node :      7818     7732

 maximum number of plane-waves:     46644
 maximum index in each direction: 
   IXMAX=   18   IYMAX=   18   IZMAX=   39
   IXMIN=  -18   IYMIN=  -18   IZMIN=  -39

 WARNING: aliasing errors must be expected set NGX to  74 to avoid them
 WARNING: aliasing errors must be expected set NGY to  74 to avoid them
 WARNING: aliasing errors must be expected set NGZ to 158 to avoid them
 aliasing errors are usually negligible using standard VASP settings
 and one can safely disregard these warnings

 real space projection operators:
  total allocation   :      12803.06 KBytes
  max/ min on nodes  :       2145.66       2127.94


 parallel 3D FFT for wavefunctions:
    minimum data exchange during FFTs selected (reduces bandwidth)
 parallel 3D FFT for charge:
    minimum data exchange during FFTs selected (reduces bandwidth)


 total amount of memory used by VASP on root node    84353. kBytes
========================================================================

   base      :      30000. kBytes
   nonlr-proj:       4285. kBytes
   fftplans  :       4447. kBytes
   grid      :       6721. kBytes
   one-center:        124. kBytes
   wavefun   :      38776. kBytes
 
     INWAV:  cpu time    0.0000: real time    0.0000
 Broyden mixing: mesh for mixing (old mesh)
   NGX = 35   NGY = 35   NGZ = 79
  (NGX  =108   NGY  =108   NGZ  =240)
  gives a total of  96775 points

 initial charge density was supplied:
 charge density of overlapping atoms calculated
 number of electron     504.0000000 magnetization 
 keeping initial charge density in first step


--------------------------------------------------------------------------------------------------------


 Maximum index for non-local projection operator          355
 Maximum index for augmentation-charges          437 (set IRDMAX)


--------------------------------------------------------------------------------------------------------


 First call to EWALD:  gamma=   0.129
 Maximum number of real-space cells 4x 4x 2
 Maximum number of reciprocal cells 2x 2x 5

 FEWALD executed in parallel
    FEWALD:  cpu time    0.0022: real time    0.0022


----------------------------------------- Iteration    1(   1)  ---------------------------------------


    POTLOK:  cpu time    0.0701: real time    0.0705
    SETDIJ:  cpu time    0.0086: real time    0.0087
     EDDAV:  cpu time    9.7038: real time    9.7092
       DOS:  cpu time    0.0015: real time    0.0015
    --------------------------------------------
      LOOP:  cpu time    9.7880: real time    9.7962

 eigenvalue-minimisations  :  3672
 total energy-change (2. order) : 0.3201149E+04  (-0.1898081E+05)
 number of electron     504.0000000 magnetization 
 augmentation part      504.0000000 magnetization 

 DIPCOR: dipole corrections for dipol
 direction  3 min pos     1,
 dipolmoment           0.000000      0.000000      0.000001 electrons x Angstroem
 Tr[quadrupol]    -10283.206818

 energy correction for charged system         0.000000 eV
 dipol+quadrupol energy correction           -0.000000 eV
 added-field ion interaction          0.000000 eV  (added to PSCEN)


 Free energy of the ion-electron system (eV)
  ---------------------------------------------------
  alpha Z        PSCENC =       805.86936440
  Ewald energy   TEWEN  =    200398.72493972
  -Hartree energ DENC   =   -242813.89954443
  -exchange      EXHF   =         0.00000000
  -V(xc)+E(xc)   XCENC  =      -327.56469393
  PAW double counting   =     40340.05962942   -38292.62782345
  entropy T*S    EENTRO =        -0.12615290
  eigenvalues    EBANDS =      1430.92728756
  atomic energy  EATOM  =     41659.78587232
  Solvation  Ediel_sol  =         0.00000000
  ---------------------------------------------------
  free energy    TOTEN  =      3201.14887871 eV

  energy without entropy =     3201.27503162  energy(sigma->0) =     3201.21195516


--------------------------------------------------------------------------------------------------------




----------------------------------------- Iteration    1(   2)  ---------------------------------------


     EDDAV:  cpu time   11.0931: real time   11.1630
       DOS:  cpu time    0.0015: real time    0.0015
    --------------------------------------------
      LOOP:  cpu time   11.0961: real time   11.1680

 eigenvalue-minimisations  :  4404
 total energy-change (2. order) :-0.3187283E+04  (-0.2934111E+04)
 number of electron     504.0000000 magnetization 
 augmentation part      504.0000000 magnetization 

 DIPCOR: dipole corrections for dipol
 direction  3 min pos     1,
 dipolmoment           0.000000      0.000000      0.000001 electrons x Angstroem
 Tr[quadrupol]    -10283.206818

 energy correction for charged system         0.000000 eV
 dipol+quadrupol energy correction           -0.000000 eV
 added-field ion interaction          0.000000 eV  (added to PSCEN)


 Free energy of the ion-electron system (eV)
  ---------------------------------------------------
  alpha Z        PSCENC =       805.86936440
  Ewald energy   TEWEN  =    200398.72493972
  -Hartree energ DENC   =   -242813.89954443
  -exchange      EXHF   =         0.00000000
  -V(xc)+E(xc)   XCENC  =      -327.56469393
  PAW double counting   =     40340.05962942   -38292.62782345
  entropy T*S    EENTRO =        -0.13452642
  eigenvalues    EBANDS =     -1756.34733550
  atomic energy  EATOM  =     41659.78587232
  Solvation  Ediel_sol  =         0.00000000
  ---------------------------------------------------
  free energy    TOTEN  =        13.86588213 eV

  energy without entropy =       14.00040855  energy(sigma->0) =       13.93314534


--------------------------------------------------------------------------------------------------------




----------------------------------------- Iteration    1(   3)  ---------------------------------------


     EDDAV:  cpu time   10.7424: real time   10.7560
       DOS:  cpu time    0.0016: real time    0.0016
    --------------------------------------------
      LOOP:  cpu time   10.7452: real time   10.7626

 eigenvalue-minimisations  :  4116
 total energy-change (2. order) :-0.2140402E+03  (-0.1990509E+03)
 number of electron     504.0000000 magnetization 
 augmentation part      504.0000000 magnetization 

 DIPCOR: dipole corrections for dipol
 direction  3 min pos     1,
 dipolmoment           0.000000      0.000000      0.000001 electrons x Angstroem
 Tr[quadrupol]    -10283.206818

 energy correction for charged system         0.000000 eV
 dipol+quadrupol energy correction           -0.000000 eV
 added-field ion interaction          0.000000 eV  (added to PSCEN)


 Free energy of the ion-electron system (eV)
  ---------------------------------------------------
  alpha Z        PSCENC =       805.86936440
  Ewald energy   TEWEN  =    200398.72493972
  -Hartree energ DENC   =   -242813.89954443
  -exchange      EXHF   =         0.00000000
  -V(xc)+E(xc)   XCENC  =      -327.56469393
  PAW double counting   =     40340.05962942   -38292.62782345
  entropy T*S    EENTRO =        -0.20851689
  eigenvalues    EBANDS =     -1970.31352977
  atomic energy  EATOM  =     41659.78587232
  Solvation  Ediel_sol  =         0.00000000
  ---------------------------------------------------
  free energy    TOTEN  =      -200.17430261 eV

  energy without entropy =     -199.96578572  energy(sigma->0) =     -200.07004416


--------------------------------------------------------------------------------------------------------




----------------------------------------- Iteration    1(   4)  ---------------------------------------


     EDDAV:  cpu time   10.8803: real time   10.8870
       DOS:  cpu time    0.0016: real time    0.0016
    --------------------------------------------
      LOOP:  cpu time   10.8833: real time   10.8914

 eigenvalue-minimisations  :  4200
 total energy-change (2. order) :-0.5679991E+01  (-0.5616575E+01)
 number of electron     504.0000000 magnetization 
 augmentation part      504.0000000 magnetization 

 DIPCOR: dipole corrections for dipol
 direction  3 min pos     1,
 dipolmoment           0.000000      0.000000      0.000001 electrons x Angstroem
 Tr[quadrupol]    -10283.206818

 energy correction for charged system         0.000000 eV
 dipol+quadrupol energy correction           -0.000000 eV
 added-field ion interaction          0.000000 eV  (added to PSCEN)


 Free energy of the ion-electron system (eV)
  ---------------------------------------------------
  alpha Z        PSCENC =       805.86936440
  Ewald energy   TEWEN  =    200398.72493972
  -Hartree energ DENC   =   -242813.89954443
  -exchange      EXHF   =         0.00000000
  -V(xc)+E(xc)   XCENC  =      -327.56469393
  PAW double counting   =     40340.05962942   -38292.62782345
  entropy T*S    EENTRO =        -0.22035766
  eigenvalues    EBANDS =     -1975.98167955
  atomic energy  EATOM  =     41659.78587232
  Solvation  Ediel_sol  =         0.00000000
  ---------------------------------------------------
  free energy    TOTEN  =      -205.85429315 eV

  energy without entropy =     -205.63393549  energy(sigma->0) =     -205.74411432


--------------------------------------------------------------------------------------------------------




----------------------------------------- Iteration    1(   5)  ---------------------------------------


     EDDAV:  cpu time   11.3840: real time   11.4639
       DOS:  cpu time    0.0017: real time    0.0017
    CHARGE:  cpu time    0.3062: real time    0.3063
    MIXING:  cpu time    0.0022: real time    0.0024
    --------------------------------------------
      LOOP:  cpu time   11.6956: real time   11.7783

 eigenvalue-minimisations  :  4476
 total energy-change (2. order) :-0.1943357E+00  (-0.1937445E+00)
 number of electron     503.9998406 magnetization 
 augmentation part      191.3213261 magnetization 

 DIPCOR: dipole corrections for dipol
 direction  3 min pos     1,
 dipolmoment           0.000000      0.000000      0.000001 electrons x Angstroem
 Tr[quadrupol]    -10283.206818

 energy correction for charged system         0.000000 eV
 dipol+quadrupol energy correction           -0.000000 eV
 added-field ion interaction          0.000000 eV  (added to PSCEN)


 Broyden mixing:
  rms(total) = 0.62492E+01    rms(broyden)= 0.62492E+01
  rms(prec ) = 0.63682E+01
  weight for this iteration     100.00

 Free energy of the ion-electron system (eV)
  ---------------------------------------------------
  alpha Z        PSCENC =       805.86936440
  Ewald energy   TEWEN  =    200398.72493972
  -Hartree energ DENC   =   -242813.89954443
  -exchange      EXHF   =         0.00000000
  -V(xc)+E(xc)   XCENC  =      -327.56469393
  PAW double counting   =     40340.05962942   -38292.62782345
  entropy T*S    EENTRO =        -0.22026756
  eigenvalues    EBANDS =     -1976.17610532
  atomic energy  EATOM  =     41659.78587232
  Solvation  Ediel_sol  =         0.00000000
  ---------------------------------------------------
  free energy    TOTEN  =      -206.04862883 eV

  energy without entropy =     -205.82836126  energy(sigma->0) =     -205.93849505


--------------------------------------------------------------------------------------------------------




----------------------------------------- Iteration    1(   6)  ---------------------------------------


    POTLOK:  cpu time    0.0513: real time    0.0514
    SETDIJ:  cpu time    0.0053: real time    0.0061
    EDDIAG:  cpu time    1.6538: real time    1.6550
  RMM-DIIS:  cpu time    4.6372: real time    4.6547
    ORTHCH:  cpu time    0.5003: real time    0.5032
       DOS:  cpu time    0.0016: real time    0.0016
    CHARGE:  cpu time    0.4495: real time    0.4507
    MIXING:  cpu time    0.0022: real time    0.0022
    --------------------------------------------
      LOOP:  cpu time    7.3020: real time    7.3293

 eigenvalue-minimisations  :  3679
 total energy-change (2. order) : 0.7614301E+01  (-0.9191349E+01)
 number of electron     503.9998417 magnetization 
 augmentation part      192.1929976 magnetization 

 DIPCOR: dipole corrections for dipol
 direction  3 min pos     1,
 dipolmoment           0.000000      0.000000      0.345333 electrons x Angstroem
 Tr[quadrupol]    -10283.903369

 energy correction for charged system         0.000000 eV
 dipol+quadrupol energy correction           -0.004202 eV
 added-field ion interaction          0.054659 eV  (added to PSCEN)


 Broyden mixing:
  rms(total) = 0.53444E+01    rms(broyden)= 0.53443E+01
  rms(prec ) = 0.55123E+01
  weight for this iteration     100.00

 eigenvalues of (default mixing * dielectric matrix)
  average eigenvalue GAMMA=   0.8090
  0.8090

 Free energy of the ion-electron system (eV)
  ---------------------------------------------------
  alpha Z        PSCENC =       805.91982084
  Ewald energy   TEWEN  =    200398.72493972
  -Hartree energ DENC   =   -242540.48600672
  -exchange      EXHF   =         0.00000000
  -V(xc)+E(xc)   XCENC  =      -339.97589002
  PAW double counting   =     43929.07920835   -41940.82995864
  entropy T*S    EENTRO =        -0.24170681
  eigenvalues    EBANDS =     -2170.41060639
  atomic energy  EATOM  =     41659.78587232
  Solvation  Ediel_sol  =         0.00000000
  ---------------------------------------------------
  free energy    TOTEN  =      -198.43432737 eV

  energy without entropy =     -198.19262055  energy(sigma->0) =     -198.31347396


--------------------------------------------------------------------------------------------------------




----------------------------------------- Iteration    1(   7)  ---------------------------------------


    POTLOK:  cpu time    0.0695: real time    0.0705
    SETDIJ:  cpu time    0.0088: real time    0.0088
    EDDIAG:  cpu time    1.8514: real time    1.8604
  RMM-DIIS:  cpu time    4.5176: real time    4.5195
    ORTHCH:  cpu time    0.4097: real time    0.4098
       DOS:  cpu time    0.0016: real time    0.0016
    CHARGE:  cpu time    0.2996: real time    0.2996
    MIXING:  cpu time    0.0021: real time    0.0021
    --------------------------------------------
      LOOP:  cpu time    7.1612: real time    7.1757

 eigenvalue-minimisations  :  3683
 total energy-change (2. order) :-0.5193843E+01  (-0.5245450E+01)
 number of electron     503.9998366 magnetization 
 augmentation part      196.4790628 magnetization 

 DIPCOR: dipole corrections for dipol
 direction  3 min pos     1,
 dipolmoment           0.000000      0.000000     -0.730234 electrons x Angstroem
 Tr[quadrupol]    -10283.007638

 energy correction for charged system         0.000000 eV
 dipol+quadrupol energy correction           -0.018790 eV
 added-field ion interaction         -0.115580 eV  (added to PSCEN)


 Broyden mixing:
  rms(total) = 0.40670E+01    rms(broyden)= 0.40668E+01
  rms(prec ) = 0.45527E+01
  weight for this iteration     100.00

 eigenvalues of (default mixing * dielectric matrix)
  average eigenvalue GAMMA=   1.0257
  1.6462  0.4052

 Free energy of the ion-electron system (eV)
  ---------------------------------------------------
  alpha Z        PSCENC =       805.73499401
  Ewald energy   TEWEN  =    200398.72493972
  -Hartree energ DENC   =   -242402.85942246
  -exchange      EXHF   =         0.00000000
  -V(xc)+E(xc)   XCENC  =      -342.41558546
  PAW double counting   =     45532.54009095   -43571.65818772
  entropy T*S    EENTRO =        -0.19311974
  eigenvalues    EBANDS =     -2283.28775151
  atomic energy  EATOM  =     41659.78587232
  Solvation  Ediel_sol  =         0.00000000
  ---------------------------------------------------
  free energy    TOTEN  =      -203.62816991 eV

  energy without entropy =     -203.43505016  energy(sigma->0) =     -203.53161003


--------------------------------------------------------------------------------------------------------




----------------------------------------- Iteration    1(   8)  ---------------------------------------


    POTLOK:  cpu time    0.0502: real time    0.0503
    SETDIJ:  cpu time    0.0060: real time    0.0060
    EDDIAG:  cpu time    1.6638: real time    1.6647
  RMM-DIIS:  cpu time    4.5123: real time    4.5148
    ORTHCH:  cpu time    0.4094: real time    0.4098
       DOS:  cpu time    0.0016: real time    0.0016
    CHARGE:  cpu time    0.3047: real time    0.3053
    MIXING:  cpu time    0.0021: real time    0.0021
    --------------------------------------------
      LOOP:  cpu time    6.9510: real time    6.9578

 eigenvalue-minimisations  :  3672
 total energy-change (2. order) :-0.2213745E+02  (-0.8764062E+01)
 number of electron     503.9998368 magnetization 
 augmentation part      195.5085019 magnetization 

 DIPCOR: dipole corrections for dipol
 direction  3 min pos     1,
 dipolmoment           0.000000      0.000000      1.961974 electrons x Angstroem
 Tr[quadrupol]    -10285.045348

 energy correction for charged system         0.000000 eV
 dipol+quadrupol energy correction           -0.135640 eV
 added-field ion interaction          0.310538 eV  (added to PSCEN)


 Broyden mixing:
  rms(total) = 0.44265E+01    rms(broyden)= 0.44262E+01
  rms(prec ) = 0.54445E+01
  weight for this iteration     100.00

 eigenvalues of (default mixing * dielectric matrix)
  average eigenvalue GAMMA=   0.9520
  2.1234  0.4554  0.2773

 Free energy of the ion-electron system (eV)
  ---------------------------------------------------
  alpha Z        PSCENC =       806.04426206
  Ewald energy   TEWEN  =    200398.72493972
  -Hartree energ DENC   =   -242409.24470316
  -exchange      EXHF   =         0.00000000
  -V(xc)+E(xc)   XCENC  =      -344.47687603
  PAW double counting   =     47526.27098586   -45593.15040080
  entropy T*S    EENTRO =        -0.33225991
  eigenvalues    EBANDS =     -2269.38743777
  atomic energy  EATOM  =     41659.78587232
  Solvation  Ediel_sol  =         0.00000000
  ---------------------------------------------------
  free energy    TOTEN  =      -225.76561772 eV

  energy without entropy =     -225.43335781  energy(sigma->0) =     -225.59948776


--------------------------------------------------------------------------------------------------------




----------------------------------------- Iteration    1(   9)  ---------------------------------------


    POTLOK:  cpu time    0.0495: real time    0.0495
    SETDIJ:  cpu time    0.0060: real time    0.0060
    EDDIAG:  cpu time    1.6617: real time    1.6623
  RMM-DIIS:  cpu time    4.4303: real time    4.4323
    ORTHCH:  cpu time    0.4116: real time    0.4118
       DOS:  cpu time    0.0015: real time    0.0015
    CHARGE:  cpu time    0.3077: real time    0.3079
    MIXING:  cpu time    0.0024: real time    0.0024
    --------------------------------------------
      LOOP:  cpu time    6.8714: real time    6.8758

 eigenvalue-minimisations  :  3674
 total energy-change (2. order) : 0.1495376E+02  (-0.4203397E+01)
 number of electron     503.9998340 magnetization 
 augmentation part      197.8463458 magnetization 

 DIPCOR: dipole corrections for dipol
 direction  3 min pos     1,
 dipolmoment           0.000000      0.000000     -0.733063 electrons x Angstroem
 Tr[quadrupol]    -10286.111519

 energy correction for charged system         0.000000 eV
 dipol+quadrupol energy correction           -0.018936 eV
 added-field ion interaction         -0.116028 eV  (added to PSCEN)


 Broyden mixing:
  rms(total) = 0.36839E+01    rms(broyden)= 0.36836E+01
  rms(prec ) = 0.42572E+01
  weight for this iteration     100.00

 eigenvalues of (default mixing * dielectric matrix)
  average eigenvalue GAMMA=   0.8311
  2.2723  0.4757  0.2883  0.2883

 Free energy of the ion-electron system (eV)
  ---------------------------------------------------
  alpha Z        PSCENC =       805.73440032
  Ewald energy   TEWEN  =    200398.72493972
  -Hartree energ DENC   =   -242407.84380331
  -exchange      EXHF   =         0.00000000
  -V(xc)+E(xc)   XCENC  =      -345.97946798
  PAW double counting   =     48712.10807318   -46797.43822233
  entropy T*S    EENTRO =        -0.23420719
  eigenvalues    EBANDS =     -2235.66943863
  atomic energy  EATOM  =     41659.78587232
  Solvation  Ediel_sol  =         0.00000000
  ---------------------------------------------------
  free energy    TOTEN  =      -210.81185390 eV

  energy without entropy =     -210.57764672  energy(sigma->0) =     -210.69475031


--------------------------------------------------------------------------------------------------------




----------------------------------------- Iteration    1(  10)  ---------------------------------------


    POTLOK:  cpu time    0.0498: real time    0.0498
    SETDIJ:  cpu time    0.0060: real time    0.0060
    EDDIAG:  cpu time    1.6501: real time    1.6518
  RMM-DIIS:  cpu time    4.5234: real time    4.5252
    ORTHCH:  cpu time    0.4027: real time    0.4028
       DOS:  cpu time    0.0016: real time    0.0016
    CHARGE:  cpu time    0.3010: real time    0.3010
    MIXING:  cpu time    0.0026: real time    0.0026
    --------------------------------------------
      LOOP:  cpu time    6.9381: real time    6.9451

 eigenvalue-minimisations  :  3682
 total energy-change (2. order) : 0.1309161E+02  (-0.2162897E+01)
 number of electron     503.9998337 magnetization 
 augmentation part      199.0530244 magnetization 

 DIPCOR: dipole corrections for dipol
 direction  3 min pos     1,
 dipolmoment           0.000000      0.000000      0.434931 electrons x Angstroem
 Tr[quadrupol]    -10285.291130

 energy correction for charged system         0.000000 eV
 dipol+quadrupol energy correction           -0.006666 eV
 added-field ion interaction          0.068840 eV  (added to PSCEN)


 Broyden mixing:
  rms(total) = 0.22178E+01    rms(broyden)= 0.22176E+01
  rms(prec ) = 0.25658E+01
  weight for this iteration     100.00

 eigenvalues of (default mixing * dielectric matrix)
  average eigenvalue GAMMA=   0.7551
  2.2863  0.4424  0.4424  0.3965  0.2081

 Free energy of the ion-electron system (eV)
  ---------------------------------------------------
  alpha Z        PSCENC =       805.93153879
  Ewald energy   TEWEN  =    200398.72493972
  -Hartree energ DENC   =   -242388.44320874
  -exchange      EXHF   =         0.00000000
  -V(xc)+E(xc)   XCENC  =      -345.90686178
  PAW double counting   =     49161.72266162   -47252.14384771
  entropy T*S    EENTRO =        -0.18434741
  eigenvalues    EBANDS =     -2237.20699468
  atomic energy  EATOM  =     41659.78587232
  Solvation  Ediel_sol  =         0.00000000
  ---------------------------------------------------
  free energy    TOTEN  =      -197.72024787 eV

  energy without entropy =     -197.53590046  energy(sigma->0) =     -197.62807417


--------------------------------------------------------------------------------------------------------




----------------------------------------- Iteration    1(  11)  ---------------------------------------


    POTLOK:  cpu time    0.0508: real time    0.0509
    SETDIJ:  cpu time    0.0063: real time    0.0064
    EDDIAG:  cpu time    1.5984: real time    1.6616
  RMM-DIIS:  cpu time    4.5096: real time    4.5122
    ORTHCH:  cpu time    0.3968: real time    0.3971
       DOS:  cpu time    0.0016: real time    0.0016
    CHARGE:  cpu time    0.2985: real time    0.2985
    MIXING:  cpu time    0.0027: real time    0.0027
    --------------------------------------------
      LOOP:  cpu time    6.8656: real time    6.9331

 eigenvalue-minimisations  :  3680
 total energy-change (2. order) : 0.5353788E+01  (-0.1266519E+01)
 number of electron     503.9998348 magnetization 
 augmentation part      198.4965962 magnetization 

 DIPCOR: dipole corrections for dipol
 direction  3 min pos     1,
 dipolmoment           0.000000      0.000000      0.192596 electrons x Angstroem
 Tr[quadrupol]    -10285.471486

 energy correction for charged system         0.000000 eV
 dipol+quadrupol energy correction           -0.001307 eV
 added-field ion interaction          0.030484 eV  (added to PSCEN)


 Broyden mixing:
  rms(total) = 0.13457E+01    rms(broyden)= 0.13454E+01
  rms(prec ) = 0.15701E+01
  weight for this iteration     100.00

 eigenvalues of (default mixing * dielectric matrix)
  average eigenvalue GAMMA=   0.7120
  2.2437  0.5930  0.5930  0.2828  0.2828  0.2766

 Free energy of the ion-electron system (eV)
  ---------------------------------------------------
  alpha Z        PSCENC =       805.89854096
  Ewald energy   TEWEN  =    200398.72493972
  -Hartree energ DENC   =   -242420.49782250
  -exchange      EXHF   =         0.00000000
  -V(xc)+E(xc)   XCENC  =      -345.26293400
  PAW double counting   =     49277.12337808   -47365.49750268
  entropy T*S    EENTRO =        -0.19757760
  eigenvalues    EBANDS =     -2202.44335404
  atomic energy  EATOM  =     41659.78587232
  Solvation  Ediel_sol  =         0.00000000
  ---------------------------------------------------
  free energy    TOTEN  =      -192.36645974 eV

  energy without entropy =     -192.16888214  energy(sigma->0) =     -192.26767094


--------------------------------------------------------------------------------------------------------




----------------------------------------- Iteration    1(  12)  ---------------------------------------


    POTLOK:  cpu time    0.0500: real time    0.0509
    SETDIJ:  cpu time    0.0061: real time    0.0061
    EDDIAG:  cpu time    1.6469: real time    1.6486
  RMM-DIIS:  cpu time    4.3975: real time    4.4005
    ORTHCH:  cpu time    0.3963: real time    0.3963
       DOS:  cpu time    0.0016: real time    0.0016
    CHARGE:  cpu time    0.3007: real time    0.3010
    MIXING:  cpu time    0.0027: real time    0.0027
    --------------------------------------------
      LOOP:  cpu time    6.8027: real time    6.8109

 eigenvalue-minimisations  :  3680
 total energy-change (2. order) : 0.3256526E+01  (-0.4917434E+00)
 number of electron     503.9998359 magnetization 
 augmentation part      197.7354463 magnetization 

 DIPCOR: dipole corrections for dipol
 direction  3 min pos     1,
 dipolmoment           0.000000      0.000000      0.122272 electrons x Angstroem
 Tr[quadrupol]    -10285.657089

 energy correction for charged system         0.000000 eV
 dipol+quadrupol energy correction           -0.000527 eV
 added-field ion interaction          0.019353 eV  (added to PSCEN)


 Broyden mixing:
  rms(total) = 0.83831E+00    rms(broyden)= 0.83816E+00
  rms(prec ) = 0.94342E+00
  weight for this iteration     100.00

 eigenvalues of (default mixing * dielectric matrix)
  average eigenvalue GAMMA=   0.6789
  2.2642  0.5336  0.5336  0.5748  0.3094  0.3094  0.2271

 Free energy of the ion-electron system (eV)
  ---------------------------------------------------
  alpha Z        PSCENC =       805.88819053
  Ewald energy   TEWEN  =    200398.72493972
  -Hartree energ DENC   =   -242454.38127515
  -exchange      EXHF   =         0.00000000
  -V(xc)+E(xc)   XCENC  =      -344.46582402
  PAW double counting   =     49302.47114205   -47387.22098701
  entropy T*S    EENTRO =        -0.22123372
  eigenvalues    EBANDS =     -2169.69075813
  atomic energy  EATOM  =     41659.78587232
  Solvation  Ediel_sol  =         0.00000000
  ---------------------------------------------------
  free energy    TOTEN  =      -189.10993342 eV

  energy without entropy =     -188.88869970  energy(sigma->0) =     -188.99931656


--------------------------------------------------------------------------------------------------------




----------------------------------------- Iteration    1(  13)  ---------------------------------------


    POTLOK:  cpu time    0.0506: real time    0.0507
    SETDIJ:  cpu time    0.0061: real time    0.0061
    EDDIAG:  cpu time    1.6365: real time    1.6369
  RMM-DIIS:  cpu time    4.4957: real time    4.4989
    ORTHCH:  cpu time    0.3961: real time    0.3963
       DOS:  cpu time    0.0017: real time    0.0017
    CHARGE:  cpu time    0.3077: real time    0.3077
    MIXING:  cpu time    0.0029: real time    0.0029
    --------------------------------------------
      LOOP:  cpu time    6.8981: real time    6.9044

 eigenvalue-minimisations  :  3680
 total energy-change (2. order) : 0.2613195E+00  (-0.1904477E+00)
 number of electron     503.9998359 magnetization 
 augmentation part      197.4556998 magnetization 

 DIPCOR: dipole corrections for dipol
 direction  3 min pos     1,
 dipolmoment           0.000000      0.000000      0.035457 electrons x Angstroem
 Tr[quadrupol]    -10286.097453

 energy correction for charged system         0.000000 eV
 dipol+quadrupol energy correction           -0.000044 eV
 added-field ion interaction          0.005612 eV  (added to PSCEN)


 Broyden mixing:
  rms(total) = 0.72725E+00    rms(broyden)= 0.72708E+00
  rms(prec ) = 0.79714E+00
  weight for this iteration     100.00

 eigenvalues of (default mixing * dielectric matrix)
  average eigenvalue GAMMA=   0.6834
  2.2807  0.7576  0.6716  0.6716  0.2988  0.2988  0.2680  0.2201

 Free energy of the ion-electron system (eV)
  ---------------------------------------------------
  alpha Z        PSCENC =       805.87493210
  Ewald energy   TEWEN  =    200398.72493972
  -Hartree energ DENC   =   -242477.02359569
  -exchange      EXHF   =         0.00000000
  -V(xc)+E(xc)   XCENC  =      -344.25779546
  PAW double counting   =     49344.89654391   -47428.64420307
  entropy T*S    EENTRO =        -0.23490459
  eigenvalues    EBANDS =     -2147.97040320
  atomic energy  EATOM  =     41659.78587232
  Solvation  Ediel_sol  =         0.00000000
  ---------------------------------------------------
  free energy    TOTEN  =      -188.84861396 eV

  energy without entropy =     -188.61370937  energy(sigma->0) =     -188.73116167


--------------------------------------------------------------------------------------------------------




----------------------------------------- Iteration    1(  14)  ---------------------------------------


    POTLOK:  cpu time    0.0494: real time    0.0494
    SETDIJ:  cpu time    0.0060: real time    0.0060
    EDDIAG:  cpu time    1.6327: real time    1.6335
  RMM-DIIS:  cpu time    4.5218: real time    4.5251
    ORTHCH:  cpu time    0.3960: real time    0.3962
       DOS:  cpu time    0.0017: real time    0.0017
    CHARGE:  cpu time    0.2990: real time    0.2991
    MIXING:  cpu time    0.0029: real time    0.0030
    --------------------------------------------
      LOOP:  cpu time    6.9104: real time    6.9165

 eigenvalue-minimisations  :  3680
 total energy-change (2. order) : 0.1718481E+00  (-0.5348420E-01)
 number of electron     503.9998359 magnetization 
 augmentation part      197.4510153 magnetization 

 DIPCOR: dipole corrections for dipol
 direction  3 min pos     1,
 dipolmoment           0.000000      0.000000      0.002688 electrons x Angstroem
 Tr[quadrupol]    -10286.284016

 energy correction for charged system         0.000000 eV
 dipol+quadrupol energy correction           -0.000000 eV
 added-field ion interaction          0.000425 eV  (added to PSCEN)


 Broyden mixing:
  rms(total) = 0.60415E+00    rms(broyden)= 0.60407E+00
  rms(prec ) = 0.65904E+00
  weight for this iteration     100.00

 eigenvalues of (default mixing * dielectric matrix)
  average eigenvalue GAMMA=   0.6704
  2.2803  0.7906  0.7906  0.7333  0.3475  0.3475  0.2632  0.2632  0.2175

 Free energy of the ion-electron system (eV)
  ---------------------------------------------------
  alpha Z        PSCENC =       805.86978950
  Ewald energy   TEWEN  =    200398.72493972
  -Hartree energ DENC   =   -242486.76610055
  -exchange      EXHF   =         0.00000000
  -V(xc)+E(xc)   XCENC  =      -344.12428675
  PAW double counting   =     49373.59260640   -47456.72514601
  entropy T*S    EENTRO =        -0.25063353
  eigenvalues    EBANDS =     -2138.78380693
  atomic energy  EATOM  =     41659.78587232
  Solvation  Ediel_sol  =         0.00000000
  ---------------------------------------------------
  free energy    TOTEN  =      -188.67676584 eV

  energy without entropy =     -188.42613231  energy(sigma->0) =     -188.55144907


--------------------------------------------------------------------------------------------------------




----------------------------------------- Iteration    1(  15)  ---------------------------------------


    POTLOK:  cpu time    0.0493: real time    0.0495
    SETDIJ:  cpu time    0.0061: real time    0.0061
    EDDIAG:  cpu time    1.6377: real time    1.6384
  RMM-DIIS:  cpu time    4.9362: real time    4.9723
    ORTHCH:  cpu time    0.3958: real time    0.3961
       DOS:  cpu time    0.0017: real time    0.0017
    CHARGE:  cpu time    0.2985: real time    0.2986
    MIXING:  cpu time    0.0032: real time    0.0032
    --------------------------------------------
      LOOP:  cpu time    7.3293: real time    7.3705

 eigenvalue-minimisations  :  3679
 total energy-change (2. order) : 0.6539137E-01  (-0.3717761E-01)
 number of electron     503.9998360 magnetization 
 augmentation part      197.4495052 magnetization 

 DIPCOR: dipole corrections for dipol
 direction  3 min pos     1,
 dipolmoment           0.000000      0.000000      0.010584 electrons x Angstroem
 Tr[quadrupol]    -10286.372057

 energy correction for charged system         0.000000 eV
 dipol+quadrupol energy correction           -0.000004 eV
 added-field ion interaction          0.001675 eV  (added to PSCEN)


 Broyden mixing:
  rms(total) = 0.47162E+00    rms(broyden)= 0.47155E+00
  rms(prec ) = 0.52068E+00
  weight for this iteration     100.00

 eigenvalues of (default mixing * dielectric matrix)
  average eigenvalue GAMMA=   0.7020
  2.2290  1.1291  1.1291  0.5596  0.5596  0.4153  0.2899  0.2899  0.2112  0.2072

 Free energy of the ion-electron system (eV)
  ---------------------------------------------------
  alpha Z        PSCENC =       805.87103558
  Ewald energy   TEWEN  =    200398.72493972
  -Hartree energ DENC   =   -242491.43446998
  -exchange      EXHF   =         0.00000000
  -V(xc)+E(xc)   XCENC  =      -344.05325762
  PAW double counting   =     49377.17390356   -47459.79378838
  entropy T*S    EENTRO =        -0.26549707
  eigenvalues    EBANDS =     -2134.62011260
  atomic energy  EATOM  =     41659.78587232
  Solvation  Ediel_sol  =         0.00000000
  ---------------------------------------------------
  free energy    TOTEN  =      -188.61137447 eV

  energy without entropy =     -188.34587739  energy(sigma->0) =     -188.47862593


--------------------------------------------------------------------------------------------------------




----------------------------------------- Iteration    1(  16)  ---------------------------------------


    POTLOK:  cpu time    0.0495: real time    0.0495
    SETDIJ:  cpu time    0.0060: real time    0.0060
    EDDIAG:  cpu time    1.6424: real time    1.6431
  RMM-DIIS:  cpu time    4.4634: real time    4.4655
    ORTHCH:  cpu time    0.4002: real time    0.4003
       DOS:  cpu time    0.0016: real time    0.0016
    CHARGE:  cpu time    0.3012: real time    0.3015
    MIXING:  cpu time    0.0033: real time    0.0033
    --------------------------------------------
      LOOP:  cpu time    6.8686: real time    6.8738

 eigenvalue-minimisations  :  3680
 total energy-change (2. order) : 0.5046796E-01  (-0.2737378E-01)
 number of electron     503.9998361 magnetization 
 augmentation part      197.2961374 magnetization 

 DIPCOR: dipole corrections for dipol
 direction  3 min pos     1,
 dipolmoment           0.000000      0.000000      0.041666 electrons x Angstroem
 Tr[quadrupol]    -10286.687385

 energy correction for charged system         0.000000 eV
 dipol+quadrupol energy correction           -0.000061 eV
 added-field ion interaction          0.006595 eV  (added to PSCEN)


 Broyden mixing:
  rms(total) = 0.39362E+00    rms(broyden)= 0.39355E+00
  rms(prec ) = 0.44696E+00
  weight for this iteration     100.00

 eigenvalues of (default mixing * dielectric matrix)
  average eigenvalue GAMMA=   0.7001
  2.1790  1.3197  1.3197  0.6109  0.6109  0.3937  0.2942  0.2942  0.2397  0.2397
  0.1990

 Free energy of the ion-electron system (eV)
  ---------------------------------------------------
  alpha Z        PSCENC =       805.87589793
  Ewald energy   TEWEN  =    200398.72493972
  -Hartree energ DENC   =   -242509.68088242
  -exchange      EXHF   =         0.00000000
  -V(xc)+E(xc)   XCENC  =      -343.76710201
  PAW double counting   =     49370.98378858   -47451.58894486
  entropy T*S    EENTRO =        -0.25707092
  eigenvalues    EBANDS =     -2118.63740484
  atomic energy  EATOM  =     41659.78587232
  Solvation  Ediel_sol  =         0.00000000
  ---------------------------------------------------
  free energy    TOTEN  =      -188.56090651 eV

  energy without entropy =     -188.30383559  energy(sigma->0) =     -188.43237105


--------------------------------------------------------------------------------------------------------




----------------------------------------- Iteration    1(  17)  ---------------------------------------


    POTLOK:  cpu time    0.0500: real time    0.0502
    SETDIJ:  cpu time    0.0061: real time    0.0061
    EDDIAG:  cpu time    1.6470: real time    1.6484
  RMM-DIIS:  cpu time    4.3341: real time    4.4069
    ORTHCH:  cpu time    0.3978: real time    0.3978
       DOS:  cpu time    0.0016: real time    0.0016
    CHARGE:  cpu time    0.3042: real time    0.3043
    MIXING:  cpu time    0.0037: real time    0.0037
    --------------------------------------------
      LOOP:  cpu time    6.7453: real time    6.8223

 eigenvalue-minimisations  :  3680
 total energy-change (2. order) : 0.1183338E+00  (-0.1492395E-01)
 number of electron     503.9998363 magnetization 
 augmentation part      197.1929411 magnetization 

 DIPCOR: dipole corrections for dipol
 direction  3 min pos     1,
 dipolmoment           0.000000      0.000000      0.044103 electrons x Angstroem
 Tr[quadrupol]    -10286.933070

 energy correction for charged system         0.000000 eV
 dipol+quadrupol energy correction           -0.000069 eV
 added-field ion interaction          0.006981 eV  (added to PSCEN)


 Broyden mixing:
  rms(total) = 0.25812E+00    rms(broyden)= 0.25808E+00
  rms(prec ) = 0.29795E+00
  weight for this iteration     100.00

 eigenvalues of (default mixing * dielectric matrix)
  average eigenvalue GAMMA=   0.7318
  2.1874  1.5524  1.5524  0.6076  0.6076  0.6228  0.3304  0.3304  0.2879  0.2879
  0.2219  0.1924

 Free energy of the ion-electron system (eV)
  ---------------------------------------------------
  alpha Z        PSCENC =       805.87627629
  Ewald energy   TEWEN  =    200398.72493972
  -Hartree energ DENC   =   -242522.67442950
  -exchange      EXHF   =         0.00000000
  -V(xc)+E(xc)   XCENC  =      -343.59808464
  PAW double counting   =     49371.86440707   -47451.31329970
  entropy T*S    EENTRO =        -0.26359792
  eigenvalues    EBANDS =     -2106.84465631
  atomic energy  EATOM  =     41659.78587232
  Solvation  Ediel_sol  =         0.00000000
  ---------------------------------------------------
  free energy    TOTEN  =      -188.44257268 eV

  energy without entropy =     -188.17897476  energy(sigma->0) =     -188.31077372


--------------------------------------------------------------------------------------------------------




----------------------------------------- Iteration    1(  18)  ---------------------------------------


    POTLOK:  cpu time    0.0504: real time    0.0505
    SETDIJ:  cpu time    0.0063: real time    0.0063
    EDDIAG:  cpu time    1.6325: real time    1.6339
  RMM-DIIS:  cpu time    4.5135: real time    4.5158
    ORTHCH:  cpu time    0.3920: real time    0.3922
       DOS:  cpu time    0.0016: real time    0.0016
    CHARGE:  cpu time    0.2996: real time    0.2997
    MIXING:  cpu time    0.0038: real time    0.0038
    --------------------------------------------
      LOOP:  cpu time    6.9005: real time    6.9061

 eigenvalue-minimisations  :  3680
 total energy-change (2. order) : 0.5055115E-01  (-0.7212608E-02)
 number of electron     503.9998363 magnetization 
 augmentation part      197.1707745 magnetization 

 DIPCOR: dipole corrections for dipol
 direction  3 min pos     1,
 dipolmoment           0.000000      0.000000      0.027628 electrons x Angstroem
 Tr[quadrupol]    -10287.228411

 energy correction for charged system         0.000000 eV
 dipol+quadrupol energy correction           -0.000027 eV
 added-field ion interaction          0.004373 eV  (added to PSCEN)


 Broyden mixing:
  rms(total) = 0.16098E+00    rms(broyden)= 0.16095E+00
  rms(prec ) = 0.18426E+00
  weight for this iteration     100.00

 eigenvalues of (default mixing * dielectric matrix)
  average eigenvalue GAMMA=   0.7103
  2.2070  1.5794  1.5794  0.6328  0.6328  0.6255  0.3476  0.3476  0.3087  0.3087
  0.2355  0.2355  0.1927

 Free energy of the ion-electron system (eV)
  ---------------------------------------------------
  alpha Z        PSCENC =       805.87371037
  Ewald energy   TEWEN  =    200398.72493972
  -Hartree energ DENC   =   -242535.72611106
  -exchange      EXHF   =         0.00000000
  -V(xc)+E(xc)   XCENC  =      -343.46695537
  PAW double counting   =     49390.20115619   -47468.82025965
  entropy T*S    EENTRO =        -0.26769947
  eigenvalues    EBANDS =     -2094.69667458
  atomic energy  EATOM  =     41659.78587232
  Solvation  Ediel_sol  =         0.00000000
  ---------------------------------------------------
  free energy    TOTEN  =      -188.39202153 eV

  energy without entropy =     -188.12432206  energy(sigma->0) =     -188.25817180


--------------------------------------------------------------------------------------------------------




----------------------------------------- Iteration    1(  19)  ---------------------------------------


    POTLOK:  cpu time    0.0499: real time    0.0500
    SETDIJ:  cpu time    0.0061: real time    0.0061
    EDDIAG:  cpu time    1.6371: real time    1.6388
  RMM-DIIS:  cpu time    4.4752: real time    4.4783
    ORTHCH:  cpu time    0.3905: real time    0.3905
       DOS:  cpu time    0.0016: real time    0.0016
    CHARGE:  cpu time    0.2976: real time    0.2979
    MIXING:  cpu time    0.0038: real time    0.0038
    --------------------------------------------
      LOOP:  cpu time    6.8627: real time    6.8714

 eigenvalue-minimisations  :  3681
 total energy-change (2. order) : 0.2355040E-01  (-0.2515232E-02)
 number of electron     503.9998363 magnetization 
 augmentation part      197.1521329 magnetization 

 DIPCOR: dipole corrections for dipol
 direction  3 min pos     1,
 dipolmoment           0.000000      0.000000      0.022247 electrons x Angstroem
 Tr[quadrupol]    -10287.340930

 energy correction for charged system         0.000000 eV
 dipol+quadrupol energy correction           -0.000017 eV
 added-field ion interaction          0.003521 eV  (added to PSCEN)


 Broyden mixing:
  rms(total) = 0.90649E-01    rms(broyden)= 0.90627E-01
  rms(prec ) = 0.10253E+00
  weight for this iteration     100.00

 eigenvalues of (default mixing * dielectric matrix)
  average eigenvalue GAMMA=   0.7250
  2.2635  1.6319  1.6319  0.7477  0.7477  0.5948  0.5948  0.3726  0.3083  0.3083
  0.2664  0.2664  0.2239  0.1923

 Free energy of the ion-electron system (eV)
  ---------------------------------------------------
  alpha Z        PSCENC =       805.87286800
  Ewald energy   TEWEN  =    200398.72493972
  -Hartree energ DENC   =   -242540.54577216
  -exchange      EXHF   =         0.00000000
  -V(xc)+E(xc)   XCENC  =      -343.43000049
  PAW double counting   =     49396.19573195   -47474.60385939
  entropy T*S    EENTRO =        -0.26833579
  eigenvalues    EBANDS =     -2090.09991529
  atomic energy  EATOM  =     41659.78587232
  Solvation  Ediel_sol  =         0.00000000
  ---------------------------------------------------
  free energy    TOTEN  =      -188.36847114 eV

  energy without entropy =     -188.10013535  energy(sigma->0) =     -188.23430324


--------------------------------------------------------------------------------------------------------




----------------------------------------- Iteration    1(  20)  ---------------------------------------


    POTLOK:  cpu time    0.0500: real time    0.0500
    SETDIJ:  cpu time    0.0060: real time    0.0060
    EDDIAG:  cpu time    1.6324: real time    1.6329
  RMM-DIIS:  cpu time    4.4982: real time    4.5007
    ORTHCH:  cpu time    0.3903: real time    0.3905
       DOS:  cpu time    0.0016: real time    0.0016
    CHARGE:  cpu time    0.3011: real time    0.3012
    MIXING:  cpu time    0.0040: real time    0.0040
    --------------------------------------------
      LOOP:  cpu time    6.8845: real time    6.8893

 eigenvalue-minimisations  :  3682
 total energy-change (2. order) : 0.4262072E-02  (-0.7132674E-03)
 number of electron     503.9998363 magnetization 
 augmentation part      197.1224196 magnetization 

 DIPCOR: dipole corrections for dipol
 direction  3 min pos     1,
 dipolmoment           0.000000      0.000000      0.016121 electrons x Angstroem
 Tr[quadrupol]    -10287.492520

 energy correction for charged system         0.000000 eV
 dipol+quadrupol energy correction           -0.000009 eV
 added-field ion interaction          0.002552 eV  (added to PSCEN)


 Broyden mixing:
  rms(total) = 0.70474E-01    rms(broyden)= 0.70465E-01
  rms(prec ) = 0.78617E-01
  weight for this iteration     100.00

 eigenvalues of (default mixing * dielectric matrix)
  average eigenvalue GAMMA=   0.7269
  2.2616  1.6843  1.6843  0.8452  0.8452  0.6480  0.6480  0.4175  0.3148  0.3148
  0.2800  0.2800  0.2646  0.2240  0.1921

 Free energy of the ion-electron system (eV)
  ---------------------------------------------------
  alpha Z        PSCENC =       805.87190675
  Ewald energy   TEWEN  =    200398.72493972
  -Hartree energ DENC   =   -242546.94424835
  -exchange      EXHF   =         0.00000000
  -V(xc)+E(xc)   XCENC  =      -343.39216396
  PAW double counting   =     49402.57561667   -47480.79787583
  entropy T*S    EENTRO =        -0.26832267
  eigenvalues    EBANDS =     -2083.91993372
  atomic energy  EATOM  =     41659.78587232
  Solvation  Ediel_sol  =         0.00000000
  ---------------------------------------------------
  free energy    TOTEN  =      -188.36420907 eV

  energy without entropy =     -188.09588640  energy(sigma->0) =     -188.23004773


--------------------------------------------------------------------------------------------------------




----------------------------------------- Iteration    1(  21)  ---------------------------------------


    POTLOK:  cpu time    0.0508: real time    0.0510
    SETDIJ:  cpu time    0.0061: real time    0.0061
    EDDIAG:  cpu time    1.6386: real time    1.6400
  RMM-DIIS:  cpu time    4.4983: real time    4.5006
    ORTHCH:  cpu time    0.3906: real time    0.3909
       DOS:  cpu time    0.0015: real time    0.0015
    CHARGE:  cpu time    0.3037: real time    0.3037
    MIXING:  cpu time    0.0042: real time    0.0042
    --------------------------------------------
      LOOP:  cpu time    6.8945: real time    6.9010

 eigenvalue-minimisations  :  3680
 total energy-change (2. order) : 0.3428659E-02  (-0.4322481E-03)
 number of electron     503.9998364 magnetization 
 augmentation part      197.0931006 magnetization 

 DIPCOR: dipole corrections for dipol
 direction  3 min pos     1,
 dipolmoment           0.000000      0.000000      0.011231 electrons x Angstroem
 Tr[quadrupol]    -10287.616139

 energy correction for charged system         0.000000 eV
 dipol+quadrupol energy correction           -0.000004 eV
 added-field ion interaction          0.001778 eV  (added to PSCEN)


 Broyden mixing:
  rms(total) = 0.53541E-01    rms(broyden)= 0.53536E-01
  rms(prec ) = 0.61031E-01
  weight for this iteration     100.00

 eigenvalues of (default mixing * dielectric matrix)
  average eigenvalue GAMMA=   0.7410
  2.2825  1.7877  1.7877  0.9199  0.9199  0.7318  0.6120  0.6120  0.3229  0.3229
  0.3158  0.3158  0.1922  0.2247  0.2540  0.2540

 Free energy of the ion-electron system (eV)
  ---------------------------------------------------
  alpha Z        PSCENC =       805.87113750
  Ewald energy   TEWEN  =    200398.72493972
  -Hartree energ DENC   =   -242552.33593633
  -exchange      EXHF   =         0.00000000
  -V(xc)+E(xc)   XCENC  =      -343.35203827
  PAW double counting   =     49405.97405474   -47484.02651703
  entropy T*S    EENTRO =        -0.26886453
  eigenvalues    EBANDS =     -2078.73342852
  atomic energy  EATOM  =     41659.78587232
  Solvation  Ediel_sol  =         0.00000000
  ---------------------------------------------------
  free energy    TOTEN  =      -188.36078041 eV

  energy without entropy =     -188.09191588  energy(sigma->0) =     -188.22634814


--------------------------------------------------------------------------------------------------------




----------------------------------------- Iteration    1(  22)  ---------------------------------------


    POTLOK:  cpu time    0.0505: real time    0.0506
    SETDIJ:  cpu time    0.0060: real time    0.0060
    EDDIAG:  cpu time    1.6305: real time    1.6313
  RMM-DIIS:  cpu time    4.5043: real time    4.5067
    ORTHCH:  cpu time    0.3902: real time    0.3903
       DOS:  cpu time    0.0016: real time    0.0016
    CHARGE:  cpu time    0.2977: real time    0.2979
    MIXING:  cpu time    0.0042: real time    0.0042
    --------------------------------------------
      LOOP:  cpu time    6.8858: real time    6.8909

 eigenvalue-minimisations  :  3680
 total energy-change (2. order) : 0.1606747E-02  (-0.1841374E-03)
 number of electron     503.9998364 magnetization 
 augmentation part      197.0875570 magnetization 

 DIPCOR: dipole corrections for dipol
 direction  3 min pos     1,
 dipolmoment           0.000000      0.000000      0.013731 electrons x Angstroem
 Tr[quadrupol]    -10287.715361

 energy correction for charged system         0.000000 eV
 dipol+quadrupol energy correction           -0.000007 eV
 added-field ion interaction          0.002173 eV  (added to PSCEN)


 Broyden mixing:
  rms(total) = 0.37384E-01    rms(broyden)= 0.37378E-01
  rms(prec ) = 0.42191E-01
  weight for this iteration     100.00

 eigenvalues of (default mixing * dielectric matrix)
  average eigenvalue GAMMA=   0.7724
  2.3133  2.0798  2.0798  1.1220  0.8106  0.8106  0.6409  0.6409  0.4059  0.4059
  0.3149  0.3149  0.2695  0.2695  0.1921  0.2263  0.2337

 Free energy of the ion-electron system (eV)
  ---------------------------------------------------
  alpha Z        PSCENC =       805.87153103
  Ewald energy   TEWEN  =    200398.72493972
  -Hartree energ DENC   =   -242556.07023282
  -exchange      EXHF   =         0.00000000
  -V(xc)+E(xc)   XCENC  =      -343.33832363
  PAW double counting   =     49407.90238405   -47485.95389277
  entropy T*S    EENTRO =        -0.26739929
  eigenvalues    EBANDS =     -2075.01405226
  atomic energy  EATOM  =     41659.78587232
  Solvation  Ediel_sol  =         0.00000000
  ---------------------------------------------------
  free energy    TOTEN  =      -188.35917366 eV

  energy without entropy =     -188.09177437  energy(sigma->0) =     -188.22547402


--------------------------------------------------------------------------------------------------------




----------------------------------------- Iteration    1(  23)  ---------------------------------------


    POTLOK:  cpu time    0.0500: real time    0.0501
    SETDIJ:  cpu time    0.0060: real time    0.0060
    EDDIAG:  cpu time    1.5919: real time    1.6502
  RMM-DIIS:  cpu time    4.4992: real time    4.5061
    ORTHCH:  cpu time    0.3905: real time    0.3908
       DOS:  cpu time    0.0016: real time    0.0016
    CHARGE:  cpu time    0.4159: real time    0.4210
    MIXING:  cpu time    0.0065: real time    0.0066
    --------------------------------------------
      LOOP:  cpu time    6.9624: real time    7.0346

 eigenvalue-minimisations  :  3680
 total energy-change (2. order) : 0.7253104E-03  (-0.1762004E-03)
 number of electron     503.9998364 magnetization 
 augmentation part      197.0824277 magnetization 

 DIPCOR: dipole corrections for dipol
 direction  3 min pos     1,
 dipolmoment           0.000000      0.000000      0.016669 electrons x Angstroem
 Tr[quadrupol]    -10287.850257

 energy correction for charged system         0.000000 eV
 dipol+quadrupol energy correction           -0.000010 eV
[...]
    275       1.6781      0.00000
    276       1.7857      0.00000
    277       2.0845      0.00000
    278       2.1867      0.00000
    279       2.2818      0.00000
    280       2.3193      0.00000
    281       2.4246      0.00000
    282       2.5370      0.00000
    283       2.6973      0.00000
    284       2.9432      0.00000
    285       3.1937      0.00000
    286       3.2413      0.00000
    287       3.5047      0.00000
    288       3.5819      0.00000
    289       3.7576      0.00000
    290       4.0192      0.00000
    291       4.0661      0.00000
    292       4.1729      0.00000
    293       4.4475      0.00000
    294       4.5108      0.00000
    295       4.5793      0.00000
    296       4.6261      0.00000
    297       4.7222      0.00000
    298       4.7995      0.00000
    299       4.8899      0.00000
    300       4.9061      0.00000
    301       4.9625      0.00000
    302       5.0315      0.00000
    303       5.0708      0.00000
    304       5.1329      0.00000
    305       5.2155      0.00000
    306       5.2616      0.00000


--------------------------------------------------------------------------------------------------------


 soft charge-density along one line, spin component           1
         0         1         2         3         4         5         6         7         8         9
 total charge-density along one line
 
 pseudopotential strength for first ion, spin component:           1
 -8.016   0.006  -0.001  -0.001  -0.002  -8.164   0.006  -0.001
  0.006  -7.935  -0.000   0.001  -0.002   0.006  -8.084  -0.000
 -0.001  -0.000  -7.928  -0.000   0.000  -0.001  -0.000  -8.078
 -0.001   0.001  -0.000  -7.936   0.005  -0.001   0.001  -0.000
 -0.002  -0.002   0.000   0.005  -8.020  -0.002  -0.002   0.000
 -8.164   0.006  -0.001  -0.001  -0.002  -8.295   0.006  -0.001
  0.006  -8.084  -0.000   0.001  -0.002   0.006  -8.217  -0.000
 -0.001  -0.000  -8.078  -0.000   0.000  -0.001  -0.000  -8.211
 -0.001   0.001  -0.000  -8.085   0.005  -0.001   0.001  -0.000
 -0.002  -0.002   0.000   0.005  -8.167  -0.002  -0.002   0.000
 -0.001  -0.001  -0.027  -0.003  -0.000  -0.001  -0.001  -0.027
 -0.001  -0.001  -0.039  -0.005  -0.001  -0.001  -0.001  -0.039
  0.005  -0.004  -0.000   0.000  -0.001   0.005  -0.003  -0.000
  0.000   0.001  -0.006   0.005   0.000   0.000   0.001  -0.005
  0.001   0.000  -0.003  -0.003   0.005   0.001   0.000  -0.003
  0.007  -0.004  -0.000   0.000  -0.001   0.007  -0.003  -0.000
  0.000   0.001  -0.006   0.006   0.000   0.000   0.001  -0.006
  0.001   0.000  -0.004  -0.003   0.006   0.001   0.000  -0.004
 total augmentation occupancy for first ion, spin component:           1
  4.296   0.026   0.000   0.066  -0.042  -2.459   0.018  -0.010  -0.078   0.018   0.034  -0.008  -0.066   0.007  -0.017   0.009
  0.026   3.992   0.046  -0.027   0.042   0.018  -1.716  -0.048   0.029  -0.066   0.001   0.021  -0.158  -0.011   0.003   0.004
  0.000   0.046   4.300  -0.070   0.030  -0.010  -0.048  -2.176   0.037  -0.030   1.039  -0.115  -0.004  -0.202   0.042   0.000
  0.066  -0.027  -0.070   4.067  -0.008  -0.078   0.029   0.037  -1.790   0.028   0.123  -0.014   0.004   0.019  -0.159  -0.000
 -0.042   0.042   0.030  -0.008   4.100   0.018  -0.067  -0.030   0.028  -2.317   0.009   0.011  -0.034  -0.004   0.002   0.000
 -2.459   0.018  -0.010  -0.078   0.018   2.508  -0.052   0.019   0.087   0.001  -0.035   0.009   0.051  -0.006   0.016  -0.004
  0.018  -1.716  -0.048   0.029  -0.067  -0.052   1.416   0.050  -0.030   0.084   0.001  -0.018   0.150   0.009  -0.003  -0.006
 -0.010  -0.048  -2.176   0.037  -0.030   0.019   0.050   1.999  -0.012   0.029  -0.964   0.133   0.004   0.203  -0.031  -0.001
 -0.078   0.029   0.037  -1.790   0.028   0.087  -0.030  -0.012   1.489  -0.043  -0.110   0.016  -0.003  -0.019   0.150   0.000
  0.018  -0.066  -0.030   0.028  -2.317   0.001   0.084   0.029  -0.043   2.408  -0.007  -0.008   0.030   0.003  -0.009  -0.001
  0.034   0.001   1.039   0.123   0.009  -0.035   0.001  -0.964  -0.110  -0.007   2.358  -0.482  -0.002   0.112   0.008   0.000
 -0.008   0.021  -0.115  -0.014   0.011   0.009  -0.018   0.133   0.016  -0.008  -0.482   0.145   0.000  -0.053  -0.023   0.000
 -0.066  -0.158  -0.004   0.004  -0.034   0.051   0.150   0.004  -0.003   0.030  -0.002   0.000   0.184  -0.002  -0.002  -0.006
  0.007  -0.011  -0.202   0.019  -0.004  -0.006   0.009   0.203  -0.019   0.003   0.112  -0.053  -0.002   0.082  -0.007  -0.000
 -0.017   0.003   0.042  -0.159   0.002   0.016  -0.003  -0.031   0.150  -0.009   0.008  -0.023  -0.002  -0.007   0.180   0.000
  0.009   0.004   0.000  -0.000   0.000  -0.004  -0.006  -0.001   0.000  -0.001   0.000   0.000  -0.006  -0.000   0.000   0.000
 -0.000   0.002   0.001   0.006   0.000   0.000  -0.001  -0.006  -0.001  -0.000  -0.007   0.002  -0.000  -0.003   0.000   0.000
  0.001  -0.000  -0.005   0.005   0.006  -0.001   0.000   0.002  -0.006  -0.001  -0.000   0.001   0.000   0.000  -0.006  -0.000


------------------------ aborting loop because EDIFF is reached ----------------------------------------


    CHARGE:  cpu time    0.2965: real time    0.2967
    FORLOC:  cpu time    0.0188: real time    0.0188
    FORNL :  cpu time    1.6506: real time    1.6511
    FORCOR:  cpu time    0.0676: real time    0.0676
    FORHAR:  cpu time    0.0294: real time    0.0296
    MIXING:  cpu time    0.0037: real time    0.0037
    OFIELD:  cpu time    0.0000: real time    0.0000

 VOLUME and BASIS-vectors are now :
 -----------------------------------------------------------------------------
  energy-cutoff  :      400.00
  volume of cell :     2567.68
      direct lattice vectors                 reciprocal lattice vectors
    11.002581515  0.000000000  0.000000000     0.090887761 -0.052474073  0.000000000
     5.501290758  9.528515099  0.000000000     0.000000000  0.104948147  0.000000000
     0.000000000  0.000000000 24.491785094     0.000000000  0.000000000  0.040830017

  length of vectors
    11.002581515 11.002581515 24.491785094     0.104948147  0.104948147  0.040830017


 FORCES acting on ions
    electron-ion (+dipol)            ewald-force                    non-local-force                 convergence-correction
 -----------------------------------------------------------------------------------------------
   0.150E+02 0.286E+01 0.230E+04   -.161E+02 -.291E+01 -.230E+04   0.110E+01 0.545E-01 0.155E-01   0.138E-02 -.603E-04 -.148E-02
   -.155E+02 0.710E+01 0.226E+04   0.160E+02 -.676E+01 -.226E+04   -.562E+00 -.335E+00 -.240E+00   0.110E-02 -.259E-02 -.216E-02
   0.154E+02 -.237E+01 -.230E+04   -.160E+02 0.212E+01 0.230E+04   0.613E+00 0.254E+00 -.108E+00   -.177E-02 -.169E-02 -.170E-03
   0.560E+01 0.322E+01 0.171E+01   -.566E+01 -.258E+01 -.119E+01   0.536E-01 -.628E+00 -.512E+00   -.597E-03 -.239E-02 -.277E-02
   0.791E+01 -.676E+01 -.148E+02   -.775E+01 0.640E+01 0.149E+02   -.155E+00 0.364E+00 -.109E+00   -.125E-02 0.397E-02 -.578E-04
   -.126E+02 0.426E+01 0.226E+04   0.132E+02 -.386E+01 -.226E+04   -.523E+00 -.405E+00 -.227E+00   -.476E-03 -.499E-03 -.179E-02
   -.434E+01 -.451E+01 0.354E+01   0.380E+01 0.418E+01 -.310E+01   0.543E+00 0.332E+00 -.437E+00   -.371E-02 -.389E-02 -.264E-02
   0.459E+01 0.107E+02 0.228E+04   -.414E+01 -.115E+02 -.228E+04   -.446E+00 0.783E+00 -.474E-01   -.193E-02 -.399E-03 -.635E-03
   -.142E+02 0.595E+01 -.230E+04   0.150E+02 -.508E+01 0.230E+04   -.755E+00 -.876E+00 0.159E+00   0.598E-03 0.336E-02 -.165E-02
   0.106E+02 0.111E+01 0.224E+04   -.109E+02 -.132E+01 -.224E+04   0.322E+00 0.204E+00 -.282E+00   -.261E-02 0.314E-02 0.171E-03
   0.439E+01 0.157E+02 -.222E+04   -.441E+01 -.168E+02 0.222E+04   0.137E-01 0.113E+01 0.181E+00   0.115E-02 0.214E-02 0.484E-03
   0.935E+01 0.118E+01 -.156E+02   -.896E+01 -.150E+01 0.144E+02   -.391E+00 0.314E+00 0.124E+01   0.971E-03 0.494E-02 -.226E-02
   0.156E+02 0.125E+02 0.225E+04   -.165E+02 -.127E+02 -.225E+04   0.925E+00 0.231E+00 -.334E+00   -.636E-03 -.184E-02 -.498E-03
   0.767E+01 0.197E+02 -.231E+04   -.811E+01 -.195E+02 0.231E+04   0.440E+00 -.179E+00 -.253E+00   0.161E-02 0.269E-02 -.890E-03
   0.144E+02 0.109E+02 -.526E+02   -.132E+02 -.102E+02 0.520E+02   -.124E+01 -.657E+00 0.527E+00   0.324E-02 0.212E-02 -.436E-02
   -.149E+02 -.127E+02 -.227E+04   0.151E+02 0.127E+02 0.227E+04   -.221E+00 -.718E-01 0.291E+00   -.236E-02 -.466E-02 -.106E-02
   -.818E+01 -.509E+01 0.291E+02   0.803E+01 0.389E+01 -.278E+02   0.126E+00 0.120E+01 -.134E+01   0.132E-02 0.253E-02 -.266E-02
   -.864E+01 0.723E+00 0.195E+02   0.827E+01 -.108E+01 -.189E+02   0.386E+00 0.359E+00 -.556E+00   -.990E-03 0.157E-02 -.325E-03
   -.800E+01 -.238E+02 0.229E+04   0.803E+01 0.245E+02 -.229E+04   -.301E-01 -.725E+00 0.330E+00   0.273E-02 0.179E-02 -.842E-03
   -.114E+02 -.123E+02 0.228E+04   0.121E+02 0.124E+02 -.228E+04   -.675E+00 -.128E+00 -.989E-01   0.255E-03 0.166E-02 -.652E-03
   -.151E+01 0.178E+01 -.380E+02   0.183E+01 -.109E+01 0.375E+02   -.329E+00 -.692E+00 0.487E+00   0.368E-02 -.262E-02 -.353E-02
   0.816E+01 -.170E+01 -.232E+04   -.819E+01 0.159E+01 0.233E+04   0.235E-01 0.112E+00 -.277E+00   0.206E-02 -.450E-03 -.148E-02
   -.878E+01 -.289E+01 -.305E+02   0.811E+01 0.272E+01 0.299E+02   0.679E+00 0.168E+00 0.679E+00   0.125E-02 0.945E-03 -.175E-02
   -.229E+01 -.197E+02 -.229E+04   0.211E+01 0.203E+02 0.228E+04   0.179E+00 -.522E+00 0.463E+00   0.242E-02 -.254E-02 -.190E-02
   0.293E+01 0.829E+01 -.194E+04   -.334E+01 -.849E+01 0.194E+04   0.404E+00 0.200E+00 0.166E+01   -.595E-03 0.283E-03 -.117E-03
   0.791E+01 0.414E+01 0.199E+04   -.770E+01 -.429E+01 -.199E+04   -.205E+00 0.155E+00 -.145E+01   -.200E-03 -.753E-04 -.166E-02
   -.313E+01 -.120E+01 -.197E+04   0.348E+01 0.921E+00 0.197E+04   -.358E+00 0.281E+00 0.163E+01   0.716E-03 0.161E-02 -.533E-03
   -.171E+00 -.701E+01 0.601E+01   -.110E+00 0.682E+01 -.565E+01   0.283E+00 0.185E+00 -.354E+00   -.281E-02 0.128E-03 -.613E-03
   0.290E+01 -.852E+01 -.197E+04   -.289E+01 0.868E+01 0.197E+04   -.419E-02 -.147E+00 0.169E+01   -.104E-02 -.267E-02 -.117E-03
   -.584E+01 0.569E+01 -.199E+04   0.583E+01 -.568E+01 0.199E+04   0.176E-01 -.940E-02 0.150E+01   -.141E-02 0.127E-02 -.796E-03
   -.139E+02 0.267E+01 0.197E+04   0.139E+02 -.307E+01 -.197E+04   0.466E-01 0.401E+00 -.128E+01   0.149E-02 -.743E-03 -.798E-03
   -.531E+01 -.568E+01 -.199E+04   0.532E+01 0.604E+01 0.198E+04   -.533E-02 -.360E+00 0.179E+01   -.141E-02 -.531E-04 -.118E-03
   0.462E+01 -.342E+01 0.198E+04   -.480E+01 0.347E+01 -.198E+04   0.189E+00 -.581E-01 -.138E+01   -.419E-03 0.162E-02 -.134E-02
   -.844E+00 -.347E+01 0.519E+02   0.708E+00 0.345E+01 -.510E+02   0.135E+00 0.218E-01 -.897E+00   -.214E-03 -.572E-04 -.397E-02
   -.101E+02 -.336E+01 0.196E+04   0.105E+02 0.342E+01 -.196E+04   -.430E+00 -.722E-01 -.148E+01   0.245E-02 -.112E-02 0.145E-02
   -.593E+01 -.449E+01 -.198E+04   0.594E+01 0.410E+01 0.198E+04   -.119E-02 0.393E+00 0.177E+01   -.245E-02 -.125E-02 -.104E-02
   -.629E+01 -.173E+02 0.197E+04   0.666E+01 0.177E+02 -.196E+04   -.375E+00 -.345E+00 -.143E+01   -.153E-03 0.325E-02 0.172E-02
   -.321E+01 0.503E+01 -.337E+02   0.313E+01 -.437E+01 0.337E+02   0.945E-01 -.659E+00 -.254E-01   -.123E-02 0.111E-02 -.195E-02
   0.110E+02 0.159E+02 0.195E+04   -.110E+02 -.161E+02 -.195E+04   0.461E-01 0.164E+00 -.192E+01   -.189E-03 -.447E-02 -.957E-03
   0.307E+01 0.541E+01 -.143E+02   -.272E+01 -.543E+01 0.144E+02   -.353E+00 0.236E-01 -.337E-01   0.252E-03 -.241E-02 -.954E-03
   -.101E+02 -.852E+01 0.199E+04   0.102E+02 0.854E+01 -.199E+04   -.144E+00 -.821E-02 -.163E+01   -.127E-02 0.125E-02 -.155E-02
   0.441E+01 0.180E+01 0.226E+02   -.435E+01 -.168E+01 -.221E+02   -.616E-01 -.124E+00 -.480E+00   0.711E-03 0.798E-03 -.188E-02
   -.629E+01 -.214E+00 0.205E+02   0.603E+01 0.831E-01 -.202E+02   0.266E+00 0.142E+00 -.337E+00   -.936E-03 -.292E-02 -.270E-02
   -.155E+02 -.433E+01 -.200E+04   0.159E+02 0.435E+01 0.200E+04   -.383E+00 -.196E-01 0.151E+01   0.233E-02 0.132E-02 -.183E-02
   -.972E+00 -.265E+01 -.611E+02   0.111E+01 0.262E+01 0.603E+02   -.143E+00 0.255E-01 0.835E+00   0.704E-03 -.356E-02 -.184E-02
   0.197E+02 0.835E+01 0.196E+04   -.203E+02 -.829E+01 -.195E+04   0.618E+00 -.638E-01 -.169E+01   -.204E-02 -.188E-02 0.136E-02
   0.106E+02 0.196E+02 -.199E+04   -.109E+02 -.200E+02 0.199E+04   0.297E+00 0.397E+00 0.138E+01   -.373E-03 0.172E-02 -.593E-03
   0.122E+02 -.126E+02 -.198E+04   -.122E+02 0.131E+02 0.198E+04   0.234E-01 -.564E+00 0.157E+01   0.123E-02 -.767E-03 -.527E-04
 -----------------------------------------------------------------------------------------------
   -.435E-01 -.201E+00 -.453E+00   -.259E-12 -.217E-12 0.114E-11   0.415E-01 0.247E+00 0.506E+00   0.579E-03 -.397E-03 -.558E-01
 
 
 POSITION                                       TOTAL-FORCE (eV/Angst)
 -----------------------------------------------------------------------------------
      1.33939      0.79147      9.63575         0.004412      0.002487      0.002491
     13.78612      7.94299      9.74413        -0.004090     -0.005818     -0.002186
     10.96670      4.76015     14.81928         0.002140      0.001331     -0.005432
     10.99412      6.36516     12.24021        -0.002386      0.005774      0.002348
      8.25534      1.57938     12.25505         0.001256      0.004105      0.000339
     11.02807      7.94268      9.69355        -0.007845     -0.007010      0.010800
      8.23081      6.34667     12.24264        -0.004185     -0.004874      0.000881
      9.63505      5.53412      9.68146        -0.005360      0.010088     -0.000765
      6.89586      2.40336     14.82293         0.001741      0.001929     -0.001598
      8.24238      3.16993      9.76513        -0.005791     -0.004652     -0.003415
      5.49523     -0.02567     14.70402        -0.003700     -0.004054      0.004301
      5.51238      1.57194     12.24139         0.004094     -0.003303      0.002783
      8.22912      7.92718      9.71017         0.008232     -0.002527     -0.009282
      4.10858      2.37505     14.86073         0.000877      0.000946      0.003500
      4.15865      3.98289     12.29496        -0.001833      0.005492      0.003442
      6.88429      7.16072     14.76281         0.006250      0.006290      0.000649
      2.75644      1.56151     12.22228        -0.014145      0.002364      0.002818
     10.99869      1.56719     12.22423         0.011721      0.002554      0.001950
      2.75609      3.20388      9.66959         0.000283     -0.001477      0.001889
      4.14646      0.81093      9.65539        -0.004702     -0.003203     -0.013066
     13.77145      6.36998     12.27851         0.001441      0.000116     -0.000148
      2.73543      4.76896     14.89386         0.000058     -0.000498      0.004800
     12.36678      3.96603     12.26609         0.007276     -0.006934     -0.003275
      4.11996      7.17791     14.79937         0.000491      0.000663      0.004602
      2.72989     -0.00131     14.56652         0.001079     -0.002744      0.002711
      9.63035      0.78543      9.85408        -0.001666      0.003111      0.002021
      8.25665      0.00199     14.60789         0.000135      0.001021     -0.003050
      9.61648      3.97346     12.23288        -0.001533     -0.000059      0.005295
      9.61913      7.15269     14.59754         0.000226      0.008651      0.003009
      9.62821      2.37916     14.62590        -0.000260      0.001178      0.002563
     12.39149      5.55066      9.86567         0.002768      0.003858     -0.000385
     -0.00392      0.03052     14.60965         0.004680      0.000432     -0.005179
     11.00437      3.17505      9.83743         0.005299     -0.006467     -0.003207
      9.62668      8.72974     12.18084        -0.001969     -0.001166     -0.004404
      4.14941      5.55604      9.91211        -0.005214     -0.005433      0.006799
      8.24901      4.76188     14.63044         0.002018     -0.002211     -0.001498
      5.51220      3.19034      9.88606        -0.000788      0.000950      0.000415
      6.88372      3.97267     12.28345         0.006417      0.003094      0.000705
      5.49960      7.92576      9.90569        -0.002377      0.000704     -0.001953
     15.14332      8.71057     12.25930        -0.002904      0.000389     -0.000424
      6.88967      0.79975      9.84340         0.002184      0.002471     -0.002451
     12.38288      8.72850     12.21363        -0.003812     -0.003203      0.004710
      6.87264      8.71842     12.21678         0.004969      0.007263     -0.002531
      5.50048      4.77133     14.68345        -0.002554      0.000644     -0.007350
      5.50915      6.37038     12.31283        -0.002034     -0.004807     -0.000601
      6.84858      5.55880      9.90741         0.000307     -0.005931      0.006691
      1.36230      2.37306     14.64641         0.002353      0.001400     -0.006547
     12.36952      7.15803     14.63994        -0.003559     -0.002937     -0.003765
 -----------------------------------------------------------------------------------
    total drift:                               -0.001452      0.045306     -0.002742


--------------------------------------------------------------------------------------------------------



  FREE ENERGIE OF THE ION-ELECTRON SYSTEM (eV)
  ---------------------------------------------------
  free  energy   TOTEN  =      -192.18845303 eV

  energy  without entropy=     -191.94059629  energy(sigma->0) =     -192.06452466
 
 d Force = 0.3059498E-03[-0.480E-05, 0.617E-03]  d Energy = 0.3342603E-03-0.283E-04
 d Force =-0.7746250E+00[-0.743E+00,-0.806E+00]  d Ewald  =-0.7746217E+00-0.329E-05


--------------------------------------------------------------------------------------------------------


    POTLOK:  cpu time    0.0578: real time    0.0578


--------------------------------------------------------------------------------------------------------


 stress matrix after NEB project (eV)
      0.00000      0.00000      0.00000
      0.00000      0.00000      0.00000
      0.00000      0.00000      0.00000
  FORCES: max atom, RMS     0.015077    0.007506
  FORCE total and by dimension    0.052003    0.014145
  Stress total and by dimension    0.000000    0.000000
 Conjugate gradient step on ions:
 trial-energy change:   -0.000334  1 .order   -0.000306   -0.000617    0.000005
  (g-gl).g = 0.203E-03      g.g   = 0.188E-03  gl.gl    = 0.617E-03
 g(Force)  = 0.188E-03   g(Stress)= 0.000E+00 ortho     = 0.265E-05
 gamma     =   0.32815
 trial     =   3.25784
 opt step  =   3.23804  (harmonic =   3.23266) maximal distance =0.00346890
 next E    =  -192.188453   (d E  =  -0.00033)


--------------------------------------------------------------------------------------------------------


  
 reached required accuracy - stopping structural energy minimisation
     LOOP+:  cpu time   81.8610: real time   82.1549
    4ORBIT:  cpu time    0.0000: real time    0.0000

 total amount of memory used by VASP on root node    84353. kBytes
========================================================================

   base      :      30000. kBytes
   nonlr-proj:       4285. kBytes
   fftplans  :       4447. kBytes
   grid      :       6721. kBytes
   one-center:        124. kBytes
   wavefun   :      38776. kBytes
 
  
  
 General timing and accounting informations for this job:
 ========================================================
  
                  Total CPU time used (sec):     2353.629
                            User time (sec):     2260.521
                          System time (sec):       93.108
                         Elapsed time (sec):     2387.265
  
                   Maximum memory used (kb):      946644.
                   Average memory used (kb):           0.
  
                          Minor page faults:       896910
                          Major page faults:            2
                 Voluntary context switches:        10713
