<?xml version="1.0" encoding="ISO-8859-1"?>
<modeling>
 <generator>
  <i name="program" type="string">vasp </i>
  <i name="version" type="string">5.4.1  </i>
  <i name="subversion" type="string">24Jun15 (build Mar 14 2019 10:18:33) complex                          parallel </i>
  <i name="platform" type="string">INTEL-19.0.2+OPENMPI-3.1.3 </i>
  <i name="date" type="string">2022 07 11 </i>
  <i name="time" type="string">20:54:05 </i>
 </generator>
 <incar>
  <i type="int" name="ISTART">     0</i>
  <i type="string" name="PREC">normal</i>
  <i type="string" name="ALGO"> Fast</i>
  <i type="int" name="NELM">   500</i>
  <i type="int" name="IBRION">     2</i>
  <i type="int" name="NFREE">     2</i>
  <i name="EDIFF">      0.00000100</i>
  <i name="EDIFFG">     -0.02000000</i>
  <i type="int" name="NSW">   500</i>
  <i type="int" name="ISIF">     0</i>
  <i type="int" name="ISYM">     2</i>
  <i name="ENCUT">    400.00000000</i>
  <i name="POTIM">      0.35000000</i>
  <i type="string" name="LREAL"> Auto</i>
  <i type="logical" name="LPLANE"> T  </i>
  <i type="int" name="ISMEAR">     0</i>
  <i name="SIGMA">      0.10000000</i>
  <i type="int" name="NWRITE">     1</i>
  <i type="logical" name="LWAVE"> F  </i>
  <i type="logical" name="LCHARG"> F  </i>
  <i type="logical" name="LVTOT"> F  </i>
  <i type="logical" name="LORBIT"> F  </i>
  <i type="logical" name="LAECHG"> F  </i>
  <v type="int" name="KPOINT_BSE">    -1     0     0     0</v>
  <i type="int" name="NELM">   500</i>
  <i type="string" name="GGA"> PE          ! optPBE-vdW XC-functional</i>
  <i type="int" name="VOSKOWN">     1</i>
  <i type="logical" name="LDIPOL"> T  </i>
  <i type="logical" name="LMONO"> F  </i>
  <i type="int" name="IDIPOL">     3</i>
  <v name="DIPOL">      0.00000000      0.00000000      0.50000000</v>
 </incar>
 <kpoints>
  <generation param="Monkhorst-Pack">
   <v type="int" name="divisions">       2        2        1 </v>
   <v name="usershift">      0.00000000       0.00000000       0.00000000 </v>
   <v name="genvec1">      0.50000000      -0.00000000       0.00000000 </v>
   <v name="genvec2">      0.00000000       0.50000000       0.00000000 </v>
   <v name="genvec3">      0.00000000       0.00000000       1.00000000 </v>
   <v name="shift">      0.50000000       0.50000000       0.00000000 </v>
  </generation>
  <varray name="kpointlist" >
   <v>       0.25000000       0.25000000       0.00000000 </v>
   <v>       0.00000000       0.25000000       0.00000000 </v>
   <v>      -0.25000000       0.00000000       0.00000000 </v>
   <v>      -0.25000000       0.25000000       0.00000000 </v>
   <v>       0.50000000      -0.25000000       0.00000000 </v>
   <v>      -0.25000000       0.50000000       0.00000000 </v>
  </varray>
  <varray name="weights" >
   <v>       0.16666667 </v>
   <v>       0.16666667 </v>
   <v>       0.16666667 </v>
   <v>       0.16666667 </v>
   <v>       0.16666667 </v>
   <v>       0.16666667 </v>
  </varray>
 </kpoints>
 <parameters>
  <separator name="general" >
   <i type="string" name="SYSTEM">unknown system</i>
   <i type="logical" name="LCOMPAT"> F  </i>
  </separator>
  <separator name="electronic" >
   <i type="string" name="PREC">normal</i>
   <i name="ENMAX">    400.00000000</i>
   <i name="ENAUG">    416.23000000</i>
   <i name="EDIFF">      0.00000100</i>
   <i type="int" name="IALGO">    68</i>
   <i type="int" name="IWAVPR">    11</i>
   <i type="int" name="NBANDS">   306</i>
   <i name="NELECT">    504.00000000</i>
   <i type="int" name="TURBO">     0</i>
   <i type="int" name="IRESTART">     0</i>
   <i type="int" name="NREBOOT">     0</i>
   <i type="int" name="NMIN">     0</i>
   <i name="EREF">      0.00000000</i>
   <separator name="electronic smearing" >
    <i type="int" name="ISMEAR">     0</i>
    <i name="SIGMA">      0.10000000</i>
    <i name="KSPACING">      0.50000000</i>
    <i type="logical" name="KGAMMA"> T  </i>
   </separator>
   <separator name="electronic projectors" >
    <i type="logical" name="LREAL"> T  </i>
    <v name="ROPT">     -0.00050000     -0.00050000</v>
    <i type="int" name="LMAXPAW">  -100</i>
    <i type="int" name="LMAXMIX">     2</i>
    <i type="logical" name="NLSPLINE"> F  </i>
   </separator>
   <separator name="electronic startup" >
    <i type="int" name="ISTART">     0</i>
    <i type="int" name="ICHARG">     2</i>
    <i type="int" name="INIWAV">     1</i>
   </separator>
   <separator name="electronic spin" >
    <i type="int" name="ISPIN">     1</i>
    <i type="logical" name="LNONCOLLINEAR"> F  </i>
    <v name="MAGMOM">      1.00000000      1.00000000      1.00000000      1.00000000      1.00000000      1.00000000      1.00000000      1.00000000      1.00000000      1.00000000      1.00000000      1.00000000      1.00000000      1.00000000      1.00000000      1.00000000      1.00000000      1.00000000      1.00000000      1.00000000
      1.00000000      1.00000000      1.00000000      1.00000000      1.00000000      1.00000000      1.00000000      1.00000000      1.00000000      1.00000000      1.00000000      1.00000000      1.00000000      1.00000000      1.00000000      1.00000000      1.00000000      1.00000000      1.00000000      1.00000000
      1.00000000      1.00000000      1.00000000      1.00000000      1.00000000      1.00000000      1.00000000      1.00000000</v>
    <i name="NUPDOWN">     -1.00000000</i>
    <i type="logical" name="LSORBIT"> F  </i>
    <v name="SAXIS">      0.00000000      0.00000000      1.00000000</v>
    <i type="logical" name="LSPIRAL"> F  </i>
    <v name="QSPIRAL">      0.00000000      0.00000000      0.00000000</v>
    <i type="logical" name="LZEROZ"> F  </i>
   </separator>
   <separator name="electronic exchange-correlation" >
    <i type="logical" name="LASPH"> F  </i>
    <i type="logical" name="LMETAGGA"> F  </i>
   </separator>
   <separator name="electronic convergence" >
    <i type="int" name="NELM">   500</i>
    <i type="int" name="NELMDL">    -5</i>
    <i type="int" name="NELMIN">     2</i>
    <i name="ENINI">    400.00000000</i>
    <separator name="electronic convergence detail" >
     <i type="logical" name="LDIAG"> T  </i>
     <i type="logical" name="LSUBROT"> F  </i>
     <i name="WEIMIN">      0.00100000</i>
     <i name="EBREAK">      0.00000000</i>
     <i name="DEPER">      0.30000000</i>
     <i type="int" name="NRMM">     4</i>
     <i name="TIME">      0.40000000</i>
    </separator>
   </separator>
   <separator name="electronic mixer" >
    <i name="AMIX">      0.40000000</i>
    <i name="BMIX">      1.00000000</i>
    <i name="AMIN">      0.10000000</i>
    <i name="AMIX_MAG">      1.60000000</i>
    <i name="BMIX_MAG">      1.00000000</i>
    <separator name="electronic mixer details" >
     <i type="int" name="IMIX">     4</i>
     <i type="logical" name="MIXFIRST"> F  </i>
     <i type="int" name="MAXMIX">   -45</i>
     <i name="WC">    100.00000000</i>
     <i type="int" name="INIMIX">     1</i>
     <i type="int" name="MIXPRE">     1</i>
     <i type="int" name="MREMOVE">     5</i>
    </separator>
   </separator>
   <separator name="electronic dipolcorrection" >
    <i type="logical" name="LDIPOL"> T  </i>
    <i type="logical" name="LMONO"> F  </i>
    <i type="int" name="IDIPOL">     3</i>
    <i name="EPSILON">      1.00000000</i>
    <v name="DIPOL">      0.00000000      0.00000000      0.50000000</v>
    <i name="EFIELD">      0.00000000</i>
   </separator>
  </separator>
  <separator name="grids" >
   <i type="int" name="NGX">    54</i>
   <i type="int" name="NGY">    54</i>
   <i type="int" name="NGZ">   120</i>
   <i type="int" name="NGXF">   108</i>
   <i type="int" name="NGYF">   108</i>
   <i type="int" name="NGZF">   240</i>
   <i type="logical" name="ADDGRID"> F  </i>
  </separator>
  <separator name="ionic" >
   <i type="int" name="NSW">   500</i>
   <i type="int" name="IBRION">     2</i>
   <i type="int" name="ISIF">     0</i>
   <i name="PSTRESS">      0.00000000</i>
   <i name="EDIFFG">     -0.02000000</i>
   <i type="int" name="NFREE">     2</i>
   <i name="POTIM">      0.35000000</i>
   <i name="SMASS">     -3.00000000</i>
   <i name="SCALEE">      1.00000000</i>
  </separator>
  <separator name="ionic md" >
   <i name="TEBEG">      0.00010000</i>
   <i name="TEEND">      0.00010000</i>
   <i type="int" name="NBLOCK">     1</i>
   <i type="int" name="KBLOCK">   500</i>
   <i type="int" name="NPACO">   256</i>
   <i name="APACO">     16.00000000</i>
  </separator>
  <separator name="symmetry" >
   <i type="int" name="ISYM">     2</i>
   <i name="SYMPREC">      0.00001000</i>
  </separator>
  <separator name="dos" >
   <i type="logical" name="LORBIT"> F  </i>
   <v name="RWIGS">     -1.00000000     -1.00000000</v>
   <i type="int" name="NEDOS">   301</i>
   <i name="EMIN">     10.00000000</i>
   <i name="EMAX">    -10.00000000</i>
   <i name="EFERMI">      0.00000000</i>
  </separator>
  <separator name="writing" >
   <i type="int" name="NWRITE">     1</i>
   <i type="logical" name="LWAVE"> F  </i>
   <i type="logical" name="LCHARG"> F  </i>
   <i type="logical" name="LPARD"> F  </i>
   <i type="logical" name="LVTOT"> F  </i>
   <i type="logical" name="LVHAR"> F  </i>
   <i type="logical" name="LELF"> F  </i>
   <i type="logical" name="LOPTICS"> F  </i>
   <v name="STM">      0.00000000      0.00000000      0.00000000      0.00000000      0.00000000      0.00000000      0.00000000</v>
  </separator>
  <separator name="performance" >
   <i type="int" name="NPAR">     6</i>
   <i type="int" name="NSIM">     4</i>
   <i type="int" name="NBLK">    -1</i>
   <i type="logical" name="LPLANE"> T  </i>
   <i type="logical" name="LSCALAPACK"> T  </i>
   <i type="logical" name="LSCAAWARE"> F  </i>
   <i type="logical" name="LSCALU"> F  </i>
   <i type="logical" name="LASYNC"> F  </i>
   <i type="logical" name="LORBITALREAL"> F  </i>
  </separator>
  <separator name="miscellaneous" >
   <i type="int" name="IDIOT">     3</i>
   <i type="logical" name="LMUSIC"> F  </i>
   <v name="POMASS">    196.96600000    106.42000000</v>
   <v name="DARWINR">      0.00000000      0.00000000</v>
   <v name="DARWINV">      1.00000000      1.00000000</v>
   <i type="logical" name="LCORR"> T  </i>
  </separator>
  <i type="logical" name="GGA_COMPAT"> T  </i>
  <i type="logical" name="LBERRY"> F  </i>
  <i type="int" name="ICORELEVEL">     0</i>
  <i type="logical" name="LDAU"> F  </i>
  <i type="int" name="I_CONSTRAINED_M">     0</i>
  <separator name="electronic exchange-correlation" >
   <i type="string" name="GGA">PE</i>
   <i type="int" name="VOSKOWN">     1</i>
   <i type="logical" name="LHFCALC"> F  </i>
   <i type="string" name="PRECFOCK"></i>
   <i type="logical" name="LSYMGRAD"> F  </i>
   <i type="logical" name="LHFONE"> F  </i>
   <i type="logical" name="LRHFCALC"> F  </i>
   <i type="logical" name="LTHOMAS"> F  </i>
   <i type="logical" name="LMODELHF"> F  </i>
   <i name="ENCUT4O">     -1.00000000</i>
   <i type="int" name="EXXOEP">     0</i>
   <i type="int" name="FOURORBIT">     0</i>
   <i name="AEXX">      0.00000000</i>
   <i name="HFALPHA">      0.00000000</i>
   <i name="MCALPHA">      0.00000000</i>
   <i name="ALDAX">      1.00000000</i>
   <i name="AGGAX">      1.00000000</i>
   <i name="ALDAC">      1.00000000</i>
   <i name="AGGAC">      1.00000000</i>
   <i type="int" name="NKREDX">     1</i>
   <i type="int" name="NKREDY">     1</i>
   <i type="int" name="NKREDZ">     1</i>
   <i type="logical" name="SHIFTRED"> F  </i>
   <i type="logical" name="ODDONLY"> F  </i>
   <i type="logical" name="EVENONLY"> F  </i>
   <i type="int" name="LMAXFOCK">     0</i>
   <i type="int" name="NMAXFOCKAE">     0</i>
   <i type="logical" name="LFOCKAEDFT"> F  </i>
   <i name="HFSCREEN">      0.00000000</i>
   <i name="HFSCREENC">      0.00000000</i>
   <i type="int" name="NBANDSGWLOW">     0</i>
  </separator>
  <separator name="vdW DFT" >
   <i type="logical" name="LUSE_VDW"> F  </i>
   <i name="Zab_VDW">     -0.84910000</i>
   <i name="PARAM1">      0.12340000</i>
   <i name="PARAM2">      1.00000000</i>
   <i name="PARAM3">      0.00000000</i>
  </separator>
  <separator name="model GW" >
   <i type="int" name="MODEL_GW">     0</i>
   <i name="MODEL_EPS0">     32.09595293</i>
   <i name="MODEL_ALPHA">      1.00000000</i>
  </separator>
  <separator name="linear response parameters" >
   <i type="logical" name="LEPSILON"> F  </i>
   <i type="logical" name="LRPA"> F  </i>
   <i type="logical" name="LNABLA"> F  </i>
   <i type="logical" name="LVEL"> F  </i>
   <i type="int" name="KINTER">     0</i>
   <i name="CSHIFT">      0.10000000</i>
   <i name="OMEGAMAX">     -1.00000000</i>
   <i name="DEG_THRESHOLD">      0.00200000</i>
  </separator>
  <separator name="orbital magnetization" >
   <i type="logical" name="NUCIND"> F  </i>
   <v name="MAGPOS">      0.00000000      0.00000000      0.00000000</v>
   <i type="logical" name="LNICSALL"> T  </i>
   <i type="logical" name="ORBITALMAG"> F  </i>
   <i type="logical" name="LMAGBLOCH"> F  </i>
   <i type="logical" name="LCHIMAG"> F  </i>
   <i type="logical" name="LGAUGE"> T  </i>
   <i type="int" name="MAGATOM">     0</i>
   <v name="MAGDIPOL">      0.00000000      0.00000000      0.00000000</v>
   <v name="AVECCONST">      0.00000000      0.00000000      0.00000000</v>
  </separator>
  <separator name="response functions" >
   <i type="logical" name="LADDER"> F  </i>
   <i type="logical" name="LFXC"> F  </i>
   <i type="logical" name="LHARTREE"> T  </i>
   <i type="int" name="IBSE">     0</i>
   <v type="int" name="KPOINT">    -1     0     0     0</v>
   <i type="logical" name="LTCTE"> F  </i>
   <i type="logical" name="LTETE"> F  </i>
   <i type="logical" name="LTRIPLET"> F  </i>
   <i type="logical" name="LFXCEPS"> F  </i>
   <i type="logical" name="LFXHEG"> F  </i>
   <i type="int" name="NATURALO">     0</i>
   <i type="logical" name="L2ORDER"> F  </i>
   <i type="logical" name="LUSEW"> F  </i>
   <i name="ENCUTGW">     -2.00000000</i>
   <i name="ENCUTGWSOFT">     -2.00000000</i>
   <i name="ENCUTLF">     -1.00000000</i>
   <i type="int" name="LMAXMP2">    -1</i>
   <i name="SCISSOR">      0.00000000</i>
   <i type="int" name="NOMEGA">     0</i>
   <i type="int" name="NOMEGAR">     0</i>
   <i type="int" name="NBANDSGW">    -1</i>
   <i type="int" name="NBANDSO">    -1</i>
   <i type="int" name="NBANDSV">    -1</i>
   <i type="int" name="NELM">   500</i>
   <i type="int" name="NELMHF">     1</i>
   <i type="int" name="DIM">     3</i>
   <i type="int" name="ANTIRES">     0</i>
   <i name="OMEGAMAX">    -30.00000000</i>
   <i name="OMEGAMIN">    -30.00000000</i>
   <i name="OMEGATL">   -200.00000000</i>
   <i type="int" name="OMEGAGRID">     0</i>
   <i name="CSHIFT">     -0.10000000</i>
   <i type="logical" name="SELFENERGY"> F  </i>
   <i type="logical" name="LSPECTRAL"> F  </i>
   <i type="logical" name="LSPECTRALGW"> F  </i>
   <i type="logical" name="LSINGLES"> F  </i>
   <i type="logical" name="LFERMIGW"> F  </i>
   <i type="logical" name="ODDONLYGW"> F  </i>
   <i type="logical" name="EVENONLYGW"> F  </i>
   <i type="int" name="NKREDLFX">     1</i>
   <i type="int" name="NKREDLFY">     1</i>
   <i type="int" name="NKREDLFZ">     1</i>
   <i type="int" name="MAXMEM">  1800</i>
   <i type="int" name="TELESCOPE">     0</i>
   <i type="int" name="TAUPAR">     1</i>
   <i type="int" name="OMEGAPAR">    -1</i>
   <i name="LAMBDA">      1.00000000</i>
  </separator>
  <separator name="External order field" >
   <i name="OFIELD_KAPPA">      0.00000000</i>
   <v name="OFIELD_K">      0.00000000      0.00000000      0.00000000</v>
   <i name="OFIELD_Q6_NEAR">      0.00000000</i>
   <i name="OFIELD_Q6_FAR">      0.00000000</i>
   <i name="OFIELD_A">      0.00000000</i>
  </separator>
 </parameters>
 <atominfo>
  <atoms>      48 </atoms>
  <types>       2 </types>
  <array name="atoms" >
   <dimension dim="1">ion</dimension>
   <field type="string">element</field>
   <field type="int">atomtype</field>
   <set>
    <rc><c>Au</c><c>   1</c></rc>
    <rc><c>Au</c><c>   1</c></rc>
    <rc><c>Au</c><c>   1</c></rc>
    <rc><c>Au</c><c>   1</c></rc>
    <rc><c>Au</c><c>   1</c></rc>
    <rc><c>Au</c><c>   1</c></rc>
    <rc><c>Au</c><c>   1</c></rc>
    <rc><c>Au</c><c>   1</c></rc>
    <rc><c>Au</c><c>   1</c></rc>
    <rc><c>Au</c><c>   1</c></rc>
    <rc><c>Au</c><c>   1</c></rc>
    <rc><c>Au</c><c>   1</c></rc>
    <rc><c>Au</c><c>   1</c></rc>
    <rc><c>Au</c><c>   1</c></rc>
    <rc><c>Au</c><c>   1</c></rc>
    <rc><c>Au</c><c>   1</c></rc>
    <rc><c>Au</c><c>   1</c></rc>
    <rc><c>Au</c><c>   1</c></rc>
    <rc><c>Au</c><c>   1</c></rc>
    <rc><c>Au</c><c>   1</c></rc>
    <rc><c>Au</c><c>   1</c></rc>
    <rc><c>Au</c><c>   1</c></rc>
    <rc><c>Au</c><c>   1</c></rc>
    <rc><c>Au</c><c>   1</c></rc>
    <rc><c>Pd</c><c>   2</c></rc>
    <rc><c>Pd</c><c>   2</c></rc>
    <rc><c>Pd</c><c>   2</c></rc>
    <rc><c>Pd</c><c>   2</c></rc>
    <rc><c>Pd</c><c>   2</c></rc>
    <rc><c>Pd</c><c>   2</c></rc>
    <rc><c>Pd</c><c>   2</c></rc>
    <rc><c>Pd</c><c>   2</c></rc>
    <rc><c>Pd</c><c>   2</c></rc>
    <rc><c>Pd</c><c>   2</c></rc>
    <rc><c>Pd</c><c>   2</c></rc>
    <rc><c>Pd</c><c>   2</c></rc>
    <rc><c>Pd</c><c>   2</c></rc>
    <rc><c>Pd</c><c>   2</c></rc>
    <rc><c>Pd</c><c>   2</c></rc>
    <rc><c>Pd</c><c>   2</c></rc>
    <rc><c>Pd</c><c>   2</c></rc>
    <rc><c>Pd</c><c>   2</c></rc>
    <rc><c>Pd</c><c>   2</c></rc>
    <rc><c>Pd</c><c>   2</c></rc>
    <rc><c>Pd</c><c>   2</c></rc>
    <rc><c>Pd</c><c>   2</c></rc>
    <rc><c>Pd</c><c>   2</c></rc>
    <rc><c>Pd</c><c>   2</c></rc>
   </set>
  </array>
  <array name="atomtypes" >
   <dimension dim="1">type</dimension>
   <field type="int">atomspertype</field>
   <field type="string">element</field>
   <field>mass</field>
   <field>valence</field>
   <field type="string">pseudopotential</field>
   <set>
    <rc><c>  24</c><c>Au</c><c>    196.96600000</c><c>     11.00000000</c><c>  PAW_PBE Au 04Oct2007                  </c></rc>
    <rc><c>  24</c><c>Pd</c><c>    106.42000000</c><c>     10.00000000</c><c>  PAW_PBE Pd 04Jan2005                  </c></rc>
   </set>
  </array>
 </atominfo>
 <structure name="initialpos" >
  <crystal>
   <varray name="basis" >
    <v>      11.00258152       0.00000000       0.00000000 </v>
    <v>       5.50129076       9.52851510       0.00000000 </v>
    <v>       0.00000000       0.00000000      24.49178509 </v>
   </varray>
   <i name="volume">   2567.67623402 </i>
   <varray name="rec_basis" >
    <v>       0.09088776      -0.05247407       0.00000000 </v>
    <v>       0.00000000       0.10494815       0.00000000 </v>
    <v>       0.00000000       0.00000000       0.04083002 </v>
   </varray>
  </crystal>
  <varray name="positions" >
   <v>       0.08333333       0.08333333       0.40830017 </v>
   <v>       0.83333333       0.83333333       0.40830017 </v>
   <v>       0.75000000       0.50000000       0.59169983 </v>
   <v>       0.66666667       0.66666667       0.50000000 </v>
   <v>       0.66666667       0.16666667       0.50000000 </v>
   <v>       0.58333333       0.83333333       0.40830017 </v>
   <v>       0.41666667       0.66666667       0.50000000 </v>
   <v>       0.58333333       0.58333333       0.40830017 </v>
   <v>       0.50000000       0.25000000       0.59169983 </v>
   <v>       0.58333333       0.33333333       0.40830017 </v>
   <v>       0.50000000       0.00000000       0.59169983 </v>
   <v>       0.41666667       0.16666667       0.50000000 </v>
   <v>       0.33333333       0.83333333       0.40830017 </v>
   <v>       0.25000000       0.25000000       0.59169983 </v>
   <v>       0.16666667       0.41666667       0.50000000 </v>
   <v>       0.25000000       0.75000000       0.59169983 </v>
   <v>       0.16666667       0.16666667       0.50000000 </v>
   <v>       0.91666667       0.16666667       0.50000000 </v>
   <v>       0.08333333       0.33333333       0.40830017 </v>
   <v>       0.33333333       0.08333333       0.40830017 </v>
   <v>       0.91666667       0.66666667       0.50000000 </v>
   <v>       0.00000000       0.50000000       0.59169983 </v>
   <v>       0.91666667       0.41666667       0.50000000 </v>
   <v>       0.00000000       0.75000000       0.59169983 </v>
   <v>       0.25000000       0.00000000       0.59169983 </v>
   <v>       0.83333333       0.08333333       0.40830017 </v>
   <v>       0.75000000       0.00000000       0.59169983 </v>
   <v>       0.66666667       0.41666667       0.50000000 </v>
   <v>       0.50000000       0.75000000       0.59169983 </v>
   <v>       0.75000000       0.25000000       0.59169983 </v>
   <v>       0.83333333       0.58333333       0.40830017 </v>
   <v>       0.00000000       0.00000000       0.59169983 </v>
   <v>       0.83333333       0.33333333       0.40830017 </v>
   <v>       0.41666667       0.91666667       0.50000000 </v>
   <v>       0.08333333       0.58333333       0.40830017 </v>
   <v>       0.50000000       0.50000000       0.59169983 </v>
   <v>       0.33333333       0.33333333       0.40830017 </v>
   <v>       0.41666667       0.41666667       0.50000000 </v>
   <v>       0.08333333       0.83333333       0.40830017 </v>
   <v>       0.91666667       0.91666667       0.50000000 </v>
   <v>       0.58333333       0.08333333       0.40830017 </v>
   <v>       0.66666667       0.91666667       0.50000000 </v>
   <v>       0.16666667       0.91666667       0.50000000 </v>
   <v>       0.25000000       0.50000000       0.59169983 </v>
   <v>       0.16666667       0.66666667       0.50000000 </v>
   <v>       0.33333333       0.58333333       0.40830017 </v>
   <v>       0.00000000       0.25000000       0.59169983 </v>
   <v>       0.75000000       0.75000000       0.59169983 </v>
  </varray>
 </structure>
 <calculation>
  <scstep>
   <time name="dav">    9.70    9.71</time>
   <time name="total">    9.79    9.80</time>
   <dipole>
    <v name="dipole">      0.00000000       0.00000000       0.00000074 </v>
    <i name="Tr[quadrupol]"> -10283.20681776 </i>
    <i name="Echarged">      0.00000000 </i>
    <i name="Edipol_quadrupol">      0.00000000 </i>
    <i name="Eion">      0.00000000 </i>
   </dipole>
   <energy>
    <i name="alphaZ">    805.86936440 </i>
    <i name="ewald"> 200398.72493972 </i>
    <i name="hartreedc">-242813.89954443 </i>
    <i name="XCdc">   -327.56469393 </i>
    <i name="pawpsdc">  40340.05962942 </i>
    <i name="pawaedc"> -38292.62782345 </i>
    <i name="eentropy">     -0.12615290 </i>
    <i name="bandstr">   1430.92728756 </i>
    <i name="atom">  41659.78587232 </i>
    <i name="e_fr_energy">   3201.14887871 </i>
    <i name="e_wo_entrp">   3201.27503162 </i>
    <i name="e_0_energy">   3201.21195516 </i>
   </energy>
  </scstep>
  <scstep>
   <time name="dav">   11.09   11.16</time>
   <time name="total">   11.10   11.17</time>
   <dipole>
    <v name="dipole">      0.00000000       0.00000000       0.00000074 </v>
    <i name="Tr[quadrupol]"> -10283.20681776 </i>
    <i name="Echarged">      0.00000000 </i>
    <i name="Edipol_quadrupol">      0.00000000 </i>
    <i name="Eion">      0.00000000 </i>
   </dipole>
   <energy>
    <i name="e_fr_energy">     13.86588213 </i>
    <i name="e_wo_entrp">     14.00040855 </i>
    <i name="e_0_energy">     13.93314534 </i>
   </energy>
  </scstep>
  <scstep>
   <time name="dav">   10.74   10.76</time>
   <time name="total">   10.75   10.76</time>
   <dipole>
    <v name="dipole">      0.00000000       0.00000000       0.00000074 </v>
    <i name="Tr[quadrupol]"> -10283.20681776 </i>
    <i name="Echarged">      0.00000000 </i>
    <i name="Edipol_quadrupol">      0.00000000 </i>
    <i name="Eion">      0.00000000 </i>
   </dipole>
   <energy>
    <i name="e_fr_energy">   -200.17430261 </i>
    <i name="e_wo_entrp">   -199.96578572 </i>
    <i name="e_0_energy">   -200.07004416 </i>
   </energy>
  </scstep>
  <scstep>
   <time name="dav">   10.88   10.89</time>
   <time name="total">   10.88   10.89</time>
   <dipole>
    <v name="dipole">      0.00000000       0.00000000       0.00000074 </v>
    <i name="Tr[quadrupol]"> -10283.20681776 </i>
    <i name="Echarged">      0.00000000 </i>
    <i name="Edipol_quadrupol">      0.00000000 </i>
    <i name="Eion">      0.00000000 </i>
   </dipole>
   <energy>
    <i name="e_fr_energy">   -205.85429315 </i>
    <i name="e_wo_entrp">   -205.63393549 </i>
    <i name="e_0_energy">   -205.74411432 </i>
   </energy>
  </scstep>
  <scstep>
   <time name="dav">   11.38   11.46</time>
   <time name="total">   11.70   11.78</time>
   <dipole>
    <v name="dipole">      0.00000000       0.00000000       0.00000074 </v>
    <i name="Tr[quadrupol]"> -10283.20681776 </i>
    <i name="Echarged">      0.00000000 </i>
    <i name="Edipol_quadrupol">      0.00000000 </i>
    <i name="Eion">      0.00000000 </i>
   </dipole>
   <energy>
    <i name="e_fr_energy">   -206.04862883 </i>
    <i name="e_wo_entrp">   -205.82836126 </i>
    <i name="e_0_energy">   -205.93849505 </i>
   </energy>
  </scstep>
  <scstep>
   <time name="diag">    1.65    1.66</time>
   <time name="diis">    4.64    4.65</time>
   <time name="orth">    0.50    0.50</time>
   <time name="total">    7.30    7.33</time>
   <dipole>
    <v name="dipole">      0.00000000       0.00000000       0.34533290 </v>
    <i name="Tr[quadrupol]"> -10283.90336943 </i>
    <i name="Echarged">      0.00000000 </i>
    <i name="Edipol_quadrupol">      0.00000000 </i>
    <i name="Eion">      0.00000000 </i>
   </dipole>
   <energy>
    <i name="e_fr_energy">   -198.43432737 </i>
    <i name="e_wo_entrp">   -198.19262055 </i>
    <i name="e_0_energy">   -198.31347396 </i>
   </energy>
  </scstep>
  <scstep>
   <time name="diag">    1.85    1.86</time>
   <time name="diis">    4.52    4.52</time>
   <time name="orth">    0.41    0.41</time>
   <time name="total">    7.16    7.18</time>
   <dipole>
    <v name="dipole">      0.00000000       0.00000000      -0.73023365 </v>
    <i name="Tr[quadrupol]"> -10283.00763835 </i>
    <i name="Echarged">      0.00000000 </i>
    <i name="Edipol_quadrupol">      0.00000000 </i>
    <i name="Eion">      0.00000000 </i>
   </dipole>
   <energy>
    <i name="e_fr_energy">   -203.62816991 </i>
    <i name="e_wo_entrp">   -203.43505016 </i>
    <i name="e_0_energy">   -203.53161003 </i>
   </energy>
  </scstep>
  <scstep>
   <time name="diag">    1.66    1.66</time>
   <time name="diis">    4.51    4.51</time>
   <time name="orth">    0.41    0.41</time>
   <time name="total">    6.95    6.96</time>
   <dipole>
    <v name="dipole">      0.00000000       0.00000000       1.96197379 </v>
    <i name="Tr[quadrupol]"> -10285.04534805 </i>
    <i name="Echarged">      0.00000000 </i>
    <i name="Edipol_quadrupol">      0.00000000 </i>
    <i name="Eion">      0.00000000 </i>
   </dipole>
   <energy>
    <i name="e_fr_energy">   -225.76561772 </i>
    <i name="e_wo_entrp">   -225.43335781 </i>
    <i name="e_0_energy">   -225.59948776 </i>
   </energy>
  </scstep>
  <scstep>
   <time name="diag">    1.66    1.66</time>
   <time name="diis">    4.43    4.43</time>
   <time name="orth">    0.41    0.41</time>
   <time name="total">    6.87    6.88</time>
   <dipole>
    <v name="dipole">      0.00000000       0.00000000      -0.73306286 </v>
    <i name="Tr[quadrupol]"> -10286.11151920 </i>
    <i name="Echarged">      0.00000000 </i>
    <i name="Edipol_quadrupol">      0.00000000 </i>
    <i name="Eion">      0.00000000 </i>
   </dipole>
   <energy>
    <i name="e_fr_energy">   -210.81185390 </i>
    <i name="e_wo_entrp">   -210.57764672 </i>
    <i name="e_0_energy">   -210.69475031 </i>
   </energy>
  </scstep>
  <scstep>
   <time name="diag">    1.65    1.65</time>
   <time name="diis">    4.52    4.53</time>
   <time name="orth">    0.40    0.40</time>
   <time name="total">    6.94    6.95</time>
   <dipole>
    <v name="dipole">      0.00000000       0.00000000       0.43493058 </v>
    <i name="Tr[quadrupol]"> -10285.29113021 </i>
    <i name="Echarged">      0.00000000 </i>
    <i name="Edipol_quadrupol">      0.00000000 </i>
    <i name="Eion">      0.00000000 </i>
   </dipole>
   <energy>
    <i name="e_fr_energy">   -197.72024787 </i>
    <i name="e_wo_entrp">   -197.53590046 </i>
    <i name="e_0_energy">   -197.62807417 </i>
   </energy>
  </scstep>
  <scstep>
   <time name="diag">    1.60    1.66</time>
   <time name="diis">    4.51    4.51</time>
   <time name="orth">    0.40    0.40</time>
   <time name="total">    6.87    6.93</time>
   <dipole>
    <v name="dipole">      0.00000000       0.00000000       0.19259558 </v>
    <i name="Tr[quadrupol]"> -10285.47148628 </i>
    <i name="Echarged">      0.00000000 </i>
    <i name="Edipol_quadrupol">      0.00000000 </i>
    <i name="Eion">      0.00000000 </i>
   </dipole>
   <energy>
    <i name="e_fr_energy">   -192.36645974 </i>
    <i name="e_wo_entrp">   -192.16888214 </i>
    <i name="e_0_energy">   -192.26767094 </i>
   </energy>
  </scstep>
  <scstep>
   <time name="diag">    1.65    1.65</time>
   <time name="diis">    4.40    4.40</time>
   <time name="orth">    0.40    0.40</time>
   <time name="total">    6.80    6.81</time>
   <dipole>
    <v name="dipole">      0.00000000       0.00000000       0.12227219 </v>
    <i name="Tr[quadrupol]"> -10285.65708885 </i>
    <i name="Echarged">      0.00000000 </i>
    <i name="Edipol_quadrupol">      0.00000000 </i>
    <i name="Eion">      0.00000000 </i>
   </dipole>
   <energy>
    <i name="e_fr_energy">   -189.10993342 </i>
    <i name="e_wo_entrp">   -188.88869970 </i>
    <i name="e_0_energy">   -188.99931656 </i>
   </energy>
  </scstep>
  <scstep>
   <time name="diag">    1.64    1.64</time>
   <time name="diis">    4.50    4.50</time>
   <time name="orth">    0.40    0.40</time>
   <time name="total">    6.90    6.90</time>
   <dipole>
    <v name="dipole">      0.00000000       0.00000000       0.03545724 </v>
    <i name="Tr[quadrupol]"> -10286.09745308 </i>
    <i name="Echarged">      0.00000000 </i>
    <i name="Edipol_quadrupol">      0.00000000 </i>
    <i name="Eion">      0.00000000 </i>
   </dipole>
   <energy>
    <i name="e_fr_energy">   -188.84861396 </i>
    <i name="e_wo_entrp">   -188.61370937 </i>
    <i name="e_0_energy">   -188.73116167 </i>
   </energy>
  </scstep>
  <scstep>
   <time name="diag">    1.63    1.63</time>
   <time name="diis">    4.52    4.53</time>
   <time name="orth">    0.40    0.40</time>
   <time name="total">    6.91    6.92</time>
   <dipole>
    <v name="dipole">      0.00000000       0.00000000       0.00268810 </v>
    <i name="Tr[quadrupol]"> -10286.28401608 </i>
    <i name="Echarged">      0.00000000 </i>
    <i name="Edipol_quadrupol">      0.00000000 </i>
    <i name="Eion">      0.00000000 </i>
   </dipole>
   <energy>
    <i name="e_fr_energy">   -188.67676584 </i>
    <i name="e_wo_entrp">   -188.42613231 </i>
    <i name="e_0_energy">   -188.55144907 </i>
   </energy>
  </scstep>
  <scstep>
   <time name="diag">    1.64    1.64</time>
   <time name="diis">    4.94    4.97</time>
   <time name="orth">    0.40    0.40</time>
   <time name="total">    7.33    7.37</time>
   <dipole>
    <v name="dipole">      0.00000000       0.00000000       0.01058417 </v>
    <i name="Tr[quadrupol]"> -10286.37205683 </i>
    <i name="Echarged">      0.00000000 </i>
    <i name="Edipol_quadrupol">      0.00000000 </i>
    <i name="Eion">      0.00000000 </i>
   </dipole>
   <energy>
    <i name="e_fr_energy">   -188.61137447 </i>
    <i name="e_wo_entrp">   -188.34587739 </i>
    <i name="e_0_energy">   -188.47862593 </i>
   </energy>
  </scstep>
  <scstep>
   <time name="diag">    1.64    1.64</time>
   <time name="diis">    4.46    4.47</time>
   <time name="orth">    0.40    0.40</time>
   <time name="total">    6.87    6.87</time>
   <dipole>
    <v name="dipole">      0.00000000       0.00000000       0.04166588 </v>
    <i name="Tr[quadrupol]"> -10286.68738488 </i>
    <i name="Echarged">      0.00000000 </i>
    <i name="Edipol_quadrupol">      0.00000000 </i>
    <i name="Eion">      0.00000000 </i>
   </dipole>
   <energy>
    <i name="e_fr_energy">   -188.56090651 </i>
    <i name="e_wo_entrp">   -188.30383559 </i>
    <i name="e_0_energy">   -188.43237105 </i>
   </energy>
  </scstep>
  <scstep>
   <time name="diag">    1.65    1.65</time>
   <time name="diis">    4.33    4.41</time>
   <time name="orth">    0.40    0.40</time>
   <time name="total">    6.75    6.82</time>
   <dipole>
    <v name="dipole">      0.00000000       0.00000000       0.04410290 </v>
    <i name="Tr[quadrupol]"> -10286.93306972 </i>
    <i name="Echarged">      0.00000000 </i>
    <i name="Edipol_quadrupol">      0.00000000 </i>
    <i name="Eion">      0.00000000 </i>
   </dipole>
   <energy>
    <i name="e_fr_energy">   -188.44257268 </i>
    <i name="e_wo_entrp">   -188.17897476 </i>
    <i name="e_0_energy">   -188.31077372 </i>
   </energy>
  </scstep>
  <scstep>
   <time name="diag">    1.63    1.63</time>
   <time name="diis">    4.51    4.52</time>
   <time name="orth">    0.39    0.39</time>
   <time name="total">    6.90    6.91</time>
   <dipole>
    <v name="dipole">      0.00000000       0.00000000       0.02762840 </v>
    <i name="Tr[quadrupol]"> -10287.22841131 </i>
    <i name="Echarged">      0.00000000 </i>
    <i name="Edipol_quadrupol">      0.00000000 </i>
    <i name="Eion">      0.00000000 </i>
   </dipole>
   <energy>
    <i name="e_fr_energy">   -188.39202153 </i>
    <i name="e_wo_entrp">   -188.12432206 </i>
    <i name="e_0_energy">   -188.25817180 </i>
   </energy>
  </scstep>
  <scstep>
   <time name="diag">    1.64    1.64</time>
   <time name="diis">    4.48    4.48</time>
   <time name="orth">    0.39    0.39</time>
   <time name="total">    6.86    6.87</time>
   <dipole>
    <v name="dipole">      0.00000000       0.00000000       0.02224654 </v>
    <i name="Tr[quadrupol]"> -10287.34092992 </i>
    <i name="Echarged">      0.00000000 </i>
    <i name="Edipol_quadrupol">      0.00000000 </i>
    <i name="Eion">      0.00000000 </i>
   </dipole>
   <energy>
    <i name="e_fr_energy">   -188.36847114 </i>
    <i name="e_wo_entrp">   -188.10013535 </i>
    <i name="e_0_energy">   -188.23430324 </i>
   </energy>
  </scstep>
  <scstep>
   <time name="diag">    1.63    1.63</time>
   <time name="diis">    4.50    4.50</time>
   <time name="orth">    0.39    0.39</time>
   <time name="total">    6.88    6.89</time>
   <dipole>
    <v name="dipole">      0.00000000       0.00000000       0.01612109 </v>
    <i name="Tr[quadrupol]"> -10287.49252044 </i>
    <i name="Echarged">      0.00000000 </i>
    <i name="Edipol_quadrupol">      0.00000000 </i>
    <i name="Eion">      0.00000000 </i>
   </dipole>
   <energy>
    <i name="e_fr_energy">   -188.36420907 </i>
    <i name="e_wo_entrp">   -188.09588640 </i>
    <i name="e_0_energy">   -188.23004773 </i>
   </energy>
  </scstep>
  <scstep>
   <time name="diag">    1.64    1.64</time>
   <time name="diis">    4.50    4.50</time>
   <time name="orth">    0.39    0.39</time>
   <time name="total">    6.89    6.90</time>
   <dipole>
    <v name="dipole">      0.00000000       0.00000000       0.01123122 </v>
    <i name="Tr[quadrupol]"> -10287.61613944 </i>
    <i name="Echarged">      0.00000000 </i>
    <i name="Edipol_quadrupol">      0.00000000 </i>
    <i name="Eion">      0.00000000 </i>
   </dipole>
   <energy>
    <i name="e_fr_energy">   -188.36078041 </i>
    <i name="e_wo_entrp">   -188.09191588 </i>
    <i name="e_0_energy">   -188.22634814 </i>
   </energy>
  </scstep>
  <scstep>
   <time name="diag">    1.63    1.63</time>
   <time name="diis">    4.50    4.51</time>
   <time name="orth">    0.39    0.39</time>
   <time name="total">    6.89    6.89</time>
   <dipole>
    <v name="dipole">      0.00000000       0.00000000       0.01373139 </v>
    <i name="Tr[quadrupol]"> -10287.71536110 </i>
    <i name="Echarged">      0.00000000 </i>
    <i name="Edipol_quadrupol">      0.00000000 </i>
    <i name="Eion">      0.00000000 </i>
   </dipole>
   <energy>
    <i name="e_fr_energy">   -188.35917366 </i>
    <i name="e_wo_entrp">   -188.09177437 </i>
    <i name="e_0_energy">   -188.22547402 </i>
   </energy>
  </scstep>
  <scstep>
   <time name="diag">    1.59    1.65</time>
   <time name="diis">    4.50    4.51</time>
   <time name="orth">    0.39    0.39</time>
   <time name="total">    6.96    7.03</time>
   <dipole>
    <v name="dipole">      0.00000000       0.00000000       0.01666924 </v>
    <i name="Tr[quadrupol]"> -10287.85025668 </i>
    <i name="Echarged">      0.00000000 </i>
    <i name="Edipol_quadrupol">      0.00000000 </i>
    <i name="Eion">      0.00000000 </i>
   </dipole>
   <energy>
    <i name="e_fr_energy">   -188.35844835 </i>
    <i name="e_wo_entrp">   -188.09133671 </i>
    <i name="e_0_energy">   -188.22489253 </i>
   </energy>
  </scstep>
  <scstep>
   <time name="diag">    2.01    2.02</time>
   <time name="diis">    4.58    4.59</time>
   <time name="orth">    0.39    0.39</time>
   <time name="total">    7.37    7.40</time>
   <dipole>
    <v name="dipole">      0.00000000       0.00000000       0.01651811 </v>
    <i name="Tr[quadrupol]"> -10287.94944122 </i>
    <i name="Echarged">      0.00000000 </i>
    <i name="Edipol_quadrupol">      0.00000000 </i>
    <i name="Eion">      0.00000000 </i>
   </dipole>
   <energy>
    <i name="e_fr_energy">   -188.35800890 </i>
    <i name="e_wo_entrp">   -188.09037747 </i>
    <i name="e_0_energy">   -188.22419318 </i>
   </energy>
  </scstep>
  <scstep>
   <time name="diag">    1.63    1.63</time>
   <time name="diis">    4.49    4.50</time>
   <time name="orth">    0.39    0.39</time>
   <time name="total">    6.88    6.89</time>
   <dipole>
    <v name="dipole">      0.00000000       0.00000000       0.01452434 </v>
    <i name="Tr[quadrupol]"> -10288.02187466 </i>
    <i name="Echarged">      0.00000000 </i>
    <i name="Edipol_quadrupol">      0.00000000 </i>
    <i name="Eion">      0.00000000 </i>
   </dipole>
   <energy>
    <i name="e_fr_energy">   -188.35818497 </i>
    <i name="e_wo_entrp">   -188.09121010 </i>
    <i name="e_0_energy">   -188.22469754 </i>
   </energy>
  </scstep>
  <scstep>
   <time name="diag">    1.63    1.63</time>
   <time name="diis">    4.40    4.41</time>
   <time name="orth">    0.39    0.39</time>
   <time name="total">    6.79    6.80</time>
   <dipole>
    <v name="dipole">      0.00000000       0.00000000       0.01374368 </v>
    <i name="Tr[quadrupol]"> -10288.06267464 </i>
    <i name="Echarged">      0.00000000 </i>
    <i name="Edipol_quadrupol">      0.00000000 </i>
    <i name="Eion">      0.00000000 </i>
   </dipole>
   <energy>
    <i name="e_fr_energy">   -188.35838468 </i>
    <i name="e_wo_entrp">   -188.09090715 </i>
    <i name="e_0_energy">   -188.22464591 </i>
   </energy>
  </scstep>
  <scstep>
   <time name="diag">    1.63    1.63</time>
   <time name="diis">    4.52    4.52</time>
   <time name="orth">    0.39    0.39</time>
   <time name="total">    6.90    6.91</time>
   <dipole>
    <v name="dipole">      0.00000000       0.00000000       0.01326037 </v>
    <i name="Tr[quadrupol]"> -10288.13179974 </i>
    <i name="Echarged">      0.00000000 </i>
    <i name="Edipol_quadrupol">      0.00000000 </i>
    <i name="Eion">      0.00000000 </i>
   </dipole>
   <energy>
    <i name="e_fr_energy">   -188.35883867 </i>
    <i name="e_wo_entrp">   -188.09149847 </i>
    <i name="e_0_energy">   -188.22516857 </i>
   </energy>
  </scstep>
  <scstep>
   <time name="diag">    1.63    1.63</time>
   <time name="diis">    4.40    4.43</time>
   <time name="orth">    0.38    0.40</time>
   <time name="total">    6.77    6.84</time>
   <dipole>
    <v name="dipole">      0.00000000       0.00000000       0.01280478 </v>
    <i name="Tr[quadrupol]"> -10288.18703445 </i>
    <i name="Echarged">      0.00000000 </i>
    <i name="Edipol_quadrupol">      0.00000000 </i>
    <i name="Eion">      0.00000000 </i>
   </dipole>
   <energy>
    <i name="e_fr_energy">   -188.35922931 </i>
    <i name="e_wo_entrp">   -188.09192729 </i>
    <i name="e_0_energy">   -188.22557830 </i>
   </energy>
  </scstep>
  <scstep>
   <time name="diag">    1.63    1.63</time>
   <time name="diis">    4.32    4.32</time>
   <time name="orth">    0.39    0.39</time>
   <time name="total">    6.71    6.71</time>
   <dipole>
    <v name="dipole">      0.00000000       0.00000000       0.01241205 </v>
    <i name="Tr[quadrupol]"> -10288.23093010 </i>
    <i name="Echarged">      0.00000000 </i>
    <i name="Edipol_quadrupol">      0.00000000 </i>
    <i name="Eion">      0.00000000 </i>
   </dipole>
   <energy>
    <i name="e_fr_energy">   -188.35963895 </i>
    <i name="e_wo_entrp">   -188.09229181 </i>
    <i name="e_0_energy">   -188.22596538 </i>
   </energy>
  </scstep>
  <scstep>
   <time name="diag">    1.63    1.63</time>
   <time name="diis">    4.30    4.30</time>
   <time name="orth">    0.39    0.39</time>
   <time name="total">    6.68    6.69</time>
   <dipole>
    <v name="dipole">      0.00000000       0.00000000       0.01179759 </v>
    <i name="Tr[quadrupol]"> -10288.27355193 </i>
    <i name="Echarged">      0.00000000 </i>
    <i name="Edipol_quadrupol">      0.00000000 </i>
    <i name="Eion">      0.00000000 </i>
   </dipole>
   <energy>
    <i name="e_fr_energy">   -188.36007173 </i>
    <i name="e_wo_entrp">   -188.09275411 </i>
    <i name="e_0_energy">   -188.22641292 </i>
   </energy>
  </scstep>
  <scstep>
   <time name="diag">    1.63    1.63</time>
   <time name="diis">    4.49    4.50</time>
   <time name="orth">    0.39    0.39</time>
   <time name="total">    6.88    6.88</time>
   <dipole>
    <v name="dipole">      0.00000000       0.00000000       0.01064997 </v>
    <i name="Tr[quadrupol]"> -10288.35771601 </i>
    <i name="Echarged">      0.00000000 </i>
    <i name="Edipol_quadrupol">      0.00000000 </i>
    <i name="Eion">      0.00000000 </i>
   </dipole>
   <energy>
    <i name="e_fr_energy">   -188.36083053 </i>
    <i name="e_wo_entrp">   -188.09353397 </i>
    <i name="e_0_energy">   -188.22718225 </i>
   </energy>
  </scstep>
  <scstep>
   <time name="diag">    1.63    1.63</time>
   <time name="diis">    4.28    4.30</time>
   <time name="orth">    0.48    0.49</time>
   <time name="total">    6.89    6.92</time>
   <dipole>
    <v name="dipole">      0.00000000       0.00000000       0.01001373 </v>
    <i name="Tr[quadrupol]"> -10288.40464957 </i>
    <i name="Echarged">      0.00000000 </i>
    <i name="Edipol_quadrupol">      0.00000000 </i>
    <i name="Eion">      0.00000000 </i>
   </dipole>
   <energy>
    <i name="e_fr_energy">   -188.36117656 </i>
    <i name="e_wo_entrp">   -188.09382650 </i>
    <i name="e_0_energy">   -188.22750153 </i>
   </energy>
  </scstep>
  <scstep>
   <time name="diag">    1.54    1.83</time>
   <time name="diis">    3.50    3.50</time>
   <time name="orth">    0.39    0.39</time>
   <time name="total">    5.80    6.13</time>
   <dipole>
    <v name="dipole">      0.00000000       0.00000000       0.00955114 </v>
    <i name="Tr[quadrupol]"> -10288.42645112 </i>
    <i name="Echarged">      0.00000000 </i>
    <i name="Edipol_quadrupol">      0.00000000 </i>
    <i name="Eion">      0.00000000 </i>
   </dipole>
   <energy>
    <i name="e_fr_energy">   -188.36133646 </i>
    <i name="e_wo_entrp">   -188.09399006 </i>
    <i name="e_0_energy">   -188.22766326 </i>
   </energy>
  </scstep>
  <scstep>
   <time name="diag">    1.63    1.63</time>
   <time name="diis">    3.24    3.24</time>
   <time name="orth">    0.40    0.41</time>
   <time name="total">    5.64    5.65</time>
   <dipole>
    <v name="dipole">      0.00000000       0.00000000       0.00933959 </v>
    <i name="Tr[quadrupol]"> -10288.44024234 </i>
    <i name="Echarged">      0.00000000 </i>
    <i name="Edipol_quadrupol">      0.00000000 </i>
    <i name="Eion">      0.00000000 </i>
   </dipole>
   <energy>
    <i name="e_fr_energy">   -188.36141328 </i>
    <i name="e_wo_entrp">   -188.09407062 </i>
    <i name="e_0_energy">   -188.22774195 </i>
   </energy>
  </scstep>
  <scstep>
   <time name="diag">    1.60    1.65</time>
   <time name="diis">    2.81    2.81</time>
   <time name="orth">    0.40    0.40</time>
   <time name="total">    5.16    5.23</time>
   <dipole>
    <v name="dipole">      0.00000000       0.00000000       0.00922229 </v>
    <i name="Tr[quadrupol]"> -10288.45113211 </i>
    <i name="Echarged">      0.00000000 </i>
    <i name="Edipol_quadrupol">      0.00000000 </i>
    <i name="Eion">      0.00000000 </i>
   </dipole>
   <energy>
    <i name="e_fr_energy">   -188.36147589 </i>
    <i name="e_wo_entrp">   -188.09413867 </i>
    <i name="e_0_energy">   -188.22780728 </i>
   </energy>
  </scstep>
  <scstep>
   <time name="diag">    1.64    1.65</time>
   <time name="diis">    2.72    2.72</time>
   <time name="orth">    0.40    0.40</time>
   <time name="total">    5.13    5.13</time>
   <dipole>
    <v name="dipole">      0.00000000       0.00000000       0.00915444 </v>
    <i name="Tr[quadrupol]"> -10288.45557163 </i>
    <i name="Echarged">      0.00000000 </i>
    <i name="Edipol_quadrupol">      0.00000000 </i>
    <i name="Eion">      0.00000000 </i>
   </dipole>
   <energy>
    <i name="e_fr_energy">   -188.36150023 </i>
    <i name="e_wo_entrp">   -188.09415788 </i>
    <i name="e_0_energy">   -188.22782905 </i>
   </energy>
  </scstep>
  <scstep>
   <time name="diag">    1.64    1.64</time>
   <time name="diis">    2.70    2.70</time>
   <time name="orth">    0.40    0.40</time>
   <time name="total">    5.11    5.12</time>
   <dipole>
    <v name="dipole">      0.00000000       0.00000000       0.00898208 </v>
    <i name="Tr[quadrupol]"> -10288.46114339 </i>
    <i name="Echarged">      0.00000000 </i>
    <i name="Edipol_quadrupol">      0.00000000 </i>
    <i name="Eion">      0.00000000 </i>
   </dipole>
   <energy>
    <i name="e_fr_energy">   -188.36152941 </i>
    <i name="e_wo_entrp">   -188.09418619 </i>
    <i name="e_0_energy">   -188.22785780 </i>
   </energy>
  </scstep>
  <scstep>
   <time name="diag">    1.63    1.64</time>
   <time name="diis">    2.48    2.48</time>
   <time name="orth">    0.40    0.40</time>
   <time name="total">    4.88    4.89</time>
   <dipole>
    <v name="dipole">      0.00000000       0.00000000       0.00888739 </v>
    <i name="Tr[quadrupol]"> -10288.46503217 </i>
    <i name="Echarged">      0.00000000 </i>
    <i name="Edipol_quadrupol">      0.00000000 </i>
    <i name="Eion">      0.00000000 </i>
   </dipole>
   <energy>
    <i name="e_fr_energy">   -188.36154434 </i>
    <i name="e_wo_entrp">   -188.09420233 </i>
    <i name="e_0_energy">   -188.22787333 </i>
   </energy>
  </scstep>
  <scstep>
   <time name="diag">    1.64    1.64</time>
   <time name="diis">    2.69    2.69</time>
   <time name="orth">    0.40    0.40</time>
   <time name="total">    5.09    5.09</time>
   <dipole>
    <v name="dipole">      0.00000000       0.00000000       0.00875527 </v>
    <i name="Tr[quadrupol]"> -10288.47056859 </i>
    <i name="Echarged">      0.00000000 </i>
    <i name="Edipol_quadrupol">      0.00000000 </i>
    <i name="Eion">      0.00000000 </i>
   </dipole>
   <energy>
    <i name="e_fr_energy">   -188.36155747 </i>
    <i name="e_wo_entrp">   -188.09421551 </i>
    <i name="e_0_energy">   -188.22788649 </i>
   </energy>
  </scstep>
  <scstep>
   <time name="diag">    1.65    1.65</time>
   <time name="diis">    2.13    2.13</time>
   <time name="orth">    0.40    0.40</time>
   <time name="total">    4.54    4.55</time>
   <dipole>
    <v name="dipole">      0.00000000       0.00000000       0.00870938 </v>
    <i name="Tr[quadrupol]"> -10288.47349442 </i>
    <i name="Echarged">      0.00000000 </i>
    <i name="Edipol_quadrupol">      0.00000000 </i>
    <i name="Eion">      0.00000000 </i>
   </dipole>
   <energy>
    <i name="e_fr_energy">   -188.36155970 </i>
    <i name="e_wo_entrp">   -188.09422023 </i>
    <i name="e_0_energy">   -188.22788996 </i>
   </energy>
  </scstep>
  <scstep>
   <time name="diag">    1.64    1.64</time>
   <time name="diis">    1.98    1.98</time>
   <time name="orth">    0.40    0.40</time>
   <time name="total">    4.08    4.08</time>
   <dipole>
    <v name="dipole">      0.00000000       0.00000000       0.00867732 </v>
    <i name="Tr[quadrupol]"> -10288.47514546 </i>
    <i name="Echarged">      0.00000000 </i>
    <i name="Edipol_quadrupol">      0.00000000 </i>
    <i name="Eion">      0.00000000 </i>
   </dipole>
   <energy>
    <i name="alphaZ">    805.87073507 </i>
    <i name="ewald"> 200398.72493972 </i>
    <i name="hartreedc">-242582.68918470 </i>
    <i name="XCdc">   -343.25793000 </i>
    <i name="pawpsdc">  49406.08687215 </i>
    <i name="pawaedc"> -47484.07748469 </i>
    <i name="eentropy">     -0.26733987 </i>
    <i name="bandstr">  -2048.53804021 </i>
    <i name="atom">  41659.78587232 </i>
    <i name="e_fr_energy">   -188.36156023 </i>
    <i name="e_wo_entrp">   -188.09422036 </i>
    <i name="e_0_energy">   -188.22789029 </i>
   </energy>
  </scstep>
  <structure>
   <crystal>
    <varray name="basis" >
     <v>      11.00258152       0.00000000       0.00000000 </v>
     <v>       5.50129076       9.52851510       0.00000000 </v>
     <v>       0.00000000       0.00000000      24.49178509 </v>
    </varray>
    <i name="volume">   2567.67623402 </i>
    <varray name="rec_basis" >
     <v>       0.09088776      -0.05247407       0.00000000 </v>
     <v>       0.00000000       0.10494815       0.00000000 </v>
     <v>       0.00000000       0.00000000       0.04083002 </v>
    </varray>
   </crystal>
   <varray name="positions" >
    <v>       0.08333333       0.08333333       0.40830017 </v>
    <v>       0.83333333       0.83333333       0.40830017 </v>
    <v>       0.75000000       0.50000000       0.59169983 </v>
    <v>       0.66666667       0.66666667       0.50000000 </v>
    <v>       0.66666667       0.16666667       0.50000000 </v>
    <v>       0.58333333       0.83333333       0.40830017 </v>
    <v>       0.41666667       0.66666667       0.50000000 </v>
    <v>       0.58333333       0.58333333       0.40830017 </v>
    <v>       0.50000000       0.25000000       0.59169983 </v>
    <v>       0.58333333       0.33333333       0.40830017 </v>
    <v>       0.50000000       0.00000000       0.59169983 </v>
    <v>       0.41666667       0.16666667       0.50000000 </v>
    <v>       0.33333333       0.83333333       0.40830017 </v>
    <v>       0.25000000       0.25000000       0.59169983 </v>
    <v>       0.16666667       0.41666667       0.50000000 </v>
    <v>       0.25000000       0.75000000       0.59169983 </v>
    <v>       0.16666667       0.16666667       0.50000000 </v>
    <v>       0.91666667       0.16666667       0.50000000 </v>
    <v>       0.08333333       0.33333333       0.40830017 </v>
    <v>       0.33333333       0.08333333       0.40830017 </v>
    <v>       0.91666667       0.66666667       0.50000000 </v>
    <v>       0.00000000       0.50000000       0.59169983 </v>
    <v>       0.91666667       0.41666667       0.50000000 </v>
    <v>       0.00000000       0.75000000       0.59169983 </v>
    <v>       0.25000000       0.00000000       0.59169983 </v>
    <v>       0.83333333       0.08333333       0.40830017 </v>
    <v>       0.75000000       0.00000000       0.59169983 </v>
    <v>       0.66666667       0.41666667       0.50000000 </v>
    <v>       0.50000000       0.75000000       0.59169983 </v>
    <v>       0.75000000       0.25000000       0.59169983 </v>
    <v>       0.83333333       0.58333333       0.40830017 </v>
    <v>       0.00000000       0.00000000       0.59169983 </v>
    <v>       0.83333333       0.33333333       0.40830017 </v>
    <v>       0.41666667       0.91666667       0.50000000 </v>
    <v>       0.08333333       0.58333333       0.40830017 </v>
    <v>       0.50000000       0.50000000       0.59169983 </v>
    <v>       0.33333333       0.33333333       0.40830017 </v>
    <v>       0.41666667       0.41666667       0.50000000 </v>
    <v>       0.08333333       0.83333333       0.40830017 </v>
    <v>       0.91666667       0.91666667       0.50000000 </v>
    <v>       0.58333333       0.08333333       0.40830017 </v>
    <v>       0.66666667       0.91666667       0.50000000 </v>
    <v>       0.16666667       0.91666667       0.50000000 </v>
    <v>       0.25000000       0.50000000       0.59169983 </v>
    <v>       0.16666667       0.66666667       0.50000000 </v>
    <v>       0.33333333       0.58333333       0.40830017 </v>
    <v>       0.00000000       0.25000000       0.59169983 </v>
    <v>       0.75000000       0.75000000       0.59169983 </v>
   </varray>
  </structure>
  <varray name="forces" >
   <v>      -0.51893776      -0.16331594      -1.59961173 </v>
   <v>       0.27644177       0.13381852      -1.31233520 </v>
   <v>      -0.39260335      -0.10579813       1.60765777 </v>
   <v>       0.01257713       0.33444329       0.27665243 </v>
   <v>       0.21932128      -0.26794856       0.01654283 </v>
   <v>       0.26312316       0.14535145      -1.40668292 </v>
   <v>      -0.36282416      -0.20665618       0.29620669 </v>
   <v>       0.09119437      -0.37628376      -1.59983075 </v>
   <v>       0.39111071       0.36286772       1.59441386 </v>
   <v>      -0.11491572      -0.05187294      -1.32710817 </v>
   <v>      -0.01014178      -0.57498073       1.36775776 </v>
   <v>       0.36612778      -0.13840302      -0.51220023 </v>
   <v>      -0.38700484      -0.09075623      -1.37858386 </v>
   <v>      -0.21982796      -0.02550126       1.85433104 </v>
   <v>       0.84570466       0.52363342      -0.31751076 </v>
   <v>       0.12493426       0.08147943       1.25365626 </v>
   <v>      -0.23680726      -0.65036054       0.58399859 </v>
   <v>      -0.33933661      -0.18118148       0.29811803 </v>
   <v>       0.00731004       0.42013783      -1.84307057 </v>
   <v>       0.38851421       0.03813548      -1.61110254 </v>
   <v>       0.16805079       0.42137710      -0.27900199 </v>
   <v>       0.00013006      -0.00104216       1.88201580 </v>
   <v>      -0.52226285      -0.11083698      -0.25820171 </v>
   <v>      -0.00639730       0.33229861       1.33309749 </v>
   <v>      -0.21470640      -0.10095062       0.68841460 </v>
   <v>       0.02321990      -0.12726658      -0.81029095 </v>
   <v>       0.19704508      -0.10124500       0.70191309 </v>
   <v>      -0.20027626      -0.13956164       0.16246205 </v>
   <v>       0.00645704       0.10897144       0.81104730 </v>
   <v>       0.03515983      -0.05982056       0.82706558 </v>
   <v>       0.05569965      -0.14453326      -1.06458543 </v>
   <v>      -0.02022514       0.21169548       0.67897655 </v>
   <v>      -0.07933965       0.05773872      -0.93211204 </v>
   <v>      -0.10329622      -0.06255191       0.38434561 </v>
   <v>       0.27721025       0.03340930      -0.79578555 </v>
   <v>       0.00799041      -0.13170064       0.68214011 </v>
   <v>       0.16504104       0.19612937      -0.83216262 </v>
   <v>      -0.02864426       0.41299527      -0.03116122 </v>
   <v>      -0.06556605      -0.12454917      -0.51693563 </v>
   <v>       0.22954348      -0.00049827       0.00139210 </v>
   <v>       0.08114021       0.03742230      -0.84957807 </v>
   <v>       0.13403087       0.04958271       0.15481237 </v>
   <v>      -0.23058841      -0.11386097       0.18823250 </v>
   <v>       0.20125559       0.04143777       0.75971762 </v>
   <v>       0.09531633       0.06744691      -0.36867829 </v>
   <v>      -0.38600527       0.00753390      -0.68436234 </v>
   <v>      -0.15234328      -0.26845909       1.03094548 </v>
   <v>      -0.07159938       0.30202961       0.89497905 </v>
  </varray>
  <energy>
   <i name="e_fr_energy">   -188.36156023 </i>
   <i name="e_wo_entrp">   -188.22789029 </i>
   <i name="e_0_energy">     -0.26733987 </i>
  </energy>
  <time name="totalsc">  289.68  290.85</time>
 </calculation>
 <calculation>
  <scstep>
   <time name="dav">    9.56    9.88</time>
   <time name="total">    9.93   10.41</time>
   <dipole>
    <v name="dipole">      0.00000000       0.00000000       0.00863532 </v>
    <i name="Tr[quadrupol]"> -10282.87100849 </i>
    <i name="Echarged">      0.00000000 </i>
    <i name="Edipol_quadrupol">      0.00000000 </i>
    <i name="Eion">      0.00000000 </i>
   </dipole>
   <energy>
    <i name="alphaZ">    805.87075066 </i>
    <i name="ewald"> 197644.81651468 </i>
    <i name="hartreedc">-239845.65586166 </i>
    <i name="XCdc">   -345.53717220 </i>
    <i name="pawpsdc">  49406.08088656 </i>
    <i name="pawaedc"> -47484.07167666 </i>
    <i name="eentropy">     -0.26054308 </i>
    <i name="bandstr">  -2030.53285920 </i>
    <i name="atom">  41659.78587232 </i>
    <i name="e_fr_energy">   -189.50408859 </i>
    <i name="e_wo_entrp">   -189.24354551 </i>
    <i name="e_0_energy">   -189.37381705 </i>
   </energy>
  </scstep>
  <scstep>
   <time name="diag">    1.55    1.83</time>
   <time name="diis">    4.48    4.48</time>
   <time name="orth">    0.40    0.40</time>
   <time name="total">    6.78    7.10</time>
   <dipole>
    <v name="dipole">      0.00000000       0.00000000       0.00362565 </v>
    <i name="Tr[quadrupol]"> -10282.63987262 </i>
    <i name="Echarged">      0.00000000 </i>
    <i name="Edipol_quadrupol">      0.00000000 </i>
    <i name="Eion">      0.00000000 </i>
   </dipole>
   <energy>
    <i name="e_fr_energy">   -189.90646440 </i>
    <i name="e_wo_entrp">   -189.64463408 </i>
    <i name="e_0_energy">   -189.77554924 </i>
   </energy>
  </scstep>
  <scstep>
   <time name="diag">    1.64    1.64</time>
   <time name="diis">    4.44    4.45</time>
   <time name="orth">    0.40    0.40</time>
   <time name="total">    6.84    6.85</time>
   <dipole>
    <v name="dipole">      0.00000000       0.00000000       0.05062989 </v>
    <i name="Tr[quadrupol]"> -10283.09453972 </i>
    <i name="Echarged">      0.00000000 </i>
    <i name="Edipol_quadrupol">      0.00000000 </i>
    <i name="Eion">      0.00000000 </i>
   </dipole>
   <energy>
    <i name="e_fr_energy">   -189.96149387 </i>
    <i name="e_wo_entrp">   -189.70277623 </i>
    <i name="e_0_energy">   -189.83213505 </i>
   </energy>
  </scstep>
  <scstep>
   <time name="diag">    1.64    1.64</time>
   <time name="diis">    4.53    4.53</time>
   <time name="orth">    0.40    0.40</time>
   <time name="total">    6.93    6.93</time>
   <dipole>
    <v name="dipole">      0.00000000       0.00000000      -0.04779625 </v>
    <i name="Tr[quadrupol]"> -10282.98322926 </i>
    <i name="Echarged">      0.00000000 </i>
    <i name="Edipol_quadrupol">      0.00000000 </i>
    <i name="Eion">      0.00000000 </i>
   </dipole>
   <energy>
    <i name="e_fr_energy">   -189.94003562 </i>
    <i name="e_wo_entrp">   -189.68433384 </i>
    <i name="e_0_energy">   -189.81218473 </i>
   </energy>
  </scstep>
  <scstep>
   <time name="diag">    1.64    1.64</time>
   <time name="diis">    4.52    4.52</time>
   <time name="orth">    0.40    0.40</time>
   <time name="total">    6.93    6.93</time>
   <dipole>
    <v name="dipole">      0.00000000       0.00000000       0.07381416 </v>
    <i name="Tr[quadrupol]"> -10282.93236216 </i>
    <i name="Echarged">      0.00000000 </i>
    <i name="Edipol_quadrupol">      0.00000000 </i>
    <i name="Eion">      0.00000000 </i>
   </dipole>
   <energy>
    <i name="e_fr_energy">   -189.97781703 </i>
    <i name="e_wo_entrp">   -189.73870679 </i>
    <i name="e_0_energy">   -189.85826191 </i>
   </energy>
  </scstep>
  <scstep>
   <time name="diag">    1.64    1.65</time>
   <time name="diis">    4.38    4.45</time>
   <time name="orth">    0.40    0.40</time>
   <time name="total">    6.78    6.85</time>
   <dipole>
    <v name="dipole">      0.00000000       0.00000000       0.00439138 </v>
    <i name="Tr[quadrupol]"> -10282.97663357 </i>
    <i name="Echarged">      0.00000000 </i>
    <i name="Edipol_quadrupol">      0.00000000 </i>
    <i name="Eion">      0.00000000 </i>
   </dipole>
   <energy>
    <i name="e_fr_energy">   -189.88512067 </i>
    <i name="e_wo_entrp">   -189.62247944 </i>
    <i name="e_0_energy">   -189.75380006 </i>
   </energy>
  </scstep>
  <scstep>
   <time name="diag">    1.64    1.64</time>
   <time name="diis">    4.51    4.51</time>
   <time name="orth">    0.40    0.40</time>
   <time name="total">    6.90    6.91</time>
   <dipole>
    <v name="dipole">      0.00000000       0.00000000       0.00842513 </v>
    <i name="Tr[quadrupol]"> -10282.93057276 </i>
    <i name="Echarged">      0.00000000 </i>
    <i name="Edipol_quadrupol">      0.00000000 </i>
    <i name="Eion">      0.00000000 </i>
   </dipole>
   <energy>
    <i name="e_fr_energy">   -189.88206810 </i>
    <i name="e_wo_entrp">   -189.61916922 </i>
    <i name="e_0_energy">   -189.75061866 </i>
   </energy>
  </scstep>
  <scstep>
   <time name="diag">    1.64    1.65</time>
   <time name="diis">    4.50    4.51</time>
   <time name="orth">    0.39    0.40</time>
   <time name="total">    6.90    6.92</time>
   <dipole>
    <v name="dipole">      0.00000000       0.00000000       0.01051745 </v>
    <i name="Tr[quadrupol]"> -10282.91566207 </i>
    <i name="Echarged">      0.00000000 </i>
    <i name="Edipol_quadrupol">      0.00000000 </i>
    <i name="Eion">      0.00000000 </i>
   </dipole>
   <energy>
    <i name="e_fr_energy">   -189.88022138 </i>
    <i name="e_wo_entrp">   -189.61663354 </i>
    <i name="e_0_energy">   -189.74842746 </i>
   </energy>
  </scstep>
  <scstep>
   <time name="diag">    1.65    1.72</time>
   <time name="diis">    4.35    4.43</time>
   <time name="orth">    0.40    0.40</time>
   <time name="total">    6.76    6.91</time>
   <dipole>
    <v name="dipole">      0.00000000       0.00000000       0.00886731 </v>
    <i name="Tr[quadrupol]"> -10282.90759031 </i>
    <i name="Echarged">      0.00000000 </i>
    <i name="Edipol_quadrupol">      0.00000000 </i>
    <i name="Eion">      0.00000000 </i>
   </dipole>
   <energy>
    <i name="e_fr_energy">   -189.87962141 </i>
    <i name="e_wo_entrp">   -189.61689948 </i>
    <i name="e_0_energy">   -189.74826044 </i>
   </energy>
  </scstep>
  <scstep>
   <time name="diag">    1.64    1.64</time>
   <time name="diis">    4.05    4.97</time>
   <time name="orth">    0.40    0.40</time>
   <time name="total">    6.44    7.37</time>
   <dipole>
    <v name="dipole">      0.00000000       0.00000000       0.00759376 </v>
    <i name="Tr[quadrupol]"> -10282.90653191 </i>
    <i name="Echarged">      0.00000000 </i>
    <i name="Edipol_quadrupol">      0.00000000 </i>
    <i name="Eion">      0.00000000 </i>
   </dipole>
   <energy>
    <i name="e_fr_energy">   -189.87946461 </i>
    <i name="e_wo_entrp">   -189.61611781 </i>
    <i name="e_0_energy">   -189.74779121 </i>
   </energy>
  </scstep>
  <scstep>
   <time name="diag">    1.63    1.63</time>
   <time name="diis">    4.40    4.41</time>
   <time name="orth">    0.40    0.40</time>
   <time name="total">    6.80    6.80</time>
   <dipole>
    <v name="dipole">      0.00000000       0.00000000       0.00825360 </v>
    <i name="Tr[quadrupol]"> -10282.90774411 </i>
    <i name="Echarged">      0.00000000 </i>
    <i name="Edipol_quadrupol">      0.00000000 </i>
    <i name="Eion">      0.00000000 </i>
   </dipole>
   <energy>
    <i name="e_fr_energy">   -189.87940838 </i>
    <i name="e_wo_entrp">   -189.61606087 </i>
    <i name="e_0_energy">   -189.74773462 </i>
   </energy>
  </scstep>
  <scstep>
   <time name="diag">    1.64    1.65</time>
   <time name="diis">    4.36    4.44</time>
   <time name="orth">    0.40    0.40</time>
   <time name="total">    6.76    6.85</time>
   <dipole>
    <v name="dipole">      0.00000000       0.00000000       0.00825212 </v>
    <i name="Tr[quadrupol]"> -10282.91182110 </i>
    <i name="Echarged">      0.00000000 </i>
    <i name="Edipol_quadrupol">      0.00000000 </i>
    <i name="Eion">      0.00000000 </i>
   </dipole>
   <energy>
    <i name="e_fr_energy">   -189.87939979 </i>
    <i name="e_wo_entrp">   -189.61633202 </i>
    <i name="e_0_energy">   -189.74786590 </i>
   </energy>
  </scstep>
  <scstep>
   <time name="diag">    1.64    1.64</time>
   <time name="diis">    4.51    4.52</time>
   <time name="orth">    0.40    0.40</time>
   <time name="total">    6.92    6.93</time>
   <dipole>
    <v name="dipole">      0.00000000       0.00000000       0.00842560 </v>
    <i name="Tr[quadrupol]"> -10282.91608539 </i>
    <i name="Echarged">      0.00000000 </i>
    <i name="Edipol_quadrupol">      0.00000000 </i>
    <i name="Eion">      0.00000000 </i>
   </dipole>
   <energy>
    <i name="e_fr_energy">   -189.87938771 </i>
    <i name="e_wo_entrp">   -189.61611052 </i>
    <i name="e_0_energy">   -189.74774911 </i>
   </energy>
  </scstep>
  <scstep>
   <time name="diag">    1.64    1.64</time>
   <time name="diis">    4.35    4.35</time>
   <time name="orth">    0.40    0.40</time>
   <time name="total">    6.75    6.75</time>
   <dipole>
    <v name="dipole">      0.00000000       0.00000000       0.00846838 </v>
    <i name="Tr[quadrupol]"> -10282.92013009 </i>
    <i name="Echarged">      0.00000000 </i>
    <i name="Edipol_quadrupol">      0.00000000 </i>
    <i name="Eion">      0.00000000 </i>
   </dipole>
   <energy>
    <i name="e_fr_energy">   -189.87938623 </i>
    <i name="e_wo_entrp">   -189.61623253 </i>
    <i name="e_0_energy">   -189.74780938 </i>
   </energy>
  </scstep>
  <scstep>
   <time name="diag">    1.63    1.63</time>
   <time name="diis">    3.21    3.21</time>
   <time name="orth">    0.40    0.40</time>
   <time name="total">    5.31    5.31</time>
   <dipole>
    <v name="dipole">      0.00000000       0.00000000       0.00845624 </v>
    <i name="Tr[quadrupol]"> -10282.92266680 </i>
    <i name="Echarged">      0.00000000 </i>
    <i name="Edipol_quadrupol">      0.00000000 </i>
    <i name="Eion">      0.00000000 </i>
   </dipole>
   <energy>
    <i name="alphaZ">    805.87072196 </i>
    <i name="ewald"> 197644.81651468 </i>
    <i name="hartreedc">-239848.21938176 </i>
    <i name="XCdc">   -345.46978928 </i>
    <i name="pawpsdc">  48941.43298347 </i>
    <i name="pawaedc"> -47016.21985145 </i>
    <i name="eentropy">     -0.26318573 </i>
    <i name="bandstr">  -2031.61327017 </i>
    <i name="atom">  41659.78587232 </i>
    <i name="e_fr_energy">   -189.87938597 </i>
    <i name="e_wo_entrp">   -189.61620024 </i>
    <i name="e_0_energy">   -189.74779311 </i>
   </energy>
  </scstep>
  <structure>
   <crystal>
    <varray name="basis" >
     <v>      11.00258152       0.00000000       0.00000000 </v>
     <v>       5.50129076       9.52851510       0.00000000 </v>
     <v>       0.00000000       0.00000000      24.49178509 </v>
    </varray>
    <i name="volume">   2567.67623402 </i>
    <varray name="rec_basis" >
     <v>       0.09088776      -0.05247407       0.00000000 </v>
     <v>       0.00000000       0.10494815       0.00000000 </v>
     <v>       0.00000000       0.00000000       0.04083002 </v>
    </varray>
   </crystal>
   <varray name="positions" >
    <v>       0.08202998       0.08275453       0.40609459 </v>
    <v>       0.83394467       0.83380760       0.40649069 </v>
    <v>       0.74898247       0.49962504       0.59391651 </v>
    <v>       0.66611262       0.66785196       0.50038145 </v>
    <v>       0.66781464       0.16571703       0.50002281 </v>
    <v>       0.58388336       0.83384847       0.40636060 </v>
    <v>       0.41591927       0.66593426       0.50040842 </v>
    <v>       0.58428002       0.58199975       0.40609428 </v>
    <v>       0.50055741       0.25128603       0.59389825 </v>
    <v>       0.58307255       0.33314949       0.40647032 </v>
    <v>       0.50098776      -0.00203778       0.59358573 </v>
    <v>       0.41803567       0.16617615       0.49929377 </v>
    <v>       0.33230634       0.83301169       0.40639934 </v>
    <v>       0.24937048       0.24990962       0.59425663 </v>
    <v>       0.16833446       0.41852247       0.49956221 </v>
    <v>       0.25023907       0.75028877       0.59342840 </v>
    <v>       0.16709231       0.16436173       0.50080523 </v>
    <v>       0.91594621       0.16602454       0.50041105 </v>
    <v>       0.08261127       0.33482234       0.40575890 </v>
    <v>       0.33445821       0.08346849       0.40607874 </v>
    <v>       0.91643576       0.66816006       0.49961531 </v>
    <v>       0.00000225       0.49999631       0.59429480 </v>
    <v>       0.91526011       0.41627385       0.49964399 </v>
    <v>      -0.00060848       0.75117769       0.59353794 </v>
    <v>       0.24951990      -0.00035778       0.59264903 </v>
    <v>       0.83363012       0.08288229       0.40718292 </v>
    <v>       0.75078419      -0.00035882       0.59266765 </v>
    <v>       0.66629927       0.41617205       0.50022401 </v>
    <v>       0.49982672       0.75038620       0.59281812 </v>
    <v>       0.75021392       0.24978799       0.59284021 </v>
    <v>       0.83376041       0.58282110       0.40683229 </v>
    <v>      -0.00043721       0.00075027       0.59263602 </v>
    <v>       0.83298750       0.33353796       0.40701495 </v>
    <v>       0.41646047       0.91644498       0.50052994 </v>
    <v>       0.08412496       0.58345174       0.40720292 </v>
    <v>       0.50025790       0.49953324       0.59264038 </v>
    <v>       0.33349234       0.33402843       0.40715276 </v>
    <v>       0.41584690       0.41813036       0.49995703 </v>
    <v>       0.08335280       0.83289192       0.40758741 </v>
    <v>       0.91737208       0.91666490       0.50000192 </v>
    <v>       0.58351606       0.08346596       0.40712875 </v>
    <v>       0.66699018       0.91684239       0.50021346 </v>
    <v>       0.16616070       0.91626313       0.50025954 </v>
    <v>       0.25054428       0.50014686       0.59274735 </v>
    <v>       0.16683970       0.66690570       0.49949166 </v>
    <v>       0.33213523       0.58336003       0.40735655 </v>
    <v>       0.00000814       0.24904856       0.59312132 </v>
    <v>       0.74924503       0.75107042       0.59293385 </v>
   </varray>
  </structure>
  <varray name="forces" >
   <v>      -0.23722945      -0.00516497      -1.10543364 </v>
   <v>       0.16752478       0.08284477      -1.01710747 </v>
   <v>      -0.19022579      -0.05430166       1.17372848 </v>
   <v>      -0.05984857       0.14918231       0.07063401 </v>
   <v>       0.03111776      -0.07573597       0.02340804 </v>
   <v>       0.12130125       0.01925669      -0.98174669 </v>
   <v>      -0.10914347      -0.07123354       0.03440792 </v>
   <v>       0.03803584      -0.14470525      -1.07429351 </v>
   <v>       0.14583727       0.12576232       1.09596662 </v>
   <v>      -0.08404095      -0.06372184      -0.96434690 </v>
   <v>       0.01301799      -0.16351191       0.99038022 </v>
   <v>       0.12870762      -0.03878886      -0.05867942 </v>
   <v>      -0.15460953      -0.08772210      -0.93010764 </v>
   <v>      -0.02614224      -0.04018184       1.21000150 </v>
   <v>       0.19386119       0.11969483      -0.04521472 </v>
   <v>       0.04226586       0.04087962       0.99375071 </v>
   <v>      -0.01958409      -0.16537912       0.10359112 </v>
   <v>      -0.11686896      -0.10461374       0.06784209 </v>
   <v>       0.02705129       0.12215987      -1.18267376 </v>
   <v>       0.07655686       0.07088021      -1.11998953 </v>
   <v>       0.08775286       0.13313997      -0.05536713 </v>
   <v>      -0.04694381       0.01577857       1.16726395 </v>
   <v>      -0.07820143      -0.04452586      -0.04346534 </v>
   <v>       0.01657549       0.16024840       0.96847825 </v>
   <v>      -0.13994900      -0.08310277       0.64537130 </v>
   <v>      -0.00100328      -0.04887609      -0.65220887 </v>
   <v>       0.10784339      -0.00724469       0.57442146 </v>
   <v>      -0.16822330      -0.01459646       0.03626816 </v>
   <v>      -0.02663507       0.01486005       0.67636551 </v>
   <v>       0.02261444      -0.05974661       0.70315048 </v>
   <v>       0.03514263      -0.02940335      -0.76168986 </v>
   <v>      -0.01339677       0.13524737       0.60317173 </v>
   <v>      -0.05066452      -0.04230525      -0.70585429 </v>
   <v>      -0.06447683      -0.05312108       0.05720720 </v>
   <v>       0.14757951       0.04351250      -0.70547569 </v>
   <v>       0.01603472      -0.05382821       0.59415422 </v>
   <v>       0.10162822       0.10508688      -0.70792029 </v>
   <v>       0.09465625       0.10873486      -0.01155672 </v>
   <v>      -0.05796476      -0.08270494      -0.45877235 </v>
   <v>       0.14568968      -0.08849520       0.00159945 </v>
   <v>       0.12730934       0.02874331      -0.70867763 </v>
   <v>       0.07294223       0.03048938       0.03991577 </v>
   <v>      -0.13455566      -0.12582052       0.04129208 </v>
   <v>       0.08554719       0.05676677       0.59639642 </v>
   <v>       0.04302993       0.18585289      -0.08697560 </v>
   <v>      -0.19634038       0.00912212      -0.58041915 </v>
   <v>      -0.11584778      -0.10042029       0.79024986 </v>
   <v>       0.00227206       0.09100840       0.69895968 </v>
  </varray>
  <energy>
   <i name="e_fr_energy">   -189.87938597 </i>
   <i name="e_wo_entrp">   -189.74779311 </i>
   <i name="e_0_energy">     -0.26318573 </i>
  </energy>
  <time name="totalsc">  106.86  109.00</time>
 </calculation>
 <calculation>
  <scstep>
   <time name="dav">    9.89   10.16</time>
   <time name="total">   10.26   10.54</time>
   <dipole>
    <v name="dipole">      0.00000000       0.00000000       0.00846459 </v>
    <i name="Tr[quadrupol]"> -10267.03620707 </i>
    <i name="Echarged">      0.00000000 </i>
    <i name="Edipol_quadrupol">      0.00000000 </i>
    <i name="Eion">      0.00000000 </i>
   </dipole>
   <energy>
    <i name="alphaZ">    805.87078861 </i>
    <i name="ewald"> 189517.49330696 </i>
    <i name="hartreedc">-231764.31677091 </i>
    <i name="XCdc">   -351.09746789 </i>
    <i name="pawpsdc">  48941.25443330 </i>
    <i name="pawaedc"> -47016.04084521 </i>
    <i name="eentropy">     -0.24272987 </i>
    <i name="bandstr">  -1980.89037445 </i>
    <i name="atom">  41659.78587232 </i>
    <i name="e_fr_energy">   -188.18378713 </i>
    <i name="e_wo_entrp">   -187.94105726 </i>
    <i name="e_0_energy">   -188.06242219 </i>
   </energy>
  </scstep>
  <scstep>
   <time name="diag">    1.64    1.65</time>
   <time name="diis">    4.34    4.42</time>
   <time name="orth">    0.41    0.41</time>
   <time name="total">    6.75    6.83</time>
   <dipole>
    <v name="dipole">      0.00000000       0.00000000      -0.00855446 </v>
    <i name="Tr[quadrupol]"> -10266.29212530 </i>
    <i name="Echarged">      0.00000000 </i>
    <i name="Edipol_quadrupol">      0.00000000 </i>
    <i name="Eion">      0.00000000 </i>
   </dipole>
   <energy>
    <i name="e_fr_energy">   -191.76417083 </i>
    <i name="e_wo_entrp">   -191.52357126 </i>
    <i name="e_0_energy">   -191.64387105 </i>
   </energy>
  </scstep>
  <scstep>
   <time name="diag">    1.65    1.65</time>
   <time name="diis">    4.22    5.09</time>
   <time name="orth">    0.35    0.49</time>
   <time name="total">    6.59    7.68</time>
   <dipole>
    <v name="dipole">      0.00000000       0.00000000       0.12110919 </v>
    <i name="Tr[quadrupol]"> -10267.31616449 </i>
    <i name="Echarged">      0.00000000 </i>
    <i name="Edipol_quadrupol">      0.00000000 </i>
    <i name="Eion">      0.00000000 </i>
   </dipole>
   <energy>
    <i name="e_fr_energy">   -191.97319135 </i>
    <i name="e_wo_entrp">   -191.73658286 </i>
    <i name="e_0_energy">   -191.85488710 </i>
   </energy>
  </scstep>
  <scstep>
   <time name="diag">    1.66    1.66</time>
   <time name="diis">    4.47    4.48</time>
   <time name="orth">    0.40    0.40</time>
   <time name="total">    6.90    6.90</time>
   <dipole>
    <v name="dipole">      0.00000000       0.00000000      -0.10576355 </v>
    <i name="Tr[quadrupol]"> -10267.13876863 </i>
    <i name="Echarged">      0.00000000 </i>
    <i name="Edipol_quadrupol">      0.00000000 </i>
    <i name="Eion">      0.00000000 </i>
   </dipole>
   <energy>
    <i name="e_fr_energy">   -191.76626654 </i>
    <i name="e_wo_entrp">   -191.54712132 </i>
    <i name="e_0_energy">   -191.65669393 </i>
   </energy>
  </scstep>
  <scstep>
   <time name="diag">    1.64    1.64</time>
   <time name="diis">    4.52    4.53</time>
   <time name="orth">    0.40    0.40</time>
   <time name="total">    6.92    6.94</time>
   <dipole>
    <v name="dipole">      0.00000000       0.00000000       0.17829929 </v>
    <i name="Tr[quadrupol]"> -10267.10672668 </i>
    <i name="Echarged">      0.00000000 </i>
    <i name="Edipol_quadrupol">      0.00000000 </i>
    <i name="Eion">      0.00000000 </i>
   </dipole>
   <energy>
    <i name="e_fr_energy">   -192.15196453 </i>
    <i name="e_wo_entrp">   -191.97597211 </i>
    <i name="e_0_energy">   -192.06396832 </i>
   </energy>
  </scstep>
  <scstep>
   <time name="diag">    1.66    1.66</time>
   <time name="diis">    4.51    4.51</time>
   <time name="orth">    0.40    0.40</time>
   <time name="total">    6.93    6.94</time>
   <dipole>
    <v name="dipole">      0.00000000       0.00000000      -0.00996777 </v>
    <i name="Tr[quadrupol]"> -10267.33871892 </i>
    <i name="Echarged">      0.00000000 </i>
    <i name="Edipol_quadrupol">      0.00000000 </i>
    <i name="Eion">      0.00000000 </i>
   </dipole>
   <energy>
    <i name="e_fr_energy">   -191.59350265 </i>
    <i name="e_wo_entrp">   -191.33511196 </i>
    <i name="e_0_energy">   -191.46430730 </i>
   </energy>
  </scstep>
  <scstep>
   <time name="diag">    1.66    1.67</time>
   <time name="diis">    4.50    4.50</time>
   <time name="orth">    0.40    0.40</time>
   <time name="total">    6.93    6.94</time>
   <dipole>
    <v name="dipole">      0.00000000       0.00000000       0.00895805 </v>
    <i name="Tr[quadrupol]"> -10267.13103483 </i>
    <i name="Echarged">      0.00000000 </i>
    <i name="Edipol_quadrupol">      0.00000000 </i>
    <i name="Eion">      0.00000000 </i>
   </dipole>
   <energy>
    <i name="e_fr_energy">   -191.54881108 </i>
    <i name="e_wo_entrp">   -191.30798671 </i>
    <i name="e_0_energy">   -191.42839889 </i>
   </energy>
  </scstep>
  <scstep>
   <time name="diag">    1.61    1.66</time>
   <time name="diis">    4.36    4.38</time>
   <time name="orth">    0.40    0.40</time>
   <time name="total">    6.73    6.80</time>
   <dipole>
    <v name="dipole">      0.00000000       0.00000000       0.00781684 </v>
    <i name="Tr[quadrupol]"> -10267.07987188 </i>
    <i name="Echarged">      0.00000000 </i>
    <i name="Edipol_quadrupol">      0.00000000 </i>
    <i name="Eion">      0.00000000 </i>
   </dipole>
   <energy>
    <i name="e_fr_energy">   -191.51672732 </i>
    <i name="e_wo_entrp">   -191.26785846 </i>
    <i name="e_0_energy">   -191.39229289 </i>
   </energy>
  </scstep>
  <scstep>
   <time name="diag">    1.64    1.64</time>
   <time name="diis">    4.53    4.53</time>
   <time name="orth">    0.40    0.40</time>
   <time name="total">    6.93    6.93</time>
   <dipole>
    <v name="dipole">      0.00000000       0.00000000       0.00724429 </v>
    <i name="Tr[quadrupol]"> -10267.05298086 </i>
    <i name="Echarged">      0.00000000 </i>
    <i name="Edipol_quadrupol">      0.00000000 </i>
    <i name="Eion">      0.00000000 </i>
[...]
       <r>    2.2818    0.0000 </r>
       <r>    2.3193    0.0000 </r>
       <r>    2.4246    0.0000 </r>
       <r>    2.5370    0.0000 </r>
       <r>    2.6973    0.0000 </r>
       <r>    2.9432    0.0000 </r>
       <r>    3.1937    0.0000 </r>
       <r>    3.2413    0.0000 </r>
       <r>    3.5047    0.0000 </r>
       <r>    3.5819    0.0000 </r>
       <r>    3.7576    0.0000 </r>
       <r>    4.0192    0.0000 </r>
       <r>    4.0661    0.0000 </r>
       <r>    4.1729    0.0000 </r>
       <r>    4.4475    0.0000 </r>
       <r>    4.5108    0.0000 </r>
       <r>    4.5793    0.0000 </r>
       <r>    4.6261    0.0000 </r>
       <r>    4.7222    0.0000 </r>
       <r>    4.7995    0.0000 </r>
       <r>    4.8899    0.0000 </r>
       <r>    4.9061    0.0000 </r>
       <r>    4.9625    0.0000 </r>
       <r>    5.0315    0.0000 </r>
       <r>    5.0708    0.0000 </r>
       <r>    5.1329    0.0000 </r>
       <r>    5.2155    0.0000 </r>
       <r>    5.2616    0.0000 </r>
      </set>
     </set>
    </set>
   </array>
  </eigenvalues>
  <separator name="orbital magnetization" >
   <v name="MAGDIPOLOUT">      0.00000000      0.00000000      0.00000000</v>
  </separator>
  <dos>
   <i name="efermi">     -1.10619845 </i>
   <total>
    <array>
     <dimension dim="1">gridpoints</dimension>
     <dimension dim="2">spin</dimension>
     <field>energy</field>
     <field>total</field>
     <field>integrated</field>
     <set>
      <set comment="spin 1">
       <r>    -9.8350     0.0000     0.0000 </r>
       <r>    -9.7810     0.0000     0.0000 </r>
       <r>    -9.7270     0.0000     0.0000 </r>
       <r>    -9.6730     0.0000     0.0000 </r>
       <r>    -9.6190     0.0000     0.0000 </r>
       <r>    -9.5650     0.0000     0.0000 </r>
       <r>    -9.5111     0.0000     0.0000 </r>
       <r>    -9.4571     0.0000     0.0000 </r>
       <r>    -9.4031     0.0000     0.0000 </r>
       <r>    -9.3491     0.0000     0.0000 </r>
       <r>    -9.2951     0.0000     0.0000 </r>
       <r>    -9.2411     0.0000     0.0000 </r>
       <r>    -9.1871     0.0000     0.0000 </r>
       <r>    -9.1331     0.0002     0.0000 </r>
       <r>    -9.0791     0.0036     0.0002 </r>
       <r>    -9.0252     0.0468     0.0027 </r>
       <r>    -8.9712     0.3525     0.0218 </r>
       <r>    -8.9172     1.5255     0.1041 </r>
       <r>    -8.8632     3.8165     0.3102 </r>
       <r>    -8.8092     5.6424     0.6148 </r>
       <r>    -8.7552     5.4871     0.9110 </r>
       <r>    -8.7012     5.0024     1.1811 </r>
       <r>    -8.6472     5.5161     1.4789 </r>
       <r>    -8.5933     5.1568     1.7573 </r>
       <r>    -8.5393     3.1033     1.9248 </r>
       <r>    -8.4853     1.1219     1.9854 </r>
       <r>    -8.4313     0.2529     1.9991 </r>
       <r>    -8.3773     0.1392     2.0066 </r>
       <r>    -8.3233     0.5026     2.0337 </r>
       <r>    -8.2693     1.3766     2.1080 </r>
       <r>    -8.2153     2.4805     2.2420 </r>
       <r>    -8.1613     3.4615     2.4288 </r>
       <r>    -8.1074     4.3940     2.6661 </r>
       <r>    -8.0534     5.3247     2.9535 </r>
       <r>    -7.9994     6.3591     3.2968 </r>
       <r>    -7.9454     7.4466     3.6989 </r>
       <r>    -7.8914     7.9832     4.1299 </r>
       <r>    -7.8374     7.3950     4.5291 </r>
       <r>    -7.7834     5.8871     4.8469 </r>
       <r>    -7.7294     5.0568     5.1199 </r>
       <r>    -7.6755     6.0628     5.4473 </r>
       <r>    -7.6215     7.3747     5.8454 </r>
       <r>    -7.5675     7.2133     6.2348 </r>
       <r>    -7.5135     6.4624     6.5837 </r>
       <r>    -7.4595     7.0289     6.9632 </r>
       <r>    -7.4055     9.7569     7.4900 </r>
       <r>    -7.3515    13.4874     8.2181 </r>
       <r>    -7.2975    15.9867     9.0812 </r>
       <r>    -7.2436    16.9341     9.9954 </r>
       <r>    -7.1896    17.7622    10.9544 </r>
       <r>    -7.1356    19.3934    12.0014 </r>
       <r>    -7.0816    21.6737    13.1715 </r>
       <r>    -7.0276    24.4899    14.4937 </r>
       <r>    -6.9736    27.2027    15.9623 </r>
       <r>    -6.9196    28.9784    17.5268 </r>
       <r>    -6.8656    30.0262    19.1479 </r>
       <r>    -6.8116    30.5140    20.7952 </r>
       <r>    -6.7577    31.8725    22.5160 </r>
       <r>    -6.7037    36.1743    24.4690 </r>
       <r>    -6.6497    42.0126    26.7371 </r>
       <r>    -6.5957    46.2984    29.2367 </r>
       <r>    -6.5417    48.5625    31.8585 </r>
       <r>    -6.4877    50.9495    34.6092 </r>
       <r>    -6.4337    54.9992    37.5784 </r>
       <r>    -6.3797    59.3926    40.7849 </r>
       <r>    -6.3258    63.7082    44.2244 </r>
       <r>    -6.2718    68.9467    47.9467 </r>
       <r>    -6.2178    73.5037    51.9150 </r>
       <r>    -6.1638    76.6643    56.0540 </r>
       <r>    -6.1098    80.1895    60.3833 </r>
       <r>    -6.0558    83.3318    64.8822 </r>
       <r>    -6.0018    83.3875    69.3841 </r>
       <r>    -5.9478    81.2112    73.7685 </r>
       <r>    -5.8939    80.6394    78.1221 </r>
       <r>    -5.8399    81.6991    82.5329 </r>
       <r>    -5.7859    80.6115    86.8849 </r>
       <r>    -5.7319    76.9303    91.0382 </r>
       <r>    -5.6779    73.3886    95.0004 </r>
       <r>    -5.6239    70.5254    98.8079 </r>
       <r>    -5.5699    67.9452   102.4761 </r>
       <r>    -5.5159    66.3930   106.0605 </r>
       <r>    -5.4619    66.6039   109.6564 </r>
       <r>    -5.4080    68.7122   113.3660 </r>
       <r>    -5.3540    71.7621   117.2403 </r>
       <r>    -5.3000    74.3407   121.2538 </r>
       <r>    -5.2460    76.3422   125.3754 </r>
       <r>    -5.1920    78.6027   129.6190 </r>
       <r>    -5.1380    81.7427   134.0321 </r>
       <r>    -5.0840    85.5929   138.6531 </r>
       <r>    -5.0300    89.1446   143.4658 </r>
       <r>    -4.9761    91.6286   148.4127 </r>
       <r>    -4.9221    91.7753   153.3674 </r>
       <r>    -4.8681    88.8885   158.1664 </r>
       <r>    -4.8141    84.6754   162.7378 </r>
       <r>    -4.7601    81.6992   167.1486 </r>
       <r>    -4.7061    81.2616   171.5357 </r>
       <r>    -4.6521    82.5767   175.9939 </r>
       <r>    -4.5981    84.0543   180.5318 </r>
       <r>    -4.5442    85.4341   185.1442 </r>
       <r>    -4.4902    86.9837   189.8403 </r>
       <r>    -4.4362    88.0033   194.5914 </r>
       <r>    -4.3822    87.6186   199.3218 </r>
       <r>    -4.3282    86.1485   203.9728 </r>
       <r>    -4.2742    85.3113   208.5786 </r>
       <r>    -4.2202    86.0429   213.2239 </r>
       <r>    -4.1662    87.0561   217.9239 </r>
       <r>    -4.1122    86.6320   222.6009 </r>
       <r>    -4.0583    86.3445   227.2625 </r>
       <r>    -4.0043    89.1320   232.0746 </r>
       <r>    -3.9503    93.9226   237.1453 </r>
       <r>    -3.8963    96.4889   242.3545 </r>
       <r>    -3.8423    94.4141   247.4518 </r>
       <r>    -3.7883    90.4222   252.3335 </r>
       <r>    -3.7343    90.1277   257.1993 </r>
       <r>    -3.6803    95.2596   262.3422 </r>
       <r>    -3.6264   100.3880   267.7619 </r>
       <r>    -3.5724   100.6761   273.1972 </r>
       <r>    -3.5184    98.1208   278.4946 </r>
       <r>    -3.4644    96.7817   283.7196 </r>
       <r>    -3.4104    97.5172   288.9844 </r>
       <r>    -3.3564    98.3273   294.2929 </r>
       <r>    -3.3024    97.9729   299.5822 </r>
       <r>    -3.2484    97.1451   304.8269 </r>
       <r>    -3.1945    96.8282   310.0545 </r>
       <r>    -3.1405    97.0277   315.2928 </r>
       <r>    -3.0865    96.2938   320.4915 </r>
       <r>    -3.0325    94.3223   325.5838 </r>
       <r>    -2.9785    92.8750   330.5979 </r>
       <r>    -2.9245    92.6444   335.5996 </r>
       <r>    -2.8705    93.2190   340.6324 </r>
       <r>    -2.8165    95.1312   345.7683 </r>
       <r>    -2.7625    98.0247   351.0605 </r>
       <r>    -2.7086    99.5231   356.4335 </r>
       <r>    -2.6546    97.5989   361.7027 </r>
       <r>    -2.6006    92.9103   366.7187 </r>
       <r>    -2.5466    89.1617   371.5324 </r>
       <r>    -2.4926    89.1106   376.3433 </r>
       <r>    -2.4386    91.2605   381.2703 </r>
       <r>    -2.3846    93.0218   386.2923 </r>
       <r>    -2.3306    94.3205   391.3845 </r>
       <r>    -2.2767    95.5168   396.5413 </r>
       <r>    -2.2227    96.0075   401.7245 </r>
       <r>    -2.1687    95.7431   406.8935 </r>
       <r>    -2.1147    94.8148   412.0124 </r>
       <r>    -2.0607    94.0206   417.0884 </r>
       <r>    -2.0067    95.0130   422.2179 </r>
       <r>    -1.9527    97.2976   427.4708 </r>
       <r>    -1.8987    98.9333   432.8121 </r>
       <r>    -1.8447    99.4212   438.1796 </r>
       <r>    -1.7908    98.9933   443.5241 </r>
       <r>    -1.7368    98.2106   448.8263 </r>
       <r>    -1.6828    99.0006   454.1711 </r>
       <r>    -1.6288   101.7944   459.6668 </r>
       <r>    -1.5748   103.3040   465.2440 </r>
       <r>    -1.5208   101.2640   470.7110 </r>
       <r>    -1.4668    97.3504   475.9668 </r>
       <r>    -1.4128    94.0476   481.0442 </r>
       <r>    -1.3589    91.8289   486.0019 </r>
       <r>    -1.3049    87.8603   490.7453 </r>
       <r>    -1.2509    79.8336   495.0553 </r>
       <r>    -1.1969    69.6354   498.8148 </r>
       <r>    -1.1429    60.1660   502.0631 </r>
       <r>    -1.0889    51.2159   504.8281 </r>
       <r>    -1.0349    40.1309   506.9947 </r>
       <r>    -0.9809    26.8918   508.4465 </r>
       <r>    -0.9270    15.8161   509.3004 </r>
       <r>    -0.8730    10.1422   509.8480 </r>
       <r>    -0.8190     8.9289   510.3300 </r>
       <r>    -0.7650     9.4636   510.8410 </r>
       <r>    -0.7110    10.0947   511.3859 </r>
       <r>    -0.6570    10.9333   511.9762 </r>
       <r>    -0.6030    13.1076   512.6839 </r>
       <r>    -0.5490    17.4084   513.6237 </r>
       <r>    -0.4950    21.8203   514.8017 </r>
       <r>    -0.4411    22.8485   516.0353 </r>
       <r>    -0.3871    20.1815   517.1249 </r>
       <r>    -0.3331    17.5700   518.0734 </r>
       <r>    -0.2791    18.1130   519.0513 </r>
       <r>    -0.2251    20.1637   520.1399 </r>
       <r>    -0.1711    19.9157   521.2151 </r>
       <r>    -0.1171    16.4680   522.1042 </r>
       <r>    -0.0631    12.3837   522.7728 </r>
       <r>    -0.0092    10.2926   523.3284 </r>
       <r>     0.0448    11.0525   523.9251 </r>
       <r>     0.0988    13.9080   524.6760 </r>
       <r>     0.1528    16.1199   525.5463 </r>
       <r>     0.2068    15.5205   526.3842 </r>
       <r>     0.2608    13.9954   527.1398 </r>
       <r>     0.3148    14.5239   527.9239 </r>
       <r>     0.3688    16.7781   528.8297 </r>
       <r>     0.4227    18.4560   529.8261 </r>
       <r>     0.4767    19.6620   530.8877 </r>
       <r>     0.5307    22.8186   532.1196 </r>
       <r>     0.5847    26.9109   533.5725 </r>
       <r>     0.6387    27.6845   535.0671 </r>
       <r>     0.6927    24.9842   536.4159 </r>
       <r>     0.7467    21.8843   537.5974 </r>
       <r>     0.8007    18.7568   538.6101 </r>
       <r>     0.8547    14.3786   539.3863 </r>
       <r>     0.9086     9.7618   539.9134 </r>
       <r>     0.9626     7.4826   540.3173 </r>
       <r>     1.0166     8.3451   540.7679 </r>
       <r>     1.0706    10.7041   541.3458 </r>
       <r>     1.1246    12.2859   542.0090 </r>
       <r>     1.1786    11.5287   542.6315 </r>
       <r>     1.2326     8.7179   543.1021 </r>
       <r>     1.2866     6.0854   543.4307 </r>
       <r>     1.3405     5.2084   543.7118 </r>
       <r>     1.3945     6.1010   544.0412 </r>
       <r>     1.4485     8.9090   544.5222 </r>
       <r>     1.5025    13.1657   545.2330 </r>
       <r>     1.5565    16.5895   546.1286 </r>
       <r>     1.6105    17.4064   547.0684 </r>
       <r>     1.6645    16.0225   547.9334 </r>
       <r>     1.7185    14.5656   548.7198 </r>
       <r>     1.7724    15.4158   549.5520 </r>
       <r>     1.8264    17.3722   550.4899 </r>
       <r>     1.8804    16.6234   551.3874 </r>
       <r>     1.9344    13.2207   552.1011 </r>
       <r>     1.9884    10.4697   552.6664 </r>
       <r>     2.0424    10.0066   553.2066 </r>
       <r>     2.0964    11.6272   553.8343 </r>
       <r>     2.1504    14.3341   554.6082 </r>
       <r>     2.2044    17.4073   555.5480 </r>
       <r>     2.2583    20.7702   556.6693 </r>
       <r>     2.3123    23.4185   557.9337 </r>
       <r>     2.3663    23.9404   559.2262 </r>
       <r>     2.4203    23.3204   560.4852 </r>
       <r>     2.4743    22.8264   561.7175 </r>
       <r>     2.5283    21.8629   562.8979 </r>
       <r>     2.5823    21.0339   564.0334 </r>
       <r>     2.6363    21.8532   565.2133 </r>
       <r>     2.6902    23.0107   566.4556 </r>
       <r>     2.7442    21.0061   567.5896 </r>
       <r>     2.7982    15.2122   568.4109 </r>
       <r>     2.8522     9.2728   568.9115 </r>
       <r>     2.9062     6.6154   569.2687 </r>
       <r>     2.9602     6.1821   569.6024 </r>
       <r>     3.0142     5.0481   569.8750 </r>
       <r>     3.0682     3.8975   570.0854 </r>
       <r>     3.1221     4.9832   570.3544 </r>
       <r>     3.1761     8.0174   570.7873 </r>
       <r>     3.2301    11.2706   571.3957 </r>
       <r>     3.2841    12.8981   572.0921 </r>
       <r>     3.3381    11.8590   572.7323 </r>
       <r>     3.3921    10.2197   573.2841 </r>
       <r>     3.4461    10.5926   573.8559 </r>
       <r>     3.5001    12.7497   574.5443 </r>
       <r>     3.5541    15.6684   575.3902 </r>
       <r>     3.6080    18.2480   576.3754 </r>
       <r>     3.6620    19.0363   577.4031 </r>
       <r>     3.7160    18.4461   578.3990 </r>
       <r>     3.7700    17.4895   579.3432 </r>
       <r>     3.8240    15.1456   580.1609 </r>
       <r>     3.8780    11.6507   580.7899 </r>
       <r>     3.9320     9.9394   581.3265 </r>
       <r>     3.9860    11.7690   581.9619 </r>
       <r>     4.0399    14.6028   582.7502 </r>
       <r>     4.0939    14.6856   583.5431 </r>
       <r>     4.1479    13.1113   584.2509 </r>
       <r>     4.2019    12.4467   584.9229 </r>
       <r>     4.2559    10.9204   585.5125 </r>
       <r>     4.3099     8.0742   585.9484 </r>
       <r>     4.3639     7.8963   586.3747 </r>
       <r>     4.4179    11.4520   586.9930 </r>
       <r>     4.4719    15.0926   587.8078 </r>
       <r>     4.5258    17.9008   588.7742 </r>
       <r>     4.5798    21.8821   589.9556 </r>
       <r>     4.6338    25.7469   591.3456 </r>
       <r>     4.6878    27.1503   592.8114 </r>
       <r>     4.7418    25.7654   594.2024 </r>
       <r>     4.7958    22.7517   595.4307 </r>
       <r>     4.8498    21.9959   596.6183 </r>
       <r>     4.9038    25.1212   597.9745 </r>
       <r>     4.9577    28.8218   599.5305 </r>
       <r>     5.0117    31.6830   601.2410 </r>
       <r>     5.0657    33.8269   603.0673 </r>
       <r>     5.1197    33.4817   604.8749 </r>
       <r>     5.1737    31.6990   606.5863 </r>
       <r>     5.2277    31.0827   608.2644 </r>
       <r>     5.2817    28.7420   609.8161 </r>
       <r>     5.3357    21.4476   610.9740 </r>
       <r>     5.3896    12.1221   611.6284 </r>
       <r>     5.4436     5.0658   611.9019 </r>
       <r>     5.4976     1.4905   611.9824 </r>
       <r>     5.5516     0.2886   611.9980 </r>
       <r>     5.6056     0.0347   611.9999 </r>
       <r>     5.6596     0.0025   612.0000 </r>
       <r>     5.7136     0.0001   612.0000 </r>
       <r>     5.7676     0.0000   612.0000 </r>
       <r>     5.8216     0.0000   612.0000 </r>
       <r>     5.8755     0.0000   612.0000 </r>
       <r>     5.9295     0.0000   612.0000 </r>
       <r>     5.9835     0.0000   612.0000 </r>
       <r>     6.0375     0.0000   612.0000 </r>
       <r>     6.0915     0.0000   612.0000 </r>
       <r>     6.1455     0.0000   612.0000 </r>
       <r>     6.1995     0.0000   612.0000 </r>
       <r>     6.2535     0.0000   612.0000 </r>
       <r>     6.3074     0.0000   612.0000 </r>
       <r>     6.3614     0.0000   612.0000 </r>
      </set>
     </set>
    </array>
   </total>
  </dos>
 </calculation>
 <structure name="finalpos" >
  <crystal>
   <varray name="basis" >
    <v>      11.00258152       0.00000000       0.00000000 </v>
    <v>       5.50129076       9.52851510       0.00000000 </v>
    <v>       0.00000000       0.00000000      24.49178509 </v>
   </varray>
   <i name="volume">   2567.67623402 </i>
   <varray name="rec_basis" >
    <v>       0.09088776      -0.05247407       0.00000000 </v>
    <v>       0.00000000       0.10494815       0.00000000 </v>
    <v>       0.00000000       0.00000000       0.04083002 </v>
   </varray>
  </crystal>
  <varray name="positions" >
   <v>       0.08020222       0.08306341       0.39342779 </v>
   <v>       0.83618799       0.83360247       0.39785302 </v>
   <v>       0.74695425       0.49956936       0.60507136 </v>
   <v>       0.66522533       0.66801153       0.49976799 </v>
   <v>       0.66743348       0.16575268       0.50037392 </v>
   <v>       0.58553193       0.83356919       0.39578780 </v>
   <v>       0.41504444       0.66607137       0.49986719 </v>
   <v>       0.58531009       0.58079577       0.39529417 </v>
   <v>       0.50063548       0.25222835       0.60522046 </v>
   <v>       0.58279228       0.33267834       0.39871027 </v>
   <v>       0.50079556      -0.00269363       0.60036541 </v>
   <v>       0.41852139       0.16497226       0.49981616 </v>
   <v>       0.33195527       0.83194267       0.39646633 </v>
   <v>       0.24879115       0.24925684       0.60676376 </v>
   <v>       0.16897152       0.41799716       0.50200343 </v>
   <v>       0.24994529       0.75150461       0.60276589 </v>
   <v>       0.16858765       0.16387810       0.49903579 </v>
   <v>       0.91740920       0.16447381       0.49911548 </v>
   <v>       0.08237394       0.33624176       0.39480941 </v>
   <v>       0.33430964       0.08510539       0.39422977 </v>
   <v>       0.91739741       0.66851792       0.50133192 </v>
   <v>      -0.00162964       0.50049309       0.60811659 </v>
   <v>       0.91587468       0.41622781       0.50082482 </v>
   <v>      -0.00219997       0.75330845       0.60425833 </v>
   <v>       0.24818221      -0.00013768       0.59475143 </v>
   <v>       0.83406634       0.08242935       0.40234228 </v>
   <v>       0.75032368       0.00020871       0.59644047 </v>
   <v>       0.66551641       0.41700713       0.49946873 </v>
   <v>       0.49893063       0.75066151       0.59601789 </v>
   <v>       0.75024217       0.24968885       0.59717576 </v>
   <v>       0.83496858       0.58253158       0.40281566 </v>
   <v>      -0.00195758       0.00320267       0.59651217 </v>
   <v>       0.83355478       0.33321538       0.40166227 </v>
   <v>       0.41686247       0.91616959       0.49734401 </v>
   <v>       0.08558221       0.58309585       0.40471182 </v>
   <v>       0.49985918       0.49975019       0.59736101 </v>
   <v>       0.33358145       0.33482046       0.40364810 </v>
   <v>       0.41718393       0.41692467       0.50153358 </v>
   <v>       0.08394965       0.83179399       0.40444929 </v>
   <v>       0.91926324       0.91415800       0.50054736 </v>
   <v>       0.58422038       0.08393212       0.40190599 </v>
   <v>       0.66743240       0.91604034       0.49868277 </v>
   <v>       0.16714806       0.91498174       0.49881150 </v>
   <v>       0.24955522       0.50074213       0.59952566 </v>
   <v>       0.16643496       0.66855927       0.50273321 </v>
   <v>       0.33075961       0.58338536       0.40451969 </v>
   <v>      -0.00070756       0.24904807       0.59801335 </v>
   <v>       0.74862700       0.75122203       0.59774894 </v>
  </varray>
 </structure>
</modeling>
