unknown system                          
           1
    11.002582    0.000000    0.000000
     5.501291    9.528515    0.000000
     0.000000    0.000000   24.491785
   Au   Pd
  24  24
Direct configuration=     1
   0.08333333  0.08333333  0.40830017
   0.83333333  0.83333333  0.40830017
   0.75000000  0.50000000  0.59169983
   0.66666667  0.66666667  0.50000000
   0.66666667  0.16666667  0.50000000
   0.58333333  0.83333333  0.40830017
   0.41666667  0.66666667  0.50000000
   0.58333333  0.58333333  0.40830017
   0.50000000  0.25000000  0.59169983
   0.58333333  0.33333333  0.40830017
   0.50000000  0.00000000  0.59169983
   0.41666667  0.16666667  0.50000000
   0.33333333  0.83333333  0.40830017
   0.25000000  0.25000000  0.59169983
   0.16666667  0.41666667  0.50000000
   0.25000000  0.75000000  0.59169983
   0.16666667  0.16666667  0.50000000
   0.91666667  0.16666667  0.50000000
   0.08333333  0.33333333  0.40830017
   0.33333333  0.08333333  0.40830017
   0.91666667  0.66666667  0.50000000
   0.00000000  0.50000000  0.59169983
   0.91666667  0.41666667  0.50000000
   0.00000000  0.75000000  0.59169983
   0.25000000  0.00000000  0.59169983
   0.83333333  0.08333333  0.40830017
   0.75000000  0.00000000  0.59169983
   0.66666667  0.41666667  0.50000000
   0.50000000  0.75000000  0.59169983
   0.75000000  0.25000000  0.59169983
   0.83333333  0.58333333  0.40830017
   0.00000000  0.00000000  0.59169983
   0.83333333  0.33333333  0.40830017
   0.41666667  0.91666667  0.50000000
   0.08333333  0.58333333  0.40830017
   0.50000000  0.50000000  0.59169983
   0.33333333  0.33333333  0.40830017
   0.41666667  0.41666667  0.50000000
   0.08333333  0.83333333  0.40830017
   0.91666667  0.91666667  0.50000000
   0.58333333  0.08333333  0.40830017
   0.66666667  0.91666667  0.50000000
   0.16666667  0.91666667  0.50000000
   0.25000000  0.50000000  0.59169983
   0.16666667  0.66666667  0.50000000
   0.33333333  0.58333333  0.40830017
   0.00000000  0.25000000  0.59169983
   0.75000000  0.75000000  0.59169983
Direct configuration=     2
   0.08202998  0.08275453  0.40609459
   0.83394467  0.83380760  0.40649069
   0.74898247  0.49962504  0.59391651
   0.66611262  0.66785196  0.50038145
   0.66781464  0.16571703  0.50002281
   0.58388336  0.83384847  0.40636060
   0.41591927  0.66593426  0.50040842
   0.58428002  0.58199975  0.40609428
   0.50055741  0.25128603  0.59389825
   0.58307255  0.33314949  0.40647032
   0.50098776 -0.00203778  0.59358573
   0.41803567  0.16617615  0.49929377
   0.33230634  0.83301169  0.40639934
   0.24937048  0.24990962  0.59425663
   0.16833446  0.41852247  0.49956221
   0.25023907  0.75028877  0.59342840
   0.16709231  0.16436173  0.50080523
   0.91594621  0.16602454  0.50041105
   0.08261127  0.33482234  0.40575890
   0.33445821  0.08346849  0.40607874
   0.91643576  0.66816006  0.49961531
   0.00000225  0.49999631  0.59429480
   0.91526011  0.41627385  0.49964399
  -0.00060848  0.75117769  0.59353794
   0.24951990 -0.00035778  0.59264903
   0.83363012  0.08288229  0.40718292
   0.75078419 -0.00035882  0.59266765
   0.66629927  0.41617205  0.50022401
   0.49982672  0.75038620  0.59281812
   0.75021392  0.24978799  0.59284021
   0.83376041  0.58282110  0.40683229
  -0.00043721  0.00075027  0.59263602
   0.83298750  0.33353796  0.40701495
   0.41646047  0.91644498  0.50052994
   0.08412496  0.58345174  0.40720292
   0.50025790  0.49953324  0.59264038
   0.33349234  0.33402843  0.40715276
   0.41584690  0.41813036  0.49995703
   0.08335280  0.83289192  0.40758741
   0.91737208  0.91666490  0.50000192
   0.58351606  0.08346596  0.40712875
   0.66699018  0.91684239  0.50021346
   0.16616070  0.91626313  0.50025954
   0.25054428  0.50014686  0.59274735
   0.16683970  0.66690570  0.49949166
   0.33213523  0.58336003  0.40735655
   0.00000814  0.24904856  0.59312132
   0.74924503  0.75107042  0.59293385
Direct configuration=     3
   0.07811991  0.08101811  0.39947784
   0.83577870  0.83523039  0.40106225
   0.74592990  0.49850017  0.60056654
   0.66445049  0.67140785  0.50152582
   0.67125855  0.16286814  0.50009124
   0.58553344  0.83539388  0.40054190
   0.41367706  0.66373704  0.50163367
   0.58712010  0.57799901  0.39947663
   0.50222963  0.25514413  0.60049349
   0.58229019  0.33259797  0.40098078
   0.50395105 -0.00815112  0.59924342
   0.42214267  0.16470462  0.49717506
   0.32922534  0.83204674  0.40069687
   0.24748191  0.24963849  0.60192701
   0.17333784  0.42408987  0.49824883
   0.25095629  0.75115508  0.59861412
   0.16836923  0.15744694  0.50322092
   0.91378485  0.16409818  0.50164421
   0.08044507  0.33928935  0.39813509
   0.33783284  0.08387395  0.39941446
   0.91574305  0.67264025  0.49846122
   0.00000898  0.49998523  0.60207970
   0.91104044  0.41509540  0.49857594
  -0.00243393  0.75471078  0.59905226
   0.24807959 -0.00143111  0.59549664
   0.83452049  0.08152916  0.40383118
   0.75313678 -0.00143528  0.59557109
   0.66519710  0.41468819  0.50089603
   0.49930687  0.75154482  0.59617300
   0.75085568  0.24915196  0.59626134
   0.83504164  0.58128438  0.40242867
  -0.00174884  0.00300107  0.59544459
   0.83195001  0.33415186  0.40315930
   0.41584187  0.91577991  0.50211978
   0.08649985  0.58380695  0.40391118
   0.50103162  0.49813297  0.59546203
   0.33396936  0.33611373  0.40371055
   0.41338762  0.42252143  0.49982814
   0.08341120  0.83156768  0.40544912
   0.91948832  0.91665960  0.50000768
   0.58406424  0.08386384  0.40361450
   0.66796072  0.91736957  0.50085384
   0.16464278  0.91505254  0.50103816
   0.25217711  0.50058744  0.59588990
   0.16735880  0.66762282  0.49796663
   0.32854092  0.58344014  0.40452571
   0.00003255  0.24619423  0.59738580
   0.74698013  0.75428167  0.59663590
Direct configuration=     4
   0.07875337  0.08265069  0.39804659
   0.83572587  0.83491019  0.39937389
   0.74691961  0.49877131  0.60224824
   0.66422506  0.67028122  0.50112784
   0.66848889  0.16449386  0.50014240
   0.58573092  0.83377010  0.39934561
   0.41496364  0.66533280  0.50108223
   0.58565902  0.57991284  0.39821991
   0.50175127  0.25309826  0.60188363
   0.58249567  0.33214072  0.39969454
   0.50204029 -0.00414368  0.60069290
   0.42012605  0.16554570  0.49805919
   0.33091586  0.83156408  0.39962427
   0.24931283  0.24901761  0.60333411
   0.17016520  0.42066539  0.49888309
   0.25046792  0.75087981  0.60032837
   0.16802712  0.16128168  0.50237154
   0.91536774  0.16462509  0.50106816
   0.08195029  0.33704265  0.39677770
   0.33494933  0.08482038  0.39793789
   0.91638891  0.67056302  0.49881430
  -0.00100219  0.50053924  0.60328538
   0.91397133  0.41540589  0.49892285
  -0.00144105  0.75353976  0.60038974
   0.24841229 -0.00178265  0.59710740
   0.83366983  0.08234614  0.40282658
   0.75189437 -0.00007876  0.59653015
   0.66385057  0.41587778  0.50056341
   0.49931728  0.75010841  0.59736658
   0.75114517  0.24874414  0.59758713
   0.83437119  0.58273994  0.40162308
  -0.00165119  0.00282405  0.59673017
   0.83278222  0.33259242  0.40211793
   0.41613340  0.91538655  0.50135173
   0.08540969  0.58426697  0.40240698
   0.50081258  0.49901734  0.59661466
   0.33403419  0.33563350  0.40230374
   0.41726968  0.41923205  0.49986831
   0.08310452  0.83159965  0.40447790
   0.92025666  0.91494119  0.50003394
   0.58535669  0.08399754  0.40233939
   0.66771654  0.91746072  0.50062097
   0.16544133  0.91362810  0.50066610
   0.25099192  0.50110917  0.59677673
   0.16553335  0.67081580  0.49881372
   0.32979806  0.58339953  0.40339226
  -0.00091651  0.24762966  0.59854598
   0.74931322  0.75180215  0.59768082
Direct configuration=     5
   0.07905037  0.08341613  0.39737554
   0.83570110  0.83476006  0.39858229
   0.74738364  0.49889844  0.60303672
   0.66411937  0.66975300  0.50094124
   0.66719031  0.16525609  0.50016639
   0.58582351  0.83300878  0.39878472
   0.41556686  0.66608099  0.50082368
   0.58497398  0.58081014  0.39763068
   0.50152698  0.25213905  0.60253540
   0.58259201  0.33192634  0.39909148
   0.50114442 -0.00226477  0.60137249
   0.41918055  0.16594004  0.49847372
   0.33170847  0.83133779  0.39912138
   0.25017127  0.24872651  0.60399384
   0.16867769  0.41905980  0.49918046
   0.25023894  0.75075075  0.60113211
   0.16786672  0.16307962  0.50197330
   0.91610988  0.16487213  0.50079807
   0.08265602  0.33598927  0.39614128
   0.33359739  0.08526412  0.39724560
   0.91669172  0.66958910  0.49897984
  -0.00147628  0.50079899  0.60385067
   0.91534550  0.41555147  0.49908549
  -0.00097553  0.75299072  0.60101682
   0.24856828 -0.00194746  0.59786261
   0.83327099  0.08272919  0.40235556
   0.75131187  0.00055725  0.59697982
   0.66321925  0.41643552  0.50040746
   0.49932216  0.74943494  0.59792620
   0.75128090  0.24855293  0.59820873
   0.83405685  0.58342238  0.40124538
  -0.00160540  0.00274106  0.59733292
   0.83317240  0.33186127  0.40162968
   0.41627009  0.91520212  0.50099162
   0.08489856  0.58448265  0.40170173
   0.50070988  0.49943198  0.59715507
   0.33406459  0.33540834  0.40164415
   0.41908980  0.41768981  0.49988714
   0.08296072  0.83161464  0.40402254
   0.92061691  0.91413550  0.50004625
   0.58596267  0.08406022  0.40174155
   0.66760205  0.91750345  0.50051179
   0.16581574  0.91296024  0.50049165
   0.25043623  0.50135379  0.59719252
   0.16467748  0.67231285  0.49921089
   0.33038748  0.58338050  0.40286084
  -0.00136149  0.24830266  0.59908993
   0.75040710  0.75063961  0.59817074
Direct configuration=     6
   0.07993669  0.08322390  0.39696554
   0.83530040  0.83451951  0.39804825
   0.74786787  0.49894296  0.60350166
   0.66524163  0.66841979  0.50079944
   0.66770318  0.16531062  0.50028605
   0.58511222  0.83370180  0.39850412
   0.41543507  0.66618134  0.50052684
   0.58499946  0.58073736  0.39727782
   0.50110403  0.25207823  0.60300136
   0.58277819  0.33246488  0.39864724
   0.50124969 -0.00232649  0.60160280
   0.41794625  0.16583439  0.49875679
   0.33186374  0.83204652  0.39883463
   0.24980150  0.24924155  0.60442444
   0.16864040  0.41885231  0.49938692
   0.25027031  0.75051297  0.60175349
   0.16837991  0.16324338  0.50169856
   0.91631420  0.16504854  0.50052084
   0.08254647  0.33579882  0.39572922
   0.33366501  0.08477117  0.39689587
   0.91674571  0.66862835  0.49916291
  -0.00104901  0.50024241  0.60419881
   0.91524056  0.41628460  0.49928388
  -0.00104684  0.75267088  0.60148185
   0.24860198 -0.00144095  0.59802129
   0.83346410  0.08289327  0.40223658
   0.75107403  0.00047257  0.59712299
   0.66476919  0.41668775  0.50017236
   0.49964240  0.74965059  0.59819870
   0.75098223  0.24877966  0.59841021
   0.83430384  0.58306949  0.40128395
  -0.00150376  0.00270960  0.59765478
   0.83307986  0.33238928  0.40155420
   0.41585771  0.91644811  0.50061907
   0.08490699  0.58390715  0.40154972
   0.50047696  0.49935877  0.59753209
   0.33371746  0.33513599  0.40149689
   0.41758900  0.41760298  0.49992015
   0.08315152  0.83228043  0.40355463
   0.91913544  0.91489115  0.50012981
   0.58521761  0.08362608  0.40148519
   0.66737357  0.91709134  0.50033726
   0.16636678  0.91466494  0.50034645
   0.25009869  0.50098230  0.59711786
   0.16577593  0.66971381  0.49971476
   0.33084317  0.58317244  0.40277649
  -0.00101733  0.24880705  0.59922541
   0.75004598  0.75067634  0.59824983
Direct configuration=     7
   0.08021378  0.08316381  0.39683736
   0.83517514  0.83444431  0.39788130
   0.74801924  0.49895688  0.60364701
   0.66559247  0.66800301  0.50075511
   0.66786351  0.16532767  0.50032346
   0.58488985  0.83391846  0.39841639
   0.41539388  0.66621271  0.50043405
   0.58500743  0.58071460  0.39716751
   0.50097181  0.25205922  0.60314703
   0.58283639  0.33263324  0.39850836
   0.50128260 -0.00234579  0.60167480
   0.41756038  0.16580136  0.49884528
   0.33191229  0.83226809  0.39874499
   0.24968590  0.24940257  0.60455905
   0.16862875  0.41878745  0.49945146
   0.25028011  0.75043864  0.60194775
   0.16854035  0.16329458  0.50161267
   0.91637807  0.16510369  0.50043417
   0.08251223  0.33573928  0.39560040
   0.33368615  0.08461707  0.39678653
   0.91676259  0.66832801  0.49922014
  -0.00091544  0.50006841  0.60430764
   0.91520776  0.41651379  0.49934590
  -0.00106913  0.75257089  0.60162723
   0.24861251 -0.00128260  0.59807090
   0.83352447  0.08294457  0.40219938
   0.75099967  0.00044610  0.59716774
   0.66525374  0.41676660  0.50009886
   0.49974251  0.74971800  0.59828389
   0.75088886  0.24885053  0.59847319
   0.83438105  0.58295917  0.40129601
  -0.00147199  0.00269976  0.59775539
   0.83305093  0.33255435  0.40153061
   0.41572880  0.91683764  0.50050260
   0.08490963  0.58372724  0.40150220
   0.50040415  0.49933588  0.59764995
   0.33360894  0.33505085  0.40145085
   0.41711982  0.41757583  0.49993047
   0.08321116  0.83248857  0.40340835
   0.91867231  0.91512738  0.50015594
   0.58498469  0.08349036  0.40140505
   0.66730214  0.91696250  0.50028270
   0.16653905  0.91519787  0.50030106
   0.24999317  0.50086617  0.59709452
   0.16611932  0.66890130  0.49987228
   0.33098563  0.58310740  0.40275012
  -0.00090974  0.24896473  0.59926777
   0.74993309  0.75068782  0.59827456
Direct configuration=     8
   0.08026030  0.08319459  0.39658160
   0.83531686  0.83424888  0.39771686
   0.74790732  0.49896500  0.60391404
   0.66514505  0.66833922  0.50074044
   0.66741202  0.16577680  0.50033355
   0.58477851  0.83399695  0.39831044
   0.41518571  0.66610397  0.50042091
   0.58511732  0.58083316  0.39695012
   0.50083962  0.25227447  0.60338262
   0.58280019  0.33252350  0.39839280
   0.50152604 -0.00291372  0.60167668
   0.41808547  0.16562676  0.49892243
   0.33194927  0.83225127  0.39859195
   0.24940828  0.24949257  0.60486020
   0.16868986  0.41876518  0.49942683
   0.25045517  0.75049835  0.60214056
   0.16796177  0.16369736  0.50154748
   0.91668519  0.16511305  0.50038243
   0.08225157  0.33585667  0.39538813
   0.33398332  0.08463418  0.39652425
   0.91687994  0.66874620  0.49930161
  -0.00073130  0.49994854  0.60461234
   0.91566794  0.41597317  0.49949975
  -0.00139719  0.75266932  0.60181045
   0.24863134 -0.00095871  0.59792191
   0.83368717  0.08289843  0.40223900
   0.75103795  0.00019302  0.59715688
   0.66554113  0.41671551  0.50004562
   0.49977604  0.74999656  0.59815128
   0.75068894  0.24912224  0.59838834
   0.83443854  0.58273946  0.40138401
  -0.00141882  0.00275190  0.59771862
   0.83317209  0.33291928  0.40157278
   0.41634273  0.91654236  0.50038521
   0.08507531  0.58357581  0.40166644
   0.50037047  0.49922913  0.59760938
   0.33357766  0.33480281  0.40155475
   0.41693610  0.41745484  0.49994860
   0.08337077  0.83247038  0.40344837
   0.91874586  0.91478460  0.50016611
   0.58436861  0.08371233  0.40150196
   0.66703250  0.91673971  0.50013075
   0.16651100  0.91542052  0.50025646
   0.25001296  0.50060823  0.59706650
   0.16629001  0.66849462  0.50007623
   0.33079893  0.58329220  0.40287836
  -0.00063459  0.24885688  0.59913637
   0.74946907  0.75102246  0.59816758
Direct configuration=     9
   0.08028971  0.08321404  0.39641991
   0.83540646  0.83412533  0.39761290
   0.74783657  0.49897013  0.60408287
   0.66486220  0.66855177  0.50073117
   0.66712659  0.16606073  0.50033993
   0.58470812  0.83404657  0.39824345
   0.41505411  0.66603522  0.50041261
   0.58518680  0.58090811  0.39681268
   0.50075605  0.25241055  0.60353157
   0.58277731  0.33245412  0.39831974
   0.50167994 -0.00327277  0.60167786
   0.41841744  0.16551638  0.49897120
   0.33197264  0.83224064  0.39849520
   0.24923276  0.24954947  0.60505059
   0.16872850  0.41875110  0.49941125
   0.25056584  0.75053610  0.60226245
   0.16759600  0.16395200  0.50150627
   0.91687935  0.16511897  0.50034971
   0.08208678  0.33593088  0.39525393
   0.33417119  0.08464499  0.39635842
   0.91695413  0.66901059  0.49935312
  -0.00061489  0.49987276  0.60480497
   0.91595887  0.41563139  0.49959702
  -0.00160459  0.75273155  0.60192629
   0.24864325 -0.00075394  0.59782771
   0.83379004  0.08286925  0.40226405
   0.75106215  0.00003302  0.59715001
   0.66572281  0.41668321  0.50001196
   0.49979723  0.75017267  0.59806745
   0.75056255  0.24929402  0.59833469
   0.83447488  0.58260055  0.40143965
  -0.00138521  0.00278487  0.59769537
   0.83324869  0.33314999  0.40159945
   0.41673086  0.91635569  0.50031100
   0.08518006  0.58348007  0.40177028
   0.50034917  0.49916164  0.59758374
   0.33355788  0.33464600  0.40162044
   0.41681995  0.41737835  0.49996006
   0.08347168  0.83245888  0.40347367
   0.91879236  0.91456790  0.50017254
   0.58397911  0.08385266  0.40156324
   0.66686204  0.91659885  0.50003468
   0.16649327  0.91556128  0.50022827
   0.25002547  0.50044517  0.59704879
   0.16639792  0.66823752  0.50020517
   0.33068090  0.58340903  0.40295943
  -0.00046063  0.24878870  0.59905330
   0.74917571  0.75123401  0.59809995
Direct configuration=    10
   0.08033116  0.08329458  0.39606028
   0.83552774  0.83406421  0.39745663
   0.74770955  0.49905295  0.60439100
   0.66492397  0.66834039  0.50067845
   0.66717042  0.16620870  0.50037192
   0.58487433  0.83388897  0.39806200
   0.41481083  0.66589876  0.50043075
   0.58518727  0.58097362  0.39653930
   0.50069923  0.25229220  0.60383802
   0.58273681  0.33240117  0.39823248
   0.50160003 -0.00325280  0.60166727
   0.41857155  0.16532246  0.49914390
   0.33197890  0.83219138  0.39830969
   0.24933481  0.24934494  0.60541964
   0.16874850  0.41851263  0.49939138
   0.25063472  0.75068750  0.60244328
   0.16799692  0.16392627  0.50135077
   0.91676501  0.16474253  0.50027617
   0.08204062  0.33597300  0.39496875
   0.33409290  0.08481789  0.39603718
   0.91690050  0.66915089  0.49946605
  -0.00079625  0.50006280  0.60523958
   0.91596910  0.41595180  0.49982338
  -0.00176383  0.75279980  0.60216067
   0.24870423 -0.00052491  0.59754570
   0.83383503  0.08283034  0.40238694
   0.75098978  0.00003882  0.59704743
   0.66568053  0.41676076  0.49994587
   0.49968021  0.75027104  0.59784460
   0.75050238  0.24940378  0.59816155
   0.83448403  0.58258975  0.40165346
  -0.00136691  0.00279200  0.59757257
   0.83328669  0.33335443  0.40164160
   0.41674468  0.91637602  0.50014193
   0.08531114  0.58340504  0.40202177
   0.50030362  0.49921774  0.59744632
   0.33345985  0.33456486  0.40177006
   0.41698631  0.41730752  0.49998022
   0.08358210  0.83231795  0.40364172
   0.91894982  0.91451711  0.50017276
   0.58378669  0.08399845  0.40171033
   0.66684330  0.91655955  0.49980155
   0.16657042  0.91535863  0.50017883
   0.25000362  0.50038115  0.59706850
   0.16643706  0.66840677  0.50049182
   0.33059515  0.58348804  0.40314963
  -0.00043975  0.24873167  0.59892123
   0.74902523  0.75120685  0.59794507
Direct configuration=    11
   0.08038760  0.08340425  0.39557059
   0.83569290  0.83398098  0.39724385
   0.74753659  0.49916572  0.60481058
   0.66500808  0.66805255  0.50060667
   0.66723010  0.16641018  0.50041548
   0.58510066  0.83367435  0.39781493
   0.41447956  0.66571296  0.50045546
   0.58518792  0.58106282  0.39616704
   0.50062185  0.25213104  0.60425530
   0.58268168  0.33232907  0.39811367
   0.50149122 -0.00322562  0.60165284
   0.41878140  0.16505841  0.49937906
   0.33198743  0.83212432  0.39805708
   0.24947376  0.24906644  0.60592217
   0.16877573  0.41818793  0.49936432
   0.25072850  0.75089367  0.60268952
   0.16854283  0.16389124  0.50113902
   0.91660931  0.16422994  0.50017603
   0.08197777  0.33603035  0.39458043
   0.33398630  0.08505333  0.39559975
   0.91682748  0.66934194  0.49961982
  -0.00104319  0.50032157  0.60583138
   0.91598304  0.41638809  0.50013160
  -0.00198067  0.75289273  0.60247983
   0.24878727 -0.00021304  0.59716168
   0.83389630  0.08277734  0.40255428
   0.75089123  0.00004673  0.59690775
   0.66562294  0.41686635  0.49985588
   0.49952086  0.75040499  0.59754114
   0.75042045  0.24955323  0.59792578
   0.83449649  0.58257504  0.40194461
  -0.00134199  0.00280171  0.59740536
   0.83333843  0.33363283  0.40169900
   0.41676351  0.91640371  0.49991173
   0.08548963  0.58330287  0.40236420
   0.50024159  0.49929412  0.59725920
   0.33332636  0.33445436  0.40197380
   0.41721283  0.41721109  0.50000767
   0.08373245  0.83212606  0.40387055
   0.91916424  0.91444795  0.50017306
   0.58352467  0.08419695  0.40191061
   0.66681778  0.91650604  0.49948411
   0.16667548  0.91508270  0.50011151
   0.24997387  0.50029399  0.59709534
   0.16649036  0.66863724  0.50088216
   0.33047838  0.58359562  0.40340862
  -0.00041131  0.24865402  0.59874139
   0.74882033  0.75116987  0.59773417
Direct configuration=    12
   0.08034471  0.08339717  0.39522378
   0.83572486  0.83410090  0.39715318
   0.74748931  0.49922880  0.60507410
   0.66497816  0.66776242  0.50048917
   0.66723955  0.16609445  0.50046966
   0.58516727  0.83366677  0.39756603
   0.41478753  0.66590190  0.50039998
   0.58497280  0.58092961  0.39593278
   0.50071649  0.25199215  0.60454187
   0.58269467  0.33255264  0.39808680
   0.50142396 -0.00286134  0.60161072
   0.41859303  0.16522464  0.49961939
   0.33199400  0.83223516  0.39791393
   0.24939044  0.24926000  0.60628206
   0.16880092  0.41823950  0.49954270
   0.25040589  0.75107930  0.60284682
   0.16863724  0.16366456  0.50082273
   0.91705094  0.16453033  0.49999069
   0.08198810  0.33615676  0.39431787
   0.33383125  0.08493205  0.39530628
   0.91700503  0.66910013  0.49979158
  -0.00112155  0.50034814  0.60629887
   0.91590380  0.41629149  0.50039889
  -0.00183681  0.75294974  0.60273358
   0.24869707 -0.00037560  0.59682932
   0.83385524  0.08279008  0.40264968
   0.75070070  0.00024153  0.59670973
   0.66559605  0.41703547  0.49973113
   0.49935427  0.75028189  0.59728036
   0.75043159  0.24949200  0.59777409
   0.83465169  0.58270808  0.40219099
  -0.00135014  0.00271337  0.59726571
   0.83328734  0.33337506  0.40180460
   0.41644814  0.91628417  0.49956150
   0.08537841  0.58339446  0.40265051
   0.50024339  0.49926210  0.59715918
   0.33334897  0.33456723  0.40213434
   0.41736297  0.41691722  0.50008273
   0.08369480  0.83215729  0.40406551
   0.91904251  0.91441037  0.50020344
   0.58393911  0.08403196  0.40201612
   0.66721377  0.91656697  0.49925792
   0.16692067  0.91502516  0.50001187
   0.24980218  0.50041864  0.59717563
   0.16613947  0.66869595  0.50125040
   0.33075742  0.58334941  0.40358995
  -0.00065507  0.24889117  0.59858620
   0.74895786  0.75098871  0.59760560
Direct configuration=    13
   0.08032250  0.08339351  0.39504424
   0.83574140  0.83416299  0.39710625
   0.74746484  0.49926146  0.60521052
   0.66496268  0.66761223  0.50042834
   0.66724444  0.16593100  0.50049771
   0.58520175  0.83366284  0.39743718
   0.41494696  0.66599971  0.50037126
   0.58486144  0.58086066  0.39581151
   0.50076549  0.25192025  0.60469022
   0.58270139  0.33266838  0.39807289
   0.50138914 -0.00267275  0.60158892
   0.41849551  0.16531069  0.49974381
   0.33199740  0.83229254  0.39783983
   0.24934731  0.24936020  0.60646837
   0.16881396  0.41826620  0.49963504
   0.25023888  0.75117540  0.60292826
   0.16868612  0.16354721  0.50065900
   0.91727956  0.16468584  0.49989474
   0.08199345  0.33622220  0.39418195
   0.33375098  0.08486927  0.39515437
   0.91709694  0.66897496  0.49988050
  -0.00116211  0.50036189  0.60654088
   0.91586278  0.41624148  0.50053726
  -0.00176233  0.75297925  0.60286494
   0.24865038 -0.00045975  0.59665727
   0.83383398  0.08279668  0.40269907
   0.75060206  0.00034237  0.59660721
   0.66558212  0.41712302  0.49966656
   0.49926804  0.75021816  0.59714536
   0.75043736  0.24946031  0.59769556
   0.83473203  0.58277696  0.40231853
  -0.00135437  0.00266764  0.59719342
   0.83326089  0.33324162  0.40185926
   0.41628488  0.91622228  0.49938020
   0.08532083  0.58344188  0.40279872
   0.50024432  0.49924553  0.59710740
   0.33336068  0.33462565  0.40221745
   0.41744070  0.41676510  0.50012159
   0.08367531  0.83217346  0.40416644
   0.91897950  0.91439091  0.50021917
   0.58415365  0.08394655  0.40207074
   0.66741876  0.91659851  0.49914083
   0.16704759  0.91499537  0.49996029
   0.24971331  0.50048317  0.59721720
   0.16595782  0.66872634  0.50144104
   0.33090188  0.58322195  0.40368382
  -0.00078127  0.24901395  0.59850587
   0.74902905  0.75089493  0.59753904
Direct configuration=    14
   0.08008476  0.08337338  0.39470496
   0.83583821  0.83416288  0.39706599
   0.74728312  0.49932943  0.60539471
   0.66506374  0.66792608  0.50026345
   0.66745745  0.16594202  0.50051635
   0.58522601  0.83366246  0.39719243
   0.41492273  0.66599267  0.50023872
   0.58486728  0.58088999  0.39562623
   0.50078708  0.25223948  0.60492315
   0.58274831  0.33259107  0.39812065
   0.50131571 -0.00271922  0.60143565
   0.41814754  0.16527262  0.49991252
   0.33194793  0.83222920  0.39769517
   0.24898824  0.24961918  0.60672326
   0.16870844  0.41819011  0.49995644
   0.25009164  0.75110195  0.60303263
   0.16865862  0.16369902  0.50027390
   0.91756035  0.16480754  0.49971422
   0.08193951  0.33639831  0.39403909
   0.33390734  0.08486752  0.39496716
   0.91707626  0.66858882  0.50012291
  -0.00106192  0.50026229  0.60696952
   0.91607081  0.41609611  0.50073295
  -0.00185161  0.75304848  0.60312861
   0.24854279 -0.00053133  0.59634596
   0.83381901  0.08284344  0.40274770
   0.75065361  0.00026639  0.59646184
   0.66554389  0.41686382  0.49956124
   0.49918242  0.75025938  0.59693297
   0.75045063  0.24941218  0.59754682
   0.83478569  0.58275964  0.40254122
  -0.00155843  0.00281813  0.59702303
   0.83328789  0.33307981  0.40194064
   0.41651650  0.91621842  0.49895430
   0.08523747  0.58362758  0.40307638
   0.50021695  0.49910679  0.59704993
   0.33357752  0.33449963  0.40237357
   0.41749883  0.41676254  0.50028527
   0.08379019  0.83213548  0.40435054
   0.91894679  0.91458016  0.50027403
   0.58430692  0.08394252  0.40210876
   0.66745618  0.91627585  0.49900730
   0.16703501  0.91493041  0.49980719
   0.24965867  0.50055101  0.59740938
   0.16608479  0.66870011  0.50172240
   0.33090923  0.58322592  0.40389769
  -0.00080526  0.24917102  0.59840644
   0.74908516  0.75092973  0.59742477
Direct configuration=    15
   0.08000988  0.08336703  0.39459810
   0.83586870  0.83416285  0.39705331
   0.74722588  0.49935084  0.60545272
   0.66509557  0.66802493  0.50021151
   0.66752454  0.16594549  0.50052222
   0.58523365  0.83366234  0.39711533
   0.41491510  0.66599046  0.50019697
   0.58486912  0.58089923  0.39556787
   0.50079389  0.25234003  0.60499652
   0.58276308  0.33256672  0.39813570
   0.50129258 -0.00273385  0.60138737
   0.41803794  0.16526062  0.49996567
   0.33193235  0.83220925  0.39764960
   0.24887514  0.24970075  0.60680355
   0.16867521  0.41816614  0.50005767
   0.25004526  0.75107882  0.60306551
   0.16864996  0.16374683  0.50015260
   0.91764879  0.16484588  0.49965736
   0.08192252  0.33645378  0.39399410
   0.33395659  0.08486697  0.39490819
   0.91706975  0.66846720  0.50019926
  -0.00103036  0.50023092  0.60710454
   0.91613633  0.41605032  0.50079459
  -0.00187974  0.75307028  0.60321166
   0.24850890 -0.00055388  0.59624790
   0.83381429  0.08285817  0.40276301
   0.75066984  0.00024246  0.59641604
   0.66553184  0.41678217  0.49952807
   0.49915545  0.75027236  0.59686608
   0.75045481  0.24939702  0.59749997
   0.83480259  0.58275419  0.40261136
  -0.00162270  0.00286553  0.59696936
   0.83329640  0.33302885  0.40196627
   0.41658946  0.91621721  0.49882014
   0.08521122  0.58368607  0.40316383
   0.50020833  0.49906309  0.59703182
   0.33364582  0.33445993  0.40242274
   0.41751713  0.41676173  0.50033682
   0.08382637  0.83212351  0.40440853
   0.91893649  0.91463977  0.50029131
   0.58435519  0.08394124  0.40212073
   0.66746797  0.91617422  0.49896524
   0.16703105  0.91490995  0.49975897
   0.24964147  0.50057238  0.59746991
   0.16612478  0.66869184  0.50181102
   0.33091155  0.58322717  0.40396506
  -0.00081282  0.24922050  0.59837512
   0.74910284  0.75094070  0.59738877
Direct configuration=    16
   0.07998624  0.08332558  0.39430959
   0.83601585  0.83403145  0.39710604
   0.74704939  0.49944360  0.60548734
   0.66506094  0.66796733  0.50009727
   0.66737997  0.16600662  0.50049785
   0.58532345  0.83362825  0.39686444
   0.41493145  0.66589596  0.50010414
   0.58514026  0.58090633  0.39548045
   0.50066692  0.25239615  0.60511130
   0.58273703  0.33243984  0.39820915
   0.50107492 -0.00276480  0.60116215
   0.41830246  0.16509730  0.50002800
   0.33187041  0.83217610  0.39749889
   0.24889221  0.24951290  0.60689265
   0.16874780  0.41812203  0.50036073
   0.25019401  0.75098615  0.60308857
   0.16867394  0.16374557  0.49985682
   0.91764592  0.16463097  0.49957621
   0.08199685  0.33646480  0.39401627
   0.33409570  0.08504334  0.39480644
   0.91728497  0.66853732  0.50043588
  -0.00115089  0.50036616  0.60739620
   0.91600523  0.41617175  0.50085988
  -0.00209263  0.75306699  0.60342617
   0.24844449 -0.00038786  0.59596958
   0.83385298  0.08276761  0.40273246
   0.75064289  0.00009693  0.59637891
   0.66560444  0.41683449  0.49947665
   0.49913548  0.75035604  0.59668538
   0.75052185  0.24945307  0.59740150
   0.83473438  0.58258953  0.40271339
  -0.00179289  0.00313944  0.59682346
   0.83336122  0.33330318  0.40195189
   0.41685074  0.91629864  0.49849620
   0.08528989  0.58364412  0.40341041
   0.50016053  0.49919434  0.59702783
   0.33372738  0.33432643  0.40261230
   0.41734193  0.41674093  0.50053067
   0.08388333  0.83206158  0.40450095
   0.91903059  0.91445115  0.50033836
   0.58416050  0.08403057  0.40214656
   0.66724908  0.91624372  0.49891135
   0.16698907  0.91497763  0.49964209
   0.24965786  0.50055708  0.59777380
   0.16619330  0.66865743  0.50195492
   0.33074253  0.58333257  0.40412142
  -0.00066486  0.24912953  0.59834540
   0.74905088  0.75100412  0.59738206
Direct configuration=    17
   0.07997476  0.08330546  0.39416952
   0.83608729  0.83396767  0.39713165
   0.74696371  0.49948863  0.60550415
   0.66504413  0.66793937  0.50004180