 vasp.5.4.1 24Jun15 (build Mar 14 2019 10:18:33) complex                        
  
 executed on INTEL-19.0.2+OPENMPI date 2023.01.30  16:27:01
 running on   36 total cores
 distrk:  each k-point on   36 cores,    1 groups
 distr:  one band on NCORES_PER_BAND=   6 cores,    6 groups


--------------------------------------------------------------------------------------------------------


 INCAR:
 POTCAR:    PAW_PBE Au 04Oct2007                  
 POTCAR:    PAW_PBE Pd 04Jan2005                  
 POTCAR:    PAW_PBE Au 04Oct2007                  
  local pseudopotential read in
  partial core-charges read in
  partial kinetic energy density read in
  atomic valenz-charges read in
  non local Contribution for L=           2  read in
    real space projection operators read in
  non local Contribution for L=           2  read in
    real space projection operators read in
  non local Contribution for L=           0  read in
    real space projection operators read in
  non local Contribution for L=           0  read in
    real space projection operators read in
  non local Contribution for L=           1  read in
    real space projection operators read in
  non local Contribution for L=           1  read in
    real space projection operators read in
    PAW grid and wavefunctions read in
 
   number of l-projection  operators is LMAX  =           6
   number of lm-projection operators is LMMAX =          18
 
 POTCAR:    PAW_PBE Pd 04Jan2005                  
  local pseudopotential read in
  partial core-charges read in
  partial kinetic energy density read in
  atomic valenz-charges read in
  non local Contribution for L=           2  read in
    real space projection operators read in
  non local Contribution for L=           2  read in
    real space projection operators read in
  non local Contribution for L=           0  read in
    real space projection operators read in
  non local Contribution for L=           0  read in
    real space projection operators read in
  non local Contribution for L=           1  read in
    real space projection operators read in
  non local Contribution for L=           1  read in
    real space projection operators read in
    PAW grid and wavefunctions read in
 
   number of l-projection  operators is LMAX  =           6
   number of lm-projection operators is LMMAX =          18
 
 Optimization of the real space projectors (new method)

 maximal supplied QI-value         = 15.12
 optimisation between [QCUT,QGAM] = [ 10.13, 20.41] = [ 28.73,116.64] Ry 
 Optimized for a Real-space Cutoff    1.51 Angstroem

   l    n(q)    QCUT    max X(q) W(low)/X(q) W(high)/X(q)  e(spline) 
   2      8    10.129    60.898    0.46E-03    0.46E-03    0.14E-06
   2      8    10.129    58.894    0.47E-03    0.47E-03    0.14E-06
   0      9    10.129   109.617    0.16E-03    0.11E-03    0.54E-07
   0      9    10.129    75.026    0.15E-03    0.11E-03    0.52E-07
   1      9    10.129    16.344    0.96E-04    0.15E-03    0.14E-06
   1      9    10.129    10.160    0.81E-04    0.12E-03    0.11E-06
 Optimization of the real space projectors (new method)

 maximal supplied QI-value         = 14.36
 optimisation between [QCUT,QGAM] = [ 10.20, 20.39] = [ 29.12,116.47] Ry 
 Optimized for a Real-space Cutoff    1.51 Angstroem

   l    n(q)    QCUT    max X(q) W(low)/X(q) W(high)/X(q)  e(spline) 
   2      8    10.197    59.108    0.26E-03    0.14E-03    0.96E-07
   2      8    10.197    58.101    0.27E-03    0.14E-03    0.98E-07
   0      9    10.197   102.235    0.54E-04    0.60E-05    0.72E-07
   0      9    10.197    58.388    0.52E-04    0.60E-05    0.68E-07
   1      9    10.197    22.191    0.18E-03    0.25E-03    0.79E-07
   1      9    10.197    15.590    0.15E-03    0.21E-03    0.69E-07
  PAW_PBE Au 04Oct2007                  :
 energy of atom  1       EATOM= -926.0867
 kinetic energy error for atom=    0.0062 (will be added to EATOM!!)
  PAW_PBE Pd 04Jan2005                  :
 energy of atom  2       EATOM= -809.7530
 kinetic energy error for atom=    0.0091 (will be added to EATOM!!)
 
 
 POSCAR: Au Pd                                   
  positions in cartesian coordinates
  No initial velocities read in
 exchange correlation table for  LEXCH =        8
   RHO(1)=    0.500       N(1)  =     2000
   RHO(2)=  100.500       N(2)  =     4000

 VTST: version 3.2, (02/03/18)

 CHAIN: initializing optimizer
 
 OPT: Using VASP Conjugate-Gradient optimizer
 CHAIN: Read ICHAIN            0
 
 POSCAR: Au Pd                                   
  positions in cartesian coordinates
  No initial velocities read in
 


--------------------------------------------------------------------------------------------------------


 ion  position               nearest neighbor table
   1  0.750  0.750  0.592-  26 2.75  32 2.75  31 2.75  33 2.75  43 2.75  45 2.75   9 2.75  40 2.75
                             4 2.75
   2  0.083  0.583  0.408-  19 2.75   5 2.75   8 2.75  12 2.75   3 2.75  11 2.75  27 2.75  28 2.75
                            32 2.75
   3  0.083  0.833  0.408-  22 2.75   2 2.75  27 2.75  38 2.75  41 2.75   5 2.75  21 2.75  19 2.75
                            30 2.75
   4  0.667  0.667  0.500-  46 2.75  45 2.75  40 2.75  36 2.75   7 2.75  16 2.75  26 2.75  13 2.75
                            32 2.75  39 2.75  11 2.75   1 2.75
   5  0.833  0.833  0.408-  30 2.75  11 2.75  23 2.75   2 2.75  41 2.75  39 2.75   3 2.75  32 2.75
                            26 2.75
   6  0.000  0.250  0.592-   7 2.75  14 2.75  15 2.75  29 2.75  31 2.75  45 2.75  24 2.75  17 2.75
                            10 2.75
   7  0.917  0.417  0.500-  18 2.75   6 2.75  45 2.75  14 2.75   4 2.75  32 2.75  10 2.75  16 2.75
                            28 2.75  11 2.75   8 2.75  31 2.75
   8  0.083  0.333  0.408-  28 2.75  11 2.75   2 2.75  34 2.75  38 2.75  18 2.75  12 2.75  14 2.75
                             7 2.75
   9  0.000  0.750  0.592-  30 2.75  19 2.75  29 2.75  20 2.75  31 2.75  43 2.75   1 2.75  48 2.75
                            32 2.75
  10  0.917  0.167  0.500-  41 2.75  29 2.75  24 2.75   7 2.75  16 2.75  30 2.75  22 2.75  14 2.75
                            42 2.75  18 2.75   6 2.75  38 2.75
  11  0.833  0.583  0.408-  32 2.75   8 2.75  18 2.75   5 2.75  39 2.75   2 2.75  46 2.75   7 2.75
                             4 2.75
  12  0.333  0.333  0.408-  47 2.75  23 2.75  27 2.75  34 2.75   2 2.75  35 2.75   8 2.75  25 2.75
                            28 2.75
  13  0.417  0.667  0.500-  27 2.75  44 2.75  48 2.75  36 2.75  22 2.75  47 2.75  16 2.75   4 2.75
                            19 2.75  21 2.75  40 2.75  46 2.75
  14  0.167  0.167  0.500-  38 2.75  15 2.75   6 2.75  22 2.75  28 2.75  36 2.75   7 2.75  25 2.75
                            10 2.75   8 2.75  17 2.75  34 2.75
  15  0.250  0.000  0.592-  14 2.75  36 2.75  17 2.75   6 2.75  40 2.75  48 2.75  33 2.75  29 2.75
                            22 2.75
  16  0.667  0.417  0.500-  35 2.75  24 2.75  44 2.75   4 2.75  10 2.75  42 2.75  13 2.75   7 2.75
                            47 2.75  46 2.75  18 2.75  45 2.75
  17  0.250  0.250  0.592-  28 2.75  25 2.75  15 2.75  20 2.75  31 2.75  33 2.75   6 2.75  37 2.75
                            14 2.75
  18  0.833  0.333  0.408-   7 2.75  11 2.75  38 2.75  41 2.75  46 2.75  35 2.75   8 2.75  10 2.75
                            16 2.75
  19  0.167  0.667  0.500-   2 2.75  20 2.75   9 2.75  22 2.75  28 2.75  30 2.75  47 2.75  32 2.75
                            13 2.75   3 2.75  27 2.75  48 2.75
  20  0.250  0.500  0.592-  19 2.75  47 2.75   9 2.75  37 2.75  17 2.75  48 2.75  31 2.75  44 2.75
                            28 2.75
  21  0.333  0.833  0.408-  36 2.75  34 2.75  27 2.75  38 2.75  46 2.75  39 2.75   3 2.75  13 2.75
                            22 2.75
  22  0.167  0.917  0.500-   3 2.75  48 2.75  29 2.75  14 2.75  19 2.75  10 2.75  13 2.75  36 2.75
                            30 2.75  38 2.75  21 2.75  15 2.75
  23  0.583  0.083  0.408-  42 2.75  12 2.75  35 2.75  39 2.75   5 2.75  41 2.75  34 2.75  26 2.75
                            25 2.75
  24  0.750  0.250  0.592-  16 2.75  10 2.75  29 2.75  43 2.75  44 2.75  45 2.75  37 2.75   6 2.75
                            42 2.75
  25  0.417  0.167  0.500-  34 2.75  33 2.75  17 2.75  26 2.75  28 2.75  36 2.75  47 2.75  42 2.75
                            14 2.75  12 2.75  23 2.75  37 2.75
  26  0.667  0.917  0.500-  39 2.75   1 2.75  33 2.75  32 2.75   4 2.75  25 2.75  42 2.75  30 2.75
                            36 2.75  23 2.75   5 2.75  43 2.75
  27  0.333  0.583  0.408-  13 2.75  12 2.75   3 2.75  21 2.75  35 2.75   2 2.75  46 2.75  47 2.75
                            19 2.75
  28  0.167  0.417  0.500-   8 2.75  17 2.75  31 2.75  19 2.75  25 2.75  14 2.75  32 2.75   7 2.75
                            47 2.75   2 2.75  12 2.75  20 2.75
  29  0.000  0.000  0.592-  10 2.75  22 2.75   6 2.75   9 2.75  24 2.75  48 2.75  43 2.75  15 2.75
                            30 2.75
  30  0.917  0.917  0.500-   5 2.75   9 2.75  43 2.75  19 2.75  32 2.75  42 2.75  10 2.75  26 2.75
                            22 2.75  41 2.75   3 2.75  29 2.75
  31  0.000  0.500  0.592-  32 2.75  28 2.75   9 2.75  17 2.75   1 2.75   6 2.75  20 2.75  45 2.75
                             7 2.75
  32  0.917  0.667  0.500-  11 2.75  31 2.75   1 2.75  26 2.75  28 2.75  30 2.75   7 2.75   4 2.75
                            19 2.75   5 2.75   2 2.75   9 2.75
  33  0.500  0.000  0.592-  25 2.75  26 2.75   1 2.75  17 2.75  37 2.75  40 2.75  15 2.75  43 2.75
                            36 2.75
  34  0.333  0.083  0.408-  25 2.75  12 2.75  21 2.75   8 2.75  39 2.75  38 2.75  23 2.75  36 2.75
                            14 2.75
  35  0.583  0.333  0.408-  16 2.75  23 2.75  27 2.75  41 2.75  46 2.75  12 2.75  18 2.75  42 2.75
                            47 2.75
  36  0.417  0.917  0.500-  21 2.75  40 2.75  15 2.75   4 2.75  13 2.75  25 2.75  14 2.75  26 2.75
                            22 2.75  34 2.75  39 2.75  33 2.75
  37  0.500  0.250  0.592-  47 2.75  42 2.75  20 2.75  43 2.75  44 2.75  33 2.75  24 2.75  17 2.75
                            25 2.75
  38  0.083  0.083  0.408-  14 2.75   8 2.75   3 2.75  18 2.75  21 2.75  34 2.75  41 2.75  22 2.75
                            10 2.75
  39  0.583  0.833  0.408-  26 2.75  23 2.75  11 2.75  34 2.75  46 2.75   5 2.75  21 2.75   4 2.75
                            36 2.75
  40  0.500  0.750  0.592-  36 2.75   4 2.75  33 2.75  15 2.75  44 2.75  45 2.75   1 2.75  48 2.75
                            13 2.75
  41  0.833  0.083  0.408-  10 2.75   5 2.75   3 2.75  18 2.75  35 2.75  23 2.75  38 2.75  30 2.75
                            42 2.75
  42  0.667  0.167  0.500-  23 2.75  43 2.75  37 2.75  30 2.75  16 2.75  26 2.75  47 2.75  25 2.75
                            10 2.75  35 2.75  24 2.75  41 2.75
  43  0.750  0.000  0.592-  42 2.75  30 2.75  24 2.75   1 2.75  37 2.75   9 2.75  29 2.75  33 2.75
                            26 2.75
  44  0.500  0.500  0.592-  13 2.75  16 2.75  24 2.75  37 2.75  40 2.75  48 2.75  45 2.75  20 2.75
                            47 2.75
  45  0.750  0.500  0.592-   4 2.75   7 2.75   6 2.75   1 2.75  24 2.75  40 2.75  31 2.75  44 2.75
                            16 2.75
  46  0.583  0.583  0.408-   4 2.75  18 2.75  21 2.75  35 2.75  39 2.75  11 2.75  27 2.75  16 2.75
                            13 2.75
  47  0.417  0.417  0.500-  12 2.75  37 2.75  20 2.75  13 2.75  25 2.75  19 2.75  42 2.75  16 2.75
                            28 2.75  27 2.75  35 2.75  44 2.75
  48  0.250  0.750  0.592-  22 2.75  13 2.75  20 2.75  15 2.75  29 2.75  44 2.75  40 2.75   9 2.75
                            19 2.75
 
  LATTYP: Found a hexagonal cell.
 ALAT       =    11.0025815153
 C/A-ratio  =     2.2260035120
  
  Lattice vectors:
  
 A1 = (   5.5012907576,  -9.5285150994,   0.0000000000)
 A2 = ( -11.0025815153,   0.0000000000,   0.0000000000)
 A3 = (   0.0000000000,   0.0000000000, -24.4917850943)


Analysis of symmetry for initial positions (statically):
=====================================================================
 Subroutine PRICEL returns:
 Original cell was already a primitive cell.
 

 Routine SETGRP: Setting up the symmetry group for a 
 hexagonal supercell.


 Subroutine GETGRP returns: Found  1 space group operations
 (whereof  1 operations were pure point group operations)
 out of a pool of 24 trial point group operations.


The static configuration has the point symmetry C_1 .


Analysis of symmetry for dynamics (positions and initial velocities):
=====================================================================
 Subroutine PRICEL returns:
 Original cell was already a primitive cell.
 

 Routine SETGRP: Setting up the symmetry group for a 
 hexagonal supercell.


 Subroutine GETGRP returns: Found  1 space group operations
 (whereof  1 operations were pure point group operations)
 out of a pool of 24 trial point group operations.


The dynamic configuration has the point symmetry C_1 .


Analysis of constrained symmetry for selective dynamics:
=====================================================================
 Subroutine PRICEL returns:
 Original cell was already a primitive cell.
 

 Routine SETGRP: Setting up the symmetry group for a 
 hexagonal supercell.


 Subroutine GETGRP returns: Found  1 space group operations
 (whereof  1 operations were pure point group operations)
 out of a pool of 24 trial point group operations.


The constrained configuration has the point symmetry C_1 .
 
 
 KPOINTS: Automatic mesh                          

Automatic generation of k-mesh.
Space group operators:
 irot       det(A)        alpha          n_x          n_y          n_z        tau_x        tau_y        tau_z
    1     1.000000     0.000000     1.000000     0.000000     0.000000     0.000000     0.000000     0.000000
 
 Subroutine IBZKPT returns following result:
 ===========================================
 
 Found      6 irreducible k-points:
 
 Following reciprocal coordinates:
            Coordinates               Weight
  0.250000  0.250000  0.000000     16.000000
  0.000000  0.250000  0.000000     16.000000
 -0.250000  0.000000  0.000000     16.000000
 -0.250000  0.250000  0.000000     16.000000
  0.500000 -0.250000  0.000000     16.000000
 -0.250000  0.500000  0.000000     16.000000
 
 Following cartesian coordinates:
            Coordinates               Weight
  0.022722  0.013119  0.000000     16.000000
  0.000000  0.026237  0.000000     16.000000
 -0.022722  0.013119  0.000000     16.000000
 -0.022722  0.039356  0.000000     16.000000
  0.045444 -0.052474  0.000000     16.000000
 -0.022722  0.065593  0.000000     16.000000
 


--------------------------------------------------------------------------------------------------------




 Dimension of arrays:
   k-points           NKPTS =      6   k-points in BZ     NKDIM =      6   number of bands    NBANDS=    306
   number of dos      NEDOS =    301   number of ions     NIONS =     48
   non local maximal  LDIM  =      6   non local SUM 2l+1 LMDIM =     18
   total plane-waves  NPLWV = 349920
   max r-space proj   IRMAX =   2009   max aug-charges    IRDMAX=   8532
   dimension x,y,z NGX =    54 NGY =   54 NGZ =  120
   dimension x,y,z NGXF=   108 NGYF=  108 NGZF=  240
   support grid    NGXF=   108 NGYF=  108 NGZF=  240
   ions per type =              24  24
 NGX,Y,Z   is equivalent  to a cutoff of   8.16,  8.16,  8.15 a.u.
 NGXF,Y,Z  is equivalent  to a cutoff of  16.32, 16.32, 16.29 a.u.


 I would recommend the setting:
   dimension x,y,z NGX =    54 NGY =   54 NGZ =  120
 SYSTEM =  unknown system                          
 POSCAR =  Au Pd                                   

 Startparameter for this run:
   NWRITE =      1    write-flag & timer
   PREC   = normal    normal or accurate (medium, high low for compatibility)
   ISTART =      0    job   : 0-new  1-cont  2-samecut
   ICHARG =      2    charge: 1-file 2-atom 10-const
   ISPIN  =      1    spin polarized calculation?
   LNONCOLLINEAR =      F non collinear calculations
   LSORBIT =      F    spin-orbit coupling
   INIWAV =      1    electr: 0-lowe 1-rand  2-diag
   LASPH  =      F    aspherical Exc in radial PAW
   METAGGA=      F    non-selfconsistent MetaGGA calc.

 Electronic Relaxation 1
   ENCUT  =  400.0 eV  29.40 Ry    5.42 a.u.  17.94 17.94 39.94*2*pi/ulx,y,z
   ENINI  =  400.0     initial cutoff
   ENAUG  =  416.2 eV  augmentation charge cutoff
   NELM   =    500;   NELMIN=  2; NELMDL= -5     # of ELM steps 
   EDIFF  = 0.1E-05   stopping-criterion for ELM
   LREAL  =      T    real-space projection
   NLSPLINE    = F    spline interpolate recip. space projectors
   LCOMPAT=      F    compatible to vasp.4.4
   GGA_COMPAT  = T    GGA compatible to vasp.4.4-vasp.4.6
   LMAXPAW     = -100 max onsite density
   LMAXMIX     =    2 max onsite mixed and CHGCAR
   VOSKOWN=      1    Vosko Wilk Nusair interpolation
   ROPT   =   -0.00050  -0.00050
 Ionic relaxation
   EDIFFG = -.2E-01   stopping-criterion for IOM
   NSW    =    500    number of steps for IOM
   NBLOCK =      1;   KBLOCK =    500    inner block; outer block 
   IBRION =      2    ionic relax: 0-MD 1-quasi-New 2-CG
   NFREE  =      2    steps in history (QN), initial steepest desc. (CG)
   ISIF   =      0    stress and relaxation
   IWAVPR =     11    prediction:  0-non 1-charg 2-wave 3-comb
   ISYM   =      2    0-nonsym 1-usesym 2-fastsym
   LCORR  =      T    Harris-Foulkes like correction to forces

   POTIM  = 0.3500    time-step for ionic-motion
   TEIN   =    0.0    initial temperature
   TEBEG  =    0.0;   TEEND  =   0.0 temperature during run
   SMASS  =  -3.00    Nose mass-parameter (am)
   estimated Nose-frequenzy (Omega)   =  0.10E-29 period in steps =****** mass=  -0.277E-26a.u.
   SCALEE = 1.0000    scale energy and forces
   NPACO  =    256;   APACO  = 16.0  distance and # of slots for P.C.
   PSTRESS=    0.0 pullay stress

  Mass of Ions in am
   POMASS = 196.97106.42
  Ionic Valenz
   ZVAL   =  11.00 10.00
  Atomic Wigner-Seitz radii
   RWIGS  =  -1.00 -1.00
  virtual crystal weights 
   VCA    =   1.00  1.00
   NELECT =     504.0000    total number of electrons
   NUPDOWN=      -1.0000    fix difference up-down

 DOS related values:
   EMIN   =  10.00;   EMAX   =-10.00  energy-range for DOS
   EFERMI =   0.00
   ISMEAR =     0;   SIGMA  =   0.10  broadening in eV -4-tet -1-fermi 0-gaus

 Electronic relaxation 2 (details)
   IALGO  =     68    algorithm
   LDIAG  =      T    sub-space diagonalisation (order eigenvalues)
   LSUBROT=      F    optimize rotation matrix (better conditioning)
   TURBO    =      0    0=normal 1=particle mesh
   IRESTART =      0    0=no restart 2=restart with 2 vectors
   NREBOOT  =      0    no. of reboots
   NMIN     =      0    reboot dimension
   EREF     =   0.00    reference energy to select bands
   IMIX   =      4    mixing-type and parameters
     AMIX     =   0.40;   BMIX     =  1.00
     AMIX_MAG =   1.60;   BMIX_MAG =  1.00
     AMIN     =   0.10
     WC   =   100.;   INIMIX=   1;  MIXPRE=   1;  MAXMIX= -45

 Intra band minimization:
   WEIMIN = 0.0010     energy-eigenvalue tresh-hold
   EBREAK =  0.82E-09  absolut break condition
   DEPER  =   0.30     relativ break condition  

   TIME   =   0.40     timestep for ELM

  volume/ion in A,a.u.               =      53.49       360.99
  Fermi-wavevector in a.u.,A,eV,Ry     =   0.951418  1.797920 12.315955  0.905197
  Thomas-Fermi vector in A             =   2.079887
 
 Write flags
   LWAVE  =      F    write WAVECAR
   LCHARG =      F    write CHGCAR
   LVTOT  =      F    write LOCPOT, total local potential
   LVHAR  =      F    write LOCPOT, Hartree potential only
   LELF   =      F    write electronic localiz. function (ELF)
   LORBIT =      0    0 simple, 1 ext, 2 COOP (PROOUT)


 Dipole corrections
   LMONO  =      F    monopole corrections only (constant potential shift)
   LDIPOL =      T    correct potential (dipole corrections)
   IDIPOL =      3    1-x, 2-y, 3-z, 4-all directions 
   EPSILON=  1.0000000 bulk dielectric constant

 Exchange correlation treatment:
   GGA     =    PE    GGA type
   LEXCH   =     8    internal setting for exchange type
   VOSKOWN=      1    Vosko Wilk Nusair interpolation
   LHFCALC =     F    Hartree Fock is set to
   LHFONE  =     F    Hartree Fock one center treatment
   AEXX    =    0.0000 exact exchange contribution

 Linear response parameters
   LEPSILON=     F    determine dielectric tensor
   LRPA    =     F    only Hartree local field effects (RPA)
   LNABLA  =     F    use nabla operator in PAW spheres
   LVEL    =     F    velocity operator in full k-point grid
   LINTERFAST=   F  fast interpolation
   KINTER  =     0    interpolate to denser k-point grid
   CSHIFT  =0.1000    complex shift for real part using Kramers Kronig
   OMEGAMAX=  -1.0    maximum frequency
   DEG_THRESHOLD= 0.2000000E-02 threshold for treating states as degnerate
   RTIME   =    0.100 relaxation time in fs

 Orbital magnetization related:
   ORBITALMAG=     F  switch on orbital magnetization
   LCHIMAG   =     F  perturbation theory with respect to B field
   DQ        =  0.001000  dq finite difference perturbation B field



--------------------------------------------------------------------------------------------------------


 conjugate gradient relaxation of ions
   using selective dynamics as specified on POSCAR
   WARNING: If single coordinates had been selected the selection of coordinates
            is made according to the corresponding   d i r e c t   coordinates!
            Don't support selection of single cartesian coordinates -- sorry ...
  !
 charge density and potential will be updated during run
 non-spin polarized calculation
 RMM-DIIS sequential band-by-band and
  variant of blocked Davidson during initial phase
 perform sub-space diagonalisation
    before iterative eigenvector-optimisation
 modified Broyden-mixing scheme, WC =      100.0
 initial mixing is a Kerker type mixing with AMIX =  0.4000 and BMIX =      1.0000
 Hartree-type preconditioning will be used
 using additional bands           54
 real space projection scheme for non local part
 use partial core corrections
 calculate Harris-corrections to forces 
   (improved forces if not selfconsistent)
 use gradient corrections 
 use of overlap-Matrix (Vanderbilt PP)
 Gauss-broadening in eV      SIGMA  =   0.10


--------------------------------------------------------------------------------------------------------


  energy-cutoff  :      400.00
  volume of cell :     2567.68
      direct lattice vectors                 reciprocal lattice vectors
    11.002581515  0.000000000  0.000000000     0.090887761 -0.052474073  0.000000000
     5.501290758  9.528515099  0.000000000     0.000000000  0.104948147  0.000000000
     0.000000000  0.000000000 24.491785094     0.000000000  0.000000000  0.040830017

  length of vectors
    11.002581515 11.002581515 24.491785094     0.104948147  0.104948147  0.040830017


 
 k-points in units of 2pi/SCALE and weight: Automatic mesh                          
   0.02272194  0.01311852  0.00000000       0.167
   0.00000000  0.02623704  0.00000000       0.167
  -0.02272194  0.01311852  0.00000000       0.167
  -0.02272194  0.03935555  0.00000000       0.167
   0.04544388 -0.05247407  0.00000000       0.167
  -0.02272194  0.06559259  0.00000000       0.167
 
 k-points in reciprocal lattice and weights: Automatic mesh                          
   0.25000000  0.25000000  0.00000000       0.167
   0.00000000  0.25000000  0.00000000       0.167
  -0.25000000  0.00000000  0.00000000       0.167
  -0.25000000  0.25000000  0.00000000       0.167
   0.50000000 -0.25000000  0.00000000       0.167
  -0.25000000  0.50000000  0.00000000       0.167
 
 position of ions in fractional coordinates (direct lattice) 
   0.75000000  0.75000000  0.59169983
   0.08333333  0.58333333  0.40830017
   0.08333333  0.83333333  0.40830017
   0.66666667  0.66666667  0.50000000
   0.83333333  0.83333333  0.40830017
   0.00000000  0.25000000  0.59169983
   0.91666667  0.41666667  0.50000000
   0.08333333  0.33333333  0.40830017
   0.00000000  0.75000000  0.59169983
   0.91666667  0.16666667  0.50000000
   0.83333333  0.58333333  0.40830017
   0.33333333  0.33333333  0.40830017
   0.41666667  0.66666667  0.50000000
   0.16666667  0.16666667  0.50000000
   0.25000000  0.00000000  0.59169983
   0.66666667  0.41666667  0.50000000
   0.25000000  0.25000000  0.59169983
   0.83333333  0.33333333  0.40830017
   0.16666667  0.66666667  0.50000000
   0.25000000  0.50000000  0.59169983
   0.33333333  0.83333333  0.40830017
   0.16666667  0.91666667  0.50000000
   0.58333333  0.08333333  0.40830017
   0.75000000  0.25000000  0.59169983
   0.41666667  0.16666667  0.50000000
   0.66666667  0.91666667  0.50000000
   0.33333333  0.58333333  0.40830017
   0.16666667  0.41666667  0.50000000
   0.00000000  0.00000000  0.59169983
   0.91666667  0.91666667  0.50000000
   0.00000000  0.50000000  0.59169983
   0.91666667  0.66666667  0.50000000
   0.50000000  0.00000000  0.59169983
   0.33333333  0.08333333  0.40830017
   0.58333333  0.33333333  0.40830017
   0.41666667  0.91666667  0.50000000
   0.50000000  0.25000000  0.59169983
   0.08333333  0.08333333  0.40830017
   0.58333333  0.83333333  0.40830017
   0.50000000  0.75000000  0.59169983
   0.83333333  0.08333333  0.40830017
   0.66666667  0.16666667  0.50000000
   0.75000000  0.00000000  0.59169983
   0.50000000  0.50000000  0.59169983
   0.75000000  0.50000000  0.59169983
   0.58333333  0.58333333  0.40830017
   0.41666667  0.41666667  0.50000000
   0.25000000  0.75000000  0.59169983
 
 position of ions in cartesian coordinates  (Angst):
  12.37790420  7.14638632 14.49178509
   4.12596807  5.55830047 10.00000000
   5.50129076  7.94042925 10.00000000
  11.00258152  6.35234340 12.24589255
  13.75322689  7.94042925 10.00000000
   1.37532269  2.38212877 14.49178509
  12.37790420  3.97021462 12.24589255
   2.75064538  3.17617170 10.00000000
   4.12596807  7.14638632 14.49178509
  11.00258152  1.58808585 12.24589255
  12.37790420  5.55830047 10.00000000
   5.50129076  3.17617170 10.00000000
   8.25193614  6.35234340 12.24589255
   2.75064538  1.58808585 12.24589255
   2.75064538  0.00000000 14.49178509
   9.62725883  3.97021462 12.24589255
   4.12596807  2.38212877 14.49178509
  11.00258152  3.17617170 10.00000000
   5.50129076  6.35234340 12.24589255
   5.50129076  4.76425755 14.49178509
   8.25193614  7.94042925 10.00000000
   6.87661345  8.73447217 12.24589255
   6.87661345  0.79404292 10.00000000
   9.62725883  2.38212877 14.49178509
   5.50129076  1.58808585 12.24589255
  12.37790420  8.73447217 12.24589255
   6.87661345  5.55830047 10.00000000
   4.12596807  3.97021462 12.24589255
   0.00000000  0.00000000 14.49178509
  15.12854958  8.73447217 12.24589255
   2.75064538  4.76425755 14.49178509
  13.75322689  6.35234340 12.24589255
   5.50129076  0.00000000 14.49178509
   4.12596807  0.79404292 10.00000000
   8.25193614  3.17617170 10.00000000
   9.62725883  8.73447217 12.24589255
   6.87661345  2.38212877 14.49178509
   1.37532269  0.79404292 10.00000000
  11.00258152  7.94042925 10.00000000
   9.62725883  7.14638632 14.49178509
   9.62725883  0.79404292 10.00000000
   8.25193614  1.58808585 12.24589255
   8.25193614  0.00000000 14.49178509
   8.25193614  4.76425755 14.49178509
  11.00258152  4.76425755 14.49178509
   9.62725883  5.55830047 10.00000000
   6.87661345  3.97021462 12.24589255
   6.87661345  7.14638632 14.49178509
 


--------------------------------------------------------------------------------------------------------


 k-point  1 :   0.2500 0.2500 0.0000  plane waves:   46635
 k-point  2 :   0.0000 0.2500 0.0000  plane waves:   46635
 k-point  3 :  -0.2500 0.0000 0.0000  plane waves:   46635
 k-point  4 :  -0.2500 0.2500 0.0000  plane waves:   46644
 k-point  5 :   0.5000-0.2500 0.0000  plane waves:   46644
 k-point  6 :  -0.2500 0.5000 0.0000  plane waves:   46644

 maximum and minimum number of plane-waves per node :      7818     7732

 maximum number of plane-waves:     46644
 maximum index in each direction: 
   IXMAX=   18   IYMAX=   18   IZMAX=   39
   IXMIN=  -18   IYMIN=  -18   IZMIN=  -39

 WARNING: aliasing errors must be expected set NGX to  74 to avoid them
 WARNING: aliasing errors must be expected set NGY to  74 to avoid them
 WARNING: aliasing errors must be expected set NGZ to 158 to avoid them
 aliasing errors are usually negligible using standard VASP settings
 and one can safely disregard these warnings

 real space projection operators:
  total allocation   :      12803.06 KBytes
  max/ min on nodes  :       2145.66       2127.94


 parallel 3D FFT for wavefunctions:
    minimum data exchange during FFTs selected (reduces bandwidth)
 parallel 3D FFT for charge:
    minimum data exchange during FFTs selected (reduces bandwidth)


 total amount of memory used by VASP on root node    84353. kBytes
========================================================================

   base      :      30000. kBytes
   nonlr-proj:       4285. kBytes
   fftplans  :       4447. kBytes
   grid      :       6721. kBytes
   one-center:        124. kBytes
   wavefun   :      38776. kBytes
 
     INWAV:  cpu time    0.0000: real time    0.0000
 Broyden mixing: mesh for mixing (old mesh)
   NGX = 35   NGY = 35   NGZ = 79
  (NGX  =108   NGY  =108   NGZ  =240)
  gives a total of  96775 points

 initial charge density was supplied:
 charge density of overlapping atoms calculated
 number of electron     504.0000000 magnetization 
 keeping initial charge density in first step


--------------------------------------------------------------------------------------------------------


 Maximum index for non-local projection operator          355
 Maximum index for augmentation-charges          437 (set IRDMAX)


--------------------------------------------------------------------------------------------------------


 First call to EWALD:  gamma=   0.129
 Maximum number of real-space cells 4x 4x 2
 Maximum number of reciprocal cells 2x 2x 5

 FEWALD executed in parallel
    FEWALD:  cpu time    0.0022: real time    0.0022


----------------------------------------- Iteration    1(   1)  ---------------------------------------


    POTLOK:  cpu time    0.0476: real time    0.0487
    SETDIJ:  cpu time    0.0061: real time    0.0062
     EDDAV:  cpu time    6.8011: real time    6.8210
       DOS:  cpu time    0.0014: real time    0.0014
    --------------------------------------------
      LOOP:  cpu time    6.8592: real time    6.8856

 eigenvalue-minimisations  :  3672
 total energy-change (2. order) : 0.3200027E+04  (-0.1897746E+05)
 number of electron     504.0000000 magnetization 
 augmentation part      504.0000000 magnetization 

 DIPCOR: dipole corrections for dipol
 direction  3 min pos     1,
 dipolmoment           0.000000      0.000000      0.000001 electrons x Angstroem
 Tr[quadrupol]    -10189.892206

 energy correction for charged system         0.000000 eV
 dipol+quadrupol energy correction           -0.000000 eV
 added-field ion interaction          0.000000 eV  (added to PSCEN)


 Free energy of the ion-electron system (eV)
  ---------------------------------------------------
  alpha Z        PSCENC =       805.86936475
  Ewald energy   TEWEN  =    200166.09802178
  -Hartree energ DENC   =   -242580.42571134
  -exchange      EXHF   =         0.00000000
  -V(xc)+E(xc)   XCENC  =      -327.62744609
  PAW double counting   =     40340.05962942   -38292.62782345
  entropy T*S    EENTRO =        -0.13722370
  eigenvalues    EBANDS =      1429.03199462
  atomic energy  EATOM  =     41659.78587232
  Solvation  Ediel_sol  =         0.00000000
  ---------------------------------------------------
  free energy    TOTEN  =      3200.02667832 eV

  energy without entropy =     3200.16390202  energy(sigma->0) =     3200.09529017


--------------------------------------------------------------------------------------------------------




----------------------------------------- Iteration    1(   2)  ---------------------------------------


     EDDAV:  cpu time    7.8545: real time    7.8779
       DOS:  cpu time    0.0015: real time    0.0015
    --------------------------------------------
      LOOP:  cpu time    7.8568: real time    7.8815

 eigenvalue-minimisations  :  4368
 total energy-change (2. order) :-0.3184969E+04  (-0.2924461E+04)
 number of electron     504.0000000 magnetization 
 augmentation part      504.0000000 magnetization 

 DIPCOR: dipole corrections for dipol
 direction  3 min pos     1,
 dipolmoment           0.000000      0.000000      0.000001 electrons x Angstroem
 Tr[quadrupol]    -10189.892206

 energy correction for charged system         0.000000 eV
 dipol+quadrupol energy correction           -0.000000 eV
 added-field ion interaction          0.000000 eV  (added to PSCEN)


 Free energy of the ion-electron system (eV)
  ---------------------------------------------------
  alpha Z        PSCENC =       805.86936475
  Ewald energy   TEWEN  =    200166.09802178
  -Hartree energ DENC   =   -242580.42571134
  -exchange      EXHF   =         0.00000000
  -V(xc)+E(xc)   XCENC  =      -327.62744609
  PAW double counting   =     40340.05962942   -38292.62782345
  entropy T*S    EENTRO =        -0.12091024
  eigenvalues    EBANDS =     -1755.95330355
  atomic energy  EATOM  =     41659.78587232
  Solvation  Ediel_sol  =         0.00000000
  ---------------------------------------------------
  free energy    TOTEN  =        15.05769361 eV

  energy without entropy =       15.17860385  energy(sigma->0) =       15.11814873


--------------------------------------------------------------------------------------------------------




----------------------------------------- Iteration    1(   3)  ---------------------------------------


     EDDAV:  cpu time    7.8463: real time    7.8680
       DOS:  cpu time    0.0016: real time    0.0016
    --------------------------------------------
      LOOP:  cpu time    7.8485: real time    7.8744

 eigenvalue-minimisations  :  4128
 total energy-change (2. order) :-0.2157000E+03  (-0.2001140E+03)
 number of electron     504.0000000 magnetization 
 augmentation part      504.0000000 magnetization 

 DIPCOR: dipole corrections for dipol
 direction  3 min pos     1,
 dipolmoment           0.000000      0.000000      0.000001 electrons x Angstroem
 Tr[quadrupol]    -10189.892206

 energy correction for charged system         0.000000 eV
 dipol+quadrupol energy correction           -0.000000 eV
 added-field ion interaction          0.000000 eV  (added to PSCEN)


 Free energy of the ion-electron system (eV)
  ---------------------------------------------------
  alpha Z        PSCENC =       805.86936475
  Ewald energy   TEWEN  =    200166.09802178
  -Hartree energ DENC   =   -242580.42571134
  -exchange      EXHF   =         0.00000000
  -V(xc)+E(xc)   XCENC  =      -327.62744609
  PAW double counting   =     40340.05962942   -38292.62782345
  entropy T*S    EENTRO =        -0.20172016
  eigenvalues    EBANDS =     -1971.57249993
  atomic energy  EATOM  =     41659.78587232
  Solvation  Ediel_sol  =         0.00000000
  ---------------------------------------------------
  free energy    TOTEN  =      -200.64231269 eV

  energy without entropy =     -200.44059253  energy(sigma->0) =     -200.54145261


--------------------------------------------------------------------------------------------------------




----------------------------------------- Iteration    1(   4)  ---------------------------------------


     EDDAV:  cpu time    8.0859: real time    8.1438
       DOS:  cpu time    0.0016: real time    0.0016
    --------------------------------------------
      LOOP:  cpu time    8.0882: real time    8.1502

 eigenvalue-minimisations  :  4260
 total energy-change (2. order) :-0.5864216E+01  (-0.5798056E+01)
 number of electron     504.0000000 magnetization 
 augmentation part      504.0000000 magnetization 

 DIPCOR: dipole corrections for dipol
 direction  3 min pos     1,
 dipolmoment           0.000000      0.000000      0.000001 electrons x Angstroem
 Tr[quadrupol]    -10189.892206

 energy correction for charged system         0.000000 eV
 dipol+quadrupol energy correction           -0.000000 eV
 added-field ion interaction          0.000000 eV  (added to PSCEN)


 Free energy of the ion-electron system (eV)
  ---------------------------------------------------
  alpha Z        PSCENC =       805.86936475
  Ewald energy   TEWEN  =    200166.09802178
  -Hartree energ DENC   =   -242580.42571134
  -exchange      EXHF   =         0.00000000
  -V(xc)+E(xc)   XCENC  =      -327.62744609
  PAW double counting   =     40340.05962942   -38292.62782345
  entropy T*S    EENTRO =        -0.20698163
  eigenvalues    EBANDS =     -1977.43145436
  atomic energy  EATOM  =     41659.78587232
  Solvation  Ediel_sol  =         0.00000000
  ---------------------------------------------------
  free energy    TOTEN  =      -206.50652859 eV

  energy without entropy =     -206.29954696  energy(sigma->0) =     -206.40303778


--------------------------------------------------------------------------------------------------------




----------------------------------------- Iteration    1(   5)  ---------------------------------------


     EDDAV:  cpu time    8.3069: real time    8.3690
       DOS:  cpu time    0.0016: real time    0.0016
    CHARGE:  cpu time    0.2391: real time    0.2397
    MIXING:  cpu time    0.0021: real time    0.0022
    --------------------------------------------
      LOOP:  cpu time    8.5503: real time    8.6162

 eigenvalue-minimisations  :  4440
 total energy-change (2. order) :-0.1915051E+00  (-0.1908958E+00)
 number of electron     503.9998405 magnetization 
 augmentation part      191.2887191 magnetization 

 DIPCOR: dipole corrections for dipol
 direction  3 min pos     1,
 dipolmoment           0.000000      0.000000      0.000001 electrons x Angstroem
 Tr[quadrupol]    -10189.892206

 energy correction for charged system         0.000000 eV
 dipol+quadrupol energy correction           -0.000000 eV
 added-field ion interaction          0.000000 eV  (added to PSCEN)


 Broyden mixing:
  rms(total) = 0.62370E+01    rms(broyden)= 0.62369E+01
  rms(prec ) = 0.63661E+01
  weight for this iteration     100.00

 Free energy of the ion-electron system (eV)
  ---------------------------------------------------
  alpha Z        PSCENC =       805.86936475
  Ewald energy   TEWEN  =    200166.09802178
  -Hartree energ DENC   =   -242580.42571134
  -exchange      EXHF   =         0.00000000
  -V(xc)+E(xc)   XCENC  =      -327.62744609
  PAW double counting   =     40340.05962942   -38292.62782345
  entropy T*S    EENTRO =        -0.20730629
  eigenvalues    EBANDS =     -1977.62263479
  atomic energy  EATOM  =     41659.78587232
  Solvation  Ediel_sol  =         0.00000000
  ---------------------------------------------------
  free energy    TOTEN  =      -206.69803368 eV

  energy without entropy =     -206.49072739  energy(sigma->0) =     -206.59438054


--------------------------------------------------------------------------------------------------------




----------------------------------------- Iteration    1(   6)  ---------------------------------------


    POTLOK:  cpu time    0.0425: real time    0.0426
    SETDIJ:  cpu time    0.0050: real time    0.0057
    EDDIAG:  cpu time    1.2311: real time    1.2361
  RMM-DIIS:  cpu time    3.3753: real time    3.3990
    ORTHCH:  cpu time    0.2930: real time    0.2981
       DOS:  cpu time    0.0015: real time    0.0015
    CHARGE:  cpu time    0.2348: real time    0.2386
    MIXING:  cpu time    0.0020: real time    0.0020
    --------------------------------------------
      LOOP:  cpu time    5.1857: real time    5.2263

 eigenvalue-minimisations  :  3678
 total energy-change (2. order) : 0.3980206E+01  (-0.9603064E+01)
 number of electron     503.9998423 magnetization 
 augmentation part      191.3894657 magnetization 

 DIPCOR: dipole corrections for dipol
 direction  3 min pos     1,
 dipolmoment           0.000000      0.000000      0.680268 electrons x Angstroem
 Tr[quadrupol]    -10191.275578

 energy correction for charged system         0.000000 eV
 dipol+quadrupol energy correction           -0.016307 eV
 added-field ion interaction          0.215344 eV  (added to PSCEN)


 Broyden mixing:
  rms(total) = 0.56792E+01    rms(broyden)= 0.56791E+01
  rms(prec ) = 0.60032E+01
  weight for this iteration     100.00

 eigenvalues of (default mixing * dielectric matrix)
  average eigenvalue GAMMA=   0.6764
  0.6764

 Free energy of the ion-electron system (eV)
  ---------------------------------------------------
  alpha Z        PSCENC =       806.06840124
  Ewald energy   TEWEN  =    200166.09802178
  -Hartree energ DENC   =   -242329.40442009
  -exchange      EXHF   =         0.00000000
  -V(xc)+E(xc)   XCENC  =      -340.19707156
  PAW double counting   =     43918.61448643   -41930.50630829
  entropy T*S    EENTRO =        -0.24128050
  eigenvalues    EBANDS =     -2152.93552854
  atomic energy  EATOM  =     41659.78587232
  Solvation  Ediel_sol  =         0.00000000
  ---------------------------------------------------
  free energy    TOTEN  =      -202.71782723 eV

  energy without entropy =     -202.47654673  energy(sigma->0) =     -202.59718698


--------------------------------------------------------------------------------------------------------




----------------------------------------- Iteration    1(   7)  ---------------------------------------


    POTLOK:  cpu time    0.0413: real time    0.0430
    SETDIJ:  cpu time    0.0053: real time    0.0054
    EDDIAG:  cpu time    1.2264: real time    1.2350
  RMM-DIIS:  cpu time    3.3146: real time    3.3226
    ORTHCH:  cpu time    0.2970: real time    0.2977
       DOS:  cpu time    0.0014: real time    0.0014
    CHARGE:  cpu time    0.2433: real time    0.2438
    MIXING:  cpu time    0.0021: real time    0.0021
    --------------------------------------------
      LOOP:  cpu time    5.1320: real time    5.1546

 eigenvalue-minimisations  :  3683
 total energy-change (2. order) :-0.8656739E+01  (-0.6088269E+01)
 number of electron     503.9998375 magnetization 
 augmentation part      195.1460324 magnetization 

 DIPCOR: dipole corrections for dipol
 direction  3 min pos     1,
 dipolmoment           0.000000      0.000000     -1.043965 electrons x Angstroem
 Tr[quadrupol]    -10189.640226

 energy correction for charged system         0.000000 eV
 dipol+quadrupol energy correction           -0.038404 eV
 added-field ion interaction         -0.330474 eV  (added to PSCEN)


 Broyden mixing:
  rms(total) = 0.47180E+01    rms(broyden)= 0.47178E+01
  rms(prec ) = 0.54030E+01
  weight for this iteration     100.00

 eigenvalues of (default mixing * dielectric matrix)
  average eigenvalue GAMMA=   0.8686
  1.4076  0.3297

 Free energy of the ion-electron system (eV)
  ---------------------------------------------------
  alpha Z        PSCENC =       805.50048608
  Ewald energy   TEWEN  =    200166.09802178
  -Hartree energ DENC   =   -242179.51379173
  -exchange      EXHF   =         0.00000000
  -V(xc)+E(xc)   XCENC  =      -342.27733230
  PAW double counting   =     45193.24498724   -43228.63429900
  entropy T*S    EENTRO =        -0.22815954
  eigenvalues    EBANDS =     -2285.35035068
  atomic energy  EATOM  =     41659.78587232
  Solvation  Ediel_sol  =         0.00000000
  ---------------------------------------------------
  free energy    TOTEN  =      -211.37456586 eV

  energy without entropy =     -211.14640631  energy(sigma->0) =     -211.26048608


--------------------------------------------------------------------------------------------------------




----------------------------------------- Iteration    1(   8)  ---------------------------------------


    POTLOK:  cpu time    0.0426: real time    0.0439
    SETDIJ:  cpu time    0.0064: real time    0.0064
    EDDIAG:  cpu time    1.2428: real time    1.2470
  RMM-DIIS:  cpu time    3.3750: real time    3.3839
    ORTHCH:  cpu time    0.2904: real time    0.2914
       DOS:  cpu time    0.0015: real time    0.0015
    CHARGE:  cpu time    0.2389: real time    0.2395
    MIXING:  cpu time    0.0021: real time    0.0021
    --------------------------------------------
      LOOP:  cpu time    5.2004: real time    5.2209

 eigenvalue-minimisations  :  3678
 total energy-change (2. order) :-0.1624245E+02  (-0.9087629E+01)
 number of electron     503.9998356 magnetization 
 augmentation part      195.7307632 magnetization 

 DIPCOR: dipole corrections for dipol
 direction  3 min pos     1,
 dipolmoment           0.000000      0.000000      1.846807 electrons x Angstroem
 Tr[quadrupol]    -10191.185375

 energy correction for charged system         0.000000 eV
 dipol+quadrupol energy correction           -0.120184 eV
 added-field ion interaction          0.584620 eV  (added to PSCEN)


 Broyden mixing:
  rms(total) = 0.48167E+01    rms(broyden)= 0.48164E+01
  rms(prec ) = 0.58908E+01
  weight for this iteration     100.00

 eigenvalues of (default mixing * dielectric matrix)
  average eigenvalue GAMMA=   0.8572
  1.9391  0.3740  0.2587

 Free energy of the ion-electron system (eV)
  ---------------------------------------------------
  alpha Z        PSCENC =       806.33380016
  Ewald energy   TEWEN  =    200166.09802178
  -Hartree energ DENC   =   -242150.04942828
  -exchange      EXHF   =         0.00000000
  -V(xc)+E(xc)   XCENC  =      -344.62463047
  PAW double counting   =     46931.81552069   -44994.98197519
  entropy T*S    EENTRO =        -0.26100882
  eigenvalues    EBANDS =     -2301.73318728
  atomic energy  EATOM  =     41659.78587232
  Solvation  Ediel_sol  =         0.00000000
  ---------------------------------------------------
  free energy    TOTEN  =      -227.61701510 eV

  energy without entropy =     -227.35600628  energy(sigma->0) =     -227.48651069


--------------------------------------------------------------------------------------------------------




----------------------------------------- Iteration    1(   9)  ---------------------------------------


    POTLOK:  cpu time    0.0414: real time    0.0416
    SETDIJ:  cpu time    0.0055: real time    0.0062
    EDDIAG:  cpu time    1.2261: real time    1.2290
  RMM-DIIS:  cpu time    3.3489: real time    3.3570
    ORTHCH:  cpu time    0.2927: real time    0.2934
       DOS:  cpu time    0.0015: real time    0.0015
    CHARGE:  cpu time    0.2379: real time    0.2385
    MIXING:  cpu time    0.0021: real time    0.0022
    --------------------------------------------
      LOOP:  cpu time    5.1570: real time    5.1727

 eigenvalue-minimisations  :  3680
 total energy-change (2. order) : 0.1615950E+02  (-0.6087842E+01)
 number of electron     503.9998333 magnetization 
 augmentation part      199.2021271 magnetization 

 DIPCOR: dipole corrections for dipol
 direction  3 min pos     1,
 dipolmoment           0.000000      0.000000     -0.656505 electrons x Angstroem
 Tr[quadrupol]    -10192.259331

 energy correction for charged system         0.000000 eV
 dipol+quadrupol energy correction           -0.015187 eV
 added-field ion interaction         -0.207821 eV  (added to PSCEN)


 Broyden mixing:
  rms(total) = 0.34585E+01    rms(broyden)= 0.34582E+01
  rms(prec ) = 0.37892E+01
  weight for this iteration     100.00

 eigenvalues of (default mixing * dielectric matrix)
  average eigenvalue GAMMA=   0.8058
  2.2394  0.3911  0.2964  0.2964

 Free energy of the ion-electron system (eV)
  ---------------------------------------------------
  alpha Z        PSCENC =       805.64635561
  Ewald energy   TEWEN  =    200166.09802178
  -Hartree energ DENC   =   -242141.07674642
  -exchange      EXHF   =         0.00000000
  -V(xc)+E(xc)   XCENC  =      -346.33127125
  PAW double counting   =     48221.31802987   -46305.37786128
  entropy T*S    EENTRO =        -0.22795602
  eigenvalues    EBANDS =     -2271.29195759
  atomic energy  EATOM  =     41659.78587232
  Solvation  Ediel_sol  =         0.00000000
  ---------------------------------------------------
  free energy    TOTEN  =      -211.45751297 eV

  energy without entropy =     -211.22955695  energy(sigma->0) =     -211.34353496


--------------------------------------------------------------------------------------------------------




----------------------------------------- Iteration    1(  10)  ---------------------------------------


    POTLOK:  cpu time    0.0425: real time    0.0427
    SETDIJ:  cpu time    0.0054: real time    0.0054
    EDDIAG:  cpu time    1.2254: real time    1.2294
  RMM-DIIS:  cpu time    3.3626: real time    3.3708
    ORTHCH:  cpu time    0.2932: real time    0.2939
       DOS:  cpu time    0.0014: real time    0.0014
    CHARGE:  cpu time    0.2361: real time    0.2367
    MIXING:  cpu time    0.0022: real time    0.0022
    --------------------------------------------
      LOOP:  cpu time    5.1695: real time    5.1851

 eigenvalue-minimisations  :  3681
 total energy-change (2. order) : 0.1589682E+02  (-0.1930143E+01)
 number of electron     503.9998335 magnetization 
 augmentation part      199.4740534 magnetization 

 DIPCOR: dipole corrections for dipol
 direction  3 min pos     1,
 dipolmoment           0.000000      0.000000      0.354237 electrons x Angstroem
 Tr[quadrupol]    -10191.027500

 energy correction for charged system         0.000000 eV
 dipol+quadrupol energy correction           -0.004422 eV
 added-field ion interaction          0.112136 eV  (added to PSCEN)


 Broyden mixing:
  rms(total) = 0.19303E+01    rms(broyden)= 0.19301E+01
  rms(prec ) = 0.22396E+01
  weight for this iteration     100.00

 eigenvalues of (default mixing * dielectric matrix)
  average eigenvalue GAMMA=   0.7609
  2.3041  0.4481  0.4481  0.3650  0.2393

 Free energy of the ion-electron system (eV)
  ---------------------------------------------------
  alpha Z        PSCENC =       805.97707885
  Ewald energy   TEWEN  =    200166.09802178
  -Hartree energ DENC   =   -242112.73664367
  -exchange      EXHF   =         0.00000000
  -V(xc)+E(xc)   XCENC  =      -346.26301737
  PAW double counting   =     49070.00547862   -47162.74763728
  entropy T*S    EENTRO =        -0.17785383
  eigenvalues    EBANDS =     -2275.50199480
  atomic energy  EATOM  =     41659.78587232
  Solvation  Ediel_sol  =         0.00000000
  ---------------------------------------------------
  free energy    TOTEN  =      -195.56069539 eV

  energy without entropy =     -195.38284156  energy(sigma->0) =     -195.47176847


--------------------------------------------------------------------------------------------------------




----------------------------------------- Iteration    1(  11)  ---------------------------------------


    POTLOK:  cpu time    0.0415: real time    0.0417
    SETDIJ:  cpu time    0.0060: real time    0.0061
    EDDIAG:  cpu time    1.2326: real time    1.2372
  RMM-DIIS:  cpu time    3.3205: real time    3.3284
    ORTHCH:  cpu time    0.2929: real time    0.2936
       DOS:  cpu time    0.0015: real time    0.0015
    CHARGE:  cpu time    0.2420: real time    0.2565
    MIXING:  cpu time    0.0024: real time    0.0025
    --------------------------------------------
      LOOP:  cpu time    5.1400: real time    5.1709

 eigenvalue-minimisations  :  3681
 total energy-change (2. order) : 0.3421807E+01  (-0.1321102E+01)
 number of electron     503.9998346 magnetization 
 augmentation part      198.6265079 magnetization 

 DIPCOR: dipole corrections for dipol
 direction  3 min pos     1,
 dipolmoment           0.000000      0.000000     -0.028376 electrons x Angstroem
 Tr[quadrupol]    -10192.513728

 energy correction for charged system         0.000000 eV
 dipol+quadrupol energy correction           -0.000028 eV
 added-field ion interaction         -0.008983 eV  (added to PSCEN)


 Broyden mixing:
  rms(total) = 0.13657E+01    rms(broyden)= 0.13655E+01
  rms(prec ) = 0.15357E+01
  weight for this iteration     100.00

 eigenvalues of (default mixing * dielectric matrix)
  average eigenvalue GAMMA=   0.7070
  2.2114  0.5579  0.5579  0.3581  0.3276  0.2288

 Free energy of the ion-electron system (eV)
  ---------------------------------------------------
  alpha Z        PSCENC =       805.86035335
  Ewald energy   TEWEN  =    200166.09802178
  -Hartree energ DENC   =   -242191.30922713
  -exchange      EXHF   =         0.00000000
  -V(xc)+E(xc)   XCENC  =      -345.71938261
  PAW double counting   =     49262.30854615   -47353.13313006
  entropy T*S    EENTRO =        -0.19623981
  eigenvalues    EBANDS =     -2195.83370201
  atomic energy  EATOM  =     41659.78587232
  Solvation  Ediel_sol  =         0.00000000
  ---------------------------------------------------
  free energy    TOTEN  =      -192.13888803 eV

  energy without entropy =     -191.94264822  energy(sigma->0) =     -192.04076812


--------------------------------------------------------------------------------------------------------




----------------------------------------- Iteration    1(  12)  ---------------------------------------


    POTLOK:  cpu time    0.0418: real time    0.0472
    SETDIJ:  cpu time    0.0046: real time    0.0054
    EDDIAG:  cpu time    1.2157: real time    1.2785
  RMM-DIIS:  cpu time    3.3628: real time    3.3709
    ORTHCH:  cpu time    0.2913: real time    0.2920
       DOS:  cpu time    0.0015: real time    0.0015
    CHARGE:  cpu time    0.2366: real time    0.2372
    MIXING:  cpu time    0.0032: real time    0.0032
    --------------------------------------------
      LOOP:  cpu time    5.1582: real time    5.2398

 eigenvalue-minimisations  :  3680
 total energy-change (2. order) : 0.2857021E+01  (-0.4559953E+00)
 number of electron     503.9998361 magnetization 
 augmentation part      197.5329891 magnetization 

 DIPCOR: dipole corrections for dipol
 direction  3 min pos     1,
 dipolmoment           0.000000      0.000000      0.028039 electrons x Angstroem
 Tr[quadrupol]    -10192.368799

 energy correction for charged system         0.000000 eV
 dipol+quadrupol energy correction           -0.000028 eV
 added-field ion interaction          0.008876 eV  (added to PSCEN)


 Broyden mixing:
  rms(total) = 0.81547E+00    rms(broyden)= 0.81531E+00
  rms(prec ) = 0.89200E+00
  weight for this iteration     100.00

 eigenvalues of (default mixing * dielectric matrix)
  average eigenvalue GAMMA=   0.6895
  2.2354  0.5492  0.5492  0.5920  0.3359  0.3359  0.2287

 Free energy of the ion-electron system (eV)
  ---------------------------------------------------
  alpha Z        PSCENC =       805.87821246
  Ewald energy   TEWEN  =    200166.09802178
  -Hartree energ DENC   =   -242225.69210629
  -exchange      EXHF   =         0.00000000
  -V(xc)+E(xc)   XCENC  =      -344.59601806
  PAW double counting   =     49255.71239186   -47341.20189872
  entropy T*S    EENTRO =        -0.23735296
  eigenvalues    EBANDS =     -2165.02898907
  atomic energy  EATOM  =     41659.78587232
  Solvation  Ediel_sol  =         0.00000000
  ---------------------------------------------------
  free energy    TOTEN  =      -189.28186668 eV

  energy without entropy =     -189.04451373  energy(sigma->0) =     -189.16319020


--------------------------------------------------------------------------------------------------------




----------------------------------------- Iteration    1(  13)  ---------------------------------------


    POTLOK:  cpu time    0.0454: real time    0.0455
    SETDIJ:  cpu time    0.0055: real time    0.0055
    EDDIAG:  cpu time    1.2170: real time    1.2219
  RMM-DIIS:  cpu time    3.3251: real time    3.3331
    ORTHCH:  cpu time    0.2902: real time    0.2915
       DOS:  cpu time    0.0015: real time    0.0015
    CHARGE:  cpu time    0.2373: real time    0.2379
    MIXING:  cpu time    0.0027: real time    0.0027
    --------------------------------------------
      LOOP:  cpu time    5.1260: real time    5.1426

 eigenvalue-minimisations  :  3681
 total energy-change (2. order) : 0.3627333E+00  (-0.1408459E+00)
 number of electron     503.9998360 magnetization 
 augmentation part      197.3733048 magnetization 

 DIPCOR: dipole corrections for dipol
 direction  3 min pos     1,
 dipolmoment           0.000000      0.000000      0.055742 electrons x Angstroem
 Tr[quadrupol]    -10192.790332

 energy correction for charged system         0.000000 eV
 dipol+quadrupol energy correction           -0.000109 eV
 added-field ion interaction          0.017645 eV  (added to PSCEN)


 Broyden mixing:
  rms(total) = 0.62261E+00    rms(broyden)= 0.62249E+00
  rms(prec ) = 0.66396E+00
  weight for this iteration     100.00

 eigenvalues of (default mixing * dielectric matrix)
  average eigenvalue GAMMA=   0.6974
  2.2316  0.7293  0.7293  0.7184  0.3390  0.3390  0.2606  0.2317

 Free energy of the ion-electron system (eV)
  ---------------------------------------------------
  alpha Z        PSCENC =       805.88690024
  Ewald energy   TEWEN  =    200166.09802178
  -Hartree energ DENC   =   -242242.28916752
  -exchange      EXHF   =         0.00000000
  -V(xc)+E(xc)   XCENC  =      -344.46688619
  PAW double counting   =     49298.54076986   -47383.19409008
  entropy T*S    EENTRO =        -0.23320578
  eigenvalues    EBANDS =     -2149.04734805
  atomic energy  EATOM  =     41659.78587232
  Solvation  Ediel_sol  =         0.00000000
  ---------------------------------------------------
  free energy    TOTEN  =      -188.91913342 eV

  energy without entropy =     -188.68592764  energy(sigma->0) =     -188.80253053


--------------------------------------------------------------------------------------------------------




----------------------------------------- Iteration    1(  14)  ---------------------------------------


    POTLOK:  cpu time    0.0418: real time    0.0419
    SETDIJ:  cpu time    0.0055: real time    0.0055
    EDDIAG:  cpu time    1.2291: real time    1.2332
  RMM-DIIS:  cpu time    3.3473: real time    3.3554
    ORTHCH:  cpu time    0.2909: real time    0.2916
       DOS:  cpu time    0.0014: real time    0.0014
    CHARGE:  cpu time    0.2430: real time    0.2436
    MIXING:  cpu time    0.0031: real time    0.0031
    --------------------------------------------
      LOOP:  cpu time    5.1628: real time    5.1791

 eigenvalue-minimisations  :  3679
 total energy-change (2. order) :-0.1848116E+00  (-0.5660091E-01)
 number of electron     503.9998358 magnetization 
 augmentation part      197.3057983 magnetization 

 DIPCOR: dipole corrections for dipol
 direction  3 min pos     1,
 dipolmoment           0.000000      0.000000      0.059789 electrons x Angstroem
 Tr[quadrupol]    -10192.989068

 energy correction for charged system         0.000000 eV
 dipol+quadrupol energy correction           -0.000126 eV
 added-field ion interaction          0.018927 eV  (added to PSCEN)


 Broyden mixing:
  rms(total) = 0.65067E+00    rms(broyden)= 0.65060E+00
  rms(prec ) = 0.72816E+00
  weight for this iteration     100.00

 eigenvalues of (default mixing * dielectric matrix)
  average eigenvalue GAMMA=   0.7201
  2.1777  0.9334  0.9334  0.8548  0.4026  0.4026  0.2762  0.2762  0.2235

 Free energy of the ion-electron system (eV)
  ---------------------------------------------------
  alpha Z        PSCENC =       805.88816485
  Ewald energy   TEWEN  =    200166.09802178
  -Hartree energ DENC   =   -242252.55163401
  -exchange      EXHF   =         0.00000000
  -V(xc)+E(xc)   XCENC  =      -344.30801953
  PAW double counting   =     49316.86360688   -47400.50547681
  entropy T*S    EENTRO =        -0.25315141
  eigenvalues    EBANDS =     -2140.12132905
  atomic energy  EATOM  =     41659.78587232
  Solvation  Ediel_sol  =         0.00000000
  ---------------------------------------------------
  free energy    TOTEN  =      -189.10394498 eV

  energy without entropy =     -188.85079357  energy(sigma->0) =     -188.97736928


--------------------------------------------------------------------------------------------------------




----------------------------------------- Iteration    1(  15)  ---------------------------------------


    POTLOK:  cpu time    0.0430: real time    0.0433
    SETDIJ:  cpu time    0.0054: real time    0.0055
    EDDIAG:  cpu time    1.2233: real time    1.2264
  RMM-DIIS:  cpu time    3.3669: real time    3.3769
    ORTHCH:  cpu time    0.2879: real time    0.2886
       DOS:  cpu time    0.0015: real time    0.0015
    CHARGE:  cpu time    0.2391: real time    0.2397
    MIXING:  cpu time    0.0030: real time    0.0030
    --------------------------------------------
      LOOP:  cpu time    5.1709: real time    5.1896

 eigenvalue-minimisations  :  3680
 total energy-change (2. order) : 0.9977073E-01  (-0.4094761E-01)
 number of electron     503.9998359 magnetization 
 augmentation part      197.3630184 magnetization 

 DIPCOR: dipole corrections for dipol
 direction  3 min pos     1,
 dipolmoment           0.000000      0.000000      0.039315 electrons x Angstroem
 Tr[quadrupol]    -10193.196918

 energy correction for charged system         0.000000 eV
 dipol+quadrupol energy correction           -0.000054 eV
 added-field ion interaction          0.012445 eV  (added to PSCEN)


 Broyden mixing:
  rms(total) = 0.58279E+00    rms(broyden)= 0.58273E+00
  rms(prec ) = 0.66324E+00
  weight for this iteration     100.00

 eigenvalues of (default mixing * dielectric matrix)
  average eigenvalue GAMMA=   0.7097
  2.1518  1.1343  1.1343  0.7751  0.4318  0.4318  0.3036  0.3036  0.2253  0.2053

 Free energy of the ion-electron system (eV)
  ---------------------------------------------------
  alpha Z        PSCENC =       805.88175521
  Ewald energy   TEWEN  =    200166.09802178
  -Hartree energ DENC   =   -242264.29538305
  -exchange      EXHF   =         0.00000000
  -V(xc)+E(xc)   XCENC  =      -344.08850092
  PAW double counting   =     49312.06574851   -47394.26330580
  entropy T*S    EENTRO =        -0.23613503
  eigenvalues    EBANDS =     -2129.95224728
  atomic energy  EATOM  =     41659.78587232
  Solvation  Ediel_sol  =         0.00000000
  ---------------------------------------------------
  free energy    TOTEN  =      -189.00417425 eV

  energy without entropy =     -188.76803922  energy(sigma->0) =     -188.88610673


--------------------------------------------------------------------------------------------------------




----------------------------------------- Iteration    1(  16)  ---------------------------------------


    POTLOK:  cpu time    0.0420: real time    0.0423
    SETDIJ:  cpu time    0.0057: real time    0.0057
    EDDIAG:  cpu time    1.2231: real time    1.2261
  RMM-DIIS:  cpu time    3.3804: real time    3.4028
    ORTHCH:  cpu time    0.2871: real time    0.2878
       DOS:  cpu time    0.0015: real time    0.0015
    CHARGE:  cpu time    0.2362: real time    0.2367
    MIXING:  cpu time    0.0030: real time    0.0030
    --------------------------------------------
      LOOP:  cpu time    5.1796: real time    5.2084

 eigenvalue-minimisations  :  3679
 total energy-change (2. order) : 0.1994182E+00  (-0.2776228E-01)
 number of electron     503.9998360 magnetization 
 augmentation part      197.3894230 magnetization 

 DIPCOR: dipole corrections for dipol
 direction  3 min pos     1,
 dipolmoment           0.000000      0.000000      0.047847 electrons x Angstroem
 Tr[quadrupol]    -10193.433883

 energy correction for charged system         0.000000 eV
 dipol+quadrupol energy correction           -0.000081 eV
 added-field ion interaction          0.015146 eV  (added to PSCEN)


 Broyden mixing:
  rms(total) = 0.31995E+00    rms(broyden)= 0.31987E+00
  rms(prec ) = 0.36614E+00
  weight for this iteration     100.00

 eigenvalues of (default mixing * dielectric matrix)
  average eigenvalue GAMMA=   0.7278
  2.0694  1.4798  1.4798  0.5825  0.5825  0.4093  0.4093  0.3088  0.2612  0.2305
  0.1927

 Free energy of the ion-electron system (eV)
  ---------------------------------------------------
  alpha Z        PSCENC =       805.88442987
  Ewald energy   TEWEN  =    200166.09802178
  -Hartree energ DENC   =   -242276.17173824
  -exchange      EXHF   =         0.00000000
  -V(xc)+E(xc)   XCENC  =      -343.94274803
  PAW double counting   =     49320.67699897   -47401.83963048
  entropy T*S    EENTRO =        -0.24240670
  eigenvalues    EBANDS =     -2119.05355554
  atomic energy  EATOM  =     41659.78587232
  Solvation  Ediel_sol  =         0.00000000
  ---------------------------------------------------
  free energy    TOTEN  =      -188.80475606 eV

  energy without entropy =     -188.56234936  energy(sigma->0) =     -188.68355271


--------------------------------------------------------------------------------------------------------




----------------------------------------- Iteration    1(  17)  ---------------------------------------


    POTLOK:  cpu time    0.0415: real time    0.0416
    SETDIJ:  cpu time    0.0054: real time    0.0054
    EDDIAG:  cpu time    1.2191: real time    1.2242
  RMM-DIIS:  cpu time    3.3615: real time    3.3696
    ORTHCH:  cpu time    0.2866: real time    0.2873
       DOS:  cpu time    0.0016: real time    0.0016
    CHARGE:  cpu time    0.2378: real time    0.2384
    MIXING:  cpu time    0.0032: real time    0.0032
    --------------------------------------------
      LOOP:  cpu time    5.1574: real time    5.1747

 eigenvalue-minimisations  :  3681
 total energy-change (2. order) : 0.1029812E+00  (-0.9698177E-02)
 number of electron     503.9998361 magnetization 
 augmentation part      197.2847159 magnetization 

 DIPCOR: dipole corrections for dipol
 direction  3 min pos     1,
 dipolmoment           0.000000      0.000000      0.065178 electrons x Angstroem
 Tr[quadrupol]    -10193.736350

 energy correction for charged system         0.000000 eV
 dipol+quadrupol energy correction           -0.000150 eV
 added-field ion interaction          0.020633 eV  (added to PSCEN)


 Broyden mixing:
  rms(total) = 0.18777E+00    rms(broyden)= 0.18774E+00
  rms(prec ) = 0.21936E+00
  weight for this iteration     100.00

 eigenvalues of (default mixing * dielectric matrix)
  average eigenvalue GAMMA=   0.7364
  2.0074  2.0074  1.3961  0.6020  0.6020  0.4074  0.4074  0.4154  0.2869  0.2869
  0.2260  0.1924

 Free energy of the ion-electron system (eV)
  ---------------------------------------------------
  alpha Z        PSCENC =       805.88984724
  Ewald energy   TEWEN  =    200166.09802178
  -Hartree energ DENC   =   -242291.88775836
  -exchange      EXHF   =         0.00000000
  -V(xc)+E(xc)   XCENC  =      -343.75852200
  PAW double counting   =     49334.82311188   -47414.62126171
  entropy T*S    EENTRO =        -0.25115289
  eigenvalues    EBANDS =     -2104.77993307
  atomic energy  EATOM  =     41659.78587232
  Solvation  Ediel_sol  =         0.00000000
  ---------------------------------------------------
  free energy    TOTEN  =      -188.70177482 eV

  energy without entropy =     -188.45062193  energy(sigma->0) =     -188.57619838


--------------------------------------------------------------------------------------------------------




----------------------------------------- Iteration    1(  18)  ---------------------------------------


    POTLOK:  cpu time    0.0414: real time    0.0422
    SETDIJ:  cpu time    0.0054: real time    0.0054
    EDDIAG:  cpu time    1.2168: real time    1.2320
  RMM-DIIS:  cpu time    3.3662: real time    3.3919
    ORTHCH:  cpu time    0.2867: real time    0.2874
       DOS:  cpu time    0.0015: real time    0.0015
    CHARGE:  cpu time    0.2352: real time    0.2358
    MIXING:  cpu time    0.0033: real time    0.0033
    --------------------------------------------
      LOOP:  cpu time    5.1571: real time    5.2038

 eigenvalue-minimisations  :  3679
 total energy-change (2. order) : 0.3736009E-01  (-0.4489202E-02)
 number of electron     503.9998362 magnetization 
 augmentation part      197.1947739 magnetization 

 DIPCOR: dipole corrections for dipol
 direction  3 min pos     1,
 dipolmoment           0.000000      0.000000      0.050325 electrons x Angstroem
 Tr[quadrupol]    -10193.960444

 energy correction for charged system         0.000000 eV
 dipol+quadrupol energy correction           -0.000089 eV
 added-field ion interaction          0.015931 eV  (added to PSCEN)


 Broyden mixing:
  rms(total) = 0.11646E+00    rms(broyden)= 0.11644E+00
  rms(prec ) = 0.13172E+00
  weight for this iteration     100.00

 eigenvalues of (default mixing * dielectric matrix)
  average eigenvalue GAMMA=   0.7361
  2.0695  2.0695  1.4337  0.6487  0.6487  0.5754  0.4174  0.4174  0.3039  0.3039
  0.2619  0.2269  0.1917

 Free energy of the ion-electron system (eV)
  ---------------------------------------------------
  alpha Z        PSCENC =       805.88520563
  Ewald energy   TEWEN  =    200166.09802178
  -Hartree energ DENC   =   -242302.91125102
  -exchange      EXHF   =         0.00000000
  -V(xc)+E(xc)   XCENC  =      -343.64243237
  PAW double counting   =     49346.79668159   -47425.75173499
  entropy T*S    EENTRO =        -0.25284771
  eigenvalues    EBANDS =     -2094.67192995
  atomic energy  EATOM  =     41659.78587232
  Solvation  Ediel_sol  =         0.00000000
  ---------------------------------------------------
  free energy    TOTEN  =      -188.66441473 eV

  energy without entropy =     -188.41156701  energy(sigma->0) =     -188.53799087


--------------------------------------------------------------------------------------------------------




----------------------------------------- Iteration    1(  19)  ---------------------------------------


    POTLOK:  cpu time    0.0413: real time    0.0414
    SETDIJ:  cpu time    0.0055: real time    0.0055
    EDDIAG:  cpu time    1.2228: real time    1.2277
  RMM-DIIS:  cpu time    3.3177: real time    3.4076
    ORTHCH:  cpu time    0.2849: real time    0.2903
       DOS:  cpu time    0.0015: real time    0.0015
    CHARGE:  cpu time    0.2390: real time    0.2396
    MIXING:  cpu time    0.0035: real time    0.0035
    --------------------------------------------
      LOOP:  cpu time    5.1169: real time    5.2194

 eigenvalue-minimisations  :  3679
 total energy-change (2. order) : 0.1076633E-01  (-0.1703689E-02)
 number of electron     503.9998362 magnetization 
 augmentation part      197.1551887 magnetization 

 DIPCOR: dipole corrections for dipol
 direction  3 min pos     1,
 dipolmoment           0.000000      0.000000      0.034912 electrons x Angstroem
 Tr[quadrupol]    -10194.100891

 energy correction for charged system         0.000000 eV
 dipol+quadrupol energy correction           -0.000043 eV
 added-field ion interaction          0.011052 eV  (added to PSCEN)


 Broyden mixing:
  rms(total) = 0.80037E-01    rms(broyden)= 0.80022E-01
  rms(prec ) = 0.90797E-01
  weight for this iteration     100.00

 eigenvalues of (default mixing * dielectric matrix)
  average eigenvalue GAMMA=   0.7190
  2.0835  2.0835  1.4630  0.6955  0.6955  0.6002  0.4250  0.4250  0.3708  0.2972
  0.2260  0.2549  0.2549  0.1911

 Free energy of the ion-electron system (eV)
  ---------------------------------------------------
  alpha Z        PSCENC =       805.88037287
  Ewald energy   TEWEN  =    200166.09802178
  -Hartree energ DENC   =   -242309.11780528
  -exchange      EXHF   =         0.00000000
  -V(xc)+E(xc)   XCENC  =      -343.59651686
  PAW double counting   =     49356.11463748   -47434.77938560
  entropy T*S    EENTRO =        -0.25525502
  eigenvalues    EBANDS =     -2088.78359008
  atomic energy  EATOM  =     41659.78587232
  Solvation  Ediel_sol  =         0.00000000
  ---------------------------------------------------
  free energy    TOTEN  =      -188.65364840 eV

  energy without entropy =     -188.39839338  energy(sigma->0) =     -188.52602089


--------------------------------------------------------------------------------------------------------




----------------------------------------- Iteration    1(  20)  ---------------------------------------


    POTLOK:  cpu time    0.0422: real time    0.0423
    SETDIJ:  cpu time    0.0054: real time    0.0055
    EDDIAG:  cpu time    1.2198: real time    1.2227
  RMM-DIIS:  cpu time    3.3400: real time    3.3487
    ORTHCH:  cpu time    0.2873: real time    0.2880
       DOS:  cpu time    0.0015: real time    0.0015
    CHARGE:  cpu time    0.2364: real time    0.2369
    MIXING:  cpu time    0.0037: real time    0.0037
    --------------------------------------------
      LOOP:  cpu time    5.1370: real time    5.1527

 eigenvalue-minimisations  :  3682
 total energy-change (2. order) : 0.5072951E-02  (-0.4338587E-03)
 number of electron     503.9998362 magnetization 
 augmentation part      197.1321083 magnetization 

 DIPCOR: dipole corrections for dipol
 direction  3 min pos     1,
 dipolmoment           0.000000      0.000000      0.030041 electrons x Angstroem
 Tr[quadrupol]    -10194.174775

 energy correction for charged system         0.000000 eV
 dipol+quadrupol energy correction           -0.000032 eV
 added-field ion interaction          0.009510 eV  (added to PSCEN)


 Broyden mixing:
  rms(total) = 0.54233E-01    rms(broyden)= 0.54227E-01
  rms(prec ) = 0.60592E-01
  weight for this iteration     100.00

 eigenvalues of (default mixing * dielectric matrix)
  average eigenvalue GAMMA=   0.7215
  2.1628  1.9544  1.5603  0.7774  0.7774  0.6208  0.6208  0.4193  0.4193  0.3120
  0.2804  0.2804  0.1912  0.2279  0.2176

 Free energy of the ion-electron system (eV)
  ---------------------------------------------------
  alpha Z        PSCENC =       805.87884213
  Ewald energy   TEWEN  =    200166.09802178
  -Hartree energ DENC   =   -242312.46659922
  -exchange      EXHF   =         0.00000000
  -V(xc)+E(xc)   XCENC  =      -343.57149918
  PAW double counting   =     49360.34314058   -47438.88263143
  entropy T*S    EENTRO =        -0.25811669
  eigenvalues    EBANDS =     -2085.57560573
  atomic energy  EATOM  =     41659.78587232
  Solvation  Ediel_sol  =         0.00000000
  ---------------------------------------------------
  free energy    TOTEN  =      -188.64857545 eV

  energy without entropy =     -188.39045876  energy(sigma->0) =     -188.51951711


--------------------------------------------------------------------------------------------------------




----------------------------------------- Iteration    1(  21)  ---------------------------------------


    POTLOK:  cpu time    0.0420: real time    0.0421
    SETDIJ:  cpu time    0.0055: real time    0.0055
    EDDIAG:  cpu time    1.2167: real time    1.2205
  RMM-DIIS:  cpu time    3.3551: real time    3.3632
    ORTHCH:  cpu time    0.2885: real time    0.2892
       DOS:  cpu time    0.0015: real time    0.0015
    CHARGE:  cpu time    0.2373: real time    0.2379
    MIXING:  cpu time    0.0040: real time    0.0040
    --------------------------------------------
      LOOP:  cpu time    5.1513: real time    5.1671

 eigenvalue-minimisations  :  3680
 total energy-change (2. order) : 0.2871627E-02  (-0.2897405E-03)
 number of electron     503.9998363 magnetization 
 augmentation part      197.1028542 magnetization 

 DIPCOR: dipole corrections for dipol
 direction  3 min pos     1,
 dipolmoment           0.000000      0.000000      0.029999 electrons x Angstroem
 Tr[quadrupol]    -10194.296158

 energy correction for charged system         0.000000 eV
 dipol+quadrupol energy correction           -0.000032 eV
 added-field ion interaction          0.009497 eV  (added to PSCEN)


 Broyden mixing:
  rms(total) = 0.39151E-01    rms(broyden)= 0.39146E-01
  rms(prec ) = 0.43910E-01
  weight for this iteration     100.00

 eigenvalues of (default mixing * dielectric matrix)
  average eigenvalue GAMMA=   0.7261
  2.2743  1.7340  1.7340  0.8795  0.8795  0.6723  0.6723  0.4727  0.4127  0.4127
  0.2951  0.2951  0.2661  0.2273  0.1994  0.1897

 Free energy of the ion-electron system (eV)
  ---------------------------------------------------
  alpha Z        PSCENC =       805.87882909
  Ewald energy   TEWEN  =    200166.09802178
  -Hartree energ DENC   =   -242317.71183670
  -exchange      EXHF   =         0.00000000
  -V(xc)+E(xc)   XCENC  =      -343.53660220
  PAW double counting   =     49366.45064980   -47444.85000044
  entropy T*S    EENTRO =        -0.25678134
  eigenvalues    EBANDS =     -2080.50385613
  atomic energy  EATOM  =     41659.78587232
  Solvation  Ediel_sol  =         0.00000000
  ---------------------------------------------------
  free energy    TOTEN  =      -188.64570382 eV

  energy without entropy =     -188.38892248  energy(sigma->0) =     -188.51731315


--------------------------------------------------------------------------------------------------------




----------------------------------------- Iteration    1(  22)  ---------------------------------------


    POTLOK:  cpu time    0.0417: real time    0.0418
    SETDIJ:  cpu time    0.0055: real time    0.0055
    EDDIAG:  cpu time    1.2237: real time    1.2267
  RMM-DIIS:  cpu time    3.3455: real time    3.3536
    ORTHCH:  cpu time    0.2872: real time    0.2886
       DOS:  cpu time    0.0015: real time    0.0015
    CHARGE:  cpu time    0.2363: real time    0.2368
    MIXING:  cpu time    0.0040: real time    0.0040
    --------------------------------------------
      LOOP:  cpu time    5.1461: real time    5.1610

 eigenvalue-minimisations  :  3681
 total energy-change (2. order) : 0.1197772E-02  (-0.1779186E-03)
 number of electron     503.9998363 magnetization 
 augmentation part      197.0878350 magnetization 

 DIPCOR: dipole corrections for dipol
 direction  3 min pos     1,
 dipolmoment           0.000000      0.000000      0.032258 electrons x Angstroem
 Tr[quadrupol]    -10194.403522

 energy correction for charged system         0.000000 eV
 dipol+quadrupol energy correction           -0.000037 eV
 added-field ion interaction          0.010211 eV  (added to PSCEN)


 Broyden mixing:
  rms(total) = 0.28511E-01    rms(broyden)= 0.28507E-01
  rms(prec ) = 0.32833E-01
  weight for this iteration     100.00

 eigenvalues of (default mixing * dielectric matrix)
  average eigenvalue GAMMA=   0.7729
  2.3207  2.0621  2.0621  1.0522  1.0522  0.6687  0.6687  0.6315  0.4165  0.4165
  0.3175  0.3175  0.2689  0.2689  0.2266  0.1898  0.1993

 Free energy of the ion-electron system (eV)
  ---------------------------------------------------
  alpha Z        PSCENC =       805.87953908
  Ewald energy   TEWEN  =    200166.09802178
  -Hartree energ DENC   =   -242322.13997506
  -exchange      EXHF   =         0.00000000
  -V(xc)+E(xc)   XCENC  =      -343.51233118
  PAW double counting   =     49370.07131133   -47448.38943322
  entropy T*S    EENTRO =        -0.25791479
  eigenvalues    EBANDS =     -2076.17959631
  atomic energy  EATOM  =     41659.78587232
  Solvation  Ediel_sol  =         0.00000000
  ---------------------------------------------------
  free energy    TOTEN  =      -188.64450605 eV

  energy without entropy =     -188.38659126  energy(sigma->0) =     -188.51554866


--------------------------------------------------------------------------------------------------------




----------------------------------------- Iteration    1(  23)  ---------------------------------------


    POTLOK:  cpu time    0.0418: real time    0.0419
    SETDIJ:  cpu time    0.0053: real time    0.0053
    EDDIAG:  cpu time    1.2215: real time    1.2256
  RMM-DIIS:  cpu time    3.3341: real time    3.3461
[...]
    275       1.8088      0.00000
    276       1.8238      0.00000
    277       2.1815      0.00000
    278       2.2633      0.00000
    279       2.2903      0.00000
    280       2.3549      0.00000
    281       2.4269      0.00000
    282       2.5478      0.00000
    283       2.7003      0.00000
    284       2.9630      0.00000
    285       3.1617      0.00000
    286       3.2582      0.00000
    287       3.5266      0.00000
    288       3.6597      0.00000
    289       3.7729      0.00000
    290       3.9539      0.00000
    291       4.1201      0.00000
    292       4.1991      0.00000
    293       4.4663      0.00000
    294       4.5573      0.00000
    295       4.5990      0.00000
    296       4.6320      0.00000
    297       4.6861      0.00000
    298       4.8036      0.00000
    299       4.8719      0.00000
    300       4.9865      0.00000
    301       5.0234      0.00000
    302       5.0428      0.00000
    303       5.0707      0.00000
    304       5.0981      0.00000
    305       5.2206      0.00000
    306       5.2289      0.00000


--------------------------------------------------------------------------------------------------------


 soft charge-density along one line, spin component           1
         0         1         2         3         4         5         6         7         8         9
 total charge-density along one line
 
 pseudopotential strength for first ion, spin component:           1
 -7.991  -0.002   0.001  -0.001  -0.001  -8.139  -0.002   0.001
 -0.002  -7.908  -0.000  -0.001  -0.004  -0.002  -8.058  -0.000
  0.001  -0.000  -7.906   0.000   0.003   0.001  -0.000  -8.055
 -0.001  -0.001   0.000  -7.915  -0.004  -0.001  -0.001   0.000
 -0.001  -0.004   0.003  -0.004  -7.988  -0.001  -0.004   0.003
 -8.139  -0.002   0.001  -0.001  -0.001  -8.270  -0.002   0.001
 -0.002  -8.058  -0.000  -0.001  -0.004  -0.002  -8.192  -0.000
  0.001  -0.000  -8.055   0.000   0.003   0.001  -0.000  -8.189
 -0.001  -0.001   0.000  -8.064  -0.004  -0.001  -0.001   0.000
 -0.001  -0.004   0.003  -0.004  -8.136  -0.001  -0.004   0.003
  0.000  -0.001  -0.024   0.001   0.002   0.000  -0.001  -0.024
  0.001  -0.001  -0.035   0.002   0.003   0.001  -0.001  -0.035
  0.001   0.006   0.000  -0.000   0.001   0.001   0.005   0.000
 -0.000  -0.001   0.008   0.001  -0.000  -0.000  -0.001   0.008
 -0.001  -0.000  -0.001   0.006   0.002  -0.001  -0.000  -0.001
  0.002   0.006   0.000  -0.000   0.001   0.002   0.006   0.000
 -0.000  -0.001   0.009   0.001  -0.000  -0.000  -0.001   0.008
 -0.001  -0.000  -0.001   0.006   0.002  -0.001  -0.000  -0.001
 total augmentation occupancy for first ion, spin component:           1
  3.902   0.016   0.036   0.043  -0.029  -2.121  -0.017  -0.031  -0.063   0.014  -0.017   0.010   0.006   0.006   0.017   0.001
  0.016   4.125   0.028   0.035  -0.003  -0.018  -1.847  -0.039  -0.031  -0.044   0.002   0.008   0.182   0.009   0.002  -0.002
  0.036   0.028   4.280   0.101  -0.092  -0.031  -0.039  -2.173  -0.076   0.094   0.889  -0.079   0.010   0.214   0.031  -0.000
  0.043   0.035   0.101   4.133  -0.026  -0.062  -0.031  -0.076  -1.876  -0.001  -0.067   0.034   0.003   0.021   0.166  -0.000
 -0.029  -0.003  -0.092  -0.026   4.239   0.014  -0.045   0.094  -0.002  -2.412  -0.121   0.064   0.027  -0.002  -0.052  -0.000
 -2.121  -0.018  -0.031  -0.062   0.014   2.214   0.019   0.026   0.077  -0.004   0.011  -0.007  -0.008  -0.004  -0.017   0.000
 -0.017  -1.847  -0.039  -0.031  -0.045   0.019   1.543   0.049   0.026   0.080  -0.004  -0.008  -0.173  -0.009  -0.001   0.006
 -0.031  -0.039  -2.173  -0.076   0.094   0.026   0.049   2.012   0.055  -0.094  -0.829   0.095  -0.009  -0.222  -0.023   0.000
 -0.063  -0.031  -0.076  -1.876  -0.002   0.077   0.026   0.055   1.590   0.022   0.058  -0.031  -0.001  -0.016  -0.158   0.000
  0.014  -0.044   0.094  -0.001  -2.412  -0.004   0.080  -0.094   0.022   2.469   0.106  -0.059  -0.027   0.003   0.042   0.001
 -0.017   0.002   0.889  -0.067  -0.121   0.011  -0.004  -0.829   0.058   0.106   2.351  -0.460  -0.001  -0.127   0.008   0.000
  0.010   0.008  -0.079   0.034   0.064  -0.007  -0.008   0.095  -0.031  -0.059  -0.460   0.126   0.002   0.056  -0.011  -0.000
  0.006   0.182   0.010   0.003   0.027  -0.008  -0.173  -0.009  -0.001  -0.027  -0.001   0.002   0.182  -0.001  -0.001  -0.005
  0.006   0.009   0.214   0.021  -0.002  -0.004  -0.009  -0.222  -0.016   0.003  -0.127   0.056  -0.001   0.091   0.002  -0.000
  0.017   0.002   0.031   0.166  -0.052  -0.017  -0.001  -0.023  -0.158   0.042   0.008  -0.011  -0.001   0.002   0.188  -0.000
  0.001  -0.002  -0.000  -0.000  -0.000   0.000   0.006   0.000   0.000   0.001   0.000  -0.000  -0.005  -0.000  -0.000   0.000
 -0.000  -0.001   0.002   0.001  -0.000   0.000   0.001   0.005   0.001   0.000   0.008  -0.003  -0.000  -0.003  -0.000   0.000
 -0.001  -0.000  -0.003  -0.002   0.004   0.001   0.000   0.002   0.006  -0.002  -0.000   0.000  -0.000  -0.000  -0.006   0.000


------------------------ aborting loop because EDIFF is reached ----------------------------------------


    CHARGE:  cpu time    0.2324: real time    0.2332
    FORLOC:  cpu time    0.0167: real time    0.0168
    FORNL :  cpu time    1.3126: real time    1.3163
    FORCOR:  cpu time    0.0578: real time    0.0591
    FORHAR:  cpu time    0.0251: real time    0.0252
    MIXING:  cpu time    0.0026: real time    0.0026
    OFIELD:  cpu time    0.0000: real time    0.0000

 VOLUME and BASIS-vectors are now :
 -----------------------------------------------------------------------------
  energy-cutoff  :      400.00
  volume of cell :     2567.68
      direct lattice vectors                 reciprocal lattice vectors
    11.002581515  0.000000000  0.000000000     0.090887761 -0.052474073  0.000000000
     5.501290758  9.528515099  0.000000000     0.000000000  0.104948147  0.000000000
     0.000000000  0.000000000 24.491785094     0.000000000  0.000000000  0.040830017

  length of vectors
    11.002581515 11.002581515 24.491785094     0.104948147  0.104948147  0.040830017


 FORCES acting on ions
    electron-ion (+dipol)            ewald-force                    non-local-force                 convergence-correction
 -----------------------------------------------------------------------------------------------
   0.951E+01 -.136E+02 -.227E+04   -.991E+01 0.136E+02 0.227E+04   0.398E+00 -.363E-01 0.319E+00   0.158E-02 -.119E-02 0.918E-02
   -.713E+01 0.417E+01 0.220E+04   0.749E+01 -.435E+01 -.220E+04   -.226E+00 0.120E+00 -.222E+00   0.410E-02 -.801E-02 -.296E-02
   -.787E+01 -.134E+02 0.221E+04   0.779E+01 0.141E+02 -.221E+04   0.136E+00 -.445E+00 0.160E+00   0.617E-02 -.105E-01 -.121E-01
   -.483E+01 -.240E+01 0.428E+01   0.491E+01 0.341E+01 -.427E+01   -.775E-01 -.994E+00 -.157E-01   -.150E-01 -.219E-01 0.380E-02
   0.694E+01 -.916E+01 0.221E+04   -.724E+01 0.967E+01 -.221E+04   0.206E+00 -.350E+00 -.738E+00   -.530E-02 -.611E-02 -.138E-01
   0.615E+01 -.134E+01 -.233E+04   -.641E+01 0.155E+01 0.233E+04   0.271E+00 -.206E+00 -.241E+00   -.112E-01 0.245E-02 -.371E-02
   0.180E+01 0.107E+02 -.925E+02   -.861E+00 -.100E+02 0.939E+02   -.943E+00 -.722E+00 -.137E+01   -.579E-03 0.237E-03 0.109E-02
   0.116E+01 0.160E+02 0.221E+04   -.103E+01 -.167E+02 -.221E+04   -.101E+00 0.447E+00 0.197E+00   0.436E-02 0.205E-02 0.235E-03
   0.239E+01 -.970E+01 -.227E+04   -.232E+01 0.104E+02 0.227E+04   -.711E-01 -.678E+00 0.457E+00   -.234E-02 0.518E-02 0.702E-02
   -.447E+01 -.843E+01 -.165E+02   0.369E+01 0.738E+01 0.159E+02   0.764E+00 0.103E+01 0.603E+00   0.893E-02 0.168E-01 0.172E-01
   0.144E+02 -.494E+01 0.221E+04   -.150E+02 0.560E+01 -.221E+04   0.323E+00 -.469E+00 0.116E+00   -.306E-02 -.372E-02 -.546E-02
   -.989E+01 0.683E+00 0.221E+04   0.105E+02 -.554E+00 -.221E+04   -.403E+00 -.899E-01 -.631E+00   0.104E-02 0.229E-02 0.248E-02
   -.140E+01 -.398E+00 0.138E+02   0.134E+01 0.137E+00 -.133E+02   0.555E-01 0.276E+00 -.524E+00   0.934E-02 -.832E-02 -.984E-04
   0.339E+01 0.112E+01 -.170E+02   -.232E+01 -.142E+01 0.158E+02   -.107E+01 0.277E+00 0.121E+01   -.106E-02 0.108E-01 0.210E-02
   -.118E+02 0.162E+02 -.230E+04   0.120E+02 -.172E+02 0.230E+04   -.237E+00 0.975E+00 -.176E-01   -.201E-02 0.938E-02 0.634E-02
   -.236E+01 0.739E+01 -.361E+01   0.130E+01 -.762E+01 0.355E+01   0.106E+01 0.224E+00 0.380E-01   0.968E-02 0.184E-02 0.171E-01
   -.215E+02 0.769E+01 -.226E+04   0.221E+02 -.761E+01 0.226E+04   -.608E+00 -.946E-01 0.303E+00   0.977E-02 0.569E-02 -.407E-02
   0.138E+02 0.793E+01 0.222E+04   -.146E+02 -.836E+01 -.222E+04   0.562E+00 0.273E+00 0.296E+00   -.476E-04 0.865E-02 -.146E-02
   0.745E+01 0.406E+01 -.340E+02   -.784E+01 -.455E+01 0.340E+02   0.373E+00 0.504E+00 0.865E-02   -.264E-02 -.225E-01 -.887E-03
   -.150E+02 0.436E+01 -.228E+04   0.155E+02 -.468E+01 0.228E+04   -.532E+00 0.330E+00 0.303E+00   0.922E-02 -.166E-01 -.639E-02
   -.129E+02 -.454E+01 0.222E+04   0.137E+02 0.469E+01 -.222E+04   -.557E+00 -.686E-01 0.334E-02   0.374E-02 -.605E-02 -.895E-02
   -.660E+01 -.749E+01 -.463E+02   0.637E+01 0.773E+01 0.471E+02   0.222E+00 -.251E+00 -.779E+00   0.119E-01 0.141E-01 0.447E-02
   0.138E+01 -.825E+00 0.222E+04   -.135E+01 0.759E+00 -.222E+04   -.205E-01 0.540E-01 -.365E+00   -.102E-01 0.585E-02 -.640E-02
   0.218E+02 0.127E+01 -.228E+04   -.224E+02 -.142E+01 0.228E+04   0.600E+00 0.138E+00 -.377E-01   -.346E-02 0.111E-01 0.886E-02
   0.487E+01 0.660E-01 0.138E+02   -.459E+01 -.289E+00 -.133E+02   -.278E+00 0.215E+00 -.493E+00   0.712E-02 0.101E-01 -.634E-02
   0.129E+01 0.324E+01 0.854E+01   -.132E+01 -.280E+01 -.805E+01   0.356E-01 -.455E+00 -.489E+00   -.419E-02 0.170E-01 -.155E-02
   -.169E+02 0.121E+02 0.202E+04   0.173E+02 -.125E+02 -.202E+04   -.170E+00 0.287E+00 -.153E+01   0.163E-02 -.510E-02 -.406E-02
   -.350E+01 0.246E+01 -.522E+02   0.353E+01 -.235E+01 0.527E+02   -.310E-01 -.103E+00 -.494E+00   0.456E-02 -.906E-04 -.511E-02
   0.120E+02 0.596E+01 -.200E+04   -.123E+02 -.624E+01 0.200E+04   0.292E+00 0.268E+00 0.137E+01   0.478E-03 0.166E-01 0.137E-01
   0.814E+00 0.179E+01 -.350E+00   -.145E+01 -.132E+01 0.774E+00   0.642E+00 -.476E+00 -.423E+00   -.101E-01 0.518E-02 0.252E-02
   0.810E+00 -.815E+01 -.201E+04   -.903E+00 0.817E+01 0.201E+04   0.105E+00 -.889E-02 0.181E+01   -.625E-02 -.967E-02 -.986E-02
   -.116E+01 -.404E+01 -.511E+02   0.136E+01 0.403E+01 0.516E+02   -.207E+00 0.162E-01 -.493E+00   0.102E-01 -.133E-01 0.165E-02
   -.109E+02 0.423E+00 -.195E+04   0.111E+02 -.426E+00 0.194E+04   -.232E+00 -.100E-01 0.180E+01   -.509E-02 0.979E-02 0.201E-02
   0.325E+01 0.120E+02 0.202E+04   -.322E+01 -.124E+02 -.202E+04   -.630E-01 0.217E+00 -.184E+01   0.348E-02 0.310E-02 -.441E-02
   -.402E+01 -.809E+01 0.203E+04   0.412E+01 0.823E+01 -.202E+04   -.265E-01 0.458E-02 -.177E+01   -.491E-02 0.870E-02 -.288E-02
   0.328E+01 -.474E+01 0.159E+02   -.245E+01 0.511E+01 -.159E+02   -.830E+00 -.377E+00 0.707E-01   0.326E-02 0.904E-02 -.167E-02
   -.555E+01 0.831E+01 -.194E+04   0.569E+01 -.862E+01 0.194E+04   -.146E+00 0.288E+00 0.197E+01   0.691E-02 0.150E-01 -.810E-02
   -.401E+00 0.150E+01 0.202E+04   0.390E+00 -.153E+01 -.202E+04   0.153E-01 -.319E-02 -.118E+01   0.711E-02 0.301E-02 -.402E-02
   0.126E+02 -.463E+01 0.202E+04   -.129E+02 0.471E+01 -.202E+04   0.953E-01 -.705E-01 -.176E+01   -.415E-02 -.137E-02 -.108E-01
   -.140E+01 0.139E-01 -.199E+04   0.126E+01 0.125E-01 0.199E+04   0.148E+00 -.189E-01 0.147E+01   -.741E-03 -.821E-02 -.627E-03
   -.411E+01 -.980E+01 0.202E+04   0.408E+01 0.996E+01 -.202E+04   0.659E-01 -.667E-01 -.165E+01   -.150E-02 0.613E-02 -.984E-02
   -.242E+01 -.181E+01 0.247E+02   0.200E+01 0.150E+01 -.245E+02   0.421E+00 0.277E+00 -.158E+00   -.115E-01 0.200E-01 0.892E-02
   0.103E+02 -.730E+01 -.196E+04   -.104E+02 0.757E+01 0.195E+04   0.147E+00 -.295E+00 0.197E+01   0.894E-02 0.134E-01 -.309E-03
   0.821E+00 0.116E+01 -.200E+04   -.828E+00 -.105E+01 0.200E+04   -.435E-02 -.958E-01 0.143E+01   0.898E-02 -.168E-01 0.283E-03
   0.136E+02 -.119E+02 -.202E+04   -.137E+02 0.122E+02 0.202E+04   0.123E+00 -.254E+00 0.140E+01   -.813E-02 -.119E-01 -.766E-02
   0.103E+02 0.182E+01 0.203E+04   -.106E+02 -.177E+01 -.203E+04   0.138E+00 -.462E-01 -.126E+01   -.252E-02 -.788E-03 -.314E-02
   0.182E+01 -.677E+00 0.186E+02   -.178E+01 0.981E-01 -.187E+02   -.361E-01 0.592E+00 0.685E-01   -.851E-02 -.141E-01 0.659E-02
   -.100E+02 0.486E+01 -.202E+04   0.104E+02 -.476E+01 0.201E+04   -.351E+00 -.103E+00 0.142E+01   0.354E-02 0.699E-03 0.702E-02
 -----------------------------------------------------------------------------------------------
   -.158E-02 -.709E-01 -.363E+00   0.203E-12 -.279E-12 -.136E-11   -.281E-01 0.267E-01 0.336E+00   0.215E-01 0.478E-01 -.241E-01
 
 
 POSITION                                       TOTAL-FORCE (eV/Angst)
 -----------------------------------------------------------------------------------
     12.35822      7.15456     14.95254         0.001201     -0.002438      0.007226
      4.12597      5.55830     10.00000         0.142305     -0.064450     -0.055848
      5.50129      7.94043     10.00000         0.057804      0.235877     -0.234960
     11.00678      6.38307     12.44017        -0.009567     -0.004098     -0.000548
     13.75323      7.94043     10.00000        -0.099258      0.150056     -0.043516
      1.36610      2.38385     15.09269        -0.004798      0.002706      0.003919
     12.39871      3.97327     12.55574        -0.006215     -0.005048     -0.002451
      2.75065      3.17617     10.00000         0.032013     -0.271214     -0.169613
      4.12806      7.17592     14.95951        -0.005852      0.000133      0.004282
     10.97354      1.55611     12.45228        -0.001434      0.003928     -0.004466
     12.37790      5.55830     10.00000        -0.261089      0.183559     -0.200231
      5.50129      3.17617     10.00000         0.158791      0.041259     -0.036692
      8.24081      6.33675     12.43165         0.005805      0.006120     -0.002705
      2.78331      1.57454     12.44587        -0.002452     -0.008183      0.003495
      2.76481     -0.03552     15.02951        -0.003599     -0.009145     -0.000602
      9.58956      3.95004     12.44635         0.008090     -0.001536     -0.003098
      4.14343      2.36811     14.96898         0.003280      0.000158      0.006737
     11.00258      3.17617     10.00000        -0.255515     -0.150985     -0.237424
      5.48400      6.32533     12.48016        -0.013468     -0.005849      0.000166
      5.53071      4.75056     14.97228        -0.006011     -0.008210      0.006238
      8.25194      7.94043     10.00000         0.243463      0.079466     -0.237354
      6.87425      8.73670     12.49658         0.002907     -0.003600     -0.007888
      6.87661      0.79404     10.00000         0.003910     -0.006728     -0.149594
      9.59734      2.37633     14.98804         0.001264      0.000861      0.001137
      5.51206      1.58466     12.42181         0.002743      0.001492      0.010149
     12.38293      8.74611     12.43064         0.004735      0.001889      0.000247
      6.87661      5.55830     10.00000         0.178154     -0.185884      0.171770
      4.13622      3.95960     12.50867         0.000461      0.002594      0.001555
     -0.00994     -0.00018     14.86751        -0.004402      0.000753     -0.003148
     15.09105      8.73051     12.44070        -0.000016     -0.008608      0.004649
      2.75674      4.77188     14.88637         0.005820     -0.001329      0.006094
     13.75362      6.36178     12.50777         0.006707     -0.005478     -0.004333
      5.50866     -0.00636     14.76229        -0.000012     -0.002536      0.000744
      4.12597      0.79404     10.00000        -0.029301     -0.152601      0.208676
      8.25194      3.17617     10.00000         0.060688      0.148735      0.189020
      9.65481      8.75246     12.42049        -0.006264     -0.006294     -0.000645
      6.88108      2.36575     14.75913        -0.005456     -0.001050      0.003336
      1.37532      0.79404     10.00000         0.011590     -0.027785      0.225246
     11.00258      7.94043     10.00000        -0.119062      0.008761      0.213042
      9.61698      7.13387     14.81885        -0.000285     -0.000790     -0.002025
      9.62726      0.79404     10.00000         0.037161      0.099882      0.208898
      8.23683      1.57425     12.41009        -0.004294     -0.009295      0.004204
      8.23767      0.01074     14.77332        -0.004337     -0.008688      0.004589
      8.25628      4.76996     14.83464        -0.002239     -0.005377     -0.000117
     10.98876      4.76989     14.87522         0.000745     -0.006905      0.006137
      9.62726      5.55830     10.00000        -0.120337     -0.003375      0.104997
      6.85346      3.93187     12.41849        -0.006233     -0.001057     -0.001615
      6.88350      7.13941     14.86244         0.001855      0.000311      0.002319
 -----------------------------------------------------------------------------------
    total drift:                               -0.008189      0.003519     -0.051123


--------------------------------------------------------------------------------------------------------



  FREE ENERGIE OF THE ION-ELECTRON SYSTEM (eV)
  ---------------------------------------------------
  free  energy   TOTEN  =      -192.16413333 eV

  energy  without entropy=     -191.93077142  energy(sigma->0) =     -192.04745238
 
 d Force = 0.3570354E-03[ 0.534E-04, 0.661E-03]  d Energy = 0.3296096E-03 0.274E-04
 d Force = 0.2501842E+02[ 0.250E+02, 0.250E+02]  d Ewald  = 0.2501842E+02-0.142E-05


--------------------------------------------------------------------------------------------------------


    POTLOK:  cpu time    0.0494: real time    0.0495


--------------------------------------------------------------------------------------------------------


 stress matrix after NEB project (eV)
      0.00000      0.00000      0.00000
      0.00000      0.00000      0.00000
      0.00000      0.00000      0.00000
  FORCES: max atom, RMS     0.014684    0.006764
  FORCE total and by dimension    0.046862    0.013468
  Stress total and by dimension    0.000000    0.000000
 Conjugate gradient step on ions:
 trial-energy change:   -0.000330  1 .order   -0.000357   -0.000661   -0.000053
  (g-gl).g = 0.111E-03      g.g   = 0.254E-03  gl.gl    = 0.701E-03
 g(Force)  = 0.254E-03   g(Stress)= 0.000E+00 ortho     = 0.357E-04
 gamma     =   0.15844
 trial     =   2.54165
 opt step  =   2.86371  (harmonic =   2.76537) maximal distance =0.00253907
 next E    =  -192.164137   (d E  =  -0.00033)


--------------------------------------------------------------------------------------------------------


  
 reached required accuracy - stopping structural energy minimisation
     LOOP+:  cpu time   43.6520: real time   43.9664
    4ORBIT:  cpu time    0.0000: real time    0.0000

 total amount of memory used by VASP on root node    84353. kBytes
========================================================================

   base      :      30000. kBytes
   nonlr-proj:       4285. kBytes
   fftplans  :       4447. kBytes
   grid      :       6721. kBytes
   one-center:        124. kBytes
   wavefun   :      38776. kBytes
 
  
  
 General timing and accounting informations for this job:
 ========================================================
  
                  Total CPU time used (sec):     1361.485
                            User time (sec):     1295.373
                          System time (sec):       66.111
                         Elapsed time (sec):     1369.667
  
                   Maximum memory used (kb):      785236.
                   Average memory used (kb):           0.
  
                          Minor page faults:       508807
                          Major page faults:            2
                 Voluntary context switches:         9317
