unknown system                          
           1
    11.002582    0.000000    0.000000
     5.501291    9.528515    0.000000
     0.000000    0.000000   24.491785
   Au   Pd
  24  24
Direct configuration=     1
   0.08333333  0.08333333  0.40830017
   0.41666667  0.91666667  0.50000000
   0.50000000  0.75000000  0.59169983
   0.50000000  0.00000000  0.59169983
   0.41666667  0.16666667  0.50000000
   0.66666667  0.91666667  0.50000000
   0.16666667  0.91666667  0.50000000
   0.33333333  0.83333333  0.40830017
   0.16666667  0.66666667  0.50000000
   0.33333333  0.58333333  0.40830017
   0.75000000  0.00000000  0.59169983
   0.16666667  0.41666667  0.50000000
   0.58333333  0.83333333  0.40830017
   0.83333333  0.33333333  0.40830017
   0.33333333  0.33333333  0.40830017
   0.33333333  0.08333333  0.40830017
   0.91666667  0.91666667  0.50000000
   0.83333333  0.58333333  0.40830017
   0.91666667  0.66666667  0.50000000
   0.08333333  0.58333333  0.40830017
   0.66666667  0.66666667  0.50000000
   0.08333333  0.33333333  0.40830017
   0.00000000  0.00000000  0.59169983
   0.16666667  0.16666667  0.50000000
   0.66666667  0.41666667  0.50000000
   0.75000000  0.25000000  0.59169983
   0.66666667  0.16666667  0.50000000
   0.83333333  0.08333333  0.40830017
   0.75000000  0.50000000  0.59169983
   0.83333333  0.83333333  0.40830017
   0.50000000  0.50000000  0.59169983
   0.25000000  0.75000000  0.59169983
   0.58333333  0.58333333  0.40830017
   0.50000000  0.25000000  0.59169983
   0.41666667  0.41666667  0.50000000
   0.58333333  0.33333333  0.40830017
   0.58333333  0.08333333  0.40830017
   0.25000000  0.50000000  0.59169983
   0.25000000  0.25000000  0.59169983
   0.25000000  0.00000000  0.59169983
   0.00000000  0.75000000  0.59169983
   0.08333333  0.83333333  0.40830017
   0.00000000  0.50000000  0.59169983
   0.00000000  0.25000000  0.59169983
   0.91666667  0.41666667  0.50000000
   0.91666667  0.16666667  0.50000000
   0.41666667  0.66666667  0.50000000
   0.75000000  0.75000000  0.59169983
Direct configuration=     2
   0.08188875  0.08292550  0.40605262
   0.41591215  0.91600916  0.50049894
   0.49973330  0.74882496  0.59390342
   0.49929261  0.00083481  0.59428016
   0.41802122  0.16816948  0.50045948
   0.66766549  0.91731477  0.49963620
   0.16680178  0.91595360  0.50044445
   0.33358161  0.83196772  0.40599456
   0.16811628  0.66643135  0.50084501
   0.33470397  0.58296425  0.40641797
   0.74979412  0.00055286  0.59397200
   0.16667042  0.41670999  0.50135716
   0.58410626  0.83331535  0.40572168
   0.83182556  0.33329759  0.40681955
   0.33533624  0.33288044  0.40603561
   0.33422994  0.08324475  0.40558955
   0.91599100  0.91782615  0.49927559
   0.83278338  0.58355117  0.40601837
   0.91637992  0.66647050  0.50084197
   0.08252901  0.58495933  0.40566305
   0.66718892  0.66382896  0.50043889
   0.08262433  0.33358643  0.40596460
   0.00036738  0.00055564  0.59389621
   0.16465127  0.16774270  0.50130258
   0.66634444  0.41608643  0.50033822
   0.74920789  0.25135940  0.59232930
   0.66644231  0.16837980  0.49971207
   0.83266458  0.08333164  0.40743290
   0.75051826  0.49902357  0.59254436
   0.83329333  0.83419779  0.40688607
   0.50001079  0.49952946  0.59239105
   0.25054551  0.74911474  0.59290474
   0.58322259  0.58260150  0.40730476
   0.49974416  0.25113178  0.59262586
   0.41858340  0.41638767  0.50058325
   0.58384206  0.33297094  0.40774153
   0.58428175  0.08364963  0.40715099
   0.25050782  0.49991865  0.59276235
   0.24954601  0.25044772  0.59300650
   0.24948240  0.00048027  0.59308576
   0.00053997  0.74893845  0.59311251
   0.08245980  0.83392721  0.40685683
  -0.00024122  0.49994393  0.59280621
  -0.00045549  0.25064385  0.59255268
   0.91588802  0.41612686  0.50080779
   0.91475282  0.16829446  0.50019881
   0.41766779  0.66464970  0.50027719
   0.75095613  0.74894709  0.59315861
Direct configuration=     3
   0.07755499  0.08170200  0.39930997
   0.41364860  0.91403666  0.50199578
   0.49893319  0.74529982  0.60051420
   0.49717045  0.00333923  0.60202114
   0.42208486  0.17267792  0.50183794
   0.67066198  0.91925910  0.49854479
   0.16720710  0.91381440  0.50177782
   0.33432644  0.82787087  0.39907773
   0.17246510  0.66572539  0.50338003
   0.33881587  0.58185699  0.40077137
   0.74917648  0.00221145  0.60078853
   0.16668167  0.41683996  0.50542864
   0.58642504  0.83326140  0.39798621
   0.82730224  0.33319037  0.40237769
   0.34134494  0.33152178  0.39924194
   0.33691975  0.08297899  0.39745769
   0.91396399  0.92130460  0.49710234
   0.83113351  0.58420469  0.39917296
   0.91551969  0.66588200  0.50336787
   0.08011606  0.58983731  0.39775170
   0.66875569  0.65531586  0.50175555
   0.08049733  0.33434572  0.39895789
   0.00146953  0.00222257  0.60048533
   0.15860507  0.17097082  0.50521034
   0.66537777  0.41434572  0.50135289
   0.74683156  0.25543761  0.59421773
   0.66576923  0.17351919  0.49884828
   0.83065831  0.08332656  0.40483111
   0.75207306  0.49609427  0.59507796
   0.83317333  0.83679114  0.40264378
   0.50004316  0.49811783  0.59446471
   0.25218206  0.74645895  0.59651948
   0.58289036  0.58040600  0.40431855
   0.49897663  0.25452714  0.59540395
   0.42433360  0.41555068  0.50233302
   0.58536822  0.33188374  0.40606561
   0.58712699  0.08459852  0.40370346
   0.25203128  0.49967462  0.59594991
   0.24818402  0.25179088  0.59692653
   0.24792961  0.00192109  0.59724355
   0.00215990  0.74575380  0.59735055
   0.07983921  0.83570882  0.40252680
  -0.00096490  0.49977573  0.59612537
  -0.00182198  0.25257540  0.59511122
   0.91355207  0.41450743  0.50323117
   0.90901129  0.17317782  0.50079525
   0.42067115  0.65859880  0.50110874
   0.75382451  0.74578835  0.59753495
Direct configuration=     4
   0.07905623  0.08187483  0.39807590
   0.41589019  0.91459312  0.50170627
   0.49957787  0.74581052  0.60249558
   0.49797225  0.00234062  0.60372383
   0.42056236  0.17033433  0.50139992
   0.66757619  0.91869476  0.49897490
   0.16593921  0.91552710  0.50134693
   0.33398917  0.83001855  0.39761219
   0.17107472  0.66465200  0.50238813
   0.33681565  0.58128124  0.39946277
   0.74974463  0.00201811  0.60231377
   0.16697758  0.41729421  0.50391394
   0.58579243  0.83333183  0.39652556
   0.82809524  0.33348554  0.40116766
   0.33890285  0.33287470  0.39787208
   0.33587334  0.08300165  0.39616114
   0.91569441  0.92097898  0.49798868
   0.83137738  0.58430676  0.39779382
   0.91614649  0.66564685  0.50248417
   0.08142127  0.58855000  0.39643721
   0.66715509  0.65917233  0.50131918
   0.08175809  0.33386313  0.39788103
   0.00047871  0.00179584  0.60208921
   0.16114961  0.16911122  0.50367519
   0.66625956  0.41401379  0.50096120
   0.74700190  0.25476617  0.59533656
   0.66724446  0.17173819  0.49927948
   0.83042681  0.08354367  0.40353130
   0.75163548  0.49633308  0.59688746
   0.83309461  0.83586338  0.40138132
   0.50022503  0.49830775  0.59599336
   0.25192175  0.74705038  0.59823762
   0.58377539  0.58107858  0.40363571
   0.49935278  0.25393767  0.59702203
   0.42219068  0.41676753  0.50158515
   0.58518033  0.33203413  0.40528112
   0.58689824  0.08422324  0.40274710
   0.25239531  0.49950681  0.59783410
   0.24892938  0.25151476  0.59886894
   0.24869399  0.00111671  0.59888454
   0.00194078  0.74705574  0.59856338
   0.08107092  0.83475702  0.40167220
  -0.00131808  0.49970562  0.59810193
  -0.00284858  0.25276165  0.59731893
   0.91398533  0.41496384  0.50203370
   0.91036575  0.17138802  0.50057291
   0.42075843  0.65992752  0.50074589
   0.75179880  0.74708654  0.59871502
Direct configuration=     5
   0.08003421  0.08198741  0.39727198
   0.41735045  0.91495563  0.50151768
   0.49999784  0.74614321  0.60378633
   0.49849457  0.00169008  0.60483303
   0.41957054  0.16880762  0.50111458
   0.66556599  0.91832712  0.49925509
   0.16511325  0.91664283  0.50106623
   0.33376946  0.83141763  0.39665748
   0.17016896  0.66395274  0.50174197
   0.33551263  0.58090618  0.39861030
   0.75011475  0.00189215  0.60330738
   0.16717035  0.41759012  0.50292720
   0.58538032  0.83337772  0.39557403
   0.82861183  0.33367782  0.40037939
   0.33731198  0.33375604  0.39697969
   0.33519167  0.08301640  0.39531652
   0.91682167  0.92076686  0.49856607
   0.83153624  0.58437326  0.39689540
   0.91655481  0.66549367  0.50190850
   0.08227154  0.58771139  0.39558091
   0.66611239  0.66168459  0.50103491
   0.08257941  0.33354875  0.39717952
  -0.00016675  0.00151785  0.60313404
   0.16280722  0.16789980  0.50267513
   0.66683399  0.41379756  0.50070603
   0.74711287  0.25432878  0.59606542
   0.66820548  0.17057797  0.49956039
   0.83027600  0.08368510  0.40268456
   0.75135043  0.49648864  0.59806624
   0.83304333  0.83525900  0.40055889
   0.50034351  0.49843147  0.59698918
   0.25175218  0.74743566  0.59935689
   0.58435193  0.58151672  0.40319088
   0.49959782  0.25355367  0.59807611
   0.42079469  0.41756023  0.50109795
   0.58505793  0.33213210  0.40477006
   0.58674923  0.08397876  0.40212409
   0.25263245  0.49939749  0.59906154
   0.24941493  0.25133488  0.60013431
   0.24919194  0.00059270  0.59995354
   0.00179805  0.74790388  0.59935347
   0.08187331  0.83413698  0.40111548
  -0.00154816  0.49965995  0.59938954
  -0.00351735  0.25288299  0.59875712
   0.91426758  0.41526117  0.50125363
   0.91124810  0.17022207  0.50042807
   0.42081529  0.66079311  0.50050951
   0.75047917  0.74793223  0.59948376
Direct configuration=     6
   0.08034294  0.08239650  0.39706536
   0.41632029  0.91516967  0.50150723
   0.49997763  0.74667955  0.60431363
   0.49884124  0.00155863  0.60540605
   0.41853056  0.16924703  0.50105262
   0.66709746  0.91765068  0.49952211
   0.16701234  0.91602990  0.50109042
   0.33392422  0.83122985  0.39647397
   0.16990205  0.66496283  0.50155762
   0.33563260  0.58220259  0.39834969
   0.74986713  0.00145538  0.60361188
   0.16739782  0.41626013  0.50266718
   0.58485933  0.83366106  0.39515981
   0.82996566  0.33334038  0.40008799
   0.33673626  0.33278941  0.39674966
   0.33496558  0.08334927  0.39503502
   0.91551398  0.91941524  0.49899216
   0.83238785  0.58426535  0.39659494
   0.91585811  0.66618366  0.50162985
   0.08177386  0.58701609  0.39524216
   0.66672387  0.66237487  0.50111437
   0.08286494  0.33364174  0.39703671
   0.00014471  0.00136156  0.60349657
   0.16342168  0.16808263  0.50247718
   0.66724509  0.41450046  0.50069293
   0.74743179  0.25374506  0.59641579
   0.66728145  0.16905100  0.49997749
   0.83113883  0.08298715  0.40247505
   0.75100599  0.49732719  0.59826925
   0.83325578  0.83483312  0.40072568
   0.50022424  0.49879786  0.59727104
   0.25142186  0.74783486  0.59938939
   0.58342116  0.58250733  0.40318369
   0.49953131  0.25285834  0.59820524
   0.42028292  0.41662203  0.50093771
   0.58439605  0.33242000  0.40465209
   0.58565371  0.08403182  0.40221130
   0.25202191  0.49952644  0.59927019
   0.24912730  0.25145097  0.60015990
   0.24906578  0.00056946  0.60001744
   0.00144146  0.74813467  0.59932433
   0.08234584  0.83403342  0.40120112
  -0.00133755  0.49983749  0.59938117
  -0.00255591  0.25220525  0.59879651
   0.91497872  0.41534040  0.50094709
   0.91308608  0.16989116  0.50038498
   0.41919318  0.66281866  0.50045386
   0.75028090  0.74835186  0.59942260
Direct configuration=     7
   0.08038034  0.08244606  0.39704033
   0.41619548  0.91519560  0.50150596
   0.49997518  0.74674452  0.60437751
   0.49888323  0.00154270  0.60547547
   0.41840457  0.16930026  0.50104512
   0.66728299  0.91756873  0.49955446
   0.16724241  0.91595565  0.50109335
   0.33394297  0.83120710  0.39645174
   0.16986972  0.66508520  0.50153529
   0.33564714  0.58235965  0.39831812
   0.74983714  0.00140247  0.60364877
   0.16742538  0.41609900  0.50263568
   0.58479621  0.83369539  0.39510963
   0.83012967  0.33329950  0.40005269
   0.33666651  0.33267230  0.39672179
   0.33493819  0.08338960  0.39500091
   0.91535556  0.91925149  0.49904377
   0.83249102  0.58425228  0.39655853
   0.91577370  0.66626725  0.50159609
   0.08171357  0.58693185  0.39520112
   0.66679795  0.66245849  0.50112400
   0.08289953  0.33365300  0.39701940
   0.00018244  0.00134262  0.60354049
   0.16349612  0.16810478  0.50245320
   0.66729490  0.41458562  0.50069135
   0.74747042  0.25367435  0.59645824
   0.66716951  0.16886601  0.50002802
   0.83124337  0.08290259  0.40244966
   0.75096426  0.49742878  0.59829384
   0.83328151  0.83478153  0.40074588
   0.50020979  0.49884225  0.59730519
   0.25138185  0.74788323  0.59939332
   0.58330840  0.58262734  0.40318282
   0.49952325  0.25277410  0.59822089
   0.42022092  0.41650837  0.50091830
   0.58431587  0.33245487  0.40463779
   0.58552099  0.08403825  0.40222186
   0.25194795  0.49954206  0.59929546
   0.24909245  0.25146504  0.60016300
   0.24905050  0.00056665  0.60002518
   0.00139826  0.74816263  0.59932080
   0.08240308  0.83402087  0.40121149
  -0.00131204  0.49985900  0.59938016
  -0.00243943  0.25212314  0.59880129
   0.91506488  0.41534999  0.50090995
   0.91330875  0.16985108  0.50037976
   0.41899666  0.66306405  0.50044712
   0.75025688  0.74840269  0.59941519
Direct configuration=     8
   0.08071498  0.08237254  0.39695144
   0.41646642  0.91539051  0.50156376
   0.49977216  0.74714206  0.60468567
   0.49873120  0.00161088  0.60587144
   0.41851078  0.16864547  0.50109406
   0.66675194  0.91772818  0.49973243
   0.16701953  0.91599861  0.50112966
   0.33389000  0.83150307  0.39630395
   0.16977535  0.66511426  0.50148233
   0.33560648  0.58253398  0.39822032
   0.74978537  0.00118153  0.60393980
   0.16695267  0.41650057  0.50259501
   0.58474053  0.83376745  0.39487874
   0.83025840  0.33338632  0.39995169
   0.33651853  0.33276653  0.39657515
   0.33488155  0.08314917  0.39477960
   0.91548137  0.91925497  0.49932652
   0.83233722  0.58441145  0.39636231
   0.91645351  0.66548649  0.50146502
   0.08195568  0.58669936  0.39498862
   0.66678949  0.66265787  0.50120405
   0.08297097  0.33364447  0.39687919
   0.00034749  0.00130415  0.60367282
   0.16366922  0.16817321  0.50243230
   0.66728955  0.41474945  0.50074077
   0.74763114  0.25347635  0.59651753
   0.66690525  0.16850474  0.50031314
   0.83159322  0.08252053  0.40263005
   0.75101478  0.49770948  0.59822249
   0.83330674  0.83473093  0.40096014
   0.50002082  0.49902455  0.59723942
   0.25122841  0.74796880  0.59928225
   0.58331676  0.58285973  0.40333330
   0.49931985  0.25259606  0.59817394
   0.42013480  0.41633149  0.50088011
   0.58421842  0.33246987  0.40476110
   0.58514600  0.08395294  0.40246848
   0.25147101  0.49974028  0.59914724
   0.24891063  0.25145750  0.60002480
   0.24903180  0.00068114  0.59996544
   0.00119773  0.74816334  0.59917035
   0.08241306  0.83405852  0.40148091
  -0.00124383  0.50005965  0.59904562
  -0.00185413  0.25189407  0.59854136
   0.91533715  0.41558357  0.50081894
   0.91409101  0.16917569  0.50035244
   0.41875706  0.66338791  0.50053771
   0.75038196  0.74848031  0.59930662
Direct configuration=     9
   0.08109260  0.08228957  0.39685114
   0.41677216  0.91561046  0.50162898
   0.49954305  0.74759068  0.60503341
   0.49855964  0.00168782  0.60631828
   0.41863063  0.16790656  0.50114929
   0.66615267  0.91790812  0.49993327
   0.16676801  0.91604709  0.50117063
   0.33383023  0.83183706  0.39613717
   0.16966885  0.66514706  0.50142256
   0.33556060  0.58273071  0.39810995
   0.74972696  0.00093221  0.60426821
   0.16641923  0.41695374  0.50254913
   0.58467769  0.83384877  0.39461820
   0.83040366  0.33348430  0.39983771
   0.33635154  0.33287287  0.39640967
   0.33481762  0.08287786  0.39452985
   0.91562333  0.91925890  0.49964558
   0.83216366  0.58459106  0.39614088
   0.91722065  0.66460543  0.50131710
   0.08222891  0.58643700  0.39474883
   0.66677995  0.66288286  0.50129439
   0.08305159  0.33363484  0.39672096
   0.00053374  0.00126073  0.60382215
   0.16386455  0.16825043  0.50240871
   0.66728352  0.41493432  0.50079654
   0.74781250  0.25325290  0.59658442
   0.66660704  0.16809706  0.50063489
   0.83198803  0.08208938  0.40283361
   0.75107179  0.49802626  0.59814197
   0.83333521  0.83467383  0.40120192
   0.49980757  0.49923027  0.59716519
   0.25105526  0.74806536  0.59915690
   0.58332620  0.58312198  0.40350311
   0.49909032  0.25239514  0.59812097
   0.42003762  0.41613189  0.50083701
   0.58410846  0.33248679  0.40490025
   0.58472282  0.08385667  0.40274679
   0.25093280  0.49996396  0.59897998
   0.24870545  0.25144899  0.59986885
   0.24901069  0.00081034  0.59989803
   0.00097144  0.74816414  0.59900058
   0.08242431  0.83410100  0.40178494
  -0.00116686  0.50028608  0.59866811
  -0.00119364  0.25163557  0.59824805
   0.91564440  0.41584715  0.50071624
   0.91497376  0.16841354  0.50032161
   0.41848667  0.66375338  0.50063993
   0.75052311  0.74856789  0.59918410
Direct configuration=    10
   0.08119333  0.08226796  0.39675789
   0.41679061  0.91551399  0.50169822
   0.49938771  0.74777462  0.60533460
   0.49838706  0.00175668  0.60677575
   0.41826832  0.16797953  0.50120489
   0.66637907  0.91750848  0.50012218
   0.16681120  0.91612891  0.50119733
   0.33384463  0.83190592  0.39598782
   0.16984529  0.66497815  0.50132859
   0.33559293  0.58277231  0.39804582
   0.74971722  0.00089394  0.60461522
   0.16680032  0.41680196  0.50240965
   0.58478196  0.83382419  0.39437790
   0.83028919  0.33347667  0.39981500
   0.33642528  0.33295028  0.39628498
   0.33478573  0.08282049  0.39426488
   0.91543420  0.91929329  0.49995380
   0.83200568  0.58474824  0.39593239
   0.91714958  0.66475131  0.50109349
   0.08237112  0.58648605  0.39449582
   0.66671496  0.66293302  0.50135887
   0.08306332  0.33362409  0.39654206
   0.00054598  0.00126745  0.60399083
   0.16404533  0.16821024  0.50229145
   0.66746561  0.41468807  0.50085745
   0.74792885  0.25322343  0.59656636
   0.66673495  0.16809347  0.50091015
   0.83202360  0.08202350  0.40314776
   0.75117785  0.49807255  0.59802715
   0.83335226  0.83461282  0.40149717
   0.49967371  0.49929508  0.59704986
   0.25098764  0.74809095  0.59905566
   0.58339494  0.58321333  0.40370881
   0.49884811  0.25243836  0.59807149
   0.41998744  0.41603427  0.50079728
   0.58426774  0.33233036  0.40511950
   0.58459585  0.08382234  0.40302908
   0.25069085  0.50006553  0.59879170
   0.24864740  0.25147414  0.59971643
   0.24905712  0.00084778  0.59983370
   0.00082554  0.74827534  0.59886203
   0.08240116  0.83408377  0.40206585
  -0.00121801  0.50039703  0.59839544
  -0.00106088  0.25168604  0.59796566
   0.91555004  0.41575314  0.50056551
   0.91499666  0.16834772  0.50027398
   0.41850784  0.66384232  0.50073842
   0.75053370  0.74862091  0.59907411
Direct configuration=    11
   0.08140832  0.08222185  0.39655887
   0.41683000  0.91530810  0.50184598
   0.49905616  0.74816721  0.60597745
   0.49801871  0.00190365  0.60775217
   0.41749501  0.16813529  0.50132354
   0.66686227  0.91665552  0.50052539
   0.16690338  0.91630354  0.50125432
   0.33387537  0.83205288  0.39566907
   0.17022187  0.66461765  0.50112803
   0.33566195  0.58286108  0.39790895
   0.74969643  0.00081225  0.60535586
   0.16761371  0.41647801  0.50211195
   0.58500453  0.83377173  0.39386502
   0.83004488  0.33346039  0.39976652
   0.33658265  0.33311550  0.39601885
   0.33471766  0.08269806  0.39369934
   0.91503053  0.91936668  0.50061164
   0.83166849  0.58508372  0.39548741
   0.91699791  0.66506267  0.50061624
   0.08267466  0.58659074  0.39395581
   0.66657624  0.66304008  0.50149649
   0.08308836  0.33360115  0.39616023
   0.00057212  0.00128178  0.60435085
   0.16443118  0.16812446  0.50204117
   0.66785424  0.41416248  0.50098745
   0.74817719  0.25316052  0.59652780
   0.66700798  0.16808580  0.50149766
   0.83209952  0.08188289  0.40381829
   0.75140423  0.49817136  0.59778209
   0.83338863  0.83448259  0.40212734
   0.49938799  0.49943341  0.59680372
   0.25084333  0.74814557  0.59883959
   0.58354165  0.58340831  0.40414785
   0.49833114  0.25253061  0.59796588
   0.41988033  0.41582592  0.50071248
   0.58460769  0.33199648  0.40558745
   0.58432483  0.08374906  0.40363161
   0.25017445  0.50028232  0.59838986
   0.24852349  0.25152781  0.59939109
   0.24915622  0.00092767  0.59969639
   0.00051414  0.74851267  0.59856632
   0.08235175  0.83404701  0.40266543
  -0.00132720  0.50063383  0.59781348
  -0.00077752  0.25179377  0.59736295
   0.91534863  0.41555248  0.50024380
   0.91504554  0.16820724  0.50017234
   0.41855301  0.66403215  0.50094864
   0.75055631  0.74873406  0.59883936
Direct configuration=    12
   0.08149694  0.08220284  0.39647684
   0.41684624  0.91522322  0.50190690
   0.49891949  0.74832904  0.60624244
   0.49786688  0.00196424  0.60815466
   0.41717624  0.16819949  0.50137245
   0.66706146  0.91630391  0.50069160
   0.16694138  0.91637553  0.50127781
   0.33388805  0.83211346  0.39553767
   0.17037711  0.66446905  0.50104535
   0.33569041  0.58289768  0.39785252
   0.74968786  0.00077858  0.60566116
   0.16794900  0.41634447  0.50198923
   0.58509627  0.83375010  0.39365361
   0.82994417  0.33345367  0.39974654
   0.33664753  0.33318360  0.39590914
   0.33468960  0.08264759  0.39346622
   0.91486413  0.91939694  0.50088281
   0.83152949  0.58522201  0.39530398
   0.91693538  0.66519102  0.50041951
   0.08279979  0.58663389  0.39373321
   0.66651906  0.66308421  0.50155321
   0.08309868  0.33359170  0.39600283
   0.00058289  0.00128768  0.60449925
   0.16459023  0.16808910  0.50193800
   0.66801444  0.41394582  0.50104104
   0.74827956  0.25313459  0.59651191
   0.66712052  0.16808264  0.50173984
   0.83213082  0.08182493  0.40409469
   0.75149755  0.49821209  0.59768108
   0.83340362  0.83442891  0.40238710
   0.49927022  0.49949043  0.59670225
   0.25078384  0.74816808  0.59875052
   0.58360213  0.58348869  0.40432883
   0.49811804  0.25256864  0.59792235
   0.41983618  0.41574004  0.50067752
   0.58474782  0.33185885  0.40578035
   0.58421312  0.08371886  0.40387998
   0.24996158  0.50037168  0.59822421
   0.24847242  0.25154993  0.59925699
   0.24919707  0.00096060  0.59963979
   0.00038578  0.74861051  0.59844442
   0.08233139  0.83403185  0.40291258
  -0.00137221  0.50073145  0.59757359
  -0.00066072  0.25183818  0.59711450
   0.91526561  0.41546977  0.50011119
   0.91506569  0.16814933  0.50013044
   0.41857163  0.66411040  0.50103530
   0.75056563  0.74878070  0.59874259
Direct configuration=    13
   0.08121589  0.08225285  0.39636494
   0.41697160  0.91497226  0.50197041
   0.49900078  0.74806325  0.60659595
   0.49786028  0.00205700  0.60868758
   0.41778277  0.16780592  0.50139893
   0.66669414  0.91661602  0.50097850
   0.16692437  0.91643896  0.50128424
   0.33404837  0.83186009  0.39535382
   0.17051951  0.66450104  0.50086963
   0.33607206  0.58283830  0.39781903
   0.74940382  0.00112841  0.60617414
   0.16788611  0.41636184  0.50158239
   0.58503038  0.83391231  0.39337798
   0.82994054  0.33337145  0.39973741
   0.33692702  0.33300982  0.39573947
   0.33486855  0.08281949  0.39310163
   0.91491661  0.91948020  0.50133455
   0.83182083  0.58501252  0.39504651
   0.91703206  0.66499613  0.50007379
   0.08263373  0.58680857  0.39338242
   0.66646391  0.66277858  0.50159039
   0.08293496  0.33381235  0.39574670
   0.00051989  0.00144077  0.60476554
   0.16440418  0.16799419  0.50157483
   0.66803816  0.41377803  0.50112025
   0.74826205  0.25329210  0.59654460
   0.66705873  0.16800042  0.50205301
   0.83197128  0.08189096  0.40454778
   0.75144083  0.49814307  0.59756871
   0.83341872  0.83443966  0.40267250
   0.49929491  0.49943841  0.59658083
   0.25072729  0.74821002  0.59869345
   0.58354321  0.58348996  0.40458719
   0.49804487  0.25269112  0.59794750
   0.42015842  0.41568777  0.50057576
   0.58487714  0.33168467  0.40610607
   0.58427206  0.08371843  0.40432576
   0.24998947  0.50044345  0.59805253
   0.24846551  0.25163575  0.59914574
   0.24913230  0.00097931  0.59960851
   0.00037531  0.74876445  0.59834188
   0.08231149  0.83413102  0.40324055
  -0.00155091  0.50081614  0.59726715
  -0.00097934  0.25200825  0.59682586
   0.91525986  0.41536737  0.49974940
   0.91486654  0.16833900  0.50007546
   0.41887203  0.66381549  0.50109971
   0.75027771  0.74890284  0.59871904
Direct configuration=    14
   0.08093665  0.08230255  0.39625376
   0.41709616  0.91472292  0.50203351
   0.49908154  0.74779918  0.60694718
   0.49785373  0.00214916  0.60921706
   0.41838537  0.16741488  0.50142523
   0.66632920  0.91692612  0.50126355
   0.16690746  0.91650198  0.50129063
   0.33420765  0.83160835  0.39517115
   0.17066100  0.66453283  0.50069503
   0.33645126  0.58277931  0.39778574
   0.74912160  0.00147599  0.60668380
   0.16782362  0.41637909  0.50117818
   0.58496492  0.83407347  0.39310412
   0.82993694  0.33328976  0.39972834
   0.33720472  0.33283715  0.39557090
   0.33504634  0.08299028  0.39273940
   0.91496876  0.91956292  0.50178337
   0.83211029  0.58480439  0.39479070
   0.91712812  0.66480250  0.49973030
   0.08246874  0.58698211  0.39303388
   0.66640911  0.66247492  0.50162732
   0.08277230  0.33403158  0.39549222
   0.00045729  0.00159286  0.60503010
   0.16421932  0.16789988  0.50121399
   0.66806173  0.41361132  0.50119895
   0.74824465  0.25344859  0.59657708
   0.66699734  0.16791873  0.50236416
   0.83181277  0.08195657  0.40499795
   0.75138447  0.49807451  0.59745707
   0.83343373  0.83445034  0.40295606
   0.49931944  0.49938673  0.59646020
   0.25067111  0.74825168  0.59863675
   0.58348467  0.58349122  0.40484389
   0.49797216  0.25281280  0.59797248
   0.42047857  0.41563583  0.50047466
   0.58500562  0.33151161  0.40642969
   0.58433063  0.08371802  0.40476866
   0.25001719  0.50051475  0.59788195
   0.24845866  0.25172101  0.59903522
   0.24906794  0.00099790  0.59957744
   0.00036491  0.74891739  0.59823999
   0.08229172  0.83422955  0.40356640
  -0.00172847  0.50090029  0.59696270
  -0.00129591  0.25217722  0.59653909
   0.91525414  0.41526562  0.49938994
   0.91466868  0.16852744  0.50002083
   0.41917050  0.66352249  0.50116372
   0.74999165  0.74902420  0.59869564
Direct configuration=    15
   0.08086621  0.08231508  0.39622572
   0.41712758  0.91466003  0.50204943
   0.49910191  0.74773256  0.60703578
   0.49785208  0.00217241  0.60935062
   0.41853737  0.16731625  0.50143186
   0.66623714  0.91700434  0.50133545
   0.16690320  0.91651788  0.50129224
   0.33424783  0.83154485  0.39512508
   0.17069669  0.66454085  0.50065100
   0.33654691  0.58276442  0.39777735
   0.74905041  0.00156366  0.60681236
   0.16780786  0.41638344  0.50107622
   0.58494841  0.83411412  0.39303505
   0.82993603  0.33326915  0.39972605
   0.33727476  0.33279360  0.39552838
   0.33509119  0.08303336  0.39264803
   0.91498191  0.91958379  0.50189658
   0.83218330  0.58475189  0.39472617
   0.91715235  0.66475366  0.49964366
   0.08242712  0.58702589  0.39294597
   0.66639529  0.66239833  0.50163664
   0.08273128  0.33408688  0.39542803
   0.00044150  0.00163123  0.60509684
   0.16417270  0.16787610  0.50112298
   0.66806767  0.41356926  0.50121880
   0.74824026  0.25348807  0.59658527
   0.66698186  0.16789813  0.50244264
   0.83177279  0.08197312  0.40511150
   0.75137026  0.49805721  0.59742891
   0.83343751  0.83445304  0.40302759
   0.49932563  0.49937370  0.59642977
   0.25065693  0.74826219  0.59862245
   0.58346991  0.58349154  0.40490863
   0.49795382  0.25284350  0.59797878
   0.42055933  0.41562273  0.50044916
   0.58503803  0.33146796  0.40651132
   0.58434540  0.08371791  0.40488038
   0.25002418  0.50053274  0.59783893
   0.24845693  0.25174252  0.59900734
   0.24905170  0.00100259  0.59956960
   0.00036228  0.74895597  0.59821429
   0.08228673  0.83425440  0.40364860
  -0.00177325  0.50092151  0.59688590
  -0.00137577  0.25221984  0.59646676
   0.91525269  0.41523996  0.49929927
   0.91461877  0.16857497  0.50000705
   0.41924579  0.66344858  0.50117986
   0.74991949  0.74905481  0.59868974
Direct configuration=    16
   0.08086708  0.08225508  0.39615747
   0.41708894  0.91460628  0.50206520
   0.49923598  0.74744209  0.60710604
   0.49786584  0.00213630  0.60946821
   0.41842675  0.16744287  0.50150633
   0.66631633  0.91692551  0.50155586
   0.16700665  0.91644305  0.50130201
   0.33419754  0.83174223  0.39507223
   0.17066491  0.66456526  0.50059076
   0.33655319  0.58250404  0.39777297
   0.74891092  0.00182445  0.60710079
   0.16780357  0.41610883  0.50076499
   0.58502394  0.83406861  0.39302418
   0.82993574  0.33335363  0.39967110
   0.33721511  0.33283379  0.39543655
   0.33501605  0.08315939  0.39251332
   0.91507411  0.91954748  0.50213700
   0.83203981  0.58476653  0.39461679
   0.91697566  0.66471479  0.49960046
   0.08254204  0.58710339  0.39275418
   0.66667268  0.66238374  0.50160743
   0.08292101  0.33397007  0.39523620
   0.00029195  0.00182503  0.60526838
   0.16437958  0.16778052  0.50085852
   0.66805574  0.41363761  0.50123890
   0.74808898  0.25358310  0.59674885
   0.66708437  0.16769921  0.50259844
   0.83162051  0.08196940  0.40528154
   0.75121296  0.49801918  0.59745177
   0.83330571  0.83466693  0.40301275
   0.49944340  0.49928966  0.59650267
   0.25070848  0.74831882  0.59867706
   0.58373120  0.58334708  0.40488890
   0.49806920  0.25297195  0.59814246
   0.42047689  0.41566473  0.50040779
   0.58504715  0.33145154  0.40657532
   0.58465850  0.08360567  0.40499628
   0.25021914  0.50047530  0.59774872
   0.24839703  0.25180593  0.59887993
   0.24900748  0.00107864  0.59955731
   0.00035858  0.74888872  0.59826825
   0.08231969  0.83429713  0.40366561
  -0.00191024  0.50098247  0.59673838
  -0.00163404  0.25223405  0.59641549
   0.91533920  0.41536589  0.49901753
   0.91443346  0.16870270  0.50006174
   0.41918111  0.66331962  0.50116718
   0.74976007  0.74912173  0.59877018
Direct configuration=    17
   0.08086807  0.08218636  0.39607931
   0.41704468  0.91454471  0.50208326
   0.49938955  0.74710936  0.60718651
   0.49788161  0.00209494  0.60960290