  56  56   0   0
  0.4903395E+02  0.1100258E-08  0.1100258E-08  0.2619179E-08  0.3500000E-15
  1.000000000000000E-004
  CAR 
 unknown system                          
      6.44688583    -21.85240456  301     -1.26894076      1.00000000
    -21.852  0.0000E+00  0.0000E+00
    -21.758  0.0000E+00  0.0000E+00
    -21.664  0.0000E+00  0.0000E+00
    -21.569  0.0000E+00  0.0000E+00
    -21.475  0.0000E+00  0.0000E+00
    -21.381  0.0000E+00  0.0000E+00
    -21.286  0.0000E+00  0.0000E+00
    -21.192  0.0000E+00  0.0000E+00
    -21.098  0.3802E-15  0.3586E-16
    -21.003  0.4876E-11  0.4600E-12
    -20.909  0.1120E-07  0.1057E-08
    -20.815  0.4710E-05  0.4454E-06
    -20.720  0.3776E-03  0.3607E-04
    -20.626  0.6246E-02  0.6253E-03
    -20.532  0.2510E-01  0.2993E-02
    -20.437  0.3397E-01  0.6198E-02
    -20.343  0.2895E-01  0.8929E-02
    -20.249  0.4296E-01  0.1298E-01
    -20.154  0.6730E-01  0.1933E-01
    -20.060  0.6042E-01  0.2503E-01
    -19.966  0.4661E-01  0.2943E-01
    -19.871  0.2343E-01  0.3164E-01
    -19.777  0.3718E-02  0.3199E-01
    -19.683  0.1377E-03  0.3200E-01
    -19.588  0.1026E-05  0.3200E-01
    -19.494  0.1421E-08  0.3200E-01
    -19.400  0.3516E-12  0.3200E-01
    -19.305  0.1412E-16  0.3200E-01
    -19.211  0.0000E+00  0.3200E-01
    -19.117  0.0000E+00  0.3200E-01
    -19.022  0.0000E+00  0.3200E-01
    -18.928  0.0000E+00  0.3200E-01
    -18.834  0.0000E+00  0.3200E-01
    -18.739  0.0000E+00  0.3200E-01
    -18.645  0.0000E+00  0.3200E-01
    -18.551  0.0000E+00  0.3200E-01
    -18.456  0.0000E+00  0.3200E-01
    -18.362  0.0000E+00  0.3200E-01
    -18.268  0.0000E+00  0.3200E-01
    -18.173  0.0000E+00  0.3200E-01
    -18.079  0.0000E+00  0.3200E-01
    -17.985  0.0000E+00  0.3200E-01
    -17.891  0.0000E+00  0.3200E-01
    -17.796  0.0000E+00  0.3200E-01
    -17.702  0.0000E+00  0.3200E-01
    -17.608  0.0000E+00  0.3200E-01
    -17.513  0.0000E+00  0.3200E-01
    -17.419  0.0000E+00  0.3200E-01
    -17.325  0.0000E+00  0.3200E-01
    -17.230  0.0000E+00  0.3200E-01
    -17.136  0.0000E+00  0.3200E-01
    -17.042  0.0000E+00  0.3200E-01
    -16.947  0.0000E+00  0.3200E-01
    -16.853  0.0000E+00  0.3200E-01
    -16.759  0.0000E+00  0.3200E-01
    -16.664  0.0000E+00  0.3200E-01
    -16.570  0.0000E+00  0.3200E-01
    -16.476  0.0000E+00  0.3200E-01
    -16.381  0.0000E+00  0.3200E-01
    -16.287  0.0000E+00  0.3200E-01
    -16.193  0.0000E+00  0.3200E-01
    -16.098  0.0000E+00  0.3200E-01
    -16.004  0.0000E+00  0.3200E-01
    -15.910  0.0000E+00  0.3200E-01
    -15.815  0.0000E+00  0.3200E-01
    -15.721  0.0000E+00  0.3200E-01
    -15.627  0.0000E+00  0.3200E-01
    -15.532  0.0000E+00  0.3200E-01
    -15.438  0.0000E+00  0.3200E-01
    -15.344  0.0000E+00  0.3200E-01
    -15.249  0.0000E+00  0.3200E-01
    -15.155  0.0000E+00  0.3200E-01
    -15.061  0.0000E+00  0.3200E-01
    -14.966  0.0000E+00  0.3200E-01
    -14.872  0.0000E+00  0.3200E-01
    -14.778  0.0000E+00  0.3200E-01
    -14.683  0.0000E+00  0.3200E-01
    -14.589  0.0000E+00  0.3200E-01
    -14.495  0.0000E+00  0.3200E-01
    -14.400  0.0000E+00  0.3200E-01
    -14.306  0.0000E+00  0.3200E-01
    -14.212  0.0000E+00  0.3200E-01
    -14.117  0.0000E+00  0.3200E-01
    -14.023  0.0000E+00  0.3200E-01
    -13.929  0.0000E+00  0.3200E-01
    -13.834  0.0000E+00  0.3200E-01
    -13.740  0.0000E+00  0.3200E-01
    -13.646  0.0000E+00  0.3200E-01
    -13.551  0.0000E+00  0.3200E-01
    -13.457  0.0000E+00  0.3200E-01
    -13.363  0.0000E+00  0.3200E-01
    -13.268  0.0000E+00  0.3200E-01
    -13.174  0.0000E+00  0.3200E-01
    -13.080  0.0000E+00  0.3200E-01
    -12.985  0.0000E+00  0.3200E-01
    -12.891  0.0000E+00  0.3200E-01
    -12.797  0.0000E+00  0.3200E-01
    -12.702  0.0000E+00  0.3200E-01
    -12.608  0.0000E+00  0.3200E-01
    -12.514  0.0000E+00  0.3200E-01
    -12.419  0.0000E+00  0.3200E-01
    -12.325  0.0000E+00  0.3200E-01
    -12.231  0.0000E+00  0.3200E-01
    -12.136  0.0000E+00  0.3200E-01
    -12.042  0.0000E+00  0.3200E-01
    -11.948  0.0000E+00  0.3200E-01
    -11.853  0.0000E+00  0.3200E-01
    -11.759  0.0000E+00  0.3200E-01
    -11.665  0.0000E+00  0.3200E-01
    -11.570  0.0000E+00  0.3200E-01
    -11.476  0.0000E+00  0.3200E-01
    -11.382  0.0000E+00  0.3200E-01
    -11.287  0.0000E+00  0.3200E-01
    -11.193  0.0000E+00  0.3200E-01
    -11.099  0.0000E+00  0.3200E-01
    -11.004  0.0000E+00  0.3200E-01
    -10.910  0.0000E+00  0.3200E-01
    -10.816  0.0000E+00  0.3200E-01
    -10.721  0.0000E+00  0.3200E-01
    -10.627  0.0000E+00  0.3200E-01
    -10.533  0.0000E+00  0.3200E-01
    -10.438  0.0000E+00  0.3200E-01
    -10.344  0.0000E+00  0.3200E-01
    -10.250  0.0000E+00  0.3200E-01
    -10.155  0.0000E+00  0.3200E-01
    -10.061  0.1059E-16  0.3200E-01
     -9.967  0.2298E-12  0.3200E-01
     -9.872  0.8716E-09  0.3200E-01
     -9.778  0.5904E-06  0.3200E-01
     -9.684  0.7339E-04  0.3201E-01
     -9.589  0.1750E-02  0.3217E-01
     -9.495  0.8501E-02  0.3297E-01
     -9.401  0.9195E-02  0.3384E-01
     -9.306  0.6109E-02  0.3442E-01
     -9.212  0.1030E-01  0.3539E-01
     -9.118  0.5738E-02  0.3593E-01
     -9.023  0.8833E-03  0.3601E-01
     -8.929  0.1758E-02  0.3618E-01
     -8.835  0.5529E-02  0.3670E-01
     -8.740  0.1025E-01  0.3767E-01
     -8.646  0.1567E-01  0.3915E-01
     -8.552  0.1897E-01  0.4094E-01
     -8.457  0.1524E-01  0.4237E-01
     -8.363  0.1328E-01  0.4363E-01
     -8.269  0.1323E-01  0.4487E-01
     -8.174  0.2518E-01  0.4725E-01
     -8.080  0.4070E-01  0.5109E-01
     -7.986  0.5258E-01  0.5605E-01
     -7.891  0.6991E-01  0.6264E-01
     -7.797  0.9586E-01  0.7168E-01
     -7.703  0.1124E+00  0.8229E-01
     -7.608  0.1013E+00  0.9184E-01
     -7.514  0.9500E-01  0.1008E+00
     -7.420  0.1014E+00  0.1104E+00
     -7.325  0.1159E+00  0.1213E+00
     -7.231  0.1315E+00  0.1337E+00
     -7.137  0.1350E+00  0.1464E+00
     -7.042  0.1418E+00  0.1598E+00
     -6.948  0.1545E+00  0.1744E+00
     -6.854  0.1450E+00  0.1881E+00
     -6.759  0.1412E+00  0.2014E+00
     -6.665  0.1543E+00  0.2160E+00
     -6.571  0.1751E+00  0.2325E+00
     -6.476  0.1838E+00  0.2498E+00
     -6.382  0.1625E+00  0.2651E+00
     -6.288  0.1380E+00  0.2782E+00
     -6.193  0.1257E+00  0.2900E+00
     -6.099  0.1317E+00  0.3024E+00
     -6.005  0.1450E+00  0.3161E+00
     -5.910  0.1642E+00  0.3316E+00
     -5.816  0.1862E+00  0.3492E+00
     -5.722  0.1799E+00  0.3661E+00
     -5.627  0.1594E+00  0.3812E+00
     -5.533  0.1669E+00  0.3969E+00
     -5.439  0.1821E+00  0.4141E+00
     -5.344  0.1770E+00  0.4308E+00
     -5.250  0.1671E+00  0.4466E+00
     -5.156  0.1679E+00  0.4624E+00
     -5.061  0.1767E+00  0.4791E+00
     -4.967  0.1729E+00  0.4954E+00
     -4.873  0.1676E+00  0.5112E+00
     -4.778  0.1800E+00  0.5282E+00
     -4.684  0.1854E+00  0.5457E+00
     -4.590  0.1765E+00  0.5623E+00
     -4.496  0.1904E+00  0.5803E+00
     -4.401  0.2045E+00  0.5996E+00
     -4.307  0.2115E+00  0.6195E+00
     -4.213  0.2214E+00  0.6404E+00
     -4.118  0.2239E+00  0.6615E+00
     -4.024  0.2193E+00  0.6822E+00
     -3.930  0.2105E+00  0.7021E+00
     -3.835  0.1995E+00  0.7209E+00
     -3.741  0.1862E+00  0.7384E+00
     -3.647  0.1873E+00  0.7561E+00
     -3.552  0.2007E+00  0.7751E+00
     -3.458  0.2053E+00  0.7944E+00
     -3.364  0.1978E+00  0.8131E+00
     -3.269  0.1857E+00  0.8306E+00
     -3.175  0.1699E+00  0.8466E+00
     -3.081  0.1544E+00  0.8612E+00
     -2.986  0.1530E+00  0.8756E+00
     -2.892  0.1568E+00  0.8904E+00
     -2.798  0.1538E+00  0.9049E+00
     -2.703  0.1575E+00  0.9198E+00
     -2.609  0.1641E+00  0.9353E+00
     -2.515  0.1557E+00  0.9499E+00
     -2.420  0.1533E+00  0.9644E+00
     -2.326  0.1644E+00  0.9799E+00
     -2.232  0.1686E+00  0.9958E+00
     -2.137  0.1670E+00  0.1012E+01
     -2.043  0.1558E+00  0.1026E+01
     -1.949  0.1413E+00  0.1040E+01
     -1.854  0.1285E+00  0.1052E+01
     -1.760  0.1157E+00  0.1063E+01
     -1.666  0.1096E+00  0.1073E+01
     -1.571  0.9779E-01  0.1082E+01
     -1.477  0.8579E-01  0.1090E+01
     -1.383  0.7294E-01  0.1097E+01
     -1.288  0.6116E-01  0.1103E+01
     -1.194  0.5457E-01  0.1108E+01
     -1.100  0.6134E-01  0.1114E+01
     -1.005  0.8043E-01  0.1121E+01
     -0.911  0.8267E-01  0.1129E+01
     -0.817  0.8000E-01  0.1137E+01
     -0.722  0.8077E-01  0.1144E+01
     -0.628  0.7139E-01  0.1151E+01
     -0.534  0.5841E-01  0.1157E+01
     -0.439  0.4414E-01  0.1161E+01
     -0.345  0.3112E-01  0.1164E+01
     -0.251  0.1934E-01  0.1166E+01
     -0.156  0.1845E-01  0.1167E+01
     -0.062  0.2358E-01  0.1170E+01
      0.032  0.3026E-01  0.1172E+01
      0.127  0.3899E-01  0.1176E+01
      0.221  0.4065E-01  0.1180E+01
      0.315  0.4224E-01  0.1184E+01
      0.410  0.3604E-01  0.1187E+01
      0.504  0.3295E-01  0.1190E+01
      0.598  0.3284E-01  0.1194E+01
      0.693  0.2426E-01  0.1196E+01
      0.787  0.1706E-01  0.1197E+01
      0.881  0.1602E-01  0.1199E+01
      0.976  0.1452E-01  0.1200E+01
      1.070  0.1688E-01  0.1202E+01
      1.164  0.2490E-01  0.1204E+01
      1.259  0.2833E-01  0.1207E+01
      1.353  0.2629E-01  0.1209E+01
      1.447  0.2707E-01  0.1212E+01
      1.542  0.3912E-01  0.1216E+01
      1.636  0.4582E-01  0.1220E+01
      1.730  0.4011E-01  0.1224E+01
      1.825  0.3321E-01  0.1227E+01
      1.919  0.3053E-01  0.1230E+01
      2.013  0.2739E-01  0.1232E+01
      2.108  0.2612E-01  0.1235E+01
      2.202  0.1966E-01  0.1237E+01
      2.296  0.1545E-01  0.1238E+01
      2.391  0.1078E-01  0.1239E+01
      2.485  0.5473E-02  0.1240E+01
      2.579  0.1169E-01  0.1241E+01
      2.674  0.2279E-01  0.1243E+01
      2.768  0.2738E-01  0.1245E+01
      2.862  0.3061E-01  0.1248E+01
      2.957  0.3837E-01  0.1252E+01
      3.051  0.4006E-01  0.1256E+01
      3.145  0.3070E-01  0.1259E+01
      3.240  0.2316E-01  0.1261E+01
      3.334  0.2238E-01  0.1263E+01
      3.428  0.2546E-01  0.1265E+01
      3.523  0.2898E-01  0.1268E+01
      3.617  0.3033E-01  0.1271E+01
      3.711  0.3484E-01  0.1274E+01
      3.806  0.4057E-01  0.1278E+01
      3.900  0.4279E-01  0.1282E+01
      3.994  0.4856E-01  0.1287E+01
      4.089  0.5102E-01  0.1291E+01
      4.183  0.4195E-01  0.1295E+01
      4.277  0.3080E-01  0.1298E+01
      4.372  0.3242E-01  0.1301E+01
      4.466  0.4259E-01  0.1305E+01
      4.560  0.5095E-01  0.1310E+01
      4.655  0.5177E-01  0.1315E+01
      4.749  0.6047E-01  0.1321E+01
      4.843  0.6392E-01  0.1327E+01
      4.938  0.5740E-01  0.1332E+01
      5.032  0.5396E-01  0.1337E+01
      5.126  0.4591E-01  0.1342E+01
      5.221  0.2076E-01  0.1344E+01
      5.315  0.3633E-02  0.1344E+01
      5.409  0.1925E-03  0.1344E+01
      5.504  0.2412E-05  0.1344E+01
      5.598  0.6079E-08  0.1344E+01
      5.692  0.2849E-11  0.1344E+01
      5.787  0.2385E-15  0.1344E+01
      5.881  0.0000E+00  0.1344E+01
      5.975  0.0000E+00  0.1344E+01
      6.070  0.0000E+00  0.1344E+01
      6.164  0.0000E+00  0.1344E+01
      6.258  0.0000E+00  0.1344E+01
      6.353  0.0000E+00  0.1344E+01
      6.447  0.0000E+00  0.1344E+01
