unknown system                          
           1
    11.002582    0.000000    0.000000
     5.501291    9.528515    0.000000
     0.000000    0.000000   26.191785
   Au   O    Pd
  24   8  24
Direct configuration=     1
   0.08333333  0.08333333  0.38179910
   0.33333333  0.83333333  0.38179910
   0.08333333  0.83333333  0.38179910
   0.91666667  0.16666667  0.46754708
   0.66666667  0.91666667  0.46754708
   0.83333333  0.83333333  0.38179910
   0.83333333  0.58333333  0.38179910
   0.91666667  0.41666667  0.46754708
   0.83333333  0.33333333  0.38179910
   0.08333333  0.58333333  0.38179910
   0.91666667  0.66666667  0.46754708
   0.83333333  0.08333333  0.38179910
   0.66666667  0.16666667  0.46754708
   0.41666667  0.91666667  0.46754708
   0.58333333  0.83333333  0.38179910
   0.33333333  0.08333333  0.38179910
   0.41666667  0.66666667  0.46754708
   0.58333333  0.58333333  0.38179910
   0.33333333  0.33333333  0.38179910
   0.58333333  0.33333333  0.38179910
   0.58333333  0.08333333  0.38179910
   0.33333333  0.58333333  0.38179910
   0.16666667  0.66666667  0.46754708
   0.16666667  0.91666667  0.46754708
   0.33333333  0.33333333  0.61820090
   0.08333333  0.83333333  0.61820090
   0.33333333  0.58333333  0.61820090
   0.33333333  0.83333333  0.61820090
   0.58333333  0.33333333  0.61820090
   0.83333333  0.33333333  0.61820090
   0.58333333  0.58333333  0.61820090
   0.83333333  0.08333333  0.61820090
   0.50000000  0.25000000  0.55329505
   0.25000000  0.25000000  0.55329505
   0.41666667  0.41666667  0.46754708
   0.16666667  0.16666667  0.46754708
   0.50000000  0.00000000  0.55329505
   0.41666667  0.16666667  0.46754708
   0.75000000  0.75000000  0.55329505
   0.25000000  0.75000000  0.55329505
   0.50000000  0.50000000  0.55329505
   0.50000000  0.75000000  0.55329505
   0.00000000  0.75000000  0.55329505
   0.91666667  0.91666667  0.46754708
   0.75000000  0.00000000  0.55329505
   0.00000000  0.50000000  0.55329505
   0.66666667  0.41666667  0.46754708
   0.75000000  0.25000000  0.55329505
   0.00000000  0.25000000  0.55329505
   0.08333333  0.33333333  0.38179910
   0.66666667  0.66666667  0.46754708
   0.75000000  0.50000000  0.55329505
   0.00000000  0.00000000  0.55329505
   0.25000000  0.50000000  0.55329505
   0.16666667  0.41666667  0.46754708
   0.25000000  0.00000000  0.55329505
Direct configuration=     2
   0.08333333  0.08333333  0.38179910
   0.33333333  0.83333333  0.38179910
   0.08333333  0.83333333  0.38179910
   0.91656447  0.16662557  0.46891374
   0.66676620  0.91677105  0.46912266
   0.83333333  0.83333333  0.38179910
   0.83333333  0.58333333  0.38179910
   0.91726078  0.41653270  0.46849374
   0.83333333  0.33333333  0.38179910
   0.08333333  0.58333333  0.38179910
   0.91689694  0.66658593  0.46908088
   0.83333333  0.08333333  0.38179910
   0.66542939  0.16797163  0.46893157
   0.41692043  0.91746194  0.46888580
   0.58333333  0.83333333  0.38179910
   0.33333333  0.08333333  0.38179910
   0.41847123  0.66441547  0.46885830
   0.58333333  0.58333333  0.38179910
   0.33333333  0.33333333  0.38179910
   0.58333333  0.33333333  0.38179910
   0.58333333  0.08333333  0.38179910
   0.33333333  0.58333333  0.38179910
   0.16698952  0.66541167  0.46893816
   0.16552303  0.91754129  0.46896636
   0.33225097  0.33228499  0.61382904
   0.08194206  0.83326758  0.61408151
   0.33265581  0.58294822  0.61436746
   0.33388346  0.83517054  0.61401327
   0.58299542  0.33248195  0.61435990
   0.83529240  0.33386743  0.61395897
   0.58435014  0.58438202  0.61422177
   0.83321644  0.08195269  0.61413477
   0.49922639  0.25058811  0.55672583
   0.25041824  0.25038755  0.55516132
   0.41687484  0.41622315  0.46828908
   0.16699897  0.16786260  0.46906331
   0.50008496  0.00005623  0.55416789
   0.41564973  0.16805493  0.46846940
   0.75017035  0.75016438  0.55410211
   0.24947426  0.74989385  0.55791466
   0.49992563  0.49970938  0.55756974
   0.50030768  0.74987978  0.55704844
  -0.00024579  0.75097924  0.55577842
   0.91659195  0.91655909  0.46813040
   0.75093191 -0.00015950  0.55576174
   0.00003326  0.50006733  0.55418659
   0.66563185  0.41719765  0.46849158
   0.74994156  0.24967884  0.55758719
  -0.00025059  0.25069017  0.55553084
   0.08333333  0.33333333  0.38179910
   0.66663691  0.66598041  0.46877842
   0.74994200  0.50001955  0.55684708
  -0.00084839 -0.00085893  0.55704274
   0.25044454  0.49911162  0.55669823
   0.16770003  0.41556485  0.46828945
   0.25056016  0.00001127  0.55550187
Direct configuration=     3
   0.08333333  0.08333333  0.38179910
   0.33333333  0.83333333  0.38179910
   0.08333333  0.83333333  0.38179910
   0.91625789  0.16650228  0.47301372
   0.66706479  0.91708419  0.47384941
   0.83333333  0.83333333  0.38179910
   0.83333333  0.58333333  0.38179910
   0.91904312  0.41613080  0.47133373
   0.83333333  0.33333333  0.38179910
   0.08333333  0.58333333  0.38179910
   0.91758776  0.66634370  0.47368230
   0.83333333  0.08333333  0.38179910
   0.66171754  0.17188651  0.47308507
   0.41768173  0.91984774  0.47290196
   0.58333333  0.83333333  0.38179910
   0.33333333  0.08333333  0.38179910
   0.42388492  0.65766187  0.47279197
   0.58333333  0.58333333  0.38179910
   0.33333333  0.33333333  0.38179910
   0.58333333  0.33333333  0.38179910
   0.58333333  0.08333333  0.38179910
   0.33333333  0.58333333  0.38179910
   0.16795809  0.66164667  0.47311142
   0.16209212  0.92016517  0.47322420
   0.32900386  0.32913997  0.60071347
   0.07776826  0.83307030  0.60172335
   0.33062325  0.58179286  0.60286712
   0.33553382  0.84068214  0.60145037
   0.58198168  0.32992780  0.60283690
   0.84116959  0.33546972  0.60123317
   0.58740056  0.58752808  0.60228440
   0.83286576  0.07781077  0.60193637
   0.49690555  0.25235245  0.56701817
   0.25167297  0.25155018  0.56076013
   0.41749937  0.41489260  0.47051507
   0.16799586  0.17145042  0.47361200
   0.50033983  0.00022494  0.55678642
   0.41259892  0.17221972  0.47123638
   0.75068139  0.75065750  0.55652327
   0.24789705  0.74957539  0.57177347
   0.49970253  0.49883751  0.57039379
   0.50123073  0.74951911  0.56830860
  -0.00098317  0.75391696  0.56322851
   0.91636780  0.91623634  0.46988037
   0.75372764 -0.00063801  0.56316181
   0.00013304  0.50026932  0.55686120
   0.66252740  0.41879061  0.47132511
   0.74976622  0.24871537  0.57046360
  -0.00100235  0.25276067  0.56223821
   0.08333333  0.33333333  0.38179910
   0.66654762  0.66392164  0.47247244
   0.74976798  0.50007820  0.56750317
  -0.00339356 -0.00343570  0.56828580
   0.25177815  0.49644650  0.56690778
   0.17080013  0.41225940  0.47051659
   0.25224063  0.00004509  0.56212231
Direct configuration=     4
   0.08333333  0.08333333  0.38179910
   0.33333333  0.83333333  0.38179910
   0.08333333  0.83333333  0.38179910
   0.91645246  0.16658052  0.47041175
   0.66687530  0.91688546  0.47084967
   0.83333333  0.83333333  0.38179910
   0.83333333  0.58333333  0.38179910
   0.91791199  0.41638586  0.46953138
   0.83333333  0.33333333  0.38179910
   0.08333333  0.58333333  0.38179910
   0.91714935  0.66649742  0.47076210
   0.83333333  0.08333333  0.38179910
   0.66407319  0.16940201  0.47044913
   0.41719859  0.91833364  0.47035318
   0.58333333  0.83333333  0.38179910
   0.33333333  0.08333333  0.38179910
   0.42044923  0.66194791  0.47029554
   0.58333333  0.58333333  0.38179910
   0.33333333  0.33333333  0.38179910
   0.58333333  0.33333333  0.38179910
   0.58333333  0.08333333  0.38179910
   0.33333333  0.58333333  0.38179910
   0.16734341  0.66403605  0.47046294
   0.16426948  0.91849998  0.47052205
   0.33106457  0.33113589  0.60903701
   0.08041708  0.83319550  0.60956621
   0.33191318  0.58252608  0.61016558
   0.33448645  0.83718431  0.60942316
   0.58262503  0.33154874  0.61014974
   0.83743975  0.33445286  0.60930934
   0.58546467  0.58553149  0.60986022
   0.83308831  0.08043936  0.60967784
   0.49837843  0.25123275  0.56048634
   0.25087668  0.25081234  0.55720696
   0.41710303  0.41573701  0.46910239
   0.16736320  0.16917348  0.47072526
   0.50017808  0.00011787  0.55512462
   0.41453506  0.16957662  0.46948037
   0.75035707  0.75034455  0.55498673
   0.24889800  0.74977749  0.56297825
   0.49984412  0.49939082  0.56225526
   0.50064494  0.74974800  0.56116256
  -0.00051521  0.75205260  0.55850046
   0.91651005  0.91644117  0.46876979
   0.75195338 -0.00033433  0.55846550
   0.00006972  0.50014113  0.55516381
   0.66449758  0.41777967  0.46952687
   0.74987749  0.24932682  0.56229184
  -0.00052526  0.25144667  0.55798151
   0.08333333  0.33333333  0.38179910
   0.66660428  0.66522820  0.47012810
   0.74987842  0.50004098  0.56074049
  -0.00177832 -0.00180040  0.56115061
   0.25093180  0.49813787  0.56042849
   0.16883272  0.41435714  0.46910318
   0.25117415  0.00002363  0.55792078
Direct configuration=     5
   0.08333333  0.08333333  0.38179910
   0.33333333  0.83333333  0.38179910
   0.08333333  0.83333333  0.38179910
   0.91638319  0.16655267  0.47133797
   0.66694275  0.91695620  0.47191749
   0.83333333  0.83333333  0.38179910
   0.83333333  0.58333333  0.38179910
   0.91831464  0.41629507  0.47017296
   0.83333333  0.33333333  0.38179910
   0.08333333  0.58333333  0.38179910
   0.91730541  0.66644270  0.47180161
   0.83333333  0.08333333  0.38179910
   0.66323465  0.17028641  0.47138745
   0.41737057  0.91887261  0.47126047
   0.58333333  0.83333333  0.38179910
   0.33333333  0.08333333  0.38179910
   0.42167224  0.66042221  0.47118420
   0.58333333  0.58333333  0.38179910
   0.33333333  0.33333333  0.38179910
   0.58333333  0.33333333  0.38179910
   0.58333333  0.08333333  0.38179910
   0.33333333  0.58333333  0.38179910
   0.16756222  0.66318550  0.47140572
   0.16349440  0.91909274  0.47148393
   0.33033102  0.33042540  0.60607407
   0.07947418  0.83315093  0.60677438
   0.33145400  0.58226508  0.60756755
   0.33485928  0.83842944  0.60658508
   0.58239602  0.33097173  0.60754658
   0.83876746  0.33481483  0.60643446
   0.58615379  0.58624222  0.60716345
   0.83300909  0.07950366  0.60692210
   0.49785413  0.25163133  0.56281148
   0.25116014  0.25107499  0.55847178
   0.41724411  0.41543642  0.46960526
   0.16758841  0.16998401  0.47175286
   0.50023566  0.00015599  0.55571618
   0.41384585  0.17051749  0.47010546
   0.75047252  0.75045595  0.55553369
   0.24854169  0.74970555  0.56610909
   0.49979372  0.49919386  0.56515234
   0.50085346  0.74966652  0.56370634
  -0.00068179  0.75271625  0.56018350
   0.91645941  0.91636825  0.46916512
   0.75258497 -0.00044243  0.56013725
   0.00009226  0.50018676  0.55576803
   0.66379625  0.41813953  0.47016699
   0.74983789  0.24910916  0.56520075
  -0.00069509  0.25191441  0.55949677
   0.08333333  0.33333333  0.38179910
   0.66658411  0.66476310  0.47096262
   0.74983911  0.50005423  0.56314781
  -0.00235329 -0.00238252  0.56369053
   0.25123307  0.49753579  0.56273493
   0.16953306  0.41361041  0.46960631
   0.25155379  0.00003127  0.55941640
Direct configuration=     6
   0.08333333  0.08333333  0.38179910
   0.33333333  0.83333333  0.38179910
   0.08333333  0.83333333  0.38179910
   0.91640343  0.16656081  0.47106734
   0.66692304  0.91693553  0.47160548
   0.83333333  0.83333333  0.38179910
   0.83333333  0.58333333  0.38179910
   0.91819699  0.41632160  0.46998550
   0.83333333  0.33333333  0.38179910
   0.08333333  0.58333333  0.38179910
   0.91725981  0.66645869  0.47149787
   0.83333333  0.08333333  0.38179910
   0.66347966  0.17002800  0.47111328
   0.41732032  0.91871513  0.47099537
   0.58333333  0.83333333  0.38179910
   0.33333333  0.08333333  0.38179910
   0.42131488  0.66086800  0.47092454
   0.58333333  0.58333333  0.38179910
   0.33333333  0.33333333  0.38179910
   0.58333333  0.33333333  0.38179910
   0.58333333  0.08333333  0.38179910
   0.33333333  0.58333333  0.38179910
   0.16749828  0.66343402  0.47113025
   0.16372087  0.91891954  0.47120288
   0.33054536  0.33063300  0.60693982
   0.07974969  0.83316395  0.60759013
   0.33158817  0.58234134  0.60832667
   0.33475034  0.83806562  0.60741434
   0.58246293  0.33114033  0.60830720
   0.83837951  0.33470906  0.60727448
   0.58595243  0.58603455  0.60795142
   0.83303224  0.07977706  0.60772731
   0.49800732  0.25151487  0.56213210
   0.25107732  0.25099824  0.55810221
   0.41720289  0.41552425  0.46945833
   0.16752261  0.16974718  0.47145260
   0.50021884  0.00014485  0.55554333
   0.41404723  0.17024257  0.46992281
   0.75043878  0.75042340  0.55537387
   0.24864580  0.74972657  0.56519428
   0.49980844  0.49925141  0.56430583
   0.50079253  0.74969033  0.56296307
  -0.00063312  0.75252234  0.55969173
   0.91647421  0.91638956  0.46904961
   0.75240042 -0.00041085  0.55964878
   0.00008567  0.50017343  0.55559149
   0.66400117  0.41803439  0.46997995
   0.74984946  0.24917276  0.56435079
  -0.00064547  0.25177774  0.55905403
   0.08333333  0.33333333  0.38179910
   0.66659001  0.66489900  0.47071878
   0.74985059  0.50005036  0.56244441
  -0.00218529 -0.00221243  0.56294839
   0.25114504  0.49771171  0.56206101
   0.16932842  0.41382859  0.46945930
   0.25144286  0.00002903  0.55897939
Direct configuration=     7
   0.08333333  0.08333333  0.38179910
   0.33333333  0.83333333  0.38179910
   0.08333333  0.83333333  0.38179910
   0.91540021  0.16719417  0.47307460
   0.66719074  0.91786196  0.47260911
   0.83333333  0.83333333  0.38179910
   0.83333333  0.58333333  0.38179910
   0.91738363  0.41625003  0.47117456
   0.83333333  0.33333333  0.38179910
   0.08333333  0.58333333  0.38179910
   0.91782592  0.66654833  0.47255367
   0.83333333  0.08333333  0.38179910
   0.66310418  0.17054228  0.47309736
   0.41689441  0.91767338  0.47225205
   0.58333333  0.83333333  0.38179910
   0.33333333  0.08333333  0.38179910
   0.42013650  0.66197636  0.47319996
   0.58333333  0.58333333  0.38179910
   0.33333333  0.33333333  0.38179910
   0.58333333  0.33333333  0.38179910
   0.58333333  0.08333333  0.38179910
   0.33333333  0.58333333  0.38179910
   0.16872839  0.66292823  0.47315208
   0.16473698  0.91773646  0.47327149
   0.32792041  0.32801277  0.60593477
   0.07657445  0.83264636  0.60736195
   0.32957685  0.58154985  0.60796795
   0.33425393  0.84353154  0.60681242
   0.58228410  0.32893662  0.60775560
   0.84382465  0.33411894  0.60651017
   0.58821118  0.58765671  0.60753772
   0.83229133  0.07704075  0.60726771
   0.50154647  0.24510253  0.56306496
   0.24852342  0.24845265  0.55889171
   0.41677205  0.41542129  0.47096487
   0.16751376  0.16976879  0.47332102
   0.50123729  0.00035704  0.55704143
   0.41429527  0.17094904  0.47100983
   0.75082257  0.75074967  0.55693325
   0.24862177  0.74967992  0.56544310
   0.49950838  0.49905651  0.56447598
   0.50411356  0.75275877  0.56356058
  -0.00329751  0.74869701  0.56059777
   0.91619311  0.91669353  0.47035750
   0.74860585 -0.00285842  0.56058033
   0.00011333  0.50098372  0.55691296
   0.66520395  0.41708833  0.47173325
   0.74964231  0.24876119  0.56487718
   0.00445957  0.24952909  0.55978641
   0.08333333  0.33333333  0.38179910
   0.66638951  0.66430724  0.47223186
   0.75250310  0.50355684  0.56304363
   0.00138518  0.00166533  0.56373654
   0.24495092  0.50129124  0.56300985
   0.16997494  0.41396044  0.47047888
   0.24906375  0.00513254  0.55976202
Direct configuration=     8
   0.08333333  0.08333333  0.38179910
   0.33333333  0.83333333  0.38179910
   0.08333333  0.83333333  0.38179910
   0.91426488  0.16791093  0.47534617
   0.66749368  0.91891038  0.47374489
   0.83333333  0.83333333  0.38179910
   0.83333333  0.58333333  0.38179910
   0.91646317  0.41616905  0.47252019
   0.83333333  0.33333333  0.38179910
   0.08333333  0.58333333  0.38179910
   0.91846657  0.66664976  0.47374850
   0.83333333  0.08333333  0.38179910
   0.66267926  0.17112428  0.47534268
   0.41641243  0.91649447  0.47367420
   0.58333333  0.83333333  0.38179910
   0.33333333  0.08333333  0.38179910
   0.41880295  0.66323066  0.47577499
   0.58333333  0.58333333  0.38179910
   0.33333333  0.33333333  0.38179910
   0.58333333  0.33333333  0.38179910
   0.58333333  0.08333333  0.38179910
   0.33333333  0.58333333  0.38179910
   0.17012047  0.66235585  0.47544013
   0.16588687  0.91639760  0.47561248
   0.32494982  0.32504751  0.60479738
   0.07298111  0.83206061  0.60710373
   0.32730069  0.58065414  0.60756200
   0.33369216  0.84971718  0.60613124
   0.58208171  0.32644274  0.60713136
   0.84998677  0.33345111  0.60564521
   0.59076735  0.58949247  0.60706955
   0.83145286  0.07394414  0.60674759
   0.50555162  0.23784586  0.56412066
   0.24563325  0.24557186  0.55978516
   0.41628447  0.41530478  0.47266979
   0.16750376  0.16979325  0.47543546
   0.50238984  0.00059716  0.55873679
   0.41457596  0.17174854  0.47223997
   0.75125688  0.75111891  0.55869796
   0.24859458  0.74962713  0.56572468
   0.49916881  0.49883595  0.56466853
   0.50787189  0.75623124  0.56423676
  -0.00631274  0.74436798  0.56162311
   0.91587499  0.91703754  0.47183760
   0.74431163 -0.00562828  0.56163453
   0.00014463  0.50190071  0.55840843
   0.66656509  0.41601770  0.47371741
   0.74940788  0.24829542  0.56547287
   0.01023681  0.24698436  0.56061524
   0.08333333  0.33333333  0.38179910
   0.66616260  0.66363755  0.47394418
   0.75550488  0.50752504  0.56372174
   0.00542579  0.00605370  0.56462848
   0.23794118  0.50534211  0.56408363
   0.17070658  0.41410966  0.47163272
   0.24637136  0.01090804  0.56064769
Direct configuration=     9
   0.08333333  0.08333333  0.38179910
   0.33333333  0.83333333  0.38179910
   0.08333333  0.83333333  0.38179910
   0.91483321  0.16717854  0.47619327
   0.66645815  0.91842416  0.47375631
   0.83333333  0.83333333  0.38179910
   0.83333333  0.58333333  0.38179910
   0.91695298  0.41645444  0.47321835
   0.83333333  0.33333333  0.38179910
   0.08333333  0.58333333  0.38179910
   0.91821686  0.66619331  0.47370262
   0.83333333  0.08333333  0.38179910
   0.66315744  0.17101330  0.47600300
   0.41704309  0.91683648  0.47438987
   0.58333333  0.83333333  0.38179910
   0.33333333  0.08333333  0.38179910
   0.41961047  0.66255777  0.47704392
   0.58333333  0.58333333  0.38179910
   0.33333333  0.33333333  0.38179910
   0.58333333  0.33333333  0.38179910
   0.58333333  0.08333333  0.38179910
   0.33333333  0.58333333  0.38179910
   0.16951290  0.66316645  0.47615360
   0.16529615  0.91669588  0.47643556
   0.32401608  0.32414954  0.60511504
   0.06982960  0.83229291  0.60669632
   0.32642516  0.58080470  0.60882121
   0.33359637  0.85264989  0.60664381
   0.58134734  0.32629785  0.60848961
   0.85253038  0.33353338  0.60621519
   0.59146851  0.59051036  0.60820352
   0.83217787  0.07022318  0.60664643
   0.50196288  0.23655453  0.56477439
   0.24496214  0.24496811  0.56001716
   0.41662820  0.41557069  0.47396294
   0.16734724  0.16933903  0.47497441
   0.50158364  0.00018354  0.56024003
   0.41456521  0.17080314  0.47297172
   0.75161256  0.75171079  0.56043266
   0.24841647  0.75215444  0.56636002
   0.49972300  0.49862511  0.56421974
   0.50781341  0.75949043  0.56471380
  -0.00864432  0.74690362  0.56335760
   0.91651465  0.91726689  0.47307084
   0.74669760 -0.00839088  0.56329701
  -0.00015582  0.50098051  0.55983528
   0.66583214  0.41664995  0.47492902
   0.75235433  0.24905020  0.56557419
   0.01166661  0.24778961  0.56111831
   0.08333333  0.33333333  0.38179910
   0.66627385  0.66424471  0.47457561
   0.75905148  0.50701675  0.56389983
   0.00485775  0.00510134  0.56662514
   0.23662293  0.50186736  0.56476778
   0.17002059  0.41420797  0.47237262
   0.24737483  0.01210519  0.56140411
Direct configuration=    10
   0.08333333  0.08333333  0.38179910
   0.33333333  0.83333333  0.38179910
   0.08333333  0.83333333  0.38179910
   0.91490887  0.16708103  0.47630605
   0.66632028  0.91835942  0.47375783
   0.83333333  0.83333333  0.38179910
   0.83333333  0.58333333  0.38179910
   0.91701820  0.41649244  0.47331130
   0.83333333  0.33333333  0.38179910
   0.08333333  0.58333333  0.38179910
   0.91818362  0.66613254  0.47369651
   0.83333333  0.08333333  0.38179910
   0.66322111  0.17099852  0.47609091
   0.41712705  0.91688201  0.47448515
   0.58333333  0.83333333  0.38179910
   0.33333333  0.08333333  0.38179910
   0.41971798  0.66246818  0.47721287
   0.58333333  0.58333333  0.38179910
   0.33333333  0.33333333  0.38179910
   0.58333333  0.33333333  0.38179910
   0.58333333  0.08333333  0.38179910
   0.33333333  0.58333333  0.38179910
   0.16943201  0.66327437  0.47624859
   0.16521750  0.91673560  0.47654514
   0.32389176  0.32402998  0.60515733
   0.06941002  0.83232383  0.60664208
   0.32630859  0.58082475  0.60898886
   0.33358361  0.85304035  0.60671206
   0.58124957  0.32627856  0.60867045
   0.85286903  0.33354434  0.60629108
   0.59156186  0.59064589  0.60835449
   0.83227440  0.06972778  0.60663296
   0.50148508  0.23638260  0.56486142
   0.24487279  0.24488772  0.56004805
   0.41667396  0.41560609  0.47413510
   0.16732640  0.16927856  0.47491302
   0.50147630  0.00012847  0.56044017
   0.41456378  0.17067727  0.47306914
   0.75165991  0.75178959  0.56066361
   0.24839276  0.75249092  0.56644461
   0.49979678  0.49859704  0.56415999
   0.50780562  0.75992436  0.56477731
  -0.00895475  0.74724121  0.56358853
   0.91659981  0.91729743  0.47323503
   0.74701526 -0.00875869  0.56351835
  -0.00019582  0.50085799  0.56002525
   0.66573456  0.41673413  0.47509033
   0.75274662  0.24915069  0.56558768
   0.01185697  0.24789682  0.56118529
   0.08333333  0.33333333  0.38179910
   0.66628866  0.66432554  0.47465968
   0.75952367  0.50694908  0.56392354
   0.00478212  0.00497455  0.56689097
   0.23644741  0.50140473  0.56485887
   0.16992926  0.41422106  0.47247113
   0.24750843  0.01226458  0.56150481
Direct configuration=    11
   0.08333333  0.08333333  0.38179910
   0.33333333  0.83333333  0.38179910
   0.08333333  0.83333333  0.38179910
   0.91581435  0.16656587  0.47660151
   0.66596995  0.91765712  0.47402367
   0.83333333  0.83333333  0.38179910
   0.83333333  0.58333333  0.38179910
   0.91758712  0.41651974  0.47351885
   0.83333333  0.33333333  0.38179910
   0.08333333  0.58333333  0.38179910
   0.91763429  0.66615009  0.47393640
   0.83333333  0.08333333  0.38179910
   0.66357616  0.17028102  0.47667078
   0.41727051  0.91748197  0.47479474
   0.58333333  0.83333333  0.38179910
   0.33333333  0.08333333  0.38179910
   0.42037403  0.66236941  0.47782032
   0.58333333  0.58333333  0.38179910
   0.33333333  0.33333333  0.38179910
   0.58333333  0.33333333  0.38179910
   0.58333333  0.08333333  0.38179910
   0.33333333  0.58333333  0.38179910
   0.16840342  0.66387560  0.47683547
   0.16496639  0.91734727  0.47690298
   0.32305727  0.32325023  0.60670151
   0.06935088  0.83155102  0.60766178
   0.32603722  0.58071519  0.60919519
   0.33445091  0.85402862  0.60806686
   0.58116587  0.32594876  0.60880215
   0.85398981  0.33445063  0.60758515
   0.59238280  0.59145640  0.60865300
   0.83131519  0.06971341  0.60761424
   0.50055588  0.23783423  0.56582227
   0.24519639  0.24520222  0.55999322
   0.41672571  0.41558890  0.47509446
   0.16718857  0.16862671  0.47382093
   0.50140564 -0.00044721  0.56183543
   0.41456348  0.16972168  0.47347890
   0.75202787  0.75206543  0.56209484
   0.24883462  0.75274004  0.56773557
   0.49993645  0.49839034  0.56522070
   0.50783298  0.75934919  0.56586857
  -0.01052395  0.74762066  0.56453823
   0.91671711  0.91723320  0.47425716
   0.74765517 -0.01030510  0.56454280
  -0.00063713  0.50091329  0.56135951
   0.66538417  0.41739257  0.47580930
   0.75285934  0.24966508  0.56673374
   0.01184291  0.24813167  0.56151209
   0.08333333  0.33333333  0.38179910
   0.66669942  0.66507567  0.47507571
   0.75902110  0.50680094  0.56477589
   0.00503129  0.00486487  0.56807925
   0.23766576  0.50034083  0.56581795
   0.16915502  0.41443969  0.47290343
   0.24782575  0.01242307  0.56188695
Direct configuration=    12
   0.08333333  0.08333333  0.38179910
   0.33333333  0.83333333  0.38179910
   0.08333333  0.83333333  0.38179910
   0.91718229  0.16578759  0.47704787
   0.66544070  0.91659611  0.47442529
   0.83333333  0.83333333  0.38179910
   0.83333333  0.58333333  0.38179910
   0.91844661  0.41656098  0.47383240
   0.83333333  0.33333333  0.38179910
   0.08333333  0.58333333  0.38179910
   0.91680438  0.66617661  0.47429882
   0.83333333  0.08333333  0.38179910
   0.66411256  0.16919705  0.47754681
   0.41748724  0.91838835  0.47526245
   0.58333333  0.83333333  0.38179910
   0.33333333  0.08333333  0.38179910
   0.42136515  0.66222018  0.47873802
   0.58333333  0.58333333  0.38179910
   0.33333333  0.33333333  0.38179910
   0.58333333  0.33333333  0.38179910
   0.58333333  0.08333333  0.38179910
   0.33333333  0.58333333  0.38179910
   0.16684948  0.66478392  0.47772209
   0.16458703  0.91827135  0.47744358
   0.32179656  0.32207222  0.60903437
   0.06926154  0.83038349  0.60920229
   0.32562726  0.58054968  0.60950690
   0.33576117  0.85552165  0.61011362
   0.58103943  0.32545051  0.60900112
   0.85568302  0.33581980  0.60954016
   0.59362302  0.59268089  0.60910397
   0.82986607  0.06969170  0.60909672
   0.49915211  0.24002727  0.56727388
   0.24568526  0.24567735  0.55991040
   0.41680388  0.41556292  0.47654380
   0.16698035  0.16764194  0.47217105
   0.50129890 -0.00131691  0.56394331
   0.41456304  0.16827803  0.47409795
   0.75258376  0.75248217  0.56425706
   0.24950216  0.75311641  0.56968587
   0.50014746  0.49807807  0.56682318
   0.50787431  0.75848026  0.56751719
  -0.01289462  0.74819392  0.56597298
   0.91689432  0.91713616  0.47580135
   0.74862191 -0.01264134  0.56609048
  -0.00130385  0.50099683  0.56337524
   0.66485483  0.41838731  0.47689547
   0.75302964  0.25044218  0.56846515
   0.01182166  0.24848647  0.56200580
   0.08333333  0.33333333  0.38179910
   0.66731997  0.66620893  0.47570423
   0.75826186  0.50657713  0.56606359
   0.00540773  0.00469918  0.56987445
   0.23950638  0.49873354  0.56726689
   0.16798532  0.41477000  0.47355652
   0.24830514  0.01266251  0.56246426
Direct configuration=    13
   0.08333333  0.08333333  0.38179910
   0.33333333  0.83333333  0.38179910
   0.08333333  0.83333333  0.38179910
   0.91651918  0.16635435  0.47740753
   0.66586113  0.91652581  0.47525145
   0.83333333  0.83333333  0.38179910
   0.83333333  0.58333333  0.38179910
   0.91825770  0.41651998  0.47415645
   0.83333333  0.33333333  0.38179910
   0.08333333  0.58333333  0.38179910
   0.91652708  0.66638518  0.47508490
   0.83333333  0.08333333  0.38179910
   0.66423847  0.16880269  0.47834189
   0.41721821  0.91815170  0.47572188
   0.58333333  0.83333333  0.38179910
   0.33333333  0.08333333  0.38179910
   0.42078894  0.66303211  0.47922314
   0.58333333  0.58333333  0.38179910
   0.33333333  0.33333333  0.38179910
   0.58333333  0.33333333  0.38179910
   0.58333333  0.08333333  0.38179910
   0.33333333  0.58333333  0.38179910
   0.16687063  0.66482577  0.47854512
   0.16542479  0.91747443  0.47788428
   0.32063643  0.32089151  0.61059105
   0.06990413  0.82938462  0.61057696
   0.32611055  0.58022837  0.61039877
   0.33590083  0.85695393  0.61155674
   0.58149147  0.32546888  0.60997211
   0.85724185  0.33601016  0.61082476
   0.59408039  0.59215781  0.61049476
   0.82895505  0.07076764  0.61034279
   0.49884003  0.23933936  0.56782784
   0.24642588  0.24647493  0.56001387
   0.41642343  0.41537853  0.47714253
   0.16694291  0.16767111  0.47186861
   0.50166407 -0.00115136  0.56506531
   0.41486536  0.16821703  0.47444953
   0.75183207  0.75170475  0.56528738
   0.24914969  0.75409528  0.57087007
   0.50016540  0.49895745  0.56777026
   0.50725280  0.75924179  0.56796172
  -0.01173302  0.74699304  0.56685410
   0.91640126  0.91702300  0.47663451
   0.74729861 -0.01170917  0.56689651
  -0.00130270  0.50128030  0.56440007
   0.66565355  0.41795556  0.47738967
   0.75415950  0.24956948  0.56970485
   0.01086324  0.24859633  0.56231217
   0.08333333  0.33333333  0.38179910
   0.66758208  0.66627724  0.47631782
   0.75858177  0.50626263  0.56646557
   0.00562455  0.00520879  0.57100339
   0.23906378  0.49869661  0.56794314
   0.16789057  0.41503184  0.47388783
   0.24847110  0.01165854  0.56281936
Direct configuration=    14
   0.08333333  0.08333333  0.38179910
   0.33333333  0.83333333  0.38179910
   0.08333333  0.83333333  0.38179910
   0.91557295  0.16716310  0.47792076
   0.66646107  0.91642549  0.47643037
   0.83333333  0.83333333  0.38179910
   0.83333333  0.58333333  0.38179910
   0.91798812  0.41646147  0.47461886
   0.83333333  0.33333333  0.38179910
   0.08333333  0.58333333  0.38179910
   0.91613138  0.66668279  0.47620663
   0.83333333  0.08333333  0.38179910
   0.66441814  0.16823994  0.47947645
   0.41683432  0.91781401  0.47637747
   0.58333333  0.83333333  0.38179910
   0.33333333  0.08333333  0.38179910
   0.41996671  0.66419071  0.47991540
   0.58333333  0.58333333  0.38179910
   0.33333333  0.33333333  0.38179910
   0.58333333  0.33333333  0.38179910
   0.58333333  0.08333333  0.38179910
   0.33333333  0.58333333  0.38179910
   0.16690081  0.66488548  0.47971956
   0.16662025  0.91633725  0.47851316
   0.31898096  0.31920668  0.61281239
   0.07082108  0.82795926  0.61253858
   0.32680021  0.57976988  0.61167144
   0.33610013  0.85899775  0.61361605
   0.58213653  0.32549510  0.61135768
   0.85946625  0.33628180  0.61265785
   0.59473305  0.59141140  0.61247938
   0.82765504  0.07230299  0.61212091
   0.49839469  0.23835773  0.56861833
   0.24748273  0.24761305  0.56016153
   0.41588053  0.41511539  0.47799689
   0.16688949  0.16771273  0.47143704
   0.50218515 -0.00091511  0.56666638
   0.41529678  0.16812999  0.47495123
   0.75075943  0.75059541  0.56675761
   0.24864672  0.75549211  0.57255989
   0.50019101  0.50021231  0.56912172
   0.50636592  0.76032847  0.56859605
  -0.01007546  0.74527940  0.56811143
   0.91569769  0.91686153  0.47782340
   0.74541030 -0.01037900  0.56804670