  48  48   0   0
  0.5349325E+02  0.1100258E-08  0.1100258E-08  0.2449179E-08  0.3500000E-15
  1.000000000000000E-004
  CAR 
 unknown system                          
      6.39639995     -9.80051566  301     -1.06339992      1.00000000
     -9.801  0.0000E+00  0.0000E+00
     -9.747  0.0000E+00  0.0000E+00
     -9.693  0.0000E+00  0.0000E+00
     -9.639  0.0000E+00  0.0000E+00
     -9.585  0.0000E+00  0.0000E+00
     -9.531  0.0000E+00  0.0000E+00
     -9.477  0.0000E+00  0.0000E+00
     -9.423  0.0000E+00  0.0000E+00
     -9.369  0.1302E-16  0.7031E-18
     -9.315  0.4955E-14  0.2682E-15
     -9.261  0.1088E-11  0.5898E-13
     -9.207  0.1347E-09  0.7332E-11
     -9.153  0.9436E-08  0.5168E-09
     -9.099  0.3745E-06  0.2074E-07
     -9.045  0.8441E-05  0.4765E-06
     -8.991  0.1083E-03  0.6324E-05
     -8.937  0.7932E-03  0.4915E-04
     -8.883  0.3323E-02  0.2286E-03
     -8.829  0.7995E-02  0.6602E-03
     -8.775  0.1118E-01  0.1264E-02
     -8.721  0.9908E-02  0.1799E-02
     -8.667  0.8327E-02  0.2249E-02
     -8.613  0.1013E-01  0.2795E-02
     -8.559  0.1104E-01  0.3392E-02
     -8.505  0.7517E-02  0.3797E-02
     -8.451  0.2978E-02  0.3958E-02
     -8.397  0.6887E-03  0.3995E-02
     -8.343  0.2072E-03  0.4007E-02
     -8.289  0.8450E-03  0.4052E-02
     -8.235  0.3423E-02  0.4237E-02
     -8.181  0.8108E-02  0.4675E-02
     -8.127  0.1147E-01  0.5294E-02
     -8.073  0.1125E-01  0.5902E-02
     -8.019  0.1218E-01  0.6559E-02
     -7.965  0.1792E-01  0.7527E-02
     -7.911  0.2349E-01  0.8795E-02
     -7.857  0.2289E-01  0.1003E-01
     -7.803  0.1763E-01  0.1098E-01
     -7.749  0.1235E-01  0.1165E-01
     -7.695  0.1056E-01  0.1222E-01
     -7.641  0.1454E-01  0.1300E-01
     -7.587  0.1999E-01  0.1408E-01
     -7.533  0.1954E-01  0.1514E-01
     -7.479  0.1478E-01  0.1594E-01
     -7.425  0.1341E-01  0.1666E-01
     -7.371  0.1867E-01  0.1767E-01
     -7.317  0.2741E-01  0.1915E-01
     -7.263  0.3539E-01  0.2106E-01
     -7.209  0.4278E-01  0.2337E-01
     -7.155  0.5090E-01  0.2612E-01
     -7.101  0.5740E-01  0.2922E-01
     -7.047  0.5928E-01  0.3242E-01
     -6.993  0.5589E-01  0.3543E-01
     -6.939  0.5191E-01  0.3824E-01
     -6.885  0.5427E-01  0.4117E-01
     -6.831  0.6292E-01  0.4456E-01
     -6.777  0.7207E-01  0.4845E-01
     -6.723  0.7694E-01  0.5261E-01
     -6.669  0.7675E-01  0.5675E-01
     -6.615  0.7674E-01  0.6090E-01
     -6.561  0.8298E-01  0.6538E-01
     -6.507  0.9337E-01  0.7042E-01
     -6.453  0.1018E+00  0.7591E-01
     -6.399  0.1105E+00  0.8188E-01
     -6.345  0.1231E+00  0.8853E-01
     -6.291  0.1340E+00  0.9576E-01
     -6.237  0.1371E+00  0.1032E+00
     -6.183  0.1348E+00  0.1104E+00
     -6.129  0.1341E+00  0.1177E+00
     -6.075  0.1384E+00  0.1252E+00
     -6.021  0.1471E+00  0.1331E+00
     -5.967  0.1559E+00  0.1415E+00
     -5.913  0.1582E+00  0.1501E+00
     -5.859  0.1535E+00  0.1583E+00
     -5.805  0.1457E+00  0.1662E+00
     -5.751  0.1369E+00  0.1736E+00
     -5.697  0.1283E+00  0.1805E+00
     -5.643  0.1252E+00  0.1873E+00
     -5.589  0.1328E+00  0.1945E+00
     -5.535  0.1460E+00  0.2023E+00
     -5.481  0.1564E+00  0.2108E+00
     -5.427  0.1610E+00  0.2195E+00
     -5.373  0.1599E+00  0.2281E+00
     -5.319  0.1564E+00  0.2365E+00
     -5.265  0.1555E+00  0.2449E+00
     -5.211  0.1589E+00  0.2535E+00
     -5.157  0.1645E+00  0.2624E+00
     -5.103  0.1686E+00  0.2715E+00
     -5.049  0.1691E+00  0.2806E+00
     -4.995  0.1683E+00  0.2897E+00
     -4.941  0.1698E+00  0.2989E+00
     -4.887  0.1720E+00  0.3082E+00
     -4.833  0.1719E+00  0.3175E+00
     -4.779  0.1716E+00  0.3267E+00
     -4.725  0.1727E+00  0.3360E+00
     -4.671  0.1721E+00  0.3453E+00
     -4.618  0.1697E+00  0.3545E+00
     -4.564  0.1697E+00  0.3637E+00
     -4.510  0.1738E+00  0.3730E+00
     -4.456  0.1790E+00  0.3827E+00
     -4.402  0.1827E+00  0.3926E+00
     -4.348  0.1857E+00  0.4026E+00
     -4.294  0.1878E+00  0.4127E+00
     -4.240  0.1857E+00  0.4228E+00
     -4.186  0.1799E+00  0.4325E+00
     -4.132  0.1771E+00  0.4420E+00
     -4.078  0.1814E+00  0.4518E+00
     -4.024  0.1899E+00  0.4621E+00
     -3.970  0.1963E+00  0.4727E+00
     -3.916  0.1981E+00  0.4834E+00
     -3.862  0.1986E+00  0.4941E+00
     -3.808  0.2009E+00  0.5049E+00
     -3.754  0.2032E+00  0.5159E+00
     -3.700  0.2022E+00  0.5268E+00
     -3.646  0.1990E+00  0.5376E+00
     -3.592  0.1979E+00  0.5483E+00
     -3.538  0.1994E+00  0.5590E+00
     -3.484  0.2010E+00  0.5699E+00
     -3.430  0.2040E+00  0.5809E+00
     -3.376  0.2066E+00  0.5920E+00
     -3.322  0.2036E+00  0.6030E+00
     -3.268  0.1950E+00  0.6136E+00
     -3.214  0.1852E+00  0.6236E+00
     -3.160  0.1798E+00  0.6333E+00
     -3.106  0.1798E+00  0.6430E+00
     -3.052  0.1825E+00  0.6528E+00
     -2.998  0.1834E+00  0.6627E+00
     -2.944  0.1791E+00  0.6724E+00
     -2.890  0.1726E+00  0.6817E+00
     -2.836  0.1712E+00  0.6910E+00
     -2.782  0.1753E+00  0.7004E+00
     -2.728  0.1793E+00  0.7101E+00
     -2.674  0.1806E+00  0.7198E+00
     -2.620  0.1804E+00  0.7296E+00
     -2.566  0.1800E+00  0.7393E+00
     -2.512  0.1792E+00  0.7490E+00
     -2.458  0.1785E+00  0.7586E+00
     -2.404  0.1785E+00  0.7683E+00
     -2.350  0.1790E+00  0.7779E+00
     -2.296  0.1787E+00  0.7876E+00
     -2.242  0.1769E+00  0.7971E+00
     -2.188  0.1746E+00  0.8065E+00
     -2.134  0.1739E+00  0.8159E+00
     -2.080  0.1734E+00  0.8253E+00
     -2.026  0.1707E+00  0.8345E+00
     -1.972  0.1695E+00  0.8437E+00
     -1.918  0.1748E+00  0.8531E+00
     -1.864  0.1848E+00  0.8631E+00
     -1.810  0.1941E+00  0.8736E+00
     -1.756  0.1972E+00  0.8842E+00
     -1.702  0.1932E+00  0.8946E+00
     -1.648  0.1904E+00  0.9049E+00
     -1.594  0.1950E+00  0.9154E+00
     -1.540  0.2013E+00  0.9263E+00
     -1.486  0.2023E+00  0.9372E+00
     -1.432  0.1996E+00  0.9480E+00
     -1.378  0.1950E+00  0.9585E+00
     -1.324  0.1873E+00  0.9686E+00
     -1.270  0.1782E+00  0.9783E+00
     -1.216  0.1697E+00  0.9874E+00
     -1.162  0.1565E+00  0.9959E+00
     -1.108  0.1337E+00  0.1003E+01
     -1.054  0.1075E+00  0.1009E+01
     -1.000  0.8356E-01  0.1013E+01
     -0.946  0.6067E-01  0.1017E+01
     -0.892  0.3903E-01  0.1019E+01
     -0.838  0.2375E-01  0.1020E+01
     -0.784  0.1819E-01  0.1021E+01
     -0.730  0.1854E-01  0.1022E+01
     -0.676  0.1907E-01  0.1023E+01
     -0.622  0.2114E-01  0.1024E+01
     -0.568  0.2992E-01  0.1026E+01
     -0.514  0.4265E-01  0.1028E+01
     -0.460  0.4965E-01  0.1031E+01
     -0.406  0.4592E-01  0.1033E+01
     -0.352  0.3682E-01  0.1035E+01
     -0.298  0.3396E-01  0.1037E+01
     -0.244  0.3918E-01  0.1039E+01
     -0.190  0.4034E-01  0.1041E+01
     -0.136  0.3364E-01  0.1043E+01
     -0.082  0.2748E-01  0.1045E+01
     -0.028  0.2464E-01  0.1046E+01
      0.026  0.2272E-01  0.1047E+01
      0.080  0.2317E-01  0.1049E+01
      0.134  0.2909E-01  0.1050E+01
      0.188  0.3644E-01  0.1052E+01
      0.242  0.3725E-01  0.1054E+01
      0.296  0.3299E-01  0.1056E+01
      0.350  0.3141E-01  0.1058E+01
      0.404  0.3379E-01  0.1059E+01
      0.458  0.3748E-01  0.1061E+01
      0.512  0.4127E-01  0.1064E+01
      0.566  0.4420E-01  0.1066E+01
      0.620  0.4631E-01  0.1069E+01
      0.673  0.4600E-01  0.1071E+01
      0.727  0.4108E-01  0.1073E+01
      0.781  0.3483E-01  0.1075E+01
      0.835  0.2982E-01  0.1077E+01
      0.889  0.2473E-01  0.1078E+01
      0.943  0.2126E-01  0.1079E+01
      0.997  0.2109E-01  0.1080E+01
      1.051  0.2225E-01  0.1082E+01
      1.105  0.2225E-01  0.1083E+01
      1.159  0.1970E-01  0.1084E+01
      1.213  0.1557E-01  0.1085E+01
      1.267  0.1330E-01  0.1085E+01
      1.321  0.1411E-01  0.1086E+01
      1.375  0.1686E-01  0.1087E+01
      1.429  0.2031E-01  0.1088E+01
      1.483  0.2324E-01  0.1089E+01
      1.537  0.2614E-01  0.1091E+01
      1.591  0.2865E-01  0.1092E+01
      1.645  0.2958E-01  0.1094E+01
      1.699  0.3223E-01  0.1096E+01
      1.753  0.3941E-01  0.1098E+01
      1.807  0.4470E-01  0.1100E+01
      1.861  0.3852E-01  0.1102E+01
      1.915  0.2421E-01  0.1104E+01
      1.969  0.1468E-01  0.1104E+01
      2.023  0.1391E-01  0.1105E+01
      2.077  0.1762E-01  0.1106E+01
      2.131  0.2505E-01  0.1107E+01
      2.185  0.3397E-01  0.1109E+01
      2.239  0.3769E-01  0.1111E+01
      2.293  0.3664E-01  0.1113E+01
      2.347  0.3665E-01  0.1115E+01
      2.401  0.3886E-01  0.1117E+01
      2.455  0.4157E-01  0.1120E+01
      2.509  0.4370E-01  0.1122E+01
      2.563  0.4514E-01  0.1124E+01
      2.617  0.4579E-01  0.1127E+01
      2.671  0.4587E-01  0.1129E+01
      2.725  0.4594E-01  0.1132E+01
      2.779  0.4338E-01  0.1134E+01
      2.833  0.3596E-01  0.1136E+01
      2.887  0.2675E-01  0.1138E+01
      2.941  0.1982E-01  0.1139E+01
      2.995  0.1516E-01  0.1139E+01
      3.049  0.1219E-01  0.1140E+01
      3.103  0.1356E-01  0.1141E+01
      3.157  0.2006E-01  0.1142E+01
      3.211  0.2619E-01  0.1143E+01
      3.265  0.2530E-01  0.1145E+01
      3.319  0.1862E-01  0.1146E+01
      3.373  0.1339E-01  0.1146E+01
      3.427  0.1239E-01  0.1147E+01
      3.481  0.1395E-01  0.1148E+01
      3.535  0.1961E-01  0.1149E+01
      3.589  0.3041E-01  0.1151E+01
      3.643  0.3988E-01  0.1153E+01
      3.697  0.4277E-01  0.1155E+01
      3.751  0.4019E-01  0.1157E+01
      3.805  0.3289E-01  0.1159E+01
      3.859  0.2472E-01  0.1160E+01
      3.913  0.2152E-01  0.1161E+01
      3.967  0.2400E-01  0.1163E+01
      4.021  0.2883E-01  0.1164E+01
      4.075  0.3063E-01  0.1166E+01
      4.129  0.2768E-01  0.1167E+01
      4.183  0.2387E-01  0.1169E+01
      4.237  0.2160E-01  0.1170E+01
      4.291  0.1973E-01  0.1171E+01
      4.345  0.1825E-01  0.1172E+01
      4.399  0.2000E-01  0.1173E+01
      4.453  0.2549E-01  0.1174E+01
      4.507  0.3418E-01  0.1176E+01
      4.561  0.4849E-01  0.1179E+01
      4.615  0.6345E-01  0.1182E+01
      4.669  0.6569E-01  0.1186E+01
      4.723  0.5471E-01  0.1189E+01
      4.777  0.4601E-01  0.1191E+01
      4.831  0.4730E-01  0.1194E+01
      4.885  0.5099E-01  0.1197E+01
      4.939  0.5147E-01  0.1199E+01
      4.993  0.5564E-01  0.1202E+01
      5.047  0.6708E-01  0.1206E+01
      5.101  0.7309E-01  0.1210E+01
      5.155  0.6503E-01  0.1213E+01
      5.209  0.5338E-01  0.1216E+01
      5.263  0.4680E-01  0.1219E+01
      5.317  0.4027E-01  0.1221E+01
      5.371  0.2903E-01  0.1223E+01
      5.425  0.1628E-01  0.1223E+01
      5.479  0.6831E-02  0.1224E+01
      5.533  0.2027E-02  0.1224E+01
      5.587  0.3987E-03  0.1224E+01
      5.641  0.4916E-04  0.1224E+01
      5.695  0.3652E-05  0.1224E+01
      5.749  0.1594E-06  0.1224E+01
      5.803  0.4025E-08  0.1224E+01
      5.857  0.5817E-10  0.1224E+01
      5.910  0.4782E-12  0.1224E+01
      5.964  0.2226E-14  0.1224E+01
      6.018  0.5484E-17  0.1224E+01
      6.072  0.0000E+00  0.1224E+01
      6.126  0.0000E+00  0.1224E+01
      6.180  0.0000E+00  0.1224E+01
      6.234  0.0000E+00  0.1224E+01
      6.288  0.0000E+00  0.1224E+01
      6.342  0.0000E+00  0.1224E+01
      6.396  0.0000E+00  0.1224E+01
