       N       E                     dE             d eps       ncg     rms          rms(c)
DAV:   1     0.319943046233E+04    0.31994E+04   -0.18982E+05  3672   0.112E+03
DAV:   2     0.141759855016E+02   -0.31853E+04   -0.29297E+04  4368   0.263E+02
DAV:   3    -0.202116669358E+03   -0.21629E+03   -0.20073E+03  4152   0.651E+01
DAV:   4    -0.207985412310E+03   -0.58687E+01   -0.58012E+01  4188   0.109E+01
DAV:   5    -0.208185142588E+03   -0.19973E+00   -0.19897E+00  4440   0.202E+00    0.623E+01
RMM:   6    -0.221337578384E+03   -0.13152E+02   -0.11875E+02  3672   0.164E+01    0.665E+01
RMM:   7    -0.208769180713E+03    0.12568E+02   -0.55761E+01  3678   0.115E+01    0.474E+01
RMM:   8    -0.213697477191E+03   -0.49283E+01   -0.90745E+01  3675   0.148E+01    0.419E+01
RMM:   9    -0.215435791450E+03   -0.17383E+01   -0.46691E+01  3679   0.108E+01    0.427E+01
RMM:  10    -0.202467350574E+03    0.12968E+02   -0.28433E+01  3681   0.857E+00    0.251E+01
RMM:  11    -0.193870921595E+03    0.85964E+01   -0.14544E+01  3679   0.609E+00    0.137E+01
RMM:  12    -0.190344796071E+03    0.35261E+01   -0.85517E+00  3680   0.443E+00    0.131E+01
RMM:  13    -0.189754666842E+03    0.59013E+00   -0.25985E+00  3679   0.256E+00    0.804E+00
RMM:  14    -0.189533524919E+03    0.22114E+00   -0.70100E-01  3681   0.131E+00    0.665E+00
RMM:  15    -0.189433542653E+03    0.99982E-01   -0.57530E-01  3679   0.113E+00    0.632E+00
RMM:  16    -0.189289411032E+03    0.14413E+00   -0.42846E-01  3679   0.976E-01    0.522E+00
RMM:  17    -0.189199603832E+03    0.89807E-01   -0.36855E-01  3679   0.904E-01    0.447E+00
RMM:  18    -0.189009210074E+03    0.19039E+00   -0.22385E-01  3679   0.733E-01    0.220E+00
RMM:  19    -0.188957550822E+03    0.51659E-01   -0.74699E-02  3678   0.413E-01    0.964E-01
RMM:  20    -0.188949176642E+03    0.83742E-02   -0.13352E-02  3682   0.166E-01    0.729E-01
RMM:  21    -0.188946426892E+03    0.27497E-02   -0.42171E-03  3680   0.100E-01    0.549E-01
RMM:  22    -0.188944821686E+03    0.16052E-02   -0.28128E-03  3681   0.822E-02    0.445E-01
RMM:  23    -0.188943040982E+03    0.17807E-02   -0.33833E-03  3679   0.858E-02    0.331E-01
RMM:  24    -0.188942202826E+03    0.83816E-03   -0.95305E-04  3679   0.466E-02    0.177E-01
RMM:  25    -0.188942059275E+03    0.14355E-03   -0.49455E-04  3679   0.346E-02    0.120E-01
RMM:  26    -0.188942181092E+03   -0.12182E-03   -0.28033E-04  3681   0.239E-02    0.856E-02
RMM:  27    -0.188942326571E+03   -0.14548E-03   -0.12102E-04  3678   0.160E-02    0.537E-02
RMM:  28    -0.188942749332E+03   -0.42276E-03   -0.79725E-05  3677   0.122E-02    0.375E-02
RMM:  29    -0.188943148724E+03   -0.39939E-03   -0.43421E-05  3672   0.896E-03    0.231E-02
RMM:  30    -0.188943873598E+03   -0.72487E-03   -0.47569E-05  3672   0.837E-03    0.238E-02
RMM:  31    -0.188944302271E+03   -0.42867E-03   -0.27670E-05  3552   0.708E-03    0.200E-02
RMM:  32    -0.188944790355E+03   -0.48808E-03   -0.30053E-05  3425   0.707E-03    0.144E-02
RMM:  33    -0.188944932027E+03   -0.14167E-03   -0.75486E-06  2752   0.352E-03    0.102E-02
RMM:  34    -0.188945116038E+03   -0.18401E-03   -0.74900E-06  2750   0.356E-03    0.663E-03
RMM:  35    -0.188945176606E+03   -0.60569E-04   -0.20772E-06  2343   0.192E-03    0.474E-03
RMM:  36    -0.188945233904E+03   -0.57298E-04   -0.10839E-06  2179   0.142E-03    0.257E-03
RMM:  37    -0.188945279578E+03   -0.45673E-04   -0.80440E-07  2159   0.116E-03    0.298E-03
RMM:  38    -0.188945307984E+03   -0.28406E-04   -0.67871E-07  2152   0.101E-03    0.288E-03
RMM:  39    -0.188945320274E+03   -0.12290E-04   -0.31273E-07  1561   0.680E-04    0.229E-03
RMM:  40    -0.188945326435E+03   -0.61613E-05   -0.17691E-07  1595   0.592E-04    0.162E-03
RMM:  41    -0.188945330409E+03   -0.39739E-05   -0.10071E-07  1343   0.455E-04    0.107E-03
RMM:  42    -0.188945332798E+03   -0.23895E-05   -0.65123E-08  1000   0.379E-04    0.542E-04
RMM:  43    -0.188945334649E+03   -0.18511E-05   -0.43826E-08   841   0.364E-04    0.417E-04
RMM:  44    -0.188945335645E+03   -0.99538E-06   -0.18427E-08   564   0.342E-04
   1 F= -.18894534E+03 E0= -.18880828E+03  d E =-.188945E+03
       N       E                     dE             d eps       ncg     rms          rms(c)
DAV:   1    -0.189455947205E+03   -0.51061E+00   -0.16307E+02  3696   0.196E+01    0.209E+00
RMM:   2    -0.189641921987E+03   -0.18597E+00   -0.17805E+00  3682   0.286E+00    0.180E+00
RMM:   3    -0.189721680512E+03   -0.79759E-01   -0.17916E-01  3711   0.717E-01    0.324E+00
RMM:   4    -0.189621022567E+03    0.10066E+00   -0.61884E-02  3687   0.405E-01    0.107E+00
RMM:   5    -0.189623236918E+03   -0.22144E-02   -0.37161E-02  3679   0.306E-01    0.105E+00
RMM:   6    -0.189621196148E+03    0.20408E-02   -0.22623E-02  3682   0.237E-01    0.990E-01
RMM:   7    -0.189612645606E+03    0.85505E-02   -0.94366E-03  3679   0.156E-01    0.319E-01
RMM:   8    -0.189611586229E+03    0.10594E-02   -0.19817E-03  3681   0.684E-02    0.211E-01
RMM:   9    -0.189611104138E+03    0.48209E-03   -0.84057E-04  3680   0.455E-02    0.996E-02
RMM:  10    -0.189611024758E+03    0.79381E-04   -0.34040E-04  3680   0.288E-02    0.717E-02
RMM:  11    -0.189610979797E+03    0.44961E-04   -0.10119E-04  3687   0.157E-02    0.399E-02
RMM:  12    -0.189610976933E+03    0.28640E-05   -0.30843E-05  3675   0.887E-03    0.322E-02
RMM:  13    -0.189610971617E+03    0.53160E-05   -0.11985E-05  3649   0.572E-03    0.181E-02
RMM:  14    -0.189610970592E+03    0.10247E-05   -0.53025E-06  2894   0.371E-03    0.122E-02
RMM:  15    -0.189610969982E+03    0.60987E-06   -0.19242E-06  2180   0.237E-03
   2 F= -.18961097E+03 E0= -.18947457E+03  d E =-.665634E+00
       N       E                     dE             d eps       ncg     rms          rms(c)
DAV:   1    -0.189247971238E+03    0.36300E+00   -0.14489E+03  3672   0.592E+01    0.539E+00
RMM:   2    -0.190849928972E+03   -0.16020E+01   -0.15435E+01  3681   0.842E+00    0.477E+00
RMM:   3    -0.191303273498E+03   -0.45334E+00   -0.13358E+00  3707   0.196E+00    0.779E+00
RMM:   4    -0.190669040759E+03    0.63423E+00   -0.37422E-01  3687   0.101E+00    0.275E+00
RMM:   5    -0.190663842469E+03    0.51983E-02   -0.22723E-01  3679   0.746E-01    0.251E+00
RMM:   6    -0.190654485793E+03    0.93567E-02   -0.16989E-01  3682   0.637E-01    0.225E+00
RMM:   7    -0.190605760727E+03    0.48725E-01   -0.68035E-02  3679   0.415E-01    0.106E+00
RMM:   8    -0.190595708304E+03    0.10052E-01   -0.20782E-02  3681   0.223E-01    0.705E-01
RMM:   9    -0.190590220399E+03    0.54879E-02   -0.74691E-03  3682   0.136E-01    0.295E-01
RMM:  10    -0.190589547505E+03    0.67289E-03   -0.27037E-03  3679   0.808E-02    0.222E-01
RMM:  11    -0.190589224002E+03    0.32350E-03   -0.93445E-04  3685   0.468E-02    0.159E-01
RMM:  12    -0.190589094722E+03    0.12928E-03   -0.42181E-04  3680   0.328E-02    0.104E-01
RMM:  13    -0.190589060909E+03    0.33814E-04   -0.17292E-04  3680   0.213E-02    0.673E-02
RMM:  14    -0.190589036098E+03    0.24811E-04   -0.71257E-05  3680   0.135E-02    0.382E-02
RMM:  15    -0.190589025347E+03    0.10751E-04   -0.22801E-05  3672   0.762E-03    0.136E-02
RMM:  16    -0.190589028738E+03   -0.33913E-05   -0.48212E-06  2892   0.357E-03    0.885E-03
RMM:  17    -0.190589031802E+03   -0.30641E-05   -0.22082E-06  2166   0.259E-03    0.450E-03
RMM:  18    -0.190589037119E+03   -0.53163E-05   -0.10967E-06  2071   0.189E-03    0.358E-03
RMM:  19    -0.190589039693E+03   -0.25739E-05   -0.38469E-07  2014   0.117E-03    0.141E-03
RMM:  20    -0.190589042910E+03   -0.32179E-05   -0.11063E-07  1631   0.559E-04    0.107E-03
RMM:  21    -0.190589045739E+03   -0.28285E-05   -0.63315E-08  1143   0.458E-04    0.106E-03
RMM:  22    -0.190589049773E+03   -0.40337E-05   -0.10342E-07  1412   0.485E-04    0.113E-03
RMM:  23    -0.190589053970E+03   -0.41974E-05   -0.15640E-07  1472   0.538E-04    0.125E-03
RMM:  24    -0.190589057041E+03   -0.30712E-05   -0.17223E-07  1443   0.503E-04    0.730E-04
RMM:  25    -0.190589057917E+03   -0.87547E-06   -0.32948E-08   639   0.346E-04
   3 F= -.19058906E+03 E0= -.19045521E+03  d E =-.164372E+01
       N       E                     dE             d eps       ncg     rms          rms(c)
DAV:   1    -0.190546219915E+03    0.42837E-01   -0.10366E+02  3684   0.155E+01    0.126E+00
RMM:   2    -0.190675859520E+03   -0.12964E+00   -0.11516E+00  3684   0.229E+00    0.171E+00
RMM:   3    -0.190672824515E+03    0.30350E-02   -0.90319E-02  3716   0.520E-01    0.155E+00
RMM:   4    -0.190651149725E+03    0.21675E-01   -0.19214E-02  3687   0.232E-01    0.716E-01
RMM:   5    -0.190649831963E+03    0.13178E-02   -0.13802E-02  3679   0.185E-01    0.629E-01
RMM:   6    -0.190649663362E+03    0.16860E-03   -0.14908E-02  3681   0.190E-01    0.617E-01
RMM:   7    -0.190646346707E+03    0.33167E-02   -0.55335E-03  3679   0.119E-01    0.271E-01
RMM:   8    -0.190645676274E+03    0.67043E-03   -0.12576E-03  3682   0.551E-02    0.185E-01
RMM:   9    -0.190645298754E+03    0.37752E-03   -0.51923E-04  3680   0.355E-02    0.846E-02
RMM:  10    -0.190645222557E+03    0.76197E-04   -0.25445E-04  3679   0.246E-02    0.623E-02
RMM:  11    -0.190645182970E+03    0.39586E-04   -0.88248E-05  3684   0.143E-02    0.325E-02
RMM:  12    -0.190645182467E+03    0.50304E-06   -0.30821E-05  3672   0.862E-03    0.288E-02
RMM:  13    -0.190645178190E+03    0.42771E-05   -0.13690E-05  3657   0.589E-03    0.152E-02
RMM:  14    -0.190645177414E+03    0.77632E-06   -0.41611E-06  2773   0.335E-03
   4 F= -.19064518E+03 E0= -.19051236E+03  d E =-.169984E+01
       N       E                     dE             d eps       ncg     rms          rms(c)
DAV:   1    -0.190973054666E+03   -0.32788E+00   -0.33001E+02  3672   0.280E+01    0.212E+00
RMM:   2    -0.191358597858E+03   -0.38554E+00   -0.36002E+00  3681   0.405E+00    0.235E+00
RMM:   3    -0.191411355691E+03   -0.52758E-01   -0.27845E-01  3704   0.895E-01    0.345E+00
RMM:   4    -0.191302526617E+03    0.10883E+00   -0.45970E-02  3687   0.376E-01    0.113E+00
RMM:   5    -0.191306275476E+03   -0.37489E-02   -0.36816E-02  3679   0.307E-01    0.125E+00
RMM:   6    -0.191300423329E+03    0.58521E-02   -0.43388E-02  3681   0.326E-01    0.982E-01
RMM:   7    -0.191291641115E+03    0.87822E-02   -0.14465E-02  3681   0.190E-01    0.447E-01
RMM:   8    -0.191289632089E+03    0.20090E-02   -0.30804E-03  3686   0.861E-02    0.263E-01
RMM:   9    -0.191288847423E+03    0.78467E-03   -0.11517E-03  3678   0.541E-02    0.124E-01
RMM:  10    -0.191288700933E+03    0.14649E-03   -0.38355E-04  3681   0.304E-02    0.841E-02
RMM:  11    -0.191288654311E+03    0.46623E-04   -0.16309E-04  3682   0.198E-02    0.637E-02
RMM:  12    -0.191288629519E+03    0.24792E-04   -0.12618E-04  3683   0.173E-02    0.413E-02
RMM:  13    -0.191288622679E+03    0.68399E-05   -0.39477E-05  3678   0.992E-03    0.235E-02
RMM:  14    -0.191288621404E+03    0.12748E-05   -0.96909E-06  3530   0.489E-03    0.153E-02
RMM:  15    -0.191288620979E+03    0.42550E-06   -0.25144E-06  2363   0.273E-03
   5 F= -.19128862E+03 E0= -.19115748E+03  d E =-.643444E+00
       N       E                     dE             d eps       ncg     rms          rms(c)
DAV:   1    -0.189321984287E+03    0.19666E+01   -0.30943E+03  3672   0.880E+01    0.540E+00
RMM:   2    -0.192545331305E+03   -0.32233E+01   -0.31505E+01  3681   0.121E+01    0.581E+00
RMM:   3    -0.192856485445E+03   -0.31115E+00   -0.19818E+00  3710   0.240E+00    0.809E+00
RMM:   4    -0.192223478836E+03    0.63301E+00   -0.31080E-01  3685   0.960E-01    0.323E+00
RMM:   5    -0.192208824847E+03    0.14654E-01   -0.16742E-01  3681   0.644E-01    0.331E+00
RMM:   6    -0.192184919197E+03    0.23906E-01   -0.39414E-01  3679   0.969E-01    0.281E+00
RMM:   7    -0.192112793178E+03    0.72126E-01   -0.17601E-01  3679   0.656E-01    0.155E+00
RMM:   8    -0.192088813277E+03    0.23980E-01   -0.40479E-02  3685   0.313E-01    0.921E-01
RMM:   9    -0.192080564465E+03    0.82488E-02   -0.10828E-02  3683   0.166E-01    0.467E-01
RMM:  10    -0.192078573088E+03    0.19914E-02   -0.43505E-03  3678   0.103E-01    0.343E-01
RMM:  11    -0.192077882442E+03    0.69065E-03   -0.44205E-03  3681   0.102E-01    0.293E-01
RMM:  12    -0.192077058767E+03    0.82367E-03   -0.21046E-03  3680   0.713E-02    0.118E-01
RMM:  13    -0.192077065430E+03   -0.66631E-05   -0.53999E-04  3679   0.365E-02    0.929E-02
RMM:  14    -0.192076978313E+03    0.87117E-04   -0.12525E-04  3681   0.180E-02    0.349E-02
RMM:  15    -0.192076978907E+03   -0.59402E-06   -0.25054E-05  3673   0.805E-03    0.249E-02
RMM:  16    -0.192076980356E+03   -0.14495E-05   -0.16434E-05  3670   0.632E-03    0.110E-02
RMM:  17    -0.192076989632E+03   -0.92757E-05   -0.50425E-06  2860   0.352E-03    0.855E-03
RMM:  18    -0.192077000879E+03   -0.11247E-04   -0.16287E-06  2140   0.226E-03    0.346E-03
RMM:  19    -0.192077008008E+03   -0.71293E-05   -0.61353E-07  2075   0.135E-03    0.229E-03
RMM:  20    -0.192077018351E+03   -0.10343E-04   -0.39394E-07  2087   0.934E-04    0.156E-03
RMM:  21    -0.192077027734E+03   -0.93824E-05   -0.31333E-07  1881   0.724E-04    0.211E-03
RMM:  22    -0.192077036036E+03   -0.83025E-05   -0.27840E-07  1717   0.663E-04    0.211E-03
RMM:  23    -0.192077047682E+03   -0.11646E-04   -0.57848E-07  1970   0.808E-04    0.158E-03
RMM:  24    -0.192077052572E+03   -0.48903E-05   -0.32179E-07  1478   0.598E-04    0.872E-04
RMM:  25    -0.192077055378E+03   -0.28063E-05   -0.19775E-07  1352   0.502E-04    0.754E-04
RMM:  26    -0.192077056410E+03   -0.10316E-05   -0.73349E-08   952   0.396E-04    0.598E-04
RMM:  27    -0.192077057345E+03   -0.93511E-06   -0.56889E-08   924   0.376E-04
   6 F= -.19207706E+03 E0= -.19195201E+03  d E =-.143188E+01
       N       E                     dE             d eps       ncg     rms          rms(c)
DAV:   1    -0.192017345441E+03    0.59711E-01   -0.29889E+02  3672   0.267E+01    0.200E+00
RMM:   2    -0.192399625301E+03   -0.38228E+00   -0.33915E+00  3681   0.390E+00    0.277E+00
RMM:   3    -0.192410904199E+03   -0.11279E-01   -0.26780E-01  3702   0.866E-01    0.309E+00
RMM:   4    -0.192326317343E+03    0.84587E-01   -0.41074E-02  3685   0.352E-01    0.111E+00
RMM:   5    -0.192325249218E+03    0.10681E-02   -0.23737E-02  3680   0.245E-01    0.106E+00
RMM:   6    -0.192322642732E+03    0.26065E-02   -0.39890E-02  3679   0.311E-01    0.924E-01
RMM:   7    -0.192314800040E+03    0.78427E-02   -0.15917E-02  3679   0.198E-01    0.391E-01
RMM:   8    -0.192313389764E+03    0.14103E-02   -0.31887E-03  3684   0.854E-02    0.298E-01
RMM:   9    -0.192312317204E+03    0.10726E-02   -0.12281E-03  3678   0.571E-02    0.108E-01
RMM:  10    -0.192312215961E+03    0.10124E-03   -0.33620E-04  3678   0.279E-02    0.773E-02
RMM:  11    -0.192312160517E+03    0.55444E-04   -0.14879E-04  3680   0.187E-02    0.469E-02
RMM:  12    -0.192312146130E+03    0.14388E-04   -0.11325E-04  3679   0.162E-02    0.310E-02
RMM:  13    -0.192312142076E+03    0.40536E-05   -0.33691E-05  3680   0.912E-03    0.181E-02
RMM:  14    -0.192312141013E+03    0.10635E-05   -0.56070E-06  2944   0.394E-03    0.912E-03
RMM:  15    -0.192312141098E+03   -0.85369E-07   -0.14377E-06  2059   0.216E-03
   7 F= -.19231214E+03 E0= -.19218704E+03  d E =-.235084E+00
       N       E                     dE             d eps       ncg     rms          rms(c)
DAV:   1    -0.192301304572E+03    0.10836E-01   -0.20864E+01  3720   0.704E+00    0.503E-01
RMM:   2    -0.192328916526E+03   -0.27612E-01   -0.24016E-01  3681   0.104E+00    0.808E-01
RMM:   3    -0.192327594097E+03    0.13224E-02   -0.18705E-02  3703   0.230E-01    0.728E-01
RMM:   4    -0.192322778768E+03    0.48153E-02   -0.24927E-03  3685   0.881E-02    0.271E-01
RMM:   5    -0.192322912778E+03   -0.13401E-03   -0.15913E-03  3680   0.636E-02    0.278E-01
RMM:   6    -0.192322701385E+03    0.21139E-03   -0.28085E-03  3679   0.827E-02    0.229E-01
RMM:   7    -0.192322241157E+03    0.46023E-03   -0.10160E-03  3679   0.500E-02    0.951E-02
RMM:   8    -0.192322173985E+03    0.67171E-04   -0.18772E-04  3686   0.209E-02    0.723E-02
RMM:   9    -0.192322110656E+03    0.63330E-04   -0.77681E-05  3678   0.143E-02    0.293E-02
RMM:  10    -0.192322103650E+03    0.70061E-05   -0.24361E-05  3672   0.752E-03    0.206E-02
RMM:  11    -0.192322099910E+03    0.37402E-05   -0.95237E-06  3615   0.474E-03    0.117E-02
RMM:  12    -0.192322100026E+03   -0.11618E-06   -0.81875E-06  3656   0.433E-03
   8 F= -.19232210E+03 E0= -.19219703E+03  d E =-.245043E+00
       N       E                     dE             d eps       ncg     rms          rms(c)
DAV:   1    -0.192319839017E+03    0.22609E-02   -0.33275E+01  3672   0.887E+00    0.631E-01
RMM:   2    -0.192366799350E+03   -0.46960E-01   -0.39972E-01  3681   0.132E+00    0.111E+00
RMM:   3    -0.192362079617E+03    0.47197E-02   -0.31580E-02  3704   0.297E-01    0.857E-01
RMM:   4    -0.192355643293E+03    0.64363E-02   -0.43999E-03  3686   0.115E-01    0.358E-01
RMM:   5    -0.192355170674E+03    0.47262E-03   -0.23259E-03  3679   0.776E-02    0.313E-01
RMM:   6    -0.192355333745E+03   -0.16307E-03   -0.45543E-03  3679   0.104E-01    0.304E-01
RMM:   7    -0.192354367467E+03    0.96628E-03   -0.20779E-03  3680   0.707E-02    0.122E-01
RMM:   8    -0.192354286450E+03    0.81017E-04   -0.34389E-04  3680   0.291E-02    0.980E-02
RMM:   9    -0.192354176187E+03    0.11026E-03   -0.13157E-04  3678   0.183E-02    0.442E-02
RMM:  10    -0.192354158946E+03    0.17241E-04   -0.42528E-05  3675   0.997E-03    0.300E-02
RMM:  11    -0.192354148709E+03    0.10237E-04   -0.21989E-05  3669   0.707E-03    0.156E-02
RMM:  12    -0.192354148098E+03    0.61167E-06   -0.16394E-05  3669   0.603E-03    0.108E-02
RMM:  13    -0.192354148042E+03    0.55865E-07   -0.49224E-06  2847   0.350E-03
   9 F= -.19235415E+03 E0= -.19222881E+03  d E =-.320480E-01
       N       E                     dE             d eps       ncg     rms          rms(c)
DAV:   1    -0.192350783962E+03    0.33641E-02   -0.62133E+00  3720   0.383E+00    0.268E-01
RMM:   2    -0.192359628671E+03   -0.88447E-02   -0.74921E-02  3681   0.572E-01    0.496E-01
RMM:   3    -0.192358451364E+03    0.11773E-02   -0.59023E-03  3704   0.128E-01    0.353E-01
RMM:   4    -0.192357395238E+03    0.10561E-02   -0.79397E-04  3686   0.489E-02    0.152E-01
RMM:   5    -0.192357335008E+03    0.60230E-04   -0.42378E-04  3679   0.332E-02    0.135E-01
RMM:   6    -0.192357403000E+03   -0.67992E-04   -0.85497E-04  3679   0.453E-02    0.132E-01
RMM:   7    -0.192357227752E+03    0.17525E-03   -0.39593E-04  3680   0.309E-02    0.516E-02
RMM:   8    -0.192357215876E+03    0.11877E-04   -0.62025E-05  3681   0.124E-02    0.422E-02
RMM:   9    -0.192357195725E+03    0.20150E-04   -0.23963E-05  3671   0.780E-03    0.191E-02
RMM:  10    -0.192357192631E+03    0.30946E-05   -0.79726E-06  3463   0.433E-03    0.131E-02
RMM:  11    -0.192357190739E+03    0.18923E-05   -0.40310E-06  2686   0.315E-03    0.689E-03
RMM:  12    -0.192357190810E+03   -0.71152E-07   -0.31690E-06  2268   0.296E-03
  10 F= -.19235719E+03 E0= -.19223176E+03  d E =-.350908E-01
       N       E                     dE             d eps       ncg     rms          rms(c)
DAV:   1    -0.192355419678E+03    0.17711E-02   -0.13340E+01  3672   0.561E+00    0.393E-01
RMM:   2    -0.192373654009E+03   -0.18234E-01   -0.15998E-01  3682   0.836E-01    0.653E-01
RMM:   3    -0.192372010558E+03    0.16435E-02   -0.11995E-02  3707   0.184E-01    0.498E-01
RMM:   4    -0.192369881176E+03    0.21294E-02   -0.18523E-03  3687   0.740E-02    0.226E-01
RMM:   5    -0.192369674142E+03    0.20703E-03   -0.11469E-03  3679   0.543E-02    0.202E-01
RMM:   6    -0.192369802946E+03   -0.12880E-03   -0.21529E-03  3679   0.718E-02    0.190E-01
RMM:   7    -0.192369394196E+03    0.40875E-03   -0.71925E-04  3678   0.414E-02    0.763E-02
RMM:   8    -0.192369365246E+03    0.28951E-04   -0.12626E-04  3682   0.178E-02    0.617E-02
RMM:   9    -0.192369321298E+03    0.43947E-04   -0.51385E-05  3675   0.112E-02    0.276E-02
RMM:  10    -0.192369313596E+03    0.77027E-05   -0.17937E-05  3664   0.645E-03    0.193E-02
RMM:  11    -0.192369309252E+03    0.43439E-05   -0.93358E-06  3594   0.456E-03    0.105E-02
RMM:  12    -0.192369308842E+03    0.40953E-06   -0.77230E-06  3589   0.415E-03
  11 F= -.19236931E+03 E0= -.19224416E+03  d E =-.121180E-01
       N       E                     dE             d eps       ncg     rms          rms(c)
DAV:   1    -0.192367859581E+03    0.14497E-02   -0.24063E+00  3696   0.238E+00    0.166E-01
RMM:   2    -0.192371200879E+03   -0.33413E-02   -0.28982E-02  3682   0.356E-01    0.291E-01
RMM:   3    -0.192370780784E+03    0.42009E-03   -0.21847E-03  3707   0.784E-02    0.204E-01
RMM:   4    -0.192370441344E+03    0.33944E-03   -0.32804E-04  3687   0.312E-02    0.958E-02
RMM:   5    -0.192370413230E+03    0.28115E-04   -0.20310E-04  3680   0.229E-02    0.857E-02
RMM:   6    -0.192370450734E+03   -0.37504E-04   -0.39663E-04  3679   0.308E-02    0.818E-02
RMM:   7    -0.192370375364E+03    0.75370E-04   -0.13334E-04  3678   0.178E-02    0.316E-02
RMM:   8    -0.192370370486E+03    0.48782E-05   -0.21967E-05  3668   0.743E-03    0.253E-02
RMM:   9    -0.192370363129E+03    0.73566E-05   -0.90595E-06  3600   0.471E-03    0.117E-02
RMM:  10    -0.192370361822E+03    0.13069E-05   -0.29339E-06  2370   0.274E-03    0.848E-03
RMM:  11    -0.192370361110E+03    0.71261E-06   -0.18273E-06  1970   0.236E-03
  12 F= -.19237036E+03 E0= -.19224534E+03  d E =-.131703E-01
       N       E                     dE             d eps       ncg     rms          rms(c)
DAV:   1    -0.192369663043E+03    0.69878E-03   -0.34126E+00  3672   0.283E+00    0.204E-01
RMM:   2    -0.192374813889E+03   -0.51508E-02   -0.42151E-02  3681   0.424E-01    0.402E-01
RMM:   3    -0.192373844733E+03    0.96916E-03   -0.33737E-03  3701   0.965E-02    0.236E-01
RMM:   4    -0.192373367970E+03    0.47676E-03   -0.44018E-04  3686   0.361E-02    0.116E-01
RMM:   5    -0.192373312778E+03    0.55192E-04   -0.20440E-04  3679   0.232E-02    0.908E-02
RMM:   6    -0.192373369504E+03   -0.56726E-04   -0.52650E-04  3679   0.353E-02    0.107E-01
RMM:   7    -0.192373266836E+03    0.10267E-03   -0.20547E-04  3678   0.222E-02    0.407E-02
RMM:   8    -0.192373255429E+03    0.11406E-04   -0.36787E-05  3671   0.943E-03    0.296E-02
RMM:   9    -0.192373243615E+03    0.11814E-04   -0.14487E-05  3651   0.597E-03    0.120E-02
RMM:  10    -0.192373242465E+03    0.11508E-05   -0.39054E-06  2705   0.308E-03    0.936E-03
RMM:  11    -0.192373241537E+03    0.92791E-06   -0.23506E-06  2041   0.260E-03
  13 F= -.19237324E+03 E0= -.19224869E+03  d E =-.288043E-02
       N       E                     dE             d eps       ncg     rms          rms(c)
DAV:   1    -0.192373132123E+03    0.11034E-03   -0.19396E-01  3744   0.674E-01    0.492E-02
RMM:   2    -0.192373437837E+03   -0.30571E-03   -0.24277E-03  3681   0.102E-01    0.104E-01
RMM:   3    -0.192373361598E+03    0.76240E-04   -0.19907E-04  3698   0.234E-02    0.544E-02
RMM:   4    -0.192373339907E+03    0.21691E-04   -0.25768E-05  3680   0.874E-03    0.281E-02
RMM:   5    -0.192373337131E+03    0.27756E-05   -0.12259E-05  3627   0.567E-03    0.218E-02
RMM:   6    -0.192373341147E+03   -0.40153E-05   -0.29901E-05  3670   0.842E-03    0.252E-02
RMM:   7    -0.192373335485E+03    0.56617E-05   -0.11993E-05  3540   0.538E-03    0.104E-02
RMM:   8    -0.192373334761E+03    0.72413E-06   -0.20930E-06  2231   0.239E-03
  14 F= -.19237333E+03 E0= -.19224891E+03  d E =-.297365E-02
       N       E                     dE             d eps       ncg     rms          rms(c)
DAV:   1    -0.192372612992E+03    0.72249E-03   -0.22073E+00  3672   0.228E+00    0.165E-01
RMM:   2    -0.192375868373E+03   -0.32554E-02   -0.27062E-02  3681   0.341E-01    0.315E-01
RMM:   3    -0.192375329250E+03    0.53912E-03   -0.21835E-03  3701   0.776E-02    0.202E-01
RMM:   4    -0.192374996230E+03    0.33302E-03   -0.28799E-04  3686   0.292E-02    0.961E-02
RMM:   5    -0.192374961336E+03    0.34894E-04   -0.15131E-04  3679   0.198E-02    0.778E-02
RMM:   6    -0.192374992456E+03   -0.31120E-04   -0.36105E-04  3680   0.293E-02    0.834E-02
RMM:   7    -0.192374930232E+03    0.62224E-04   -0.12288E-04  3679   0.172E-02    0.331E-02
RMM:   8    -0.192374922157E+03    0.80748E-05   -0.21580E-05  3668   0.735E-03    0.223E-02
RMM:   9    -0.192374915708E+03    0.64494E-05   -0.78607E-06  3473   0.448E-03    0.967E-03
RMM:  10    -0.192374915096E+03    0.61155E-06   -0.22789E-06  2174   0.243E-03
  15 F= -.19237492E+03 E0= -.19225076E+03  d E =-.158034E-02
       N       E                     dE             d eps       ncg     rms          rms(c)
DAV:   1    -0.192374595338E+03    0.32037E-03   -0.40285E-01  3684   0.972E-01    0.716E-02
RMM:   2    -0.192375205247E+03   -0.60991E-03   -0.50075E-03  3681   0.146E-01    0.142E-01
RMM:   3    -0.192375084570E+03    0.12068E-03   -0.41176E-04  3697   0.337E-02    0.862E-02
RMM:   4    -0.192375027753E+03    0.56818E-04   -0.53798E-05  3686   0.126E-02    0.414E-02
RMM:   5    -0.192375022287E+03    0.54660E-05   -0.27226E-05  3672   0.841E-03    0.327E-02
RMM:   6    -0.192375030720E+03   -0.84334E-05   -0.62652E-05  3678   0.122E-02    0.356E-02
RMM:   7    -0.192375019082E+03    0.11638E-04   -0.23452E-05  3660   0.752E-03    0.138E-02
RMM:   8    -0.192375017981E+03    0.11017E-05   -0.39377E-06  2691   0.319E-03    0.101E-02
RMM:   9    -0.192375016733E+03    0.12478E-05   -0.14571E-06  1980   0.214E-03    0.442E-03
RMM:  10    -0.192375016634E+03    0.98727E-07   -0.53042E-07  1928   0.126E-03
  16 F= -.19237502E+03 E0= -.19225099E+03  d E =-.168187E-02
       N       E                     dE             d eps       ncg     rms          rms(c)
DAV:   1    -0.192374227348E+03    0.78938E-03   -0.15138E+00  3672   0.189E+00    0.121E-01
RMM:   2    -0.192376169487E+03   -0.19421E-02   -0.17614E-02  3681   0.280E-01    0.202E-01
RMM:   3    -0.192376042734E+03    0.12675E-03   -0.12801E-03  3703   0.603E-02    0.172E-01
RMM:   4    -0.192375793795E+03    0.24894E-03   -0.16089E-04  3685   0.223E-02    0.738E-02
RMM:   5    -0.192375789027E+03    0.47686E-05   -0.91010E-05  3682   0.154E-02    0.701E-02
RMM:   6    -0.192375800839E+03   -0.11812E-04   -0.22397E-04  3679   0.233E-02    0.677E-02
RMM:   7    -0.192375762031E+03    0.38808E-04   -0.91003E-05  3679   0.148E-02    0.237E-02
RMM:   8    -0.192375760618E+03    0.14132E-05   -0.13412E-05  3614   0.576E-03    0.195E-02
RMM:   9    -0.192375755961E+03    0.46572E-05   -0.47992E-06  2854   0.361E-03    0.858E-03
RMM:  10    -0.192375755396E+03    0.56438E-06   -0.15690E-06  1963   0.212E-03
  17 F= -.19237576E+03 E0= -.19225177E+03  d E =-.738762E-03
       N       E                     dE             d eps       ncg     rms          rms(c)
DAV:   1    -0.192375673855E+03    0.82106E-04   -0.81308E-02  3732   0.438E-01    0.293E-02
RMM:   2    -0.192375782955E+03   -0.10910E-03   -0.97370E-04  3682   0.655E-02    0.517E-02
RMM:   3    -0.192375770732E+03    0.12224E-04   -0.74007E-05  3702   0.144E-02    0.414E-02
RMM:   4    -0.192375757265E+03    0.13467E-04   -0.95427E-06  3624   0.544E-03    0.178E-02
RMM:   5    -0.192375757172E+03    0.93292E-07   -0.47896E-06  2858   0.363E-03
  18 F= -.19237576E+03 E0= -.19225175E+03  d E =-.740538E-03
       N       E                     dE             d eps       ncg     rms          rms(c)
DAV:   1    -0.192375375919E+03    0.38135E-03   -0.69884E-01  3684   0.129E+00    0.888E-02
RMM:   2    -0.192376263620E+03   -0.88770E-03   -0.80874E-03  3682   0.190E-01    0.138E-01
RMM:   3    -0.192376215208E+03    0.48413E-04   -0.61045E-04  3703   0.416E-02    0.124E-01
RMM:   4    -0.192376100822E+03    0.11439E-03   -0.92579E-05  3686   0.165E-02    0.619E-02
RMM:   5    -0.192376086075E+03    0.14747E-04   -0.47168E-05  3678   0.111E-02    0.473E-02
RMM:   6    -0.192376094562E+03   -0.84876E-05   -0.10783E-04  3680   0.162E-02    0.443E-02
RMM:   7    -0.192376078202E+03    0.16360E-04   -0.42887E-05  3672   0.102E-02    0.172E-02
RMM:   8    -0.192376076863E+03    0.13391E-05   -0.66355E-06  3030   0.410E-03    0.134E-02
RMM:   9    -0.192376074682E+03    0.21806E-05   -0.23529E-06  2212   0.262E-03    0.605E-03
RMM:  10    -0.192376074346E+03    0.33677E-06   -0.88030E-07  1940   0.165E-03
  19 F= -.19237607E+03 E0= -.19225211E+03  d E =-.317174E-03
