 vasp.5.4.1 24Jun15 (build Mar 14 2019 10:18:33) complex                        
  
 executed on INTEL-19.0.2+OPENMPI date 2023.01.30  16:52:09
 running on   36 total cores
 distrk:  each k-point on   36 cores,    1 groups
 distr:  one band on NCORES_PER_BAND=   6 cores,    6 groups


--------------------------------------------------------------------------------------------------------


 INCAR:
 POTCAR:    PAW_PBE Au 04Oct2007                  
 POTCAR:    PAW_PBE Pd 04Jan2005                  
 POTCAR:    PAW_PBE Au 04Oct2007                  
  local pseudopotential read in
  partial core-charges read in
  partial kinetic energy density read in
  atomic valenz-charges read in
  non local Contribution for L=           2  read in
    real space projection operators read in
  non local Contribution for L=           2  read in
    real space projection operators read in
  non local Contribution for L=           0  read in
    real space projection operators read in
  non local Contribution for L=           0  read in
    real space projection operators read in
  non local Contribution for L=           1  read in
    real space projection operators read in
  non local Contribution for L=           1  read in
    real space projection operators read in
    PAW grid and wavefunctions read in
 
   number of l-projection  operators is LMAX  =           6
   number of lm-projection operators is LMMAX =          18
 
 POTCAR:    PAW_PBE Pd 04Jan2005                  
  local pseudopotential read in
  partial core-charges read in
  partial kinetic energy density read in
  atomic valenz-charges read in
  non local Contribution for L=           2  read in
    real space projection operators read in
  non local Contribution for L=           2  read in
    real space projection operators read in
  non local Contribution for L=           0  read in
    real space projection operators read in
  non local Contribution for L=           0  read in
    real space projection operators read in
  non local Contribution for L=           1  read in
    real space projection operators read in
  non local Contribution for L=           1  read in
    real space projection operators read in
    PAW grid and wavefunctions read in
 
   number of l-projection  operators is LMAX  =           6
   number of lm-projection operators is LMMAX =          18
 
 Optimization of the real space projectors (new method)

 maximal supplied QI-value         = 15.12
 optimisation between [QCUT,QGAM] = [ 10.13, 20.41] = [ 28.73,116.64] Ry 
 Optimized for a Real-space Cutoff    1.51 Angstroem

   l    n(q)    QCUT    max X(q) W(low)/X(q) W(high)/X(q)  e(spline) 
   2      8    10.129    60.898    0.46E-03    0.46E-03    0.14E-06
   2      8    10.129    58.894    0.47E-03    0.47E-03    0.14E-06
   0      9    10.129   109.617    0.16E-03    0.11E-03    0.54E-07
   0      9    10.129    75.026    0.15E-03    0.11E-03    0.52E-07
   1      9    10.129    16.344    0.96E-04    0.15E-03    0.14E-06
   1      9    10.129    10.160    0.81E-04    0.12E-03    0.11E-06
 Optimization of the real space projectors (new method)

 maximal supplied QI-value         = 14.36
 optimisation between [QCUT,QGAM] = [ 10.20, 20.39] = [ 29.12,116.47] Ry 
 Optimized for a Real-space Cutoff    1.51 Angstroem

   l    n(q)    QCUT    max X(q) W(low)/X(q) W(high)/X(q)  e(spline) 
   2      8    10.197    59.108    0.26E-03    0.14E-03    0.96E-07
   2      8    10.197    58.101    0.27E-03    0.14E-03    0.98E-07
   0      9    10.197   102.235    0.54E-04    0.60E-05    0.72E-07
   0      9    10.197    58.388    0.52E-04    0.60E-05    0.68E-07
   1      9    10.197    22.191    0.18E-03    0.25E-03    0.79E-07
   1      9    10.197    15.590    0.15E-03    0.21E-03    0.69E-07
  PAW_PBE Au 04Oct2007                  :
 energy of atom  1       EATOM= -926.0867
 kinetic energy error for atom=    0.0062 (will be added to EATOM!!)
  PAW_PBE Pd 04Jan2005                  :
 energy of atom  2       EATOM= -809.7530
 kinetic energy error for atom=    0.0091 (will be added to EATOM!!)
 
 
 POSCAR: Au Pd                                   
  positions in cartesian coordinates
  No initial velocities read in
 exchange correlation table for  LEXCH =        8
   RHO(1)=    0.500       N(1)  =     2000
   RHO(2)=  100.500       N(2)  =     4000

 VTST: version 3.2, (02/03/18)

 CHAIN: initializing optimizer
 
 OPT: Using VASP Conjugate-Gradient optimizer
 CHAIN: Read ICHAIN            0
 
 POSCAR: Au Pd                                   
  positions in cartesian coordinates
  No initial velocities read in
 


--------------------------------------------------------------------------------------------------------


 ion  position               nearest neighbor table
   1  0.083  0.083  0.408-  28 2.75  12 2.75   2 2.75  29 2.75  41 2.75  37 2.75  27 2.75  16 2.75
                            44 2.75
   2  0.083  0.833  0.408-  16 2.75   3 2.75  13 2.75   1 2.75  37 2.75  29 2.75   8 2.75   6 2.75
                            25 2.75
   3  0.083  0.583  0.408-   6 2.75   4 2.75   2 2.75   8 2.75  41 2.75  13 2.75  10 2.75  30 2.75
                            46 2.75
   4  0.333  0.333  0.408-  19 2.75  13 2.75   3 2.75  23 2.75  27 2.75  20 2.75  41 2.75  22 2.75
                            30 2.75
   5  0.750  0.750  0.592-  31 2.75  46 2.75  24 2.75   9 2.75  35 2.75  21 2.75  26 2.75  47 2.75
                            42 2.75
   6  0.167  0.667  0.500-   3 2.75  45 2.75  26 2.75  25 2.75  16 2.75  30 2.75  19 2.75  33 2.75
                            46 2.75   2 2.75  13 2.75  48 2.75
   7  0.583  0.833  0.408-  31 2.75  17 2.75  23 2.75  27 2.75  10 2.75  29 2.75   8 2.75  42 2.75
                            14 2.75
   8  0.833  0.833  0.408-  25 2.75  10 2.75  23 2.75   3 2.75  37 2.75   2 2.75   7 2.75  46 2.75
                            31 2.75
   9  0.750  0.500  0.592-  42 2.75  36 2.75  39 2.75  40 2.75   5 2.75  47 2.75  35 2.75  15 2.75
                            11 2.75
  10  0.833  0.583  0.408-  46 2.75   8 2.75  12 2.75  41 2.75   7 2.75   3 2.75  17 2.75  36 2.75
                            42 2.75
  11  0.667  0.417  0.500-  20 2.75  40 2.75  15 2.75  38 2.75  33 2.75  42 2.75  44 2.75  19 2.75
                            36 2.75  17 2.75   9 2.75  12 2.75
  12  0.833  0.333  0.408-  36 2.75  10 2.75  17 2.75   1 2.75  37 2.75  20 2.75  41 2.75  44 2.75
                            11 2.75
  13  0.333  0.583  0.408-  33 2.75   4 2.75  20 2.75  29 2.75   2 2.75  17 2.75   3 2.75  19 2.75
                             6 2.75
  14  0.417  0.917  0.500-  29 2.75  47 2.75  34 2.75  33 2.75  28 2.75  42 2.75  22 2.75  16 2.75
                            31 2.75  27 2.75  21 2.75   7 2.75
  15  0.500  0.500  0.592-  33 2.75  11 2.75  18 2.75  40 2.75  47 2.75  48 2.75   9 2.75  45 2.75
                            19 2.75
  16  0.167  0.917  0.500-   2 2.75  48 2.75  43 2.75  33 2.75   6 2.75  44 2.75  28 2.75  25 2.75
                            14 2.75   1 2.75  34 2.75  29 2.75
  17  0.583  0.583  0.408-  42 2.75  12 2.75  20 2.75  29 2.75   7 2.75  13 2.75  10 2.75  11 2.75
                            33 2.75
  18  0.500  0.250  0.592-  19 2.75  38 2.75  21 2.75  24 2.75  15 2.75  45 2.75  40 2.75  32 2.75
                            22 2.75
  19  0.417  0.417  0.500-   4 2.75  18 2.75  45 2.75  22 2.75  33 2.75  38 2.75   6 2.75  30 2.75
                            11 2.75  13 2.75  20 2.75  15 2.75
  20  0.583  0.333  0.408-  11 2.75  13 2.75  17 2.75  23 2.75  37 2.75   4 2.75  12 2.75  38 2.75
                            19 2.75
  21  0.500  0.000  0.592-  22 2.75  31 2.75   5 2.75  18 2.75  32 2.75  47 2.75  34 2.75  24 2.75
                            14 2.75
  22  0.417  0.167  0.500-  27 2.75  21 2.75  32 2.75  19 2.75  30 2.75  31 2.75  14 2.75  28 2.75
                            38 2.75   4 2.75  18 2.75  23 2.75
  23  0.583  0.083  0.408-  38 2.75   7 2.75   8 2.75  20 2.75   4 2.75  37 2.75  27 2.75  31 2.75
                            22 2.75
  24  0.750  0.000  0.592-  38 2.75  25 2.75   5 2.75  26 2.75  18 2.75  40 2.75  21 2.75  43 2.75
                            31 2.75
  25  0.917  0.917  0.500-   8 2.75  26 2.75  24 2.75   6 2.75  38 2.75  44 2.75  46 2.75  31 2.75
                            16 2.75  37 2.75   2 2.75  43 2.75
  26  0.000  0.750  0.592-  25 2.75   6 2.75  24 2.75  35 2.75  43 2.75  45 2.75   5 2.75  48 2.75
                            46 2.75
  27  0.333  0.083  0.408-  22 2.75   7 2.75   4 2.75  29 2.75  41 2.75   1 2.75  23 2.75  14 2.75
                            28 2.75
  28  0.167  0.167  0.500-   1 2.75  34 2.75  39 2.75  30 2.75  14 2.75  36 2.75  16 2.75  22 2.75
                            44 2.75  41 2.75  32 2.75  27 2.75
  29  0.333  0.833  0.408-  14 2.75  13 2.75   1 2.75  17 2.75  27 2.75   2 2.75   7 2.75  33 2.75
                            16 2.75
  30  0.167  0.417  0.500-  41 2.75  32 2.75  35 2.75   6 2.75  22 2.75  28 2.75  46 2.75  19 2.75
                            36 2.75   3 2.75  45 2.75   4 2.75
  31  0.667  0.917  0.500-   7 2.75   5 2.75  21 2.75  22 2.75  38 2.75  42 2.75  46 2.75  25 2.75
                            14 2.75  23 2.75   8 2.75  24 2.75
  32  0.250  0.250  0.592-  30 2.75  22 2.75  21 2.75  34 2.75  35 2.75  45 2.75  39 2.75  18 2.75
                            28 2.75
  33  0.417  0.667  0.500-  13 2.75  15 2.75  48 2.75  11 2.75  16 2.75  19 2.75  14 2.75  42 2.75
                             6 2.75  29 2.75  47 2.75  17 2.75
  34  0.250  0.000  0.592-  28 2.75  14 2.75  32 2.75  39 2.75  47 2.75  48 2.75  21 2.75  43 2.75
                            16 2.75
  35  0.000  0.500  0.592-  46 2.75  30 2.75   5 2.75  32 2.75  39 2.75  26 2.75  45 2.75   9 2.75
                            36 2.75
  36  0.917  0.417  0.500-  12 2.75  39 2.75   9 2.75  28 2.75  42 2.75  44 2.75  46 2.75  11 2.75
                            30 2.75  10 2.75  41 2.75  35 2.75
  37  0.833  0.083  0.408-  44 2.75   8 2.75  12 2.75  20 2.75   2 2.75  23 2.75   1 2.75  25 2.75
                            38 2.75
  38  0.667  0.167  0.500-  23 2.75  24 2.75  18 2.75  11 2.75  19 2.75  25 2.75  31 2.75  22 2.75
                            44 2.75  20 2.75  40 2.75  37 2.75
  39  0.000  0.250  0.592-  36 2.75  28 2.75  34 2.75  35 2.75   9 2.75  43 2.75  40 2.75  32 2.75
                            44 2.75
  40  0.750  0.250  0.592-  11 2.75  44 2.75  15 2.75  24 2.75  43 2.75   9 2.75  18 2.75  39 2.75
                            38 2.75
  41  0.083  0.333  0.408-  30 2.75   3 2.75  10 2.75  27 2.75   1 2.75   4 2.75  12 2.75  28 2.75
                            36 2.75
  42  0.667  0.667  0.500-  17 2.75   9 2.75  47 2.75  11 2.75  31 2.75  36 2.75  14 2.75  46 2.75
                            33 2.75   7 2.75   5 2.75  10 2.75
  43  0.000  0.000  0.592-  44 2.75  16 2.75  39 2.75  40 2.75  26 2.75  48 2.75  24 2.75  34 2.75
                            25 2.75
  44  0.917  0.167  0.500-  37 2.75  43 2.75  40 2.75  36 2.75  11 2.75  16 2.75  25 2.75  28 2.75
                            38 2.75  12 2.75   1 2.75  39 2.75
  45  0.250  0.500  0.592-   6 2.75  19 2.75  18 2.75  26 2.75  32 2.75  48 2.75  35 2.75  15 2.75
                            30 2.75
  46  0.917  0.667  0.500-  10 2.75  35 2.75   5 2.75  30 2.75  31 2.75  25 2.75  36 2.75   6 2.75
                            42 2.75   8 2.75  26 2.75   3 2.75
  47  0.500  0.750  0.592-  14 2.75  42 2.75  15 2.75  21 2.75  34 2.75   9 2.75   5 2.75  48 2.75
                            33 2.75
  48  0.250  0.750  0.592-  16 2.75  33 2.75  15 2.75  34 2.75  43 2.75  45 2.75  26 2.75  47 2.75
                             6 2.75
 
  LATTYP: Found a hexagonal cell.
 ALAT       =    11.0025815153
 C/A-ratio  =     2.2260035120
  
  Lattice vectors:
  
 A1 = (   5.5012907576,  -9.5285150994,   0.0000000000)
 A2 = ( -11.0025815153,   0.0000000000,   0.0000000000)
 A3 = (   0.0000000000,   0.0000000000, -24.4917850943)


Analysis of symmetry for initial positions (statically):
=====================================================================
 Subroutine PRICEL returns:
 Original cell was already a primitive cell.
 

 Routine SETGRP: Setting up the symmetry group for a 
 hexagonal supercell.


 Subroutine GETGRP returns: Found  1 space group operations
 (whereof  1 operations were pure point group operations)
 out of a pool of 24 trial point group operations.


The static configuration has the point symmetry C_1 .


Analysis of symmetry for dynamics (positions and initial velocities):
=====================================================================
 Subroutine PRICEL returns:
 Original cell was already a primitive cell.
 

 Routine SETGRP: Setting up the symmetry group for a 
 hexagonal supercell.


 Subroutine GETGRP returns: Found  1 space group operations
 (whereof  1 operations were pure point group operations)
 out of a pool of 24 trial point group operations.


The dynamic configuration has the point symmetry C_1 .


Analysis of constrained symmetry for selective dynamics:
=====================================================================
 Subroutine PRICEL returns:
 Original cell was already a primitive cell.
 

 Routine SETGRP: Setting up the symmetry group for a 
 hexagonal supercell.


 Subroutine GETGRP returns: Found  1 space group operations
 (whereof  1 operations were pure point group operations)
 out of a pool of 24 trial point group operations.


The constrained configuration has the point symmetry C_1 .
 
 
 KPOINTS: Automatic mesh                          

Automatic generation of k-mesh.
Space group operators:
 irot       det(A)        alpha          n_x          n_y          n_z        tau_x        tau_y        tau_z
    1     1.000000     0.000000     1.000000     0.000000     0.000000     0.000000     0.000000     0.000000
 
 Subroutine IBZKPT returns following result:
 ===========================================
 
 Found      6 irreducible k-points:
 
 Following reciprocal coordinates:
            Coordinates               Weight
  0.250000  0.250000  0.000000     16.000000
  0.000000  0.250000  0.000000     16.000000
 -0.250000  0.000000  0.000000     16.000000
 -0.250000  0.250000  0.000000     16.000000
  0.500000 -0.250000  0.000000     16.000000
 -0.250000  0.500000  0.000000     16.000000
 
 Following cartesian coordinates:
            Coordinates               Weight
  0.022722  0.013119  0.000000     16.000000
  0.000000  0.026237  0.000000     16.000000
 -0.022722  0.013119  0.000000     16.000000
 -0.022722  0.039356  0.000000     16.000000
  0.045444 -0.052474  0.000000     16.000000
 -0.022722  0.065593  0.000000     16.000000
 


--------------------------------------------------------------------------------------------------------




 Dimension of arrays:
   k-points           NKPTS =      6   k-points in BZ     NKDIM =      6   number of bands    NBANDS=    306
   number of dos      NEDOS =    301   number of ions     NIONS =     48
   non local maximal  LDIM  =      6   non local SUM 2l+1 LMDIM =     18
   total plane-waves  NPLWV = 349920
   max r-space proj   IRMAX =   2009   max aug-charges    IRDMAX=   8532
   dimension x,y,z NGX =    54 NGY =   54 NGZ =  120
   dimension x,y,z NGXF=   108 NGYF=  108 NGZF=  240
   support grid    NGXF=   108 NGYF=  108 NGZF=  240
   ions per type =              24  24
 NGX,Y,Z   is equivalent  to a cutoff of   8.16,  8.16,  8.15 a.u.
 NGXF,Y,Z  is equivalent  to a cutoff of  16.32, 16.32, 16.29 a.u.


 I would recommend the setting:
   dimension x,y,z NGX =    54 NGY =   54 NGZ =  120
 SYSTEM =  unknown system                          
 POSCAR =  Au Pd                                   

 Startparameter for this run:
   NWRITE =      1    write-flag & timer
   PREC   = normal    normal or accurate (medium, high low for compatibility)
   ISTART =      0    job   : 0-new  1-cont  2-samecut
   ICHARG =      2    charge: 1-file 2-atom 10-const
   ISPIN  =      1    spin polarized calculation?
   LNONCOLLINEAR =      F non collinear calculations
   LSORBIT =      F    spin-orbit coupling
   INIWAV =      1    electr: 0-lowe 1-rand  2-diag
   LASPH  =      F    aspherical Exc in radial PAW
   METAGGA=      F    non-selfconsistent MetaGGA calc.

 Electronic Relaxation 1
   ENCUT  =  400.0 eV  29.40 Ry    5.42 a.u.  17.94 17.94 39.94*2*pi/ulx,y,z
   ENINI  =  400.0     initial cutoff
   ENAUG  =  416.2 eV  augmentation charge cutoff
   NELM   =    500;   NELMIN=  2; NELMDL= -5     # of ELM steps 
   EDIFF  = 0.1E-05   stopping-criterion for ELM
   LREAL  =      T    real-space projection
   NLSPLINE    = F    spline interpolate recip. space projectors
   LCOMPAT=      F    compatible to vasp.4.4
   GGA_COMPAT  = T    GGA compatible to vasp.4.4-vasp.4.6
   LMAXPAW     = -100 max onsite density
   LMAXMIX     =    2 max onsite mixed and CHGCAR
   VOSKOWN=      1    Vosko Wilk Nusair interpolation
   ROPT   =   -0.00050  -0.00050
 Ionic relaxation
   EDIFFG = -.2E-01   stopping-criterion for IOM
   NSW    =    500    number of steps for IOM
   NBLOCK =      1;   KBLOCK =    500    inner block; outer block 
   IBRION =      2    ionic relax: 0-MD 1-quasi-New 2-CG
   NFREE  =      2    steps in history (QN), initial steepest desc. (CG)
   ISIF   =      0    stress and relaxation
   IWAVPR =     11    prediction:  0-non 1-charg 2-wave 3-comb
   ISYM   =      2    0-nonsym 1-usesym 2-fastsym
   LCORR  =      T    Harris-Foulkes like correction to forces

   POTIM  = 0.3500    time-step for ionic-motion
   TEIN   =    0.0    initial temperature
   TEBEG  =    0.0;   TEEND  =   0.0 temperature during run
   SMASS  =  -3.00    Nose mass-parameter (am)
   estimated Nose-frequenzy (Omega)   =  0.10E-29 period in steps =****** mass=  -0.277E-26a.u.
   SCALEE = 1.0000    scale energy and forces
   NPACO  =    256;   APACO  = 16.0  distance and # of slots for P.C.
   PSTRESS=    0.0 pullay stress

  Mass of Ions in am
   POMASS = 196.97106.42
  Ionic Valenz
   ZVAL   =  11.00 10.00
  Atomic Wigner-Seitz radii
   RWIGS  =  -1.00 -1.00
  virtual crystal weights 
   VCA    =   1.00  1.00
   NELECT =     504.0000    total number of electrons
   NUPDOWN=      -1.0000    fix difference up-down

 DOS related values:
   EMIN   =  10.00;   EMAX   =-10.00  energy-range for DOS
   EFERMI =   0.00
   ISMEAR =     0;   SIGMA  =   0.10  broadening in eV -4-tet -1-fermi 0-gaus

 Electronic relaxation 2 (details)
   IALGO  =     68    algorithm
   LDIAG  =      T    sub-space diagonalisation (order eigenvalues)
   LSUBROT=      F    optimize rotation matrix (better conditioning)
   TURBO    =      0    0=normal 1=particle mesh
   IRESTART =      0    0=no restart 2=restart with 2 vectors
   NREBOOT  =      0    no. of reboots
   NMIN     =      0    reboot dimension
   EREF     =   0.00    reference energy to select bands
   IMIX   =      4    mixing-type and parameters
     AMIX     =   0.40;   BMIX     =  1.00
     AMIX_MAG =   1.60;   BMIX_MAG =  1.00
     AMIN     =   0.10
     WC   =   100.;   INIMIX=   1;  MIXPRE=   1;  MAXMIX= -45

 Intra band minimization:
   WEIMIN = 0.0010     energy-eigenvalue tresh-hold
   EBREAK =  0.82E-09  absolut break condition
   DEPER  =   0.30     relativ break condition  

   TIME   =   0.40     timestep for ELM

  volume/ion in A,a.u.               =      53.49       360.99
  Fermi-wavevector in a.u.,A,eV,Ry     =   0.951418  1.797920 12.315955  0.905197
  Thomas-Fermi vector in A             =   2.079887
 
 Write flags
   LWAVE  =      F    write WAVECAR
   LCHARG =      F    write CHGCAR
   LVTOT  =      F    write LOCPOT, total local potential
   LVHAR  =      F    write LOCPOT, Hartree potential only
   LELF   =      F    write electronic localiz. function (ELF)
   LORBIT =      0    0 simple, 1 ext, 2 COOP (PROOUT)


 Dipole corrections
   LMONO  =      F    monopole corrections only (constant potential shift)
   LDIPOL =      T    correct potential (dipole corrections)
   IDIPOL =      3    1-x, 2-y, 3-z, 4-all directions 
   EPSILON=  1.0000000 bulk dielectric constant

 Exchange correlation treatment:
   GGA     =    PE    GGA type
   LEXCH   =     8    internal setting for exchange type
   VOSKOWN=      1    Vosko Wilk Nusair interpolation
   LHFCALC =     F    Hartree Fock is set to
   LHFONE  =     F    Hartree Fock one center treatment
   AEXX    =    0.0000 exact exchange contribution

 Linear response parameters
   LEPSILON=     F    determine dielectric tensor
   LRPA    =     F    only Hartree local field effects (RPA)
   LNABLA  =     F    use nabla operator in PAW spheres
   LVEL    =     F    velocity operator in full k-point grid
   LINTERFAST=   F  fast interpolation
   KINTER  =     0    interpolate to denser k-point grid
   CSHIFT  =0.1000    complex shift for real part using Kramers Kronig
   OMEGAMAX=  -1.0    maximum frequency
   DEG_THRESHOLD= 0.2000000E-02 threshold for treating states as degnerate
   RTIME   =    0.100 relaxation time in fs

 Orbital magnetization related:
   ORBITALMAG=     F  switch on orbital magnetization
   LCHIMAG   =     F  perturbation theory with respect to B field
   DQ        =  0.001000  dq finite difference perturbation B field



--------------------------------------------------------------------------------------------------------


 conjugate gradient relaxation of ions
   using selective dynamics as specified on POSCAR
   WARNING: If single coordinates had been selected the selection of coordinates
            is made according to the corresponding   d i r e c t   coordinates!
            Don't support selection of single cartesian coordinates -- sorry ...
  !
 charge density and potential will be updated during run
 non-spin polarized calculation
 RMM-DIIS sequential band-by-band and
  variant of blocked Davidson during initial phase
 perform sub-space diagonalisation
    before iterative eigenvector-optimisation
 modified Broyden-mixing scheme, WC =      100.0
 initial mixing is a Kerker type mixing with AMIX =  0.4000 and BMIX =      1.0000
 Hartree-type preconditioning will be used
 using additional bands           54
 real space projection scheme for non local part
 use partial core corrections
 calculate Harris-corrections to forces 
   (improved forces if not selfconsistent)
 use gradient corrections 
 use of overlap-Matrix (Vanderbilt PP)
 Gauss-broadening in eV      SIGMA  =   0.10


--------------------------------------------------------------------------------------------------------


  energy-cutoff  :      400.00
  volume of cell :     2567.68
      direct lattice vectors                 reciprocal lattice vectors
    11.002581515  0.000000000  0.000000000     0.090887761 -0.052474073  0.000000000
     5.501290758  9.528515099  0.000000000     0.000000000  0.104948147  0.000000000
     0.000000000  0.000000000 24.491785094     0.000000000  0.000000000  0.040830017

  length of vectors
    11.002581515 11.002581515 24.491785094     0.104948147  0.104948147  0.040830017


 
 k-points in units of 2pi/SCALE and weight: Automatic mesh                          
   0.02272194  0.01311852  0.00000000       0.167
   0.00000000  0.02623704  0.00000000       0.167
  -0.02272194  0.01311852  0.00000000       0.167
  -0.02272194  0.03935555  0.00000000       0.167
   0.04544388 -0.05247407  0.00000000       0.167
  -0.02272194  0.06559259  0.00000000       0.167
 
 k-points in reciprocal lattice and weights: Automatic mesh                          
   0.25000000  0.25000000  0.00000000       0.167
   0.00000000  0.25000000  0.00000000       0.167
  -0.25000000  0.00000000  0.00000000       0.167
  -0.25000000  0.25000000  0.00000000       0.167
   0.50000000 -0.25000000  0.00000000       0.167
  -0.25000000  0.50000000  0.00000000       0.167
 
 position of ions in fractional coordinates (direct lattice) 
   0.08333333  0.08333333  0.40830017
   0.08333333  0.83333333  0.40830017
   0.08333333  0.58333333  0.40830017
   0.33333333  0.33333333  0.40830017
   0.75000000  0.75000000  0.59169983
   0.16666667  0.66666667  0.50000000
   0.58333333  0.83333333  0.40830017
   0.83333333  0.83333333  0.40830017
   0.75000000  0.50000000  0.59169983
   0.83333333  0.58333333  0.40830017
   0.66666667  0.41666667  0.50000000
   0.83333333  0.33333333  0.40830017
   0.33333333  0.58333333  0.40830017
   0.41666667  0.91666667  0.50000000
   0.50000000  0.50000000  0.59169983
   0.16666667  0.91666667  0.50000000
   0.58333333  0.58333333  0.40830017
   0.50000000  0.25000000  0.59169983
   0.41666667  0.41666667  0.50000000
   0.58333333  0.33333333  0.40830017
   0.50000000  0.00000000  0.59169983
   0.41666667  0.16666667  0.50000000
   0.58333333  0.08333333  0.40830017
   0.75000000  0.00000000  0.59169983
   0.91666667  0.91666667  0.50000000
   0.00000000  0.75000000  0.59169983
   0.33333333  0.08333333  0.40830017
   0.16666667  0.16666667  0.50000000
   0.33333333  0.83333333  0.40830017
   0.16666667  0.41666667  0.50000000
   0.66666667  0.91666667  0.50000000
   0.25000000  0.25000000  0.59169983
   0.41666667  0.66666667  0.50000000
   0.25000000  0.00000000  0.59169983
   0.00000000  0.50000000  0.59169983
   0.91666667  0.41666667  0.50000000
   0.83333333  0.08333333  0.40830017
   0.66666667  0.16666667  0.50000000
   0.00000000  0.25000000  0.59169983
   0.75000000  0.25000000  0.59169983
   0.08333333  0.33333333  0.40830017
   0.66666667  0.66666667  0.50000000
   0.00000000  0.00000000  0.59169983
   0.91666667  0.16666667  0.50000000
   0.25000000  0.50000000  0.59169983
   0.91666667  0.66666667  0.50000000
   0.50000000  0.75000000  0.59169983
   0.25000000  0.75000000  0.59169983
 
 position of ions in cartesian coordinates  (Angst):
   1.37532269  0.79404292 10.00000000
   5.50129076  7.94042925 10.00000000
   4.12596807  5.55830047 10.00000000
   5.50129076  3.17617170 10.00000000
  12.37790420  7.14638632 14.49178509
   5.50129076  6.35234340 12.24589255
  11.00258152  7.94042925 10.00000000
  13.75322689  7.94042925 10.00000000
  11.00258152  4.76425755 14.49178509
  12.37790420  5.55830047 10.00000000
   9.62725883  3.97021462 12.24589255
  11.00258152  3.17617170 10.00000000
   6.87661345  5.55830047 10.00000000
   9.62725883  8.73447217 12.24589255
   8.25193614  4.76425755 14.49178509
   6.87661345  8.73447217 12.24589255
   9.62725883  5.55830047 10.00000000
   6.87661345  2.38212877 14.49178509
   6.87661345  3.97021462 12.24589255
   8.25193614  3.17617170 10.00000000
   5.50129076  0.00000000 14.49178509
   5.50129076  1.58808585 12.24589255
   6.87661345  0.79404292 10.00000000
   8.25193614  0.00000000 14.49178509
  15.12854958  8.73447217 12.24589255
   4.12596807  7.14638632 14.49178509
   4.12596807  0.79404292 10.00000000
   2.75064538  1.58808585 12.24589255
   8.25193614  7.94042925 10.00000000
   4.12596807  3.97021462 12.24589255
  12.37790420  8.73447217 12.24589255
   4.12596807  2.38212877 14.49178509
   8.25193614  6.35234340 12.24589255
   2.75064538  0.00000000 14.49178509
   2.75064538  4.76425755 14.49178509
  12.37790420  3.97021462 12.24589255
   9.62725883  0.79404292 10.00000000
   8.25193614  1.58808585 12.24589255
   1.37532269  2.38212877 14.49178509
   9.62725883  2.38212877 14.49178509
   2.75064538  3.17617170 10.00000000
  11.00258152  6.35234340 12.24589255
   0.00000000  0.00000000 14.49178509
  11.00258152  1.58808585 12.24589255
   5.50129076  4.76425755 14.49178509
  13.75322689  6.35234340 12.24589255
   9.62725883  7.14638632 14.49178509
   6.87661345  7.14638632 14.49178509
 


--------------------------------------------------------------------------------------------------------


 k-point  1 :   0.2500 0.2500 0.0000  plane waves:   46635
 k-point  2 :   0.0000 0.2500 0.0000  plane waves:   46635
 k-point  3 :  -0.2500 0.0000 0.0000  plane waves:   46635
 k-point  4 :  -0.2500 0.2500 0.0000  plane waves:   46644
 k-point  5 :   0.5000-0.2500 0.0000  plane waves:   46644
 k-point  6 :  -0.2500 0.5000 0.0000  plane waves:   46644

 maximum and minimum number of plane-waves per node :      7818     7732

 maximum number of plane-waves:     46644
 maximum index in each direction: 
   IXMAX=   18   IYMAX=   18   IZMAX=   39
   IXMIN=  -18   IYMIN=  -18   IZMIN=  -39

 WARNING: aliasing errors must be expected set NGX to  74 to avoid them
 WARNING: aliasing errors must be expected set NGY to  74 to avoid them
 WARNING: aliasing errors must be expected set NGZ to 158 to avoid them
 aliasing errors are usually negligible using standard VASP settings
 and one can safely disregard these warnings

 real space projection operators:
  total allocation   :      12803.06 KBytes
  max/ min on nodes  :       2145.66       2127.94


 parallel 3D FFT for wavefunctions:
    minimum data exchange during FFTs selected (reduces bandwidth)
 parallel 3D FFT for charge:
    minimum data exchange during FFTs selected (reduces bandwidth)


 total amount of memory used by VASP on root node    84353. kBytes
========================================================================

   base      :      30000. kBytes
   nonlr-proj:       4285. kBytes
   fftplans  :       4447. kBytes
   grid      :       6721. kBytes
   one-center:        124. kBytes
   wavefun   :      38776. kBytes
 
     INWAV:  cpu time    0.0000: real time    0.0000
 Broyden mixing: mesh for mixing (old mesh)
   NGX = 35   NGY = 35   NGZ = 79
  (NGX  =108   NGY  =108   NGZ  =240)
  gives a total of  96775 points

 initial charge density was supplied:
 charge density of overlapping atoms calculated
 number of electron     504.0000000 magnetization 
 keeping initial charge density in first step


--------------------------------------------------------------------------------------------------------


 Maximum index for non-local projection operator          355
 Maximum index for augmentation-charges          437 (set IRDMAX)


--------------------------------------------------------------------------------------------------------


 First call to EWALD:  gamma=   0.129
 Maximum number of real-space cells 4x 4x 2
 Maximum number of reciprocal cells 2x 2x 5

 FEWALD executed in parallel
    FEWALD:  cpu time    0.0022: real time    0.0024


----------------------------------------- Iteration    1(   1)  ---------------------------------------


    POTLOK:  cpu time    0.0470: real time    0.0473
    SETDIJ:  cpu time    0.0060: real time    0.0060
     EDDAV:  cpu time    6.8814: real time    6.9029
       DOS:  cpu time    0.0014: real time    0.0014
    --------------------------------------------
      LOOP:  cpu time    6.9385: real time    6.9658

 eigenvalue-minimisations  :  3672
 total energy-change (2. order) : 0.3199430E+04  (-0.1898197E+05)
 number of electron     504.0000000 magnetization 
 augmentation part      504.0000000 magnetization 

 DIPCOR: dipole corrections for dipol
 direction  3 min pos     1,
 dipolmoment           0.000000      0.000000      0.000004 electrons x Angstroem
 Tr[quadrupol]    -10373.158759

 energy correction for charged system         0.000000 eV
 dipol+quadrupol energy correction           -0.000000 eV
 added-field ion interaction          0.000004 eV  (added to PSCEN)


 Free energy of the ion-electron system (eV)
  ---------------------------------------------------
  alpha Z        PSCENC =       805.86936850
  Ewald energy   TEWEN  =    199715.00226604
  -Hartree energ DENC   =   -242127.96313664
  -exchange      EXHF   =         0.00000000
  -V(xc)+E(xc)   XCENC  =      -327.75193355
  PAW double counting   =     40340.05962942   -38292.62782345
  entropy T*S    EENTRO =        -0.13598796
  eigenvalues    EBANDS =      1427.19220763
  atomic energy  EATOM  =     41659.78587232
  Solvation  Ediel_sol  =         0.00000000
  ---------------------------------------------------
  free energy    TOTEN  =      3199.43046233 eV

  energy without entropy =     3199.56645029  energy(sigma->0) =     3199.49845631


--------------------------------------------------------------------------------------------------------




----------------------------------------- Iteration    1(   2)  ---------------------------------------


     EDDAV:  cpu time    8.1308: real time    8.2314
       DOS:  cpu time    0.0015: real time    0.0015
    --------------------------------------------
      LOOP:  cpu time    8.1331: real time    8.2353

 eigenvalue-minimisations  :  4368
 total energy-change (2. order) :-0.3185254E+04  (-0.2929709E+04)
 number of electron     504.0000000 magnetization 
 augmentation part      504.0000000 magnetization 

 DIPCOR: dipole corrections for dipol
 direction  3 min pos     1,
 dipolmoment           0.000000      0.000000      0.000004 electrons x Angstroem
 Tr[quadrupol]    -10373.158759

 energy correction for charged system         0.000000 eV
 dipol+quadrupol energy correction           -0.000000 eV
 added-field ion interaction          0.000004 eV  (added to PSCEN)


 Free energy of the ion-electron system (eV)
  ---------------------------------------------------
  alpha Z        PSCENC =       805.86936850
  Ewald energy   TEWEN  =    199715.00226604
  -Hartree energ DENC   =   -242127.96313664
  -exchange      EXHF   =         0.00000000
  -V(xc)+E(xc)   XCENC  =      -327.75193355
  PAW double counting   =     40340.05962942   -38292.62782345
  entropy T*S    EENTRO =        -0.13477392
  eigenvalues    EBANDS =     -1758.06348323
  atomic energy  EATOM  =     41659.78587232
  Solvation  Ediel_sol  =         0.00000000
  ---------------------------------------------------
  free energy    TOTEN  =        14.17598550 eV

  energy without entropy =       14.31075942  energy(sigma->0) =       14.24337246


--------------------------------------------------------------------------------------------------------




----------------------------------------- Iteration    1(   3)  ---------------------------------------


     EDDAV:  cpu time    7.9439: real time    7.9924
       DOS:  cpu time    0.0015: real time    0.0015
    --------------------------------------------
      LOOP:  cpu time    7.9460: real time    7.9983

 eigenvalue-minimisations  :  4152
 total energy-change (2. order) :-0.2162927E+03  (-0.2007303E+03)
 number of electron     504.0000000 magnetization 
 augmentation part      504.0000000 magnetization 

 DIPCOR: dipole corrections for dipol
 direction  3 min pos     1,
 dipolmoment           0.000000      0.000000      0.000004 electrons x Angstroem
 Tr[quadrupol]    -10373.158759

 energy correction for charged system         0.000000 eV
 dipol+quadrupol energy correction           -0.000000 eV
 added-field ion interaction          0.000004 eV  (added to PSCEN)


 Free energy of the ion-electron system (eV)
  ---------------------------------------------------
  alpha Z        PSCENC =       805.86936850
  Ewald energy   TEWEN  =    199715.00226604
  -Hartree energ DENC   =   -242127.96313664
  -exchange      EXHF   =         0.00000000
  -V(xc)+E(xc)   XCENC  =      -327.75193355
  PAW double counting   =     40340.05962942   -38292.62782345
  entropy T*S    EENTRO =        -0.17407839
  eigenvalues    EBANDS =     -1974.31683362
  atomic energy  EATOM  =     41659.78587232
  Solvation  Ediel_sol  =         0.00000000
  ---------------------------------------------------
  free energy    TOTEN  =      -202.11666936 eV

  energy without entropy =     -201.94259096  energy(sigma->0) =     -202.02963016


--------------------------------------------------------------------------------------------------------




----------------------------------------- Iteration    1(   4)  ---------------------------------------


     EDDAV:  cpu time    8.0251: real time    8.0500
       DOS:  cpu time    0.0015: real time    0.0015
    --------------------------------------------
      LOOP:  cpu time    8.0274: real time    8.0547

 eigenvalue-minimisations  :  4188
 total energy-change (2. order) :-0.5868743E+01  (-0.5801176E+01)
 number of electron     504.0000000 magnetization 
 augmentation part      504.0000000 magnetization 

 DIPCOR: dipole corrections for dipol
 direction  3 min pos     1,
 dipolmoment           0.000000      0.000000      0.000004 electrons x Angstroem
 Tr[quadrupol]    -10373.158759

 energy correction for charged system         0.000000 eV
 dipol+quadrupol energy correction           -0.000000 eV
 added-field ion interaction          0.000004 eV  (added to PSCEN)


 Free energy of the ion-electron system (eV)
  ---------------------------------------------------
  alpha Z        PSCENC =       805.86936850
  Ewald energy   TEWEN  =    199715.00226604
  -Hartree energ DENC   =   -242127.96313664
  -exchange      EXHF   =         0.00000000
  -V(xc)+E(xc)   XCENC  =      -327.75193355
  PAW double counting   =     40340.05962942   -38292.62782345
  entropy T*S    EENTRO =        -0.17930370
  eigenvalues    EBANDS =     -1980.18035126
  atomic energy  EATOM  =     41659.78587232
  Solvation  Ediel_sol  =         0.00000000
  ---------------------------------------------------
  free energy    TOTEN  =      -207.98541231 eV

  energy without entropy =     -207.80610861  energy(sigma->0) =     -207.89576046


--------------------------------------------------------------------------------------------------------




----------------------------------------- Iteration    1(   5)  ---------------------------------------


     EDDAV:  cpu time    8.3595: real time    8.3802
       DOS:  cpu time    0.0015: real time    0.0015
    CHARGE:  cpu time    0.2357: real time    0.2363
    MIXING:  cpu time    0.0021: real time    0.0023
    --------------------------------------------
      LOOP:  cpu time    8.5995: real time    8.6245

 eigenvalue-minimisations  :  4440
 total energy-change (2. order) :-0.1997303E+00  (-0.1989739E+00)
 number of electron     503.9998402 magnetization 
 augmentation part      191.2569105 magnetization 

 DIPCOR: dipole corrections for dipol
 direction  3 min pos     1,
 dipolmoment           0.000000      0.000000      0.000004 electrons x Angstroem
 Tr[quadrupol]    -10373.158759

 energy correction for charged system         0.000000 eV
 dipol+quadrupol energy correction           -0.000000 eV
 added-field ion interaction          0.000004 eV  (added to PSCEN)


 Broyden mixing:
  rms(total) = 0.62261E+01    rms(broyden)= 0.62260E+01
  rms(prec ) = 0.64028E+01
  weight for this iteration     100.00

 Free energy of the ion-electron system (eV)
  ---------------------------------------------------
  alpha Z        PSCENC =       805.86936850
  Ewald energy   TEWEN  =    199715.00226604
  -Hartree energ DENC   =   -242127.96313664
  -exchange      EXHF   =         0.00000000
  -V(xc)+E(xc)   XCENC  =      -327.75193355
  PAW double counting   =     40340.05962942   -38292.62782345
  entropy T*S    EENTRO =        -0.17951378
  eigenvalues    EBANDS =     -1980.37987146
  atomic energy  EATOM  =     41659.78587232
  Solvation  Ediel_sol  =         0.00000000
  ---------------------------------------------------
  free energy    TOTEN  =      -208.18514259 eV

  energy without entropy =     -208.00562881  energy(sigma->0) =     -208.09538570


--------------------------------------------------------------------------------------------------------




----------------------------------------- Iteration    1(   6)  ---------------------------------------


    POTLOK:  cpu time    0.0424: real time    0.0426
    SETDIJ:  cpu time    0.0064: real time    0.0065
    EDDIAG:  cpu time    1.2077: real time    1.2107
  RMM-DIIS:  cpu time    3.3781: real time    3.3865
    ORTHCH:  cpu time    0.2938: real time    0.2946
       DOS:  cpu time    0.0016: real time    0.0016
    CHARGE:  cpu time    0.2351: real time    0.2374
    MIXING:  cpu time    0.0020: real time    0.0021
    --------------------------------------------
      LOOP:  cpu time    5.1677: real time    5.1860

 eigenvalue-minimisations  :  3672
 total energy-change (2. order) :-0.1315244E+02  (-0.1187522E+02)
 number of electron     503.9998451 magnetization 
 augmentation part      188.7776353 magnetization 

 DIPCOR: dipole corrections for dipol
 direction  3 min pos     1,
 dipolmoment           0.000000      0.000000      2.002711 electrons x Angstroem
 Tr[quadrupol]    -10375.925692

 energy correction for charged system         0.000000 eV
 dipol+quadrupol energy correction           -0.141332 eV
 added-field ion interaction          1.901916 eV  (added to PSCEN)


 Broyden mixing:
  rms(total) = 0.66464E+01    rms(broyden)= 0.66463E+01
  rms(prec ) = 0.74409E+01
  weight for this iteration     100.00

 eigenvalues of (default mixing * dielectric matrix)
  average eigenvalue GAMMA=   0.4369
  0.4369

 Free energy of the ion-electron system (eV)
  ---------------------------------------------------
  alpha Z        PSCENC =       807.62994882
  Ewald energy   TEWEN  =    199715.00226604
  -Hartree energ DENC   =   -241919.36838647
  -exchange      EXHF   =         0.00000000
  -V(xc)+E(xc)   XCENC  =      -340.63595522
  PAW double counting   =     43896.46954004   -41908.59723659
  entropy T*S    EENTRO =        -0.29913553
  eigenvalues    EBANDS =     -2131.32449180
  atomic energy  EATOM  =     41659.78587232
  Solvation  Ediel_sol  =         0.00000000
  ---------------------------------------------------
  free energy    TOTEN  =      -221.33757838 eV

  energy without entropy =     -221.03844285  energy(sigma->0) =     -221.18801062


--------------------------------------------------------------------------------------------------------




----------------------------------------- Iteration    1(   7)  ---------------------------------------


    POTLOK:  cpu time    0.0426: real time    0.0427
    SETDIJ:  cpu time    0.0062: real time    0.0063
    EDDIAG:  cpu time    1.2178: real time    1.2217
  RMM-DIIS:  cpu time    3.4402: real time    3.4489
    ORTHCH:  cpu time    0.2902: real time    0.2909
       DOS:  cpu time    0.0021: real time    0.0021
    CHARGE:  cpu time    0.2461: real time    0.2662
    MIXING:  cpu time    0.0020: real time    0.0021
    --------------------------------------------
      LOOP:  cpu time    5.2480: real time    5.2849

 eigenvalue-minimisations  :  3678
 total energy-change (2. order) : 0.1256840E+02  (-0.5576102E+01)
 number of electron     503.9998384 magnetization 
 augmentation part      194.5018493 magnetization 

 DIPCOR: dipole corrections for dipol
 direction  3 min pos     1,
 dipolmoment           0.000000      0.000000     -0.932464 electrons x Angstroem
 Tr[quadrupol]    -10374.952036

 energy correction for charged system         0.000000 eV
 dipol+quadrupol energy correction           -0.030638 eV
 added-field ion interaction         -0.885534 eV  (added to PSCEN)


 Broyden mixing:
  rms(total) = 0.47374E+01    rms(broyden)= 0.47370E+01
  rms(prec ) = 0.53513E+01
  weight for this iteration     100.00

 eigenvalues of (default mixing * dielectric matrix)
  average eigenvalue GAMMA=   0.6827
  1.0851  0.2802

 Free energy of the ion-electron system (eV)
  ---------------------------------------------------
  alpha Z        PSCENC =       804.95319160
  Ewald energy   TEWEN  =    199715.00226604
  -Hartree energ DENC   =   -241808.12767090
  -exchange      EXHF   =         0.00000000
  -V(xc)+E(xc)   XCENC  =      -342.62472542
  PAW double counting   =     44690.47939703   -42720.88988092
  entropy T*S    EENTRO =        -0.20187092
  eigenvalues    EBANDS =     -2207.14575953
  atomic energy  EATOM  =     41659.78587232
  Solvation  Ediel_sol  =         0.00000000
  ---------------------------------------------------
  free energy    TOTEN  =      -208.76918071 eV

  energy without entropy =     -208.56730979  energy(sigma->0) =     -208.66824525


--------------------------------------------------------------------------------------------------------




----------------------------------------- Iteration    1(   8)  ---------------------------------------


    POTLOK:  cpu time    0.0412: real time    0.0431
    SETDIJ:  cpu time    0.0055: real time    0.0056
    EDDIAG:  cpu time    1.2197: real time    1.2802
  RMM-DIIS:  cpu time    3.3725: real time    3.3828
    ORTHCH:  cpu time    0.2886: real time    0.2893
       DOS:  cpu time    0.0016: real time    0.0016
    CHARGE:  cpu time    0.2384: real time    0.2390
    MIXING:  cpu time    0.0021: real time    0.0021
    --------------------------------------------
      LOOP:  cpu time    5.1704: real time    5.2465

 eigenvalue-minimisations  :  3675
 total energy-change (2. order) :-0.4928296E+01  (-0.9074520E+01)
 number of electron     503.9998354 magnetization 
 augmentation part      196.9922167 magnetization 

 DIPCOR: dipole corrections for dipol
 direction  3 min pos     1,
 dipolmoment           0.000000      0.000000      1.353935 electrons x Angstroem
 Tr[quadrupol]    -10373.772710

 energy correction for charged system         0.000000 eV
 dipol+quadrupol energy correction           -0.064595 eV
 added-field ion interaction          1.285793 eV  (added to PSCEN)


 Broyden mixing:
  rms(total) = 0.41871E+01    rms(broyden)= 0.41867E+01
  rms(prec ) = 0.47640E+01
  weight for this iteration     100.00

 eigenvalues of (default mixing * dielectric matrix)
  average eigenvalue GAMMA=   0.8252
  1.8190  0.4368  0.2199

 Free energy of the ion-electron system (eV)
  ---------------------------------------------------
  alpha Z        PSCENC =       807.09056211
  Ewald energy   TEWEN  =    199715.00226604
  -Hartree energ DENC   =   -241678.30883864
  -exchange      EXHF   =         0.00000000
  -V(xc)+E(xc)   XCENC  =      -344.64001587
  PAW double counting   =     46312.65241093   -44370.84852197
  entropy T*S    EENTRO =        -0.25561876
  eigenvalues    EBANDS =     -2314.17559334
  atomic energy  EATOM  =     41659.78587232
  Solvation  Ediel_sol  =         0.00000000
  ---------------------------------------------------
  free energy    TOTEN  =      -213.69747719 eV

  energy without entropy =     -213.44185843  energy(sigma->0) =     -213.56966781


--------------------------------------------------------------------------------------------------------




----------------------------------------- Iteration    1(   9)  ---------------------------------------


    POTLOK:  cpu time    0.0416: real time    0.0418
    SETDIJ:  cpu time    0.0056: real time    0.0056
    EDDIAG:  cpu time    1.2089: real time    1.2128
  RMM-DIIS:  cpu time    3.3992: real time    3.4085
    ORTHCH:  cpu time    0.2882: real time    0.2889
       DOS:  cpu time    0.0015: real time    0.0015
    CHARGE:  cpu time    0.2372: real time    0.2378
    MIXING:  cpu time    0.0021: real time    0.0021
    --------------------------------------------
      LOOP:  cpu time    5.1849: real time    5.2023

 eigenvalue-minimisations  :  3679
 total energy-change (2. order) :-0.1738314E+01  (-0.4669103E+01)
 number of electron     503.9998340 magnetization 
 augmentation part      197.4897130 magnetization 

 DIPCOR: dipole corrections for dipol
 direction  3 min pos     1,
 dipolmoment           0.000000      0.000000     -0.150549 electrons x Angstroem
 Tr[quadrupol]    -10375.334432

 energy correction for charged system         0.000000 eV
 dipol+quadrupol energy correction           -0.000799 eV
 added-field ion interaction         -0.142972 eV  (added to PSCEN)


 Broyden mixing:
  rms(total) = 0.42694E+01    rms(broyden)= 0.42692E+01
  rms(prec ) = 0.48057E+01
  weight for this iteration     100.00

 eigenvalues of (default mixing * dielectric matrix)
  average eigenvalue GAMMA=   0.7681
  2.0986  0.4365  0.2686  0.2686

 Free energy of the ion-electron system (eV)
  ---------------------------------------------------
  alpha Z        PSCENC =       805.72559358
  Ewald energy   TEWEN  =    199715.00226604
  -Hartree energ DENC   =   -241703.25777337
  -exchange      EXHF   =         0.00000000
  -V(xc)+E(xc)   XCENC  =      -345.98125399
  PAW double counting   =     48028.45397190   -46109.83754128
  entropy T*S    EENTRO =        -0.17051221
  eigenvalues    EBANDS =     -2265.15641444
  atomic energy  EATOM  =     41659.78587232
  Solvation  Ediel_sol  =         0.00000000
  ---------------------------------------------------
  free energy    TOTEN  =      -215.43579145 eV

  energy without entropy =     -215.26527924  energy(sigma->0) =     -215.35053534


--------------------------------------------------------------------------------------------------------




----------------------------------------- Iteration    1(  10)  ---------------------------------------


    POTLOK:  cpu time    0.0419: real time    0.0423
    SETDIJ:  cpu time    0.0053: real time    0.0053
    EDDIAG:  cpu time    1.2076: real time    1.2107
  RMM-DIIS:  cpu time    3.4036: real time    3.4119
    ORTHCH:  cpu time    0.2890: real time    0.2897
       DOS:  cpu time    0.0016: real time    0.0016
    CHARGE:  cpu time    0.2344: real time    0.2350
    MIXING:  cpu time    0.0022: real time    0.0022
    --------------------------------------------
      LOOP:  cpu time    5.1863: real time    5.2021

 eigenvalue-minimisations  :  3681
 total energy-change (2. order) : 0.1296844E+02  (-0.2843275E+01)
 number of electron     503.9998341 magnetization 
 augmentation part      198.1847357 magnetization 

 DIPCOR: dipole corrections for dipol
 direction  3 min pos     1,
 dipolmoment           0.000000      0.000000      0.408515 electrons x Angstroem
 Tr[quadrupol]    -10375.212265

 energy correction for charged system         0.000000 eV
 dipol+quadrupol energy correction           -0.005881 eV
 added-field ion interaction          0.387955 eV  (added to PSCEN)


 Broyden mixing:
  rms(total) = 0.25094E+01    rms(broyden)= 0.25091E+01
  rms(prec ) = 0.28757E+01
  weight for this iteration     100.00

 eigenvalues of (default mixing * dielectric matrix)
  average eigenvalue GAMMA=   0.7112
  2.1566  0.4474  0.4474  0.2266  0.2783

 Free energy of the ion-electron system (eV)
  ---------------------------------------------------
  alpha Z        PSCENC =       806.25143868
  Ewald energy   TEWEN  =    199715.00226604
  -Hartree energ DENC   =   -241702.80920961
  -exchange      EXHF   =         0.00000000
  -V(xc)+E(xc)   XCENC  =      -346.15891226
  PAW double counting   =     48767.25742678   -46857.22064450
  entropy T*S    EENTRO =        -0.19837650
  eigenvalues    EBANDS =     -2244.37721153
  atomic energy  EATOM  =     41659.78587232
  Solvation  Ediel_sol  =         0.00000000
  ---------------------------------------------------
  free energy    TOTEN  =      -202.46735057 eV

  energy without entropy =     -202.26897407  energy(sigma->0) =     -202.36816232


--------------------------------------------------------------------------------------------------------




----------------------------------------- Iteration    1(  11)  ---------------------------------------


    POTLOK:  cpu time    0.0407: real time    0.0416
    SETDIJ:  cpu time    0.0054: real time    0.0055
    EDDIAG:  cpu time    1.2170: real time    1.2200
  RMM-DIIS:  cpu time    3.4303: real time    3.4389
    ORTHCH:  cpu time    0.2891: real time    0.2899
       DOS:  cpu time    0.0016: real time    0.0016
    CHARGE:  cpu time    0.2322: real time    0.2327
    MIXING:  cpu time    0.0024: real time    0.0024
    --------------------------------------------
      LOOP:  cpu time    5.2194: real time    5.2358

 eigenvalue-minimisations  :  3679
 total energy-change (2. order) : 0.8596429E+01  (-0.1454430E+01)
 number of electron     503.9998342 magnetization 
 augmentation part      198.7723859 magnetization 

 DIPCOR: dipole corrections for dipol
 direction  3 min pos     1,
 dipolmoment           0.000000      0.000000      0.330000 electrons x Angstroem
 Tr[quadrupol]    -10375.411207

 energy correction for charged system         0.000000 eV
 dipol+quadrupol energy correction           -0.003837 eV
 added-field ion interaction          0.313391 eV  (added to PSCEN)


 Broyden mixing:
  rms(total) = 0.13732E+01    rms(broyden)= 0.13729E+01
  rms(prec ) = 0.15653E+01
  weight for this iteration     100.00

 eigenvalues of (default mixing * dielectric matrix)
  average eigenvalue GAMMA=   0.7018
  2.1799  0.6223  0.6223  0.2318  0.2771  0.2771

 Free energy of the ion-electron system (eV)
  ---------------------------------------------------
  alpha Z        PSCENC =       806.17891815
  Ewald energy   TEWEN  =    199715.00226604
  -Hartree energ DENC   =   -241721.10194016
  -exchange      EXHF   =         0.00000000
  -V(xc)+E(xc)   XCENC  =      -345.89474526
  PAW double counting   =     48948.54360478   -47038.89218077
  entropy T*S    EENTRO =        -0.21801522
  eigenvalues    EBANDS =     -2217.27470147
  atomic energy  EATOM  =     41659.78587232
  Solvation  Ediel_sol  =         0.00000000
  ---------------------------------------------------
  free energy    TOTEN  =      -193.87092160 eV

  energy without entropy =     -193.65290637  energy(sigma->0) =     -193.76191398


--------------------------------------------------------------------------------------------------------




----------------------------------------- Iteration    1(  12)  ---------------------------------------


    POTLOK:  cpu time    0.0409: real time    0.0410
    SETDIJ:  cpu time    0.0054: real time    0.0054
    EDDIAG:  cpu time    1.2196: real time    1.2226
  RMM-DIIS:  cpu time    3.3775: real time    3.3875
    ORTHCH:  cpu time    0.2871: real time    0.2878
       DOS:  cpu time    0.0015: real time    0.0015
    CHARGE:  cpu time    0.2371: real time    0.2376
    MIXING:  cpu time    0.0026: real time    0.0026
    --------------------------------------------
      LOOP:  cpu time    5.1723: real time    5.1889

 eigenvalue-minimisations  :  3680
 total energy-change (2. order) : 0.3526126E+01  (-0.8551717E+00)
 number of electron     503.9998354 magnetization 
 augmentation part      197.9293338 magnetization 

 DIPCOR: dipole corrections for dipol
 direction  3 min pos     1,
 dipolmoment           0.000000      0.000000      0.251010 electrons x Angstroem
 Tr[quadrupol]    -10375.472203

 energy correction for charged system         0.000000 eV
 dipol+quadrupol energy correction           -0.002220 eV
 added-field ion interaction          0.238377 eV  (added to PSCEN)


 Broyden mixing:
  rms(total) = 0.13123E+01    rms(broyden)= 0.13121E+01
  rms(prec ) = 0.14618E+01
  weight for this iteration     100.00

 eigenvalues of (default mixing * dielectric matrix)
  average eigenvalue GAMMA=   0.6534
  2.2405  0.5888  0.5888  0.3175  0.3175  0.2252  0.2952

 Free energy of the ion-electron system (eV)
  ---------------------------------------------------
  alpha Z        PSCENC =       806.10552141
  Ewald energy   TEWEN  =    199715.00226604
  -Hartree energ DENC   =   -241752.38323556
  -exchange      EXHF   =         0.00000000
  -V(xc)+E(xc)   XCENC  =      -345.13450208
  PAW double counting   =     49088.56481433   -47175.94882065
  entropy T*S    EENTRO =        -0.18170425
  eigenvalues    EBANDS =     -2186.15500764
  atomic energy  EATOM  =     41659.78587232
  Solvation  Ediel_sol  =         0.00000000
  ---------------------------------------------------
  free energy    TOTEN  =      -190.34479607 eV

  energy without entropy =     -190.16309182  energy(sigma->0) =     -190.25394394


--------------------------------------------------------------------------------------------------------




----------------------------------------- Iteration    1(  13)  ---------------------------------------


    POTLOK:  cpu time    0.0423: real time    0.0424
    SETDIJ:  cpu time    0.0052: real time    0.0055
    EDDIAG:  cpu time    1.2040: real time    1.2282
  RMM-DIIS:  cpu time    3.4096: real time    3.4337
    ORTHCH:  cpu time    0.2860: real time    0.2872
       DOS:  cpu time    0.0016: real time    0.0016
    CHARGE:  cpu time    0.2355: real time    0.2360
    MIXING:  cpu time    0.0027: real time    0.0027
    --------------------------------------------
      LOOP:  cpu time    5.1875: real time    5.2428

 eigenvalue-minimisations  :  3679
 total energy-change (2. order) : 0.5901292E+00  (-0.2598536E+00)
 number of electron     503.9998356 magnetization 
 augmentation part      197.6698351 magnetization 

 DIPCOR: dipole corrections for dipol
 direction  3 min pos     1,
 dipolmoment           0.000000      0.000000      0.168986 electrons x Angstroem
 Tr[quadrupol]    -10376.070766

 energy correction for charged system         0.000000 eV
 dipol+quadrupol energy correction           -0.001006 eV
 added-field ion interaction          0.160481 eV  (added to PSCEN)


 Broyden mixing:
  rms(total) = 0.80359E+00    rms(broyden)= 0.80334E+00
  rms(prec ) = 0.87096E+00
  weight for this iteration     100.00

 eigenvalues of (default mixing * dielectric matrix)
  average eigenvalue GAMMA=   0.6491
  2.2448  0.6763  0.6763  0.5564  0.2874  0.2874  0.2322  0.2322

 Free energy of the ion-electron system (eV)
  ---------------------------------------------------
  alpha Z        PSCENC =       806.02883946
  Ewald energy   TEWEN  =    199715.00226604
  -Hartree energ DENC   =   -241779.00674987
  -exchange      EXHF   =         0.00000000
  -V(xc)+E(xc)   XCENC  =      -345.00358564
  PAW double counting   =     49183.56218634   -47270.47661407
  entropy T*S    EENTRO =        -0.24376930
  eigenvalues    EBANDS =     -2159.40311212
  atomic energy  EATOM  =     41659.78587232
  Solvation  Ediel_sol  =         0.00000000
  ---------------------------------------------------
  free energy    TOTEN  =      -189.75466684 eV

  energy without entropy =     -189.51089755  energy(sigma->0) =     -189.63278219


--------------------------------------------------------------------------------------------------------




----------------------------------------- Iteration    1(  14)  ---------------------------------------


    POTLOK:  cpu time    0.0410: real time    0.0418
    SETDIJ:  cpu time    0.0055: real time    0.0055
    EDDIAG:  cpu time    1.2066: real time    1.2105
  RMM-DIIS:  cpu time    3.4529: real time    3.4624
    ORTHCH:  cpu time    0.2882: real time    0.2889
       DOS:  cpu time    0.0015: real time    0.0015
    CHARGE:  cpu time    0.2324: real time    0.2329
    MIXING:  cpu time    0.0029: real time    0.0029
    --------------------------------------------
      LOOP:  cpu time    5.2318: real time    5.2491

 eigenvalue-minimisations  :  3681
 total energy-change (2. order) : 0.2211419E+00  (-0.7009953E-01)
 number of electron     503.9998357 magnetization 
 augmentation part      197.5518101 magnetization 

 DIPCOR: dipole corrections for dipol
 direction  3 min pos     1,
 dipolmoment           0.000000      0.000000      0.168763 electrons x Angstroem
 Tr[quadrupol]    -10376.293977

 energy correction for charged system         0.000000 eV
 dipol+quadrupol energy correction           -0.001004 eV
 added-field ion interaction          0.160269 eV  (added to PSCEN)


 Broyden mixing:
  rms(total) = 0.66461E+00    rms(broyden)= 0.66452E+00
  rms(prec ) = 0.72024E+00
  weight for this iteration     100.00

 eigenvalues of (default mixing * dielectric matrix)
  average eigenvalue GAMMA=   0.6779
  2.2058  0.9568  0.9568  0.6218  0.3127  0.3127  0.2210  0.2567  0.2567

 Free energy of the ion-electron system (eV)
  ---------------------------------------------------
  alpha Z        PSCENC =       806.02862962
  Ewald energy   TEWEN  =    199715.00226604
  -Hartree energ DENC   =   -241792.99131164
  -exchange      EXHF   =         0.00000000
  -V(xc)+E(xc)   XCENC  =      -344.83551669
  PAW double counting   =     49210.27736399   -47296.06103536
  entropy T*S    EENTRO =        -0.25695295
  eigenvalues    EBANDS =     -2146.48284025
  atomic energy  EATOM  =     41659.78587232
  Solvation  Ediel_sol  =         0.00000000
  ---------------------------------------------------
  free energy    TOTEN  =      -189.53352492 eV

  energy without entropy =     -189.27657197  energy(sigma->0) =     -189.40504844


--------------------------------------------------------------------------------------------------------




----------------------------------------- Iteration    1(  15)  ---------------------------------------


    POTLOK:  cpu time    0.0410: real time    0.0413
    SETDIJ:  cpu time    0.0056: real time    0.0056
    EDDIAG:  cpu time    1.2130: real time    1.2169
  RMM-DIIS:  cpu time    3.4704: real time    3.4789
    ORTHCH:  cpu time    0.2835: real time    0.2979
       DOS:  cpu time    0.0016: real time    0.0016
    CHARGE:  cpu time    0.2584: real time    0.2834
    MIXING:  cpu time    0.0030: real time    0.0031
    --------------------------------------------
      LOOP:  cpu time    5.2772: real time    5.3312

 eigenvalue-minimisations  :  3679
 total energy-change (2. order) : 0.9998227E-01  (-0.5753000E-01)
 number of electron     503.9998358 magnetization 
 augmentation part      197.3196541 magnetization 

 DIPCOR: dipole corrections for dipol
 direction  3 min pos     1,
 dipolmoment           0.000000      0.000000      0.181769 electrons x Angstroem
 Tr[quadrupol]    -10376.475952

 energy correction for charged system         0.000000 eV
 dipol+quadrupol energy correction           -0.001164 eV
 added-field ion interaction          0.172621 eV  (added to PSCEN)


 Broyden mixing:
  rms(total) = 0.63169E+00    rms(broyden)= 0.63160E+00
  rms(prec ) = 0.70904E+00
  weight for this iteration     100.00

 eigenvalues of (default mixing * dielectric matrix)
  average eigenvalue GAMMA=   0.7043
  2.1478  1.2499  1.2499  0.5077  0.5077  0.3400  0.2851  0.2851  0.2348  0.2348

 Free energy of the ion-electron system (eV)
  ---------------------------------------------------
  alpha Z        PSCENC =       806.04082115
  Ewald energy   TEWEN  =    199715.00226604
  -Hartree energ DENC   =   -241808.58324338
  -exchange      EXHF   =         0.00000000
  -V(xc)+E(xc)   XCENC  =      -344.49250580
  PAW double counting   =     49216.24107057   -47299.62014729
  entropy T*S    EENTRO =        -0.24130277
  eigenvalues    EBANDS =     -2133.56637351
  atomic energy  EATOM  =     41659.78587232
  Solvation  Ediel_sol  =         0.00000000
  ---------------------------------------------------
  free energy    TOTEN  =      -189.43354265 eV

  energy without entropy =     -189.19223988  energy(sigma->0) =     -189.31289127


--------------------------------------------------------------------------------------------------------




----------------------------------------- Iteration    1(  16)  ---------------------------------------


    POTLOK:  cpu time    0.0404: real time    0.0420
    SETDIJ:  cpu time    0.0055: real time    0.0057
    EDDIAG:  cpu time    1.2132: real time    1.2550
  RMM-DIIS:  cpu time    3.4292: real time    3.4376
    ORTHCH:  cpu time    0.2848: real time    0.2855
       DOS:  cpu time    0.0016: real time    0.0016
    CHARGE:  cpu time    0.2362: real time    0.2367
    MIXING:  cpu time    0.0030: real time    0.0030
    --------------------------------------------
      LOOP:  cpu time    5.2145: real time    5.2699

 eigenvalue-minimisations  :  3679
 total energy-change (2. order) : 0.1441316E+00  (-0.4284592E-01)
 number of electron     503.9998360 magnetization 
 augmentation part      197.1472607 magnetization 

 DIPCOR: dipole corrections for dipol
 direction  3 min pos     1,
 dipolmoment           0.000000      0.000000      0.214921 electrons x Angstroem
 Tr[quadrupol]    -10376.812578

 energy correction for charged system         0.000000 eV
 dipol+quadrupol energy correction           -0.001628 eV
 added-field ion interaction          0.204104 eV  (added to PSCEN)


 Broyden mixing:
  rms(total) = 0.52226E+00    rms(broyden)= 0.52221E+00
  rms(prec ) = 0.60770E+00
  weight for this iteration     100.00

 eigenvalues of (default mixing * dielectric matrix)
  average eigenvalue GAMMA=   0.7178
  2.0913  1.4488  1.4488  0.5635  0.5635  0.4535  0.3030  0.3030  0.2274  0.2466
  0.2466

 Free energy of the ion-electron system (eV)
  ---------------------------------------------------
  alpha Z        PSCENC =       806.07184094
  Ewald energy   TEWEN  =    199715.00226604
  -Hartree energ DENC   =   -241826.96576336
  -exchange      EXHF   =         0.00000000
  -V(xc)+E(xc)   XCENC  =      -344.23008431
  PAW double counting   =     49220.27902366   -47301.51127993
  entropy T*S    EENTRO =        -0.24692480
  eigenvalues    EBANDS =     -2117.47436159
  atomic energy  EATOM  =     41659.78587232
  Solvation  Ediel_sol  =         0.00000000
  ---------------------------------------------------
  free energy    TOTEN  =      -189.28941103 eV

  energy without entropy =     -189.04248624  energy(sigma->0) =     -189.16594863


--------------------------------------------------------------------------------------------------------




----------------------------------------- Iteration    1(  17)  ---------------------------------------


    POTLOK:  cpu time    0.0411: real time    0.0413
    SETDIJ:  cpu time    0.0053: real time    0.0054
    EDDIAG:  cpu time    1.2067: real time    1.2097
  RMM-DIIS:  cpu time    3.4402: real time    3.4523
    ORTHCH:  cpu time    0.2850: real time    0.2857
       DOS:  cpu time    0.0014: real time    0.0014
    CHARGE:  cpu time    0.2348: real time    0.2355
    MIXING:  cpu time    0.0033: real time    0.0033
    --------------------------------------------
      LOOP:  cpu time    5.2186: real time    5.2370

 eigenvalue-minimisations  :  3679
 total energy-change (2. order) : 0.8980720E-01  (-0.3685543E-01)
 number of electron     503.9998362 magnetization 
 augmentation part      197.0514054 magnetization 

 DIPCOR: dipole corrections for dipol
 direction  3 min pos     1,
 dipolmoment           0.000000      0.000000      0.215676 electrons x Angstroem
 Tr[quadrupol]    -10377.082762

 energy correction for charged system         0.000000 eV
 dipol+quadrupol energy correction           -0.001639 eV
 added-field ion interaction          0.204822 eV  (added to PSCEN)


 Broyden mixing:
  rms(total) = 0.44738E+00    rms(broyden)= 0.44732E+00
  rms(prec ) = 0.52911E+00
  weight for this iteration     100.00

 eigenvalues of (default mixing * dielectric matrix)
  average eigenvalue GAMMA=   0.7180
  2.1250  1.4831  1.4831  0.7278  0.6079  0.6079  0.2991  0.2991  0.2613  0.2613
  0.2305  0.2305

 Free energy of the ion-electron system (eV)
  ---------------------------------------------------
  alpha Z        PSCENC =       806.07254679
  Ewald energy   TEWEN  =    199715.00226604
  -Hartree energ DENC   =   -241841.78531319
  -exchange      EXHF   =         0.00000000
  -V(xc)+E(xc)   XCENC  =      -344.03626454
  PAW double counting   =     49235.16446791   -47314.96108623
  entropy T*S    EENTRO =        -0.25694093
  eigenvalues    EBANDS =     -2104.18515200
  atomic energy  EATOM  =     41659.78587232
  Solvation  Ediel_sol  =         0.00000000
  ---------------------------------------------------
  free energy    TOTEN  =      -189.19960383 eV

  energy without entropy =     -188.94266290  energy(sigma->0) =     -189.07113337


--------------------------------------------------------------------------------------------------------




----------------------------------------- Iteration    1(  18)  ---------------------------------------


    POTLOK:  cpu time    0.0409: real time    0.0410
    SETDIJ:  cpu time    0.0053: real time    0.0053
    EDDIAG:  cpu time    1.2042: real time    1.2071
  RMM-DIIS:  cpu time    3.4414: real time    3.4501
    ORTHCH:  cpu time    0.2848: real time    0.2855
       DOS:  cpu time    0.0016: real time    0.0016
    CHARGE:  cpu time    0.2323: real time    0.2329
    MIXING:  cpu time    0.0033: real time    0.0033
    --------------------------------------------
      LOOP:  cpu time    5.2145: real time    5.2305

 eigenvalue-minimisations  :  3679
 total energy-change (2. order) : 0.1903938E+00  (-0.2238484E-01)
 number of electron     503.9998361 magnetization 
 augmentation part      197.0712758 magnetization 

 DIPCOR: dipole corrections for dipol
 direction  3 min pos     1,
 dipolmoment           0.000000      0.000000      0.165261 electrons x Angstroem
 Tr[quadrupol]    -10377.335324

 energy correction for charged system         0.000000 eV
 dipol+quadrupol energy correction           -0.000962 eV
 added-field ion interaction          0.156943 eV  (added to PSCEN)


 Broyden mixing:
  rms(total) = 0.21957E+00    rms(broyden)= 0.21949E+00
  rms(prec ) = 0.25759E+00
  weight for this iteration     100.00

 eigenvalues of (default mixing * dielectric matrix)
  average eigenvalue GAMMA=   0.7014
  2.2006  1.4750  1.4750  0.6736  0.6736  0.7270  0.3011  0.3011  0.3260  0.2732
  0.2389  0.2389  0.2140

 Free energy of the ion-electron system (eV)
  ---------------------------------------------------
  alpha Z        PSCENC =       806.02534529
  Ewald energy   TEWEN  =    199715.00226604
  -Hartree energ DENC   =   -241853.65848740
  -exchange      EXHF   =         0.00000000
  -V(xc)+E(xc)   XCENC  =      -343.92250944
  PAW double counting   =     49270.84156746   -47350.01977222
  entropy T*S    EENTRO =        -0.26417633
  eigenvalues    EBANDS =     -2092.79931579
  atomic energy  EATOM  =     41659.78587232
  Solvation  Ediel_sol  =         0.00000000
  ---------------------------------------------------
  free energy    TOTEN  =      -189.00921007 eV

  energy without entropy =     -188.74503374  energy(sigma->0) =     -188.87712191


--------------------------------------------------------------------------------------------------------




----------------------------------------- Iteration    1(  19)  ---------------------------------------


    POTLOK:  cpu time    0.0409: real time    0.0410
    SETDIJ:  cpu time    0.0054: real time    0.0054
    EDDIAG:  cpu time    1.2138: real time    1.2167
  RMM-DIIS:  cpu time    3.4528: real time    3.4642
    ORTHCH:  cpu time    0.2860: real time    0.2867
       DOS:  cpu time    0.0017: real time    0.0017
    CHARGE:  cpu time    0.2320: real time    0.2326
    MIXING:  cpu time    0.0035: real time    0.0035
    --------------------------------------------
      LOOP:  cpu time    5.2368: real time    5.2542

 eigenvalue-minimisations  :  3678
 total energy-change (2. order) : 0.5165925E-01  (-0.7469899E-02)
 number of electron     503.9998361 magnetization 
 augmentation part      197.0631498 magnetization 

 DIPCOR: dipole corrections for dipol
 direction  3 min pos     1,
 dipolmoment           0.000000      0.000000      0.133449 electrons x Angstroem
 Tr[quadrupol]    -10377.454418

 energy correction for charged system         0.000000 eV
 dipol+quadrupol energy correction           -0.000628 eV
 added-field ion interaction          0.126732 eV  (added to PSCEN)


 Broyden mixing:
  rms(total) = 0.96362E-01    rms(broyden)= 0.96305E-01
  rms(prec ) = 0.10966E+00
  weight for this iteration     100.00

 eigenvalues of (default mixing * dielectric matrix)
  average eigenvalue GAMMA=   0.7053
  2.2907  1.5146  1.5146  0.7831  0.7831  0.5612  0.5612  0.2965  0.2965  0.3376
  0.2485  0.2485  0.2328  0.2051

 Free energy of the ion-electron system (eV)
  ---------------------------------------------------
  alpha Z        PSCENC =       805.99546897
  Ewald energy   TEWEN  =    199715.00226604
  -Hartree energ DENC   =   -241859.37715691
  -exchange      EXHF   =         0.00000000
  -V(xc)+E(xc)   XCENC  =      -343.87967844
  PAW double counting   =     49289.86586119   -47368.83726515
  entropy T*S    EENTRO =        -0.27367308
  eigenvalues    EBANDS =     -2087.23924576
  atomic energy  EATOM  =     41659.78587232
  Solvation  Ediel_sol  =         0.00000000
  ---------------------------------------------------
  free energy    TOTEN  =      -188.95755082 eV

  energy without entropy =     -188.68387774  energy(sigma->0) =     -188.82071428


--------------------------------------------------------------------------------------------------------




----------------------------------------- Iteration    1(  20)  ---------------------------------------


    POTLOK:  cpu time    0.0411: real time    0.0412
    SETDIJ:  cpu time    0.0053: real time    0.0053
    EDDIAG:  cpu time    1.2144: real time    1.2174
  RMM-DIIS:  cpu time    3.3815: real time    3.3900
    ORTHCH:  cpu time    0.2860: real time    0.2867
       DOS:  cpu time    0.0016: real time    0.0016
    CHARGE:  cpu time    0.2365: real time    0.2371
    MIXING:  cpu time    0.0037: real time    0.0037
    --------------------------------------------
      LOOP:  cpu time    5.1710: real time    5.1853

 eigenvalue-minimisations  :  3682
 total energy-change (2. order) : 0.8374180E-02  (-0.1335241E-02)
 number of electron     503.9998361 magnetization 
 augmentation part      197.0381403 magnetization 

 DIPCOR: dipole corrections for dipol
 direction  3 min pos     1,
 dipolmoment           0.000000      0.000000      0.112143 electrons x Angstroem
 Tr[quadrupol]    -10377.559834

 energy correction for charged system         0.000000 eV
 dipol+quadrupol energy correction           -0.000443 eV
 added-field ion interaction          0.106499 eV  (added to PSCEN)


 Broyden mixing:
  rms(total) = 0.72921E-01    rms(broyden)= 0.72908E-01
  rms(prec ) = 0.82279E-01
  weight for this iteration     100.00

 eigenvalues of (default mixing * dielectric matrix)
  average eigenvalue GAMMA=   0.6918
  2.3446  1.5486  1.5486  0.8354  0.8354  0.5351  0.5351  0.4064  0.2966  0.2966
  0.2562  0.2562  0.2389  0.2389  0.2047

 Free energy of the ion-electron system (eV)
  ---------------------------------------------------
  alpha Z        PSCENC =       805.97541994
  Ewald energy   TEWEN  =    199715.00226604
  -Hartree energ DENC   =   -241864.29063783
  -exchange      EXHF   =         0.00000000
  -V(xc)+E(xc)   XCENC  =      -343.84989309
  PAW double counting   =     49302.06914329   -47380.88341716
  entropy T*S    EENTRO =        -0.27494457
  eigenvalues    EBANDS =     -2082.48298557
  atomic energy  EATOM  =     41659.78587232
  Solvation  Ediel_sol  =         0.00000000
  ---------------------------------------------------
  free energy    TOTEN  =      -188.94917664 eV

  energy without entropy =     -188.67423208  energy(sigma->0) =     -188.81170436


--------------------------------------------------------------------------------------------------------




----------------------------------------- Iteration    1(  21)  ---------------------------------------


    POTLOK:  cpu time    0.0414: real time    0.0415
    SETDIJ:  cpu time    0.0064: real time    0.0064
    EDDIAG:  cpu time    1.2021: real time    1.2060
  RMM-DIIS:  cpu time    3.3886: real time    3.4007
    ORTHCH:  cpu time    0.2846: real time    0.2852
       DOS:  cpu time    0.0015: real time    0.0015
    CHARGE:  cpu time    0.2346: real time    0.2352
    MIXING:  cpu time    0.0040: real time    0.0040
    --------------------------------------------
      LOOP:  cpu time    5.1639: real time    5.1838

 eigenvalue-minimisations  :  3680
 total energy-change (2. order) : 0.2749750E-02  (-0.4217090E-03)
 number of electron     503.9998361 magnetization 
 augmentation part      197.0308922 magnetization 

 DIPCOR: dipole corrections for dipol
 direction  3 min pos     1,
 dipolmoment           0.000000      0.000000      0.106849 electrons x Angstroem
 Tr[quadrupol]    -10377.632117

 energy correction for charged system         0.000000 eV
 dipol+quadrupol energy correction           -0.000402 eV
 added-field ion interaction          0.101471 eV  (added to PSCEN)


 Broyden mixing:
  rms(total) = 0.54904E-01    rms(broyden)= 0.54894E-01
  rms(prec ) = 0.62328E-01
  weight for this iteration     100.00

 eigenvalues of (default mixing * dielectric matrix)
  average eigenvalue GAMMA=   0.7011
  2.3800  1.5680  1.5680  0.9467  0.9467  0.6432  0.5556  0.5556  0.2992  0.2992
  0.3062  0.2476  0.2476  0.2444  0.2128  0.1975

 Free energy of the ion-electron system (eV)
  ---------------------------------------------------
  alpha Z        PSCENC =       805.97043335
  Ewald energy   TEWEN  =    199715.00226604
  -Hartree energ DENC   =   -241866.95351884
  -exchange      EXHF   =         0.00000000
  -V(xc)+E(xc)   XCENC  =      -343.85020610
  PAW double counting   =     49307.75824275   -47386.59873715
  entropy T*S    EENTRO =        -0.27387203
  eigenvalues    EBANDS =     -2079.78690723
  atomic energy  EATOM  =     41659.78587232
  Solvation  Ediel_sol  =         0.00000000
  ---------------------------------------------------
  free energy    TOTEN  =      -188.94642689 eV

  energy without entropy =     -188.67255487  energy(sigma->0) =     -188.80949088


--------------------------------------------------------------------------------------------------------




----------------------------------------- Iteration    1(  22)  ---------------------------------------


    POTLOK:  cpu time    0.0423: real time    0.0425
    SETDIJ:  cpu time    0.0053: real time    0.0053
    EDDIAG:  cpu time    1.2032: real time    1.2070
  RMM-DIIS:  cpu time    3.3769: real time    3.3852
    ORTHCH:  cpu time    0.2858: real time    0.2864
       DOS:  cpu time    0.0015: real time    0.0015
    CHARGE:  cpu time    0.2329: real time    0.2334
    MIXING:  cpu time    0.0041: real time    0.0041
    --------------------------------------------
      LOOP:  cpu time    5.1525: real time    5.1693

 eigenvalue-minimisations  :  3681
 total energy-change (2. order) : 0.1605206E-02  (-0.2812790E-03)
 number of electron     503.9998361 magnetization 
 augmentation part      197.0197759 magnetization 

 DIPCOR: dipole corrections for dipol
 direction  3 min pos     1,
 dipolmoment           0.000000      0.000000      0.102251 electrons x Angstroem
 Tr[quadrupol]    -10377.727613

 energy correction for charged system         0.000000 eV
 dipol+quadrupol energy correction           -0.000368 eV
 added-field ion interaction          0.097105 eV  (added to PSCEN)


 Broyden mixing:
  rms(total) = 0.44457E-01    rms(broyden)= 0.44451E-01
  rms(prec ) = 0.51292E-01
  weight for this iteration     100.00

 eigenvalues of (default mixing * dielectric matrix)
  average eigenvalue GAMMA=   0.7362
  2.4223  1.7452  1.7452  1.2096  0.8978  0.8978  0.6065  0.6065  0.2981  0.2981
  0.3358  0.3358  0.2485  0.2485  0.2314  0.2058  0.1833

 Free energy of the ion-electron system (eV)
  ---------------------------------------------------
  alpha Z        PSCENC =       805.96610057
  Ewald energy   TEWEN  =    199715.00226604
  -Hartree energ DENC   =   -241870.91969874
  -exchange      EXHF   =         0.00000000
  -V(xc)+E(xc)   XCENC  =      -343.83588851
  PAW double counting   =     49313.15236066   -47391.96219369
  entropy T*S    EENTRO =        -0.27390288
  eigenvalues    EBANDS =     -2075.85973745
  atomic energy  EATOM  =     41659.78587232
  Solvation  Ediel_sol  =         0.00000000
  ---------------------------------------------------
  free energy    TOTEN  =      -188.94482169 eV

  energy without entropy =     -188.67091880  energy(sigma->0) =     -188.80787025


--------------------------------------------------------------------------------------------------------




----------------------------------------- Iteration    1(  23)  ---------------------------------------


    POTLOK:  cpu time    0.0412: real time    0.0413
    SETDIJ:  cpu time    0.0057: real time    0.0057
    EDDIAG:  cpu time    1.2098: real time    1.2138
  RMM-DIIS:  cpu time    3.3836: real time    3.4800
[...]
    275       1.8108      0.00000
    276       1.8426      0.00000
    277       2.1847      0.00000
    278       2.3159      0.00000
    279       2.3619      0.00000
    280       2.4498      0.00000
    281       2.5518      0.00000
    282       2.5832      0.00000
    283       2.6707      0.00000
    284       2.9818      0.00000
    285       3.0843      0.00000
    286       3.2373      0.00000
    287       3.5949      0.00000
    288       3.6114      0.00000
    289       3.7016      0.00000
    290       4.0059      0.00000
    291       4.0893      0.00000
    292       4.2015      0.00000
    293       4.4361      0.00000
    294       4.5737      0.00000
    295       4.5851      0.00000
    296       4.6318      0.00000
    297       4.6422      0.00000
    298       4.7400      0.00000
    299       4.8273      0.00000
    300       4.8640      0.00000
    301       4.9246      0.00000
    302       5.0270      0.00000
    303       5.0521      0.00000
    304       5.0924      0.00000
    305       5.1341      0.00000
    306       5.2196      0.00000


--------------------------------------------------------------------------------------------------------


 soft charge-density along one line, spin component           1
         0         1         2         3         4         5         6         7         8         9
 total charge-density along one line
 
 pseudopotential strength for first ion, spin component:           1
 -8.015  -0.000   0.001  -0.002   0.000  -8.162  -0.000   0.001
 -0.000  -7.942   0.000  -0.001  -0.003  -0.000  -8.091   0.000
  0.001   0.000  -7.933   0.000  -0.005   0.001   0.000  -8.082
 -0.002  -0.001   0.000  -7.936   0.000  -0.002  -0.001   0.000
  0.000  -0.003  -0.005   0.000  -8.014   0.000  -0.003  -0.005
 -8.162  -0.000   0.001  -0.002   0.000  -8.293  -0.000   0.001
 -0.000  -8.091   0.000  -0.001  -0.003  -0.000  -8.224   0.000
  0.001   0.000  -8.082   0.000  -0.005   0.001   0.000  -8.215
 -0.002  -0.001   0.000  -8.085   0.000  -0.002  -0.001   0.000
  0.000  -0.003  -0.005   0.000  -8.161   0.000  -0.003  -0.005
  0.000   0.000  -0.024   0.000  -0.002   0.000   0.000  -0.024
  0.000   0.000  -0.034   0.000  -0.003   0.000   0.000  -0.034
 -0.004  -0.004   0.001  -0.000   0.002  -0.004  -0.004   0.001
 -0.000  -0.002  -0.006  -0.003  -0.000  -0.000  -0.002  -0.006
 -0.001  -0.000   0.002  -0.005  -0.003  -0.001  -0.000   0.002
 -0.005  -0.004   0.001  -0.000   0.002  -0.005  -0.004   0.001
 -0.000  -0.002  -0.007  -0.004  -0.000  -0.000  -0.002  -0.007
 -0.002  -0.000   0.003  -0.005  -0.003  -0.002  -0.000   0.003
 total augmentation occupancy for first ion, spin component:           1
  4.412   0.013   0.004  -0.007   0.009  -2.602  -0.019  -0.003  -0.037  -0.006  -0.006   0.001   0.100   0.000  -0.031  -0.008
  0.013   4.209  -0.064  -0.004   0.019  -0.018  -1.964   0.058  -0.002  -0.057   0.025  -0.033  -0.150   0.015  -0.003   0.003
  0.004  -0.064   4.488   0.016   0.046  -0.003   0.058  -2.381  -0.011  -0.066   0.919  -0.111   0.006  -0.240  -0.033  -0.000
 -0.007  -0.004   0.016   4.097  -0.003  -0.035  -0.002  -0.011  -1.857   0.005  -0.011  -0.003   0.001  -0.004  -0.151   0.000
  0.009   0.019   0.046  -0.003   4.175  -0.006  -0.058  -0.066   0.005  -2.369   0.138  -0.080  -0.024   0.011  -0.041   0.002
 -2.602  -0.018  -0.003  -0.035  -0.006   2.672   0.022   0.003   0.069   0.005   0.005  -0.001  -0.084   0.000   0.030   0.004
 -0.019  -1.964   0.058  -0.002  -0.058   0.022   1.687  -0.052   0.006   0.088  -0.020   0.028   0.138  -0.010   0.003  -0.006
 -0.003   0.058  -2.381  -0.011  -0.066   0.003  -0.052   2.220   0.008   0.081  -0.858   0.126  -0.004   0.249   0.028   0.001
 -0.037  -0.002  -0.011  -1.857   0.005   0.069   0.006   0.008   1.586  -0.006   0.010   0.001  -0.000   0.004   0.141  -0.000
 -0.006  -0.057  -0.066   0.005  -2.369   0.005   0.088   0.081  -0.006   2.444  -0.120   0.071   0.023  -0.008   0.035  -0.001
 -0.006   0.025   0.919  -0.011   0.138   0.005  -0.020  -0.858   0.010  -0.120   2.433  -0.497   0.001   0.121  -0.015  -0.000
  0.001  -0.033  -0.111  -0.003  -0.080  -0.001   0.028   0.126   0.001   0.071  -0.497   0.141   0.002  -0.054   0.016  -0.000
  0.100  -0.150   0.006   0.001  -0.024  -0.084   0.138  -0.004  -0.000   0.023   0.001   0.002   0.195   0.001   0.001  -0.006
  0.000   0.015  -0.240  -0.004   0.011   0.000  -0.010   0.249   0.004  -0.008   0.121  -0.054   0.001   0.098   0.001   0.000
 -0.031  -0.003  -0.033  -0.151  -0.041   0.030   0.003   0.028   0.141   0.035  -0.015   0.016   0.001   0.001   0.188  -0.000
 -0.008   0.003  -0.000   0.000   0.002   0.004  -0.006   0.001  -0.000  -0.001  -0.000  -0.000  -0.006   0.000  -0.000   0.000
  0.000  -0.003   0.000  -0.003  -0.001  -0.000   0.001  -0.006   0.001   0.000  -0.008   0.002   0.000  -0.003  -0.000  -0.000
 -0.001   0.000   0.003   0.002  -0.001  -0.001  -0.000  -0.002  -0.005  -0.001   0.000  -0.001  -0.000  -0.000  -0.005   0.000


------------------------ aborting loop because EDIFF is reached ----------------------------------------


    CHARGE:  cpu time    0.2293: real time    0.2300
    FORLOC:  cpu time    0.0164: real time    0.0164
    FORNL :  cpu time    1.3247: real time    1.3281
    FORCOR:  cpu time    0.0573: real time    0.0575
    FORHAR:  cpu time    0.0248: real time    0.0248
    MIXING:  cpu time    0.0028: real time    0.0028
    OFIELD:  cpu time    0.0000: real time    0.0000

 VOLUME and BASIS-vectors are now :
 -----------------------------------------------------------------------------
  energy-cutoff  :      400.00
  volume of cell :     2567.68
      direct lattice vectors                 reciprocal lattice vectors
    11.002581515  0.000000000  0.000000000     0.090887761 -0.052474073  0.000000000
     5.501290758  9.528515099  0.000000000     0.000000000  0.104948147  0.000000000
     0.000000000  0.000000000 24.491785094     0.000000000  0.000000000  0.040830017

  length of vectors
    11.002581515 11.002581515 24.491785094     0.104948147  0.104948147  0.040830017


 FORCES acting on ions
    electron-ion (+dipol)            ewald-force                    non-local-force                 convergence-correction
 -----------------------------------------------------------------------------------------------
   -.127E+02 -.107E+01 0.221E+04   0.133E+02 0.128E+01 -.221E+04   -.357E+00 -.161E+00 -.311E+00   0.276E-02 0.161E-02 0.208E-02
   -.570E+01 -.112E+02 0.220E+04   0.582E+01 0.117E+02 -.220E+04   -.685E-01 -.318E+00 0.103E+00   -.718E-03 -.298E-02 0.212E-02
   0.509E+01 0.973E+01 0.219E+04   -.551E+01 -.106E+02 -.219E+04   0.293E+00 0.635E+00 -.149E+00   -.170E-02 -.155E-02 0.580E-02
   0.135E+02 0.120E+02 0.219E+04   -.148E+02 -.121E+02 -.219E+04   0.878E+00 -.519E-02 0.249E+00   -.250E-02 0.172E-02 0.397E-02
   -.737E+01 0.855E+01 -.225E+04   0.763E+01 -.895E+01 0.225E+04   -.254E+00 0.396E+00 0.730E+00   -.413E-02 0.491E-02 -.493E-02
   -.168E+01 0.670E+00 -.750E+02   0.113E+01 -.750E+00 0.767E+02   0.555E+00 0.768E-01 -.164E+01   -.469E-02 -.632E-02 -.910E-02
   0.133E+02 -.104E+02 0.219E+04   -.140E+02 0.107E+02 -.219E+04   0.488E+00 -.212E+00 -.113E+00   0.989E-03 -.149E-02 0.331E-02
   -.228E+01 -.134E+02 0.219E+04   0.275E+01 0.139E+02 -.219E+04   -.382E+00 -.305E+00 -.552E+00   -.959E-03 -.396E-02 0.325E-02
   -.168E+02 0.110E+02 -.228E+04   0.173E+02 -.114E+02 0.228E+04   -.524E+00 0.342E+00 0.364E+00   -.516E-02 0.970E-03 -.596E-02
   -.288E+01 0.763E+01 0.219E+04   0.314E+01 -.811E+01 -.219E+04   -.181E+00 0.291E+00 -.601E+00   0.196E-02 -.578E-03 0.514E-02
   0.408E+01 -.606E+01 -.880E+02   -.374E+01 0.572E+01 0.885E+02   -.351E+00 0.336E+00 -.519E+00   0.190E-02 0.998E-02 -.574E-02
   -.458E+01 0.113E+02 0.220E+04   0.503E+01 -.120E+02 -.220E+04   -.315E+00 0.402E+00 -.143E+00   0.279E-02 0.340E-02 0.173E-02
   -.805E+01 -.771E+01 0.219E+04   0.873E+01 0.847E+01 -.219E+04   -.514E+00 -.556E+00 0.985E-01   -.146E-02 -.107E-02 0.325E-02
   -.837E+01 -.335E+01 -.834E+01   0.826E+01 0.280E+01 0.840E+01   0.105E+00 0.550E+00 -.614E-01   0.661E-02 -.199E-02 -.604E-03
   -.227E+01 -.101E+02 -.233E+04   0.204E+01 0.110E+02 0.233E+04   0.238E+00 -.920E+00 0.366E-01   0.518E-03 0.285E-02 -.111E-01
   -.160E+01 -.945E+00 -.313E+02   0.155E+01 0.125E+01 0.324E+02   0.498E-01 -.297E+00 -.116E+01   0.599E-03 -.220E-03 -.734E-02
   0.647E+01 -.110E+02 0.219E+04   -.701E+01 0.118E+02 -.219E+04   0.415E+00 -.600E+00 -.132E+00   0.121E-02 0.769E-04 0.361E-02
   0.588E+01 0.291E+01 -.232E+04   -.587E+01 -.262E+01 0.232E+04   0.158E-02 -.294E+00 0.281E-01   -.841E-02 -.185E-03 -.103E-01
   -.860E+01 0.656E+01 -.115E+03   0.836E+01 -.648E+01 0.115E+03   0.253E+00 -.700E-01 -.426E+00   -.251E-02 0.609E-02 -.759E-02
   -.288E+01 0.109E+02 0.218E+04   0.316E+01 -.117E+02 -.218E+04   -.187E+00 0.605E+00 0.297E+00   -.137E-02 0.252E-02 0.136E-02
   0.152E+02 0.196E+01 -.230E+04   -.162E+02 -.212E+01 0.230E+04   0.101E+01 0.168E+00 0.960E-01   -.400E-02 -.625E-03 -.314E-02
   -.120E+02 0.673E+01 -.530E+02   0.115E+02 -.667E+01 0.530E+02   0.475E+00 -.687E-01 -.399E-01   -.392E-02 0.142E-02 -.233E-02
   -.307E+00 0.749E+00 0.219E+04   0.699E+00 -.769E+00 -.219E+04   -.319E+00 -.353E-02 -.215E+00   -.211E-02 -.376E-03 0.168E-02
   -.166E+02 0.569E+01 -.224E+04   0.178E+02 -.559E+01 0.224E+04   -.115E+01 -.896E-01 0.603E+00   -.861E-02 -.283E-02 -.925E-02
   0.724E+01 -.425E+01 -.175E+02   -.759E+01 0.472E+01 0.179E+02   0.344E+00 -.460E+00 -.410E+00   -.282E-02 -.410E-02 -.770E-02
   -.547E+01 0.356E+00 -.202E+04   0.566E+01 -.492E+00 0.201E+04   -.180E+00 0.134E+00 0.192E+01   -.332E-02 -.194E-02 -.757E-02
   0.109E+02 -.198E+01 0.201E+04   -.113E+02 0.204E+01 -.201E+04   0.319E+00 -.342E-01 -.146E+01   -.195E-03 0.194E-02 0.339E-02
   -.435E+01 0.365E+00 0.149E+02   0.415E+01 0.443E+00 -.145E+02   0.193E+00 -.813E+00 -.418E+00   0.397E-02 0.461E-02 -.217E-02
   -.451E+01 -.742E+01 0.201E+04   0.461E+01 0.742E+01 -.200E+04   -.667E-01 0.360E-01 -.131E+01   0.603E-03 -.766E-03 0.235E-02
   0.148E+01 0.311E+01 -.381E+01   -.235E+01 -.326E+01 0.470E+01   0.857E+00 0.154E+00 -.885E+00   -.573E-03 0.278E-02 -.484E-02
   0.142E+01 -.570E+01 -.539E+02   -.876E+00 0.547E+01 0.539E+02   -.546E+00 0.232E+00 0.401E-01   -.935E-03 -.207E-02 -.201E-02
   0.245E+02 -.497E+01 -.199E+04   -.251E+02 0.534E+01 0.199E+04   0.558E+00 -.374E+00 0.166E+01   0.498E-03 0.135E-02 -.877E-02
   -.312E+01 0.546E+01 -.368E+02   0.352E+01 -.508E+01 0.373E+02   -.418E+00 -.391E+00 -.492E+00   0.743E-02 -.296E-02 -.378E-02
   0.137E+02 -.100E+02 -.201E+04   -.139E+02 0.102E+02 0.201E+04   0.228E+00 -.240E+00 0.154E+01   0.447E-02 0.227E-02 -.513E-02
   -.263E+01 0.104E+02 -.197E+04   0.314E+01 -.107E+02 0.197E+04   -.510E+00 0.302E+00 0.193E+01   0.293E-02 -.355E-02 -.141E-01
   0.219E+01 -.251E+01 -.594E+01   -.145E+01 0.224E+01 0.636E+01   -.736E+00 0.258E+00 -.404E+00   0.707E-02 0.551E-02 -.875E-02
   0.182E+01 -.815E+00 0.200E+04   -.193E+01 0.795E+00 -.200E+04   0.689E-01 0.204E-01 -.177E+01   -.436E-03 -.702E-03 0.212E-03
   0.899E+01 0.344E+01 -.341E+02   -.822E+01 -.396E+01 0.341E+02   -.768E+00 0.515E+00 -.975E-02   -.292E-03 -.253E-02 -.443E-02
   -.562E+01 0.655E+01 -.197E+04   0.583E+01 -.681E+01 0.197E+04   -.217E+00 0.258E+00 0.196E+01   0.641E-02 0.102E-02 -.994E-02
   -.213E+02 0.121E+02 -.200E+04   0.217E+02 -.126E+02 0.199E+04   -.350E+00 0.537E+00 0.170E+01   -.131E-02 0.392E-02 -.728E-02
   -.573E+01 0.129E+02 0.201E+04   0.602E+01 -.131E+02 -.200E+04   -.214E+00 0.124E+00 -.187E+01   0.956E-03 0.191E-02 0.515E-02
   -.132E+01 0.167E+00 -.493E+02   0.136E+01 -.504E-01 0.497E+02   -.364E-01 -.115E+00 -.464E+00   -.225E-02 -.768E-03 -.358E-02
   -.974E+01 -.370E+01 -.200E+04   0.984E+01 0.384E+01 0.200E+04   -.103E+00 -.138E+00 0.188E+01   0.233E-02 -.102E-02 -.583E-02
   0.432E+01 0.984E+00 -.520E+00   -.453E+01 -.103E+01 0.134E+01   0.199E+00 0.432E-01 -.814E+00   0.526E-02 0.294E-02 -.833E-02
   0.219E+02 -.836E+01 -.204E+04   -.225E+02 0.843E+01 0.204E+04   0.632E+00 -.719E-01 0.172E+01   -.408E-02 -.455E-02 -.108E-01
   0.431E+01 -.469E+01 -.320E+02   -.444E+01 0.449E+01 0.328E+02   0.129E+00 0.215E+00 -.828E+00   0.266E-02 -.606E-02 -.999E-02
   0.682E+01 -.732E+01 -.199E+04   -.726E+01 0.739E+01 0.199E+04   0.445E+00 -.712E-01 0.167E+01   0.516E-03 0.132E-02 -.792E-02
   0.546E+01 -.153E+02 -.203E+04   -.535E+01 0.154E+02 0.203E+04   -.110E+00 -.861E-01 0.160E+01   0.336E-02 -.208E-02 -.531E-02
 -----------------------------------------------------------------------------------------------
   0.125E+00 0.660E-01 -.289E+01   0.373E-12 0.284E-13 0.387E-11   -.129E+00 -.631E-01 0.302E+01   -.659E-03 0.784E-02 -.167E+00
 
 
 POSITION                                       TOTAL-FORCE (eV/Angst)
 -----------------------------------------------------------------------------------
      1.37532      0.79404     10.00000         0.222945      0.055341     -0.192474
      5.50129      7.94043     10.00000         0.052158      0.197885     -0.193405
      4.12597      5.55830     10.00000        -0.122170     -0.217877     -0.101645
      5.50129      3.17617     10.00000        -0.368293     -0.137200     -0.192071
     12.39898      7.12982     14.94088        -0.004115      0.002162      0.000338
      5.46703      6.35041     12.52914         0.001736     -0.009710     -0.002928
     11.00258      7.94043     10.00000        -0.246785      0.139061     -0.055923
     13.75323      7.94043     10.00000         0.095699      0.210143      0.025955
     11.03797      4.74375     14.97691        -0.007529      0.002239      0.005543
     12.37790      5.55830     10.00000         0.082937     -0.189648      0.010296
      9.64103      3.96337     12.53466        -0.010397      0.002062     -0.002514
     11.00258      3.17617     10.00000         0.138424     -0.201521     -0.132989
      6.87661      5.55830     10.00000         0.160834      0.208521     -0.128207
      9.61839      8.71829     12.44331         0.003271     -0.001844     -0.004881
      8.24750      4.80192     15.07421         0.007749     -0.000450      0.005991
      6.86346      8.74252     12.47485        -0.006569      0.008411      0.001541
      9.62726      5.55830     10.00000        -0.131335      0.231557     -0.008465
      6.87900      2.39143     15.07284         0.005670     -0.006644      0.004073
      6.86566      3.95756     12.56933         0.005583      0.011586      0.000211
      8.25194      3.17617     10.00000         0.096686     -0.226105     -0.072537
      5.47467     -0.00299     15.02474         0.002183      0.000903      0.003558
      5.47547      1.57731     12.48827        -0.004670     -0.009655     -0.001805
      6.87661      0.79404     10.00000         0.071143     -0.024791      0.013470
      8.29209     -0.00024     14.94101        -0.001099      0.003830     -0.000008
     15.09639      8.75353     12.45613        -0.001634      0.002625      0.004115
      4.14721      7.14288     14.84895         0.005010     -0.003929      0.006864
      4.12597      0.79404     10.00000        -0.123206      0.026609      0.228312
      2.72351      1.61528     12.41684        -0.004943     -0.000155      0.002348
      8.25194      7.94043     10.00000         0.035662      0.031933      0.201757
      4.08809      3.96512     12.44184        -0.012965      0.002465      0.002611
     12.38661      8.72171     12.49249        -0.001491      0.001547      0.001993
      4.10683      2.39191     14.82526         0.002143     -0.000945      0.000777
      8.25301      6.34278     12.48481        -0.003644     -0.006491     -0.004999
      2.74684      0.01181     14.83336         0.003340      0.000239      0.005602
      2.78049      4.74833     14.79016         0.008665     -0.006684     -0.000908
     12.38735      3.96755     12.43491         0.006507     -0.001518      0.009274
      9.62726      0.79404     10.00000        -0.046289     -0.001018      0.303343
      8.26278      1.56486     12.47517         0.004536     -0.005345      0.001705
      1.39342      2.36469     14.77346         0.002489      0.000669     -0.004597
      9.65129      2.36884     14.85144         0.000620      0.003183      0.005251
      2.75065      3.17617     10.00000         0.077502     -0.086602      0.239356
     11.01202      6.34498     12.49162        -0.002724      0.000968     -0.004052
      0.01981      0.00930     14.81905         0.004186      0.001194      0.005430
     10.98940      1.58692     12.43320        -0.001503     -0.004728     -0.001364
      5.47618      4.76641     14.89625         0.000786      0.000968      0.009007
     13.72279      6.35350     12.47068         0.000305      0.001430      0.001792
      9.61496      7.15380     14.84443         0.002756     -0.000943     -0.003405
      6.87856      7.16766     14.87167        -0.000164     -0.003724      0.008664
 -----------------------------------------------------------------------------------
    total drift:                               -0.003995      0.010711     -0.042750


--------------------------------------------------------------------------------------------------------



  FREE ENERGIE OF THE ION-ELECTRON SYSTEM (eV)
  ---------------------------------------------------
  free  energy   TOTEN  =      -192.37607435 eV

  energy  without entropy=     -192.12815279  energy(sigma->0) =     -192.25211357
 
 d Force = 0.3574454E-03[ 0.285E-04, 0.686E-03]  d Energy = 0.3171737E-03 0.403E-04
 d Force = 0.4609151E+02[ 0.461E+02, 0.461E+02]  d Ewald  = 0.4609151E+02 0.102E-05


--------------------------------------------------------------------------------------------------------


    POTLOK:  cpu time    0.0486: real time    0.0487


--------------------------------------------------------------------------------------------------------


 stress matrix after NEB project (eV)
      0.00000      0.00000      0.00000
      0.00000      0.00000      0.00000
      0.00000      0.00000      0.00000
  FORCES: max atom, RMS     0.013453    0.006659
  FORCE total and by dimension    0.046135    0.012965
  Stress total and by dimension    0.000000    0.000000
 Conjugate gradient step on ions:
 trial-energy change:   -0.000317  1 .order   -0.000357   -0.000686   -0.000028
  (g-gl).g = 0.239E-03      g.g   = 0.253E-03  gl.gl    = 0.550E-03
 g(Force)  = 0.253E-03   g(Stress)= 0.000E+00 ortho     =-0.145E-04
 gamma     =   0.43416
 trial     =   2.78048
 opt step  =   2.97888  (harmonic =   2.90082) maximal distance =0.00250851
 next E    =  -192.376075   (d E  =  -0.00032)


--------------------------------------------------------------------------------------------------------


  
 reached required accuracy - stopping structural energy minimisation
     LOOP+:  cpu time   52.1361: real time   52.4008
    4ORBIT:  cpu time    0.0000: real time    0.0000

 total amount of memory used by VASP on root node    84353. kBytes
========================================================================

   base      :      30000. kBytes
   nonlr-proj:       4285. kBytes
   fftplans  :       4447. kBytes
   grid      :       6721. kBytes
   one-center:        124. kBytes
   wavefun   :      38776. kBytes
 
  
  
 General timing and accounting informations for this job:
 ========================================================
  
                  Total CPU time used (sec):     1469.450
                            User time (sec):     1398.167
                          System time (sec):       71.283
                         Elapsed time (sec):     1478.537
  
                   Maximum memory used (kb):      826024.
                   Average memory used (kb):           0.
  
                          Minor page faults:       679117
                          Major page faults:            0
                 Voluntary context switches:         9873
