<?xml version="1.0" encoding="ISO-8859-1"?>
<modeling>
 <generator>
  <i name="program" type="string">vasp </i>
  <i name="version" type="string">5.4.1  </i>
  <i name="subversion" type="string">24Jun15 (build Mar 14 2019 10:18:33) complex                          parallel </i>
  <i name="platform" type="string">INTEL-19.0.2+OPENMPI-3.1.3 </i>
  <i name="date" type="string">2023 01 30 </i>
  <i name="time" type="string">16:52:09 </i>
 </generator>
 <incar>
  <i type="int" name="ISTART">     0</i>
  <i type="string" name="PREC">normal</i>
  <i type="string" name="ALGO"> Fast</i>
  <i type="int" name="NELM">   500</i>
  <i type="int" name="IBRION">     2</i>
  <i type="int" name="NFREE">     2</i>
  <i name="EDIFF">      0.00000100</i>
  <i name="EDIFFG">     -0.02000000</i>
  <i type="int" name="NSW">   500</i>
  <i type="int" name="ISIF">     0</i>
  <i type="int" name="ISYM">     2</i>
  <i name="ENCUT">    400.00000000</i>
  <i name="POTIM">      0.35000000</i>
  <i type="string" name="LREAL"> Auto</i>
  <i type="logical" name="LPLANE"> T  </i>
  <i type="int" name="ISMEAR">     0</i>
  <i name="SIGMA">      0.10000000</i>
  <i type="int" name="NWRITE">     1</i>
  <i type="logical" name="LWAVE"> F  </i>
  <i type="logical" name="LCHARG"> F  </i>
  <i type="logical" name="LVTOT"> F  </i>
  <i type="logical" name="LORBIT"> F  </i>
  <i type="logical" name="LAECHG"> F  </i>
  <v type="int" name="KPOINT_BSE">    -1     0     0     0</v>
  <i type="int" name="NELM">   500</i>
  <i type="string" name="GGA"> PE          ! optPBE-vdW XC-functional</i>
  <i type="int" name="VOSKOWN">     1</i>
  <i type="logical" name="LDIPOL"> T  </i>
  <i type="logical" name="LMONO"> F  </i>
  <i type="int" name="IDIPOL">     3</i>
  <v name="DIPOL">      0.00000000      0.00000000      0.50000000</v>
 </incar>
 <kpoints>
  <generation param="Monkhorst-Pack">
   <v type="int" name="divisions">       2        2        1 </v>
   <v name="usershift">      0.00000000       0.00000000       0.00000000 </v>
   <v name="genvec1">      0.50000000      -0.00000000       0.00000000 </v>
   <v name="genvec2">      0.00000000       0.50000000       0.00000000 </v>
   <v name="genvec3">      0.00000000       0.00000000       1.00000000 </v>
   <v name="shift">      0.50000000       0.50000000       0.00000000 </v>
  </generation>
  <varray name="kpointlist" >
   <v>       0.25000000       0.25000000       0.00000000 </v>
   <v>       0.00000000       0.25000000       0.00000000 </v>
   <v>      -0.25000000       0.00000000       0.00000000 </v>
   <v>      -0.25000000       0.25000000       0.00000000 </v>
   <v>       0.50000000      -0.25000000       0.00000000 </v>
   <v>      -0.25000000       0.50000000       0.00000000 </v>
  </varray>
  <varray name="weights" >
   <v>       0.16666667 </v>
   <v>       0.16666667 </v>
   <v>       0.16666667 </v>
   <v>       0.16666667 </v>
   <v>       0.16666667 </v>
   <v>       0.16666667 </v>
  </varray>
 </kpoints>
 <parameters>
  <separator name="general" >
   <i type="string" name="SYSTEM">unknown system</i>
   <i type="logical" name="LCOMPAT"> F  </i>
  </separator>
  <separator name="electronic" >
   <i type="string" name="PREC">normal</i>
   <i name="ENMAX">    400.00000000</i>
   <i name="ENAUG">    416.23000000</i>
   <i name="EDIFF">      0.00000100</i>
   <i type="int" name="IALGO">    68</i>
   <i type="int" name="IWAVPR">    11</i>
   <i type="int" name="NBANDS">   306</i>
   <i name="NELECT">    504.00000000</i>
   <i type="int" name="TURBO">     0</i>
   <i type="int" name="IRESTART">     0</i>
   <i type="int" name="NREBOOT">     0</i>
   <i type="int" name="NMIN">     0</i>
   <i name="EREF">      0.00000000</i>
   <separator name="electronic smearing" >
    <i type="int" name="ISMEAR">     0</i>
    <i name="SIGMA">      0.10000000</i>
    <i name="KSPACING">      0.50000000</i>
    <i type="logical" name="KGAMMA"> T  </i>
   </separator>
   <separator name="electronic projectors" >
    <i type="logical" name="LREAL"> T  </i>
    <v name="ROPT">     -0.00050000     -0.00050000</v>
    <i type="int" name="LMAXPAW">  -100</i>
    <i type="int" name="LMAXMIX">     2</i>
    <i type="logical" name="NLSPLINE"> F  </i>
   </separator>
   <separator name="electronic startup" >
    <i type="int" name="ISTART">     0</i>
    <i type="int" name="ICHARG">     2</i>
    <i type="int" name="INIWAV">     1</i>
   </separator>
   <separator name="electronic spin" >
    <i type="int" name="ISPIN">     1</i>
    <i type="logical" name="LNONCOLLINEAR"> F  </i>
    <v name="MAGMOM">      1.00000000      1.00000000      1.00000000      1.00000000      1.00000000      1.00000000      1.00000000      1.00000000      1.00000000      1.00000000      1.00000000      1.00000000      1.00000000      1.00000000      1.00000000      1.00000000      1.00000000      1.00000000      1.00000000      1.00000000
      1.00000000      1.00000000      1.00000000      1.00000000      1.00000000      1.00000000      1.00000000      1.00000000      1.00000000      1.00000000      1.00000000      1.00000000      1.00000000      1.00000000      1.00000000      1.00000000      1.00000000      1.00000000      1.00000000      1.00000000
      1.00000000      1.00000000      1.00000000      1.00000000      1.00000000      1.00000000      1.00000000      1.00000000</v>
    <i name="NUPDOWN">     -1.00000000</i>
    <i type="logical" name="LSORBIT"> F  </i>
    <v name="SAXIS">      0.00000000      0.00000000      1.00000000</v>
    <i type="logical" name="LSPIRAL"> F  </i>
    <v name="QSPIRAL">      0.00000000      0.00000000      0.00000000</v>
    <i type="logical" name="LZEROZ"> F  </i>
   </separator>
   <separator name="electronic exchange-correlation" >
    <i type="logical" name="LASPH"> F  </i>
    <i type="logical" name="LMETAGGA"> F  </i>
   </separator>
   <separator name="electronic convergence" >
    <i type="int" name="NELM">   500</i>
    <i type="int" name="NELMDL">    -5</i>
    <i type="int" name="NELMIN">     2</i>
    <i name="ENINI">    400.00000000</i>
    <separator name="electronic convergence detail" >
     <i type="logical" name="LDIAG"> T  </i>
     <i type="logical" name="LSUBROT"> F  </i>
     <i name="WEIMIN">      0.00100000</i>
     <i name="EBREAK">      0.00000000</i>
     <i name="DEPER">      0.30000000</i>
     <i type="int" name="NRMM">     4</i>
     <i name="TIME">      0.40000000</i>
    </separator>
   </separator>
   <separator name="electronic mixer" >
    <i name="AMIX">      0.40000000</i>
    <i name="BMIX">      1.00000000</i>
    <i name="AMIN">      0.10000000</i>
    <i name="AMIX_MAG">      1.60000000</i>
    <i name="BMIX_MAG">      1.00000000</i>
    <separator name="electronic mixer details" >
     <i type="int" name="IMIX">     4</i>
     <i type="logical" name="MIXFIRST"> F  </i>
     <i type="int" name="MAXMIX">   -45</i>
     <i name="WC">    100.00000000</i>
     <i type="int" name="INIMIX">     1</i>
     <i type="int" name="MIXPRE">     1</i>
     <i type="int" name="MREMOVE">     5</i>
    </separator>
   </separator>
   <separator name="electronic dipolcorrection" >
    <i type="logical" name="LDIPOL"> T  </i>
    <i type="logical" name="LMONO"> F  </i>
    <i type="int" name="IDIPOL">     3</i>
    <i name="EPSILON">      1.00000000</i>
    <v name="DIPOL">      0.00000000      0.00000000      0.50000000</v>
    <i name="EFIELD">      0.00000000</i>
   </separator>
  </separator>
  <separator name="grids" >
   <i type="int" name="NGX">    54</i>
   <i type="int" name="NGY">    54</i>
   <i type="int" name="NGZ">   120</i>
   <i type="int" name="NGXF">   108</i>
   <i type="int" name="NGYF">   108</i>
   <i type="int" name="NGZF">   240</i>
   <i type="logical" name="ADDGRID"> F  </i>
  </separator>
  <separator name="ionic" >
   <i type="int" name="NSW">   500</i>
   <i type="int" name="IBRION">     2</i>
   <i type="int" name="ISIF">     0</i>
   <i name="PSTRESS">      0.00000000</i>
   <i name="EDIFFG">     -0.02000000</i>
   <i type="int" name="NFREE">     2</i>
   <i name="POTIM">      0.35000000</i>
   <i name="SMASS">     -3.00000000</i>
   <i name="SCALEE">      1.00000000</i>
  </separator>
  <separator name="ionic md" >
   <i name="TEBEG">      0.00010000</i>
   <i name="TEEND">      0.00010000</i>
   <i type="int" name="NBLOCK">     1</i>
   <i type="int" name="KBLOCK">   500</i>
   <i type="int" name="NPACO">   256</i>
   <i name="APACO">     16.00000000</i>
  </separator>
  <separator name="symmetry" >
   <i type="int" name="ISYM">     2</i>
   <i name="SYMPREC">      0.00001000</i>
  </separator>
  <separator name="dos" >
   <i type="logical" name="LORBIT"> F  </i>
   <v name="RWIGS">     -1.00000000     -1.00000000</v>
   <i type="int" name="NEDOS">   301</i>
   <i name="EMIN">     10.00000000</i>
   <i name="EMAX">    -10.00000000</i>
   <i name="EFERMI">      0.00000000</i>
  </separator>
  <separator name="writing" >
   <i type="int" name="NWRITE">     1</i>
   <i type="logical" name="LWAVE"> F  </i>
   <i type="logical" name="LCHARG"> F  </i>
   <i type="logical" name="LPARD"> F  </i>
   <i type="logical" name="LVTOT"> F  </i>
   <i type="logical" name="LVHAR"> F  </i>
   <i type="logical" name="LELF"> F  </i>
   <i type="logical" name="LOPTICS"> F  </i>
   <v name="STM">      0.00000000      0.00000000      0.00000000      0.00000000      0.00000000      0.00000000      0.00000000</v>
  </separator>
  <separator name="performance" >
   <i type="int" name="NPAR">     6</i>
   <i type="int" name="NSIM">     4</i>
   <i type="int" name="NBLK">    -1</i>
   <i type="logical" name="LPLANE"> T  </i>
   <i type="logical" name="LSCALAPACK"> T  </i>
   <i type="logical" name="LSCAAWARE"> F  </i>
   <i type="logical" name="LSCALU"> F  </i>
   <i type="logical" name="LASYNC"> F  </i>
   <i type="logical" name="LORBITALREAL"> F  </i>
  </separator>
  <separator name="miscellaneous" >
   <i type="int" name="IDIOT">     3</i>
   <i type="logical" name="LMUSIC"> F  </i>
   <v name="POMASS">    196.96600000    106.42000000</v>
   <v name="DARWINR">      0.00000000      0.00000000</v>
   <v name="DARWINV">      1.00000000      1.00000000</v>
   <i type="logical" name="LCORR"> T  </i>
  </separator>
  <i type="logical" name="GGA_COMPAT"> T  </i>
  <i type="logical" name="LBERRY"> F  </i>
  <i type="int" name="ICORELEVEL">     0</i>
  <i type="logical" name="LDAU"> F  </i>
  <i type="int" name="I_CONSTRAINED_M">     0</i>
  <separator name="electronic exchange-correlation" >
   <i type="string" name="GGA">PE</i>
   <i type="int" name="VOSKOWN">     1</i>
   <i type="logical" name="LHFCALC"> F  </i>
   <i type="string" name="PRECFOCK"></i>
   <i type="logical" name="LSYMGRAD"> F  </i>
   <i type="logical" name="LHFONE"> F  </i>
   <i type="logical" name="LRHFCALC"> F  </i>
   <i type="logical" name="LTHOMAS"> F  </i>
   <i type="logical" name="LMODELHF"> F  </i>
   <i name="ENCUT4O">     -1.00000000</i>
   <i type="int" name="EXXOEP">     0</i>
   <i type="int" name="FOURORBIT">     0</i>
   <i name="AEXX">      0.00000000</i>
   <i name="HFALPHA">      0.00000000</i>
   <i name="MCALPHA">      0.00000000</i>
   <i name="ALDAX">      1.00000000</i>
   <i name="AGGAX">      1.00000000</i>
   <i name="ALDAC">      1.00000000</i>
   <i name="AGGAC">      1.00000000</i>
   <i type="int" name="NKREDX">     1</i>
   <i type="int" name="NKREDY">     1</i>
   <i type="int" name="NKREDZ">     1</i>
   <i type="logical" name="SHIFTRED"> F  </i>
   <i type="logical" name="ODDONLY"> F  </i>
   <i type="logical" name="EVENONLY"> F  </i>
   <i type="int" name="LMAXFOCK">     0</i>
   <i type="int" name="NMAXFOCKAE">     0</i>
   <i type="logical" name="LFOCKAEDFT"> F  </i>
   <i name="HFSCREEN">      0.00000000</i>
   <i name="HFSCREENC">      0.00000000</i>
   <i type="int" name="NBANDSGWLOW">     0</i>
  </separator>
  <separator name="vdW DFT" >
   <i type="logical" name="LUSE_VDW"> F  </i>
   <i name="Zab_VDW">     -0.84910000</i>
   <i name="PARAM1">      0.12340000</i>
   <i name="PARAM2">      1.00000000</i>
   <i name="PARAM3">      0.00000000</i>
  </separator>
  <separator name="model GW" >
   <i type="int" name="MODEL_GW">     0</i>
   <i name="MODEL_EPS0">     32.09595293</i>
   <i name="MODEL_ALPHA">      1.00000000</i>
  </separator>
  <separator name="linear response parameters" >
   <i type="logical" name="LEPSILON"> F  </i>
   <i type="logical" name="LRPA"> F  </i>
   <i type="logical" name="LNABLA"> F  </i>
   <i type="logical" name="LVEL"> F  </i>
   <i type="int" name="KINTER">     0</i>
   <i name="CSHIFT">      0.10000000</i>
   <i name="OMEGAMAX">     -1.00000000</i>
   <i name="DEG_THRESHOLD">      0.00200000</i>
  </separator>
  <separator name="orbital magnetization" >
   <i type="logical" name="NUCIND"> F  </i>
   <v name="MAGPOS">      0.00000000      0.00000000      0.00000000</v>
   <i type="logical" name="LNICSALL"> T  </i>
   <i type="logical" name="ORBITALMAG"> F  </i>
   <i type="logical" name="LMAGBLOCH"> F  </i>
   <i type="logical" name="LCHIMAG"> F  </i>
   <i type="logical" name="LGAUGE"> T  </i>
   <i type="int" name="MAGATOM">     0</i>
   <v name="MAGDIPOL">      0.00000000      0.00000000      0.00000000</v>
   <v name="AVECCONST">      0.00000000      0.00000000      0.00000000</v>
  </separator>
  <separator name="response functions" >
   <i type="logical" name="LADDER"> F  </i>
   <i type="logical" name="LFXC"> F  </i>
   <i type="logical" name="LHARTREE"> T  </i>
   <i type="int" name="IBSE">     0</i>
   <v type="int" name="KPOINT">    -1     0     0     0</v>
   <i type="logical" name="LTCTE"> F  </i>
   <i type="logical" name="LTETE"> F  </i>
   <i type="logical" name="LTRIPLET"> F  </i>
   <i type="logical" name="LFXCEPS"> F  </i>
   <i type="logical" name="LFXHEG"> F  </i>
   <i type="int" name="NATURALO">     0</i>
   <i type="logical" name="L2ORDER"> F  </i>
   <i type="logical" name="LUSEW"> F  </i>
   <i name="ENCUTGW">     -2.00000000</i>
   <i name="ENCUTGWSOFT">     -2.00000000</i>
   <i name="ENCUTLF">     -1.00000000</i>
   <i type="int" name="LMAXMP2">    -1</i>
   <i name="SCISSOR">      0.00000000</i>
   <i type="int" name="NOMEGA">     0</i>
   <i type="int" name="NOMEGAR">     0</i>
   <i type="int" name="NBANDSGW">    -1</i>
   <i type="int" name="NBANDSO">    -1</i>
   <i type="int" name="NBANDSV">    -1</i>
   <i type="int" name="NELM">   500</i>
   <i type="int" name="NELMHF">     1</i>
   <i type="int" name="DIM">     3</i>
   <i type="int" name="ANTIRES">     0</i>
   <i name="OMEGAMAX">    -30.00000000</i>
   <i name="OMEGAMIN">    -30.00000000</i>
   <i name="OMEGATL">   -200.00000000</i>
   <i type="int" name="OMEGAGRID">     0</i>
   <i name="CSHIFT">     -0.10000000</i>
   <i type="logical" name="SELFENERGY"> F  </i>
   <i type="logical" name="LSPECTRAL"> F  </i>
   <i type="logical" name="LSPECTRALGW"> F  </i>
   <i type="logical" name="LSINGLES"> F  </i>
   <i type="logical" name="LFERMIGW"> F  </i>
   <i type="logical" name="ODDONLYGW"> F  </i>
   <i type="logical" name="EVENONLYGW"> F  </i>
   <i type="int" name="NKREDLFX">     1</i>
   <i type="int" name="NKREDLFY">     1</i>
   <i type="int" name="NKREDLFZ">     1</i>
   <i type="int" name="MAXMEM">  1800</i>
   <i type="int" name="TELESCOPE">     0</i>
   <i type="int" name="TAUPAR">     1</i>
   <i type="int" name="OMEGAPAR">    -1</i>
   <i name="LAMBDA">      1.00000000</i>
  </separator>
  <separator name="External order field" >
   <i name="OFIELD_KAPPA">      0.00000000</i>
   <v name="OFIELD_K">      0.00000000      0.00000000      0.00000000</v>
   <i name="OFIELD_Q6_NEAR">      0.00000000</i>
   <i name="OFIELD_Q6_FAR">      0.00000000</i>
   <i name="OFIELD_A">      0.00000000</i>
  </separator>
 </parameters>
 <atominfo>
  <atoms>      48 </atoms>
  <types>       2 </types>
  <array name="atoms" >
   <dimension dim="1">ion</dimension>
   <field type="string">element</field>
   <field type="int">atomtype</field>
   <set>
    <rc><c>Au</c><c>   1</c></rc>
    <rc><c>Au</c><c>   1</c></rc>
    <rc><c>Au</c><c>   1</c></rc>
    <rc><c>Au</c><c>   1</c></rc>
    <rc><c>Au</c><c>   1</c></rc>
    <rc><c>Au</c><c>   1</c></rc>
    <rc><c>Au</c><c>   1</c></rc>
    <rc><c>Au</c><c>   1</c></rc>
    <rc><c>Au</c><c>   1</c></rc>
    <rc><c>Au</c><c>   1</c></rc>
    <rc><c>Au</c><c>   1</c></rc>
    <rc><c>Au</c><c>   1</c></rc>
    <rc><c>Au</c><c>   1</c></rc>
    <rc><c>Au</c><c>   1</c></rc>
    <rc><c>Au</c><c>   1</c></rc>
    <rc><c>Au</c><c>   1</c></rc>
    <rc><c>Au</c><c>   1</c></rc>
    <rc><c>Au</c><c>   1</c></rc>
    <rc><c>Au</c><c>   1</c></rc>
    <rc><c>Au</c><c>   1</c></rc>
    <rc><c>Au</c><c>   1</c></rc>
    <rc><c>Au</c><c>   1</c></rc>
    <rc><c>Au</c><c>   1</c></rc>
    <rc><c>Au</c><c>   1</c></rc>
    <rc><c>Pd</c><c>   2</c></rc>
    <rc><c>Pd</c><c>   2</c></rc>
    <rc><c>Pd</c><c>   2</c></rc>
    <rc><c>Pd</c><c>   2</c></rc>
    <rc><c>Pd</c><c>   2</c></rc>
    <rc><c>Pd</c><c>   2</c></rc>
    <rc><c>Pd</c><c>   2</c></rc>
    <rc><c>Pd</c><c>   2</c></rc>
    <rc><c>Pd</c><c>   2</c></rc>
    <rc><c>Pd</c><c>   2</c></rc>
    <rc><c>Pd</c><c>   2</c></rc>
    <rc><c>Pd</c><c>   2</c></rc>
    <rc><c>Pd</c><c>   2</c></rc>
    <rc><c>Pd</c><c>   2</c></rc>
    <rc><c>Pd</c><c>   2</c></rc>
    <rc><c>Pd</c><c>   2</c></rc>
    <rc><c>Pd</c><c>   2</c></rc>
    <rc><c>Pd</c><c>   2</c></rc>
    <rc><c>Pd</c><c>   2</c></rc>
    <rc><c>Pd</c><c>   2</c></rc>
    <rc><c>Pd</c><c>   2</c></rc>
    <rc><c>Pd</c><c>   2</c></rc>
    <rc><c>Pd</c><c>   2</c></rc>
    <rc><c>Pd</c><c>   2</c></rc>
   </set>
  </array>
  <array name="atomtypes" >
   <dimension dim="1">type</dimension>
   <field type="int">atomspertype</field>
   <field type="string">element</field>
   <field>mass</field>
   <field>valence</field>
   <field type="string">pseudopotential</field>
   <set>
    <rc><c>  24</c><c>Au</c><c>    196.96600000</c><c>     11.00000000</c><c>  PAW_PBE Au 04Oct2007                  </c></rc>
    <rc><c>  24</c><c>Pd</c><c>    106.42000000</c><c>     10.00000000</c><c>  PAW_PBE Pd 04Jan2005                  </c></rc>
   </set>
  </array>
 </atominfo>
 <structure name="initialpos" >
  <crystal>
   <varray name="basis" >
    <v>      11.00258152       0.00000000       0.00000000 </v>
    <v>       5.50129076       9.52851510       0.00000000 </v>
    <v>       0.00000000       0.00000000      24.49178509 </v>
   </varray>
   <i name="volume">   2567.67623402 </i>
   <varray name="rec_basis" >
    <v>       0.09088776      -0.05247407       0.00000000 </v>
    <v>       0.00000000       0.10494815       0.00000000 </v>
    <v>       0.00000000       0.00000000       0.04083002 </v>
   </varray>
  </crystal>
  <varray name="positions" >
   <v>       0.08333333       0.08333333       0.40830017 </v>
   <v>       0.08333333       0.83333333       0.40830017 </v>
   <v>       0.08333333       0.58333333       0.40830017 </v>
   <v>       0.33333333       0.33333333       0.40830017 </v>
   <v>       0.75000000       0.75000000       0.59169983 </v>
   <v>       0.16666667       0.66666667       0.50000000 </v>
   <v>       0.58333333       0.83333333       0.40830017 </v>
   <v>       0.83333333       0.83333333       0.40830017 </v>
   <v>       0.75000000       0.50000000       0.59169983 </v>
   <v>       0.83333333       0.58333333       0.40830017 </v>
   <v>       0.66666667       0.41666667       0.50000000 </v>
   <v>       0.83333333       0.33333333       0.40830017 </v>
   <v>       0.33333333       0.58333333       0.40830017 </v>
   <v>       0.41666667       0.91666667       0.50000000 </v>
   <v>       0.50000000       0.50000000       0.59169983 </v>
   <v>       0.16666667       0.91666667       0.50000000 </v>
   <v>       0.58333333       0.58333333       0.40830017 </v>
   <v>       0.50000000       0.25000000       0.59169983 </v>
   <v>       0.41666667       0.41666667       0.50000000 </v>
   <v>       0.58333333       0.33333333       0.40830017 </v>
   <v>       0.50000000       0.00000000       0.59169983 </v>
   <v>       0.41666667       0.16666667       0.50000000 </v>
   <v>       0.58333333       0.08333333       0.40830017 </v>
   <v>       0.75000000       0.00000000       0.59169983 </v>
   <v>       0.91666667       0.91666667       0.50000000 </v>
   <v>       0.00000000       0.75000000       0.59169983 </v>
   <v>       0.33333333       0.08333333       0.40830017 </v>
   <v>       0.16666667       0.16666667       0.50000000 </v>
   <v>       0.33333333       0.83333333       0.40830017 </v>
   <v>       0.16666667       0.41666667       0.50000000 </v>
   <v>       0.66666667       0.91666667       0.50000000 </v>
   <v>       0.25000000       0.25000000       0.59169983 </v>
   <v>       0.41666667       0.66666667       0.50000000 </v>
   <v>       0.25000000       0.00000000       0.59169983 </v>
   <v>       0.00000000       0.50000000       0.59169983 </v>
   <v>       0.91666667       0.41666667       0.50000000 </v>
   <v>       0.83333333       0.08333333       0.40830017 </v>
   <v>       0.66666667       0.16666667       0.50000000 </v>
   <v>       0.00000000       0.25000000       0.59169983 </v>
   <v>       0.75000000       0.25000000       0.59169983 </v>
   <v>       0.08333333       0.33333333       0.40830017 </v>
   <v>       0.66666667       0.66666667       0.50000000 </v>
   <v>       0.00000000       0.00000000       0.59169983 </v>
   <v>       0.91666667       0.16666667       0.50000000 </v>
   <v>       0.25000000       0.50000000       0.59169983 </v>
   <v>       0.91666667       0.66666667       0.50000000 </v>
   <v>       0.50000000       0.75000000       0.59169983 </v>
   <v>       0.25000000       0.75000000       0.59169983 </v>
  </varray>
  <varray name="selective"  type="logical" >
   <v type="logical" >  F  F  F </v>
   <v type="logical" >  F  F  F </v>
   <v type="logical" >  F  F  F </v>
   <v type="logical" >  F  F  F </v>
   <v type="logical" >  T  T  T </v>
   <v type="logical" >  T  T  T </v>
   <v type="logical" >  F  F  F </v>
   <v type="logical" >  F  F  F </v>
   <v type="logical" >  T  T  T </v>
   <v type="logical" >  F  F  F </v>
   <v type="logical" >  T  T  T </v>
   <v type="logical" >  F  F  F </v>
   <v type="logical" >  F  F  F </v>
   <v type="logical" >  T  T  T </v>
   <v type="logical" >  T  T  T </v>
   <v type="logical" >  T  T  T </v>
   <v type="logical" >  F  F  F </v>
   <v type="logical" >  T  T  T </v>
   <v type="logical" >  T  T  T </v>
   <v type="logical" >  F  F  F </v>
   <v type="logical" >  T  T  T </v>
   <v type="logical" >  T  T  T </v>
   <v type="logical" >  F  F  F </v>
   <v type="logical" >  T  T  T </v>
   <v type="logical" >  T  T  T </v>
   <v type="logical" >  T  T  T </v>
   <v type="logical" >  F  F  F </v>
   <v type="logical" >  T  T  T </v>
   <v type="logical" >  F  F  F </v>
   <v type="logical" >  T  T  T </v>
   <v type="logical" >  T  T  T </v>
   <v type="logical" >  T  T  T </v>
   <v type="logical" >  T  T  T </v>
   <v type="logical" >  T  T  T </v>
   <v type="logical" >  T  T  T </v>
   <v type="logical" >  T  T  T </v>
   <v type="logical" >  F  F  F </v>
   <v type="logical" >  T  T  T </v>
   <v type="logical" >  T  T  T </v>
   <v type="logical" >  T  T  T </v>
   <v type="logical" >  F  F  F </v>
   <v type="logical" >  T  T  T </v>
   <v type="logical" >  T  T  T </v>
   <v type="logical" >  T  T  T </v>
   <v type="logical" >  T  T  T </v>
   <v type="logical" >  T  T  T </v>
   <v type="logical" >  T  T  T </v>
   <v type="logical" >  T  T  T </v>
  </varray>
  <nose>
   <v>      -3.00000000       0.00000000       0.00010000       0.00010000 </v>
  </nose>
 </structure>
 <calculation>
  <scstep>
   <time name="dav">    6.88    6.90</time>
   <time name="total">    6.94    6.97</time>
   <dipole>
    <v name="dipole">      0.00000000       0.00000000       0.00000444 </v>
    <i name="Tr[quadrupol]"> -10373.15875947 </i>
    <i name="Echarged">      0.00000000 </i>
    <i name="Edipol_quadrupol">      0.00000000 </i>
    <i name="Eion">      0.00000000 </i>
   </dipole>
   <energy>
    <i name="alphaZ">    805.86936850 </i>
    <i name="ewald"> 199715.00226604 </i>
    <i name="hartreedc">-242127.96313664 </i>
    <i name="XCdc">   -327.75193355 </i>
    <i name="pawpsdc">  40340.05962942 </i>
    <i name="pawaedc"> -38292.62782345 </i>
    <i name="eentropy">     -0.13598796 </i>
    <i name="bandstr">   1427.19220763 </i>
    <i name="atom">  41659.78587232 </i>
    <i name="e_fr_energy">   3199.43046233 </i>
    <i name="e_wo_entrp">   3199.56645029 </i>
    <i name="e_0_energy">   3199.49845631 </i>
   </energy>
  </scstep>
  <scstep>
   <time name="dav">    8.13    8.23</time>
   <time name="total">    8.13    8.24</time>
   <dipole>
    <v name="dipole">      0.00000000       0.00000000       0.00000444 </v>
    <i name="Tr[quadrupol]"> -10373.15875947 </i>
    <i name="Echarged">      0.00000000 </i>
    <i name="Edipol_quadrupol">      0.00000000 </i>
    <i name="Eion">      0.00000000 </i>
   </dipole>
   <energy>
    <i name="e_fr_energy">     14.17598550 </i>
    <i name="e_wo_entrp">     14.31075942 </i>
    <i name="e_0_energy">     14.24337246 </i>
   </energy>
  </scstep>
  <scstep>
   <time name="dav">    7.94    7.99</time>
   <time name="total">    7.95    8.00</time>
   <dipole>
    <v name="dipole">      0.00000000       0.00000000       0.00000444 </v>
    <i name="Tr[quadrupol]"> -10373.15875947 </i>
    <i name="Echarged">      0.00000000 </i>
    <i name="Edipol_quadrupol">      0.00000000 </i>
    <i name="Eion">      0.00000000 </i>
   </dipole>
   <energy>
    <i name="e_fr_energy">   -202.11666936 </i>
    <i name="e_wo_entrp">   -201.94259096 </i>
    <i name="e_0_energy">   -202.02963016 </i>
   </energy>
  </scstep>
  <scstep>
   <time name="dav">    8.03    8.05</time>
   <time name="total">    8.03    8.05</time>
   <dipole>
    <v name="dipole">      0.00000000       0.00000000       0.00000444 </v>
    <i name="Tr[quadrupol]"> -10373.15875947 </i>
    <i name="Echarged">      0.00000000 </i>
    <i name="Edipol_quadrupol">      0.00000000 </i>
    <i name="Eion">      0.00000000 </i>
   </dipole>
   <energy>
    <i name="e_fr_energy">   -207.98541231 </i>
    <i name="e_wo_entrp">   -207.80610861 </i>
    <i name="e_0_energy">   -207.89576046 </i>
   </energy>
  </scstep>
  <scstep>
   <time name="dav">    8.36    8.38</time>
   <time name="total">    8.60    8.62</time>
   <dipole>
    <v name="dipole">      0.00000000       0.00000000       0.00000444 </v>
    <i name="Tr[quadrupol]"> -10373.15875947 </i>
    <i name="Echarged">      0.00000000 </i>
    <i name="Edipol_quadrupol">      0.00000000 </i>
    <i name="Eion">      0.00000000 </i>
   </dipole>
   <energy>
    <i name="e_fr_energy">   -208.18514259 </i>
    <i name="e_wo_entrp">   -208.00562881 </i>
    <i name="e_0_energy">   -208.09538570 </i>
   </energy>
  </scstep>
  <scstep>
   <time name="diag">    1.21    1.21</time>
   <time name="diis">    3.38    3.39</time>
   <time name="orth">    0.29    0.29</time>
   <time name="total">    5.17    5.19</time>
   <dipole>
    <v name="dipole">      0.00000000       0.00000000       2.00271062 </v>
    <i name="Tr[quadrupol]"> -10375.92569192 </i>
    <i name="Echarged">      0.00000000 </i>
    <i name="Edipol_quadrupol">      0.00000000 </i>
    <i name="Eion">      0.00000000 </i>
   </dipole>
   <energy>
    <i name="e_fr_energy">   -221.33757838 </i>
    <i name="e_wo_entrp">   -221.03844285 </i>
    <i name="e_0_energy">   -221.18801062 </i>
   </energy>
  </scstep>
  <scstep>
   <time name="diag">    1.22    1.22</time>
   <time name="diis">    3.44    3.45</time>
   <time name="orth">    0.29    0.29</time>
   <time name="total">    5.25    5.28</time>
   <dipole>
    <v name="dipole">      0.00000000       0.00000000      -0.93246421 </v>
    <i name="Tr[quadrupol]"> -10374.95203561 </i>
    <i name="Echarged">      0.00000000 </i>
    <i name="Edipol_quadrupol">      0.00000000 </i>
    <i name="Eion">      0.00000000 </i>
   </dipole>
   <energy>
    <i name="e_fr_energy">   -208.76918071 </i>
    <i name="e_wo_entrp">   -208.56730979 </i>
    <i name="e_0_energy">   -208.66824525 </i>
   </energy>
  </scstep>
  <scstep>
   <time name="diag">    1.22    1.28</time>
   <time name="diis">    3.37    3.38</time>
   <time name="orth">    0.29    0.29</time>
   <time name="total">    5.17    5.25</time>
   <dipole>
    <v name="dipole">      0.00000000       0.00000000       1.35393499 </v>
    <i name="Tr[quadrupol]"> -10373.77270994 </i>
    <i name="Echarged">      0.00000000 </i>
    <i name="Edipol_quadrupol">      0.00000000 </i>
    <i name="Eion">      0.00000000 </i>
   </dipole>
   <energy>
    <i name="e_fr_energy">   -213.69747719 </i>
    <i name="e_wo_entrp">   -213.44185843 </i>
    <i name="e_0_energy">   -213.56966781 </i>
   </energy>
  </scstep>
  <scstep>
   <time name="diag">    1.21    1.21</time>
   <time name="diis">    3.40    3.41</time>
   <time name="orth">    0.29    0.29</time>
   <time name="total">    5.18    5.20</time>
   <dipole>
    <v name="dipole">      0.00000000       0.00000000      -0.15054903 </v>
    <i name="Tr[quadrupol]"> -10375.33443206 </i>
    <i name="Echarged">      0.00000000 </i>
    <i name="Edipol_quadrupol">      0.00000000 </i>
    <i name="Eion">      0.00000000 </i>
   </dipole>
   <energy>
    <i name="e_fr_energy">   -215.43579145 </i>
    <i name="e_wo_entrp">   -215.26527924 </i>
    <i name="e_0_energy">   -215.35053534 </i>
   </energy>
  </scstep>
  <scstep>
   <time name="diag">    1.21    1.21</time>
   <time name="diis">    3.40    3.41</time>
   <time name="orth">    0.29    0.29</time>
   <time name="total">    5.19    5.20</time>
   <dipole>
    <v name="dipole">      0.00000000       0.00000000       0.40851512 </v>
    <i name="Tr[quadrupol]"> -10375.21226465 </i>
    <i name="Echarged">      0.00000000 </i>
    <i name="Edipol_quadrupol">      0.00000000 </i>
    <i name="Eion">      0.00000000 </i>
   </dipole>
   <energy>
    <i name="e_fr_energy">   -202.46735057 </i>
    <i name="e_wo_entrp">   -202.26897407 </i>
    <i name="e_0_energy">   -202.36816232 </i>
   </energy>
  </scstep>
  <scstep>
   <time name="diag">    1.22    1.22</time>
   <time name="diis">    3.43    3.44</time>
   <time name="orth">    0.29    0.29</time>
   <time name="total">    5.22    5.24</time>
   <dipole>
    <v name="dipole">      0.00000000       0.00000000       0.32999977 </v>
    <i name="Tr[quadrupol]"> -10375.41120684 </i>
    <i name="Echarged">      0.00000000 </i>
    <i name="Edipol_quadrupol">      0.00000000 </i>
    <i name="Eion">      0.00000000 </i>
   </dipole>
   <energy>
    <i name="e_fr_energy">   -193.87092160 </i>
    <i name="e_wo_entrp">   -193.65290637 </i>
    <i name="e_0_energy">   -193.76191398 </i>
   </energy>
  </scstep>
  <scstep>
   <time name="diag">    1.22    1.22</time>
   <time name="diis">    3.38    3.39</time>
   <time name="orth">    0.29    0.29</time>
   <time name="total">    5.17    5.19</time>
   <dipole>
    <v name="dipole">      0.00000000       0.00000000       0.25101040 </v>
    <i name="Tr[quadrupol]"> -10375.47220295 </i>
    <i name="Echarged">      0.00000000 </i>
    <i name="Edipol_quadrupol">      0.00000000 </i>
    <i name="Eion">      0.00000000 </i>
   </dipole>
   <energy>
    <i name="e_fr_energy">   -190.34479607 </i>
    <i name="e_wo_entrp">   -190.16309182 </i>
    <i name="e_0_energy">   -190.25394394 </i>
   </energy>
  </scstep>
  <scstep>
   <time name="diag">    1.20    1.23</time>
   <time name="diis">    3.41    3.43</time>
   <time name="orth">    0.29    0.29</time>
   <time name="total">    5.19    5.24</time>
   <dipole>
    <v name="dipole">      0.00000000       0.00000000       0.16898634 </v>
    <i name="Tr[quadrupol]"> -10376.07076643 </i>
    <i name="Echarged">      0.00000000 </i>
    <i name="Edipol_quadrupol">      0.00000000 </i>
    <i name="Eion">      0.00000000 </i>
   </dipole>
   <energy>
    <i name="e_fr_energy">   -189.75466684 </i>
    <i name="e_wo_entrp">   -189.51089755 </i>
    <i name="e_0_energy">   -189.63278219 </i>
   </energy>
  </scstep>
  <scstep>
   <time name="diag">    1.21    1.21</time>
   <time name="diis">    3.45    3.46</time>
   <time name="orth">    0.29    0.29</time>
   <time name="total">    5.23    5.25</time>
   <dipole>
    <v name="dipole">      0.00000000       0.00000000       0.16876257 </v>
    <i name="Tr[quadrupol]"> -10376.29397693 </i>
    <i name="Echarged">      0.00000000 </i>
    <i name="Edipol_quadrupol">      0.00000000 </i>
    <i name="Eion">      0.00000000 </i>
   </dipole>
   <energy>
    <i name="e_fr_energy">   -189.53352492 </i>
    <i name="e_wo_entrp">   -189.27657197 </i>
    <i name="e_0_energy">   -189.40504844 </i>
   </energy>
  </scstep>
  <scstep>
   <time name="diag">    1.21    1.22</time>
   <time name="diis">    3.47    3.48</time>
   <time name="orth">    0.28    0.30</time>
   <time name="total">    5.28    5.33</time>
   <dipole>
    <v name="dipole">      0.00000000       0.00000000       0.18176939 </v>
    <i name="Tr[quadrupol]"> -10376.47595170 </i>
    <i name="Echarged">      0.00000000 </i>
    <i name="Edipol_quadrupol">      0.00000000 </i>
    <i name="Eion">      0.00000000 </i>
   </dipole>
   <energy>
    <i name="e_fr_energy">   -189.43354265 </i>
    <i name="e_wo_entrp">   -189.19223988 </i>
    <i name="e_0_energy">   -189.31289127 </i>
   </energy>
  </scstep>
  <scstep>
   <time name="diag">    1.21    1.26</time>
   <time name="diis">    3.43    3.44</time>
   <time name="orth">    0.28    0.29</time>
   <time name="total">    5.21    5.27</time>
   <dipole>
    <v name="dipole">      0.00000000       0.00000000       0.21492107 </v>
    <i name="Tr[quadrupol]"> -10376.81257836 </i>
    <i name="Echarged">      0.00000000 </i>
    <i name="Edipol_quadrupol">      0.00000000 </i>
    <i name="Eion">      0.00000000 </i>
   </dipole>
   <energy>
    <i name="e_fr_energy">   -189.28941103 </i>
    <i name="e_wo_entrp">   -189.04248624 </i>
    <i name="e_0_energy">   -189.16594863 </i>
   </energy>
  </scstep>
  <scstep>
   <time name="diag">    1.21    1.21</time>
   <time name="diis">    3.44    3.45</time>
   <time name="orth">    0.29    0.29</time>
   <time name="total">    5.22    5.24</time>
   <dipole>
    <v name="dipole">      0.00000000       0.00000000       0.21567639 </v>
    <i name="Tr[quadrupol]"> -10377.08276204 </i>
    <i name="Echarged">      0.00000000 </i>
    <i name="Edipol_quadrupol">      0.00000000 </i>
    <i name="Eion">      0.00000000 </i>
   </dipole>
   <energy>
    <i name="e_fr_energy">   -189.19960383 </i>
    <i name="e_wo_entrp">   -188.94266290 </i>
    <i name="e_0_energy">   -189.07113337 </i>
   </energy>
  </scstep>
  <scstep>
   <time name="diag">    1.20    1.21</time>
   <time name="diis">    3.44    3.45</time>
   <time name="orth">    0.28    0.29</time>
   <time name="total">    5.21    5.23</time>
   <dipole>
    <v name="dipole">      0.00000000       0.00000000       0.16526079 </v>
    <i name="Tr[quadrupol]"> -10377.33532354 </i>
    <i name="Echarged">      0.00000000 </i>
    <i name="Edipol_quadrupol">      0.00000000 </i>
    <i name="Eion">      0.00000000 </i>
   </dipole>
   <energy>
    <i name="e_fr_energy">   -189.00921007 </i>
    <i name="e_wo_entrp">   -188.74503374 </i>
    <i name="e_0_energy">   -188.87712191 </i>
   </energy>
  </scstep>
  <scstep>
   <time name="diag">    1.21    1.22</time>
   <time name="diis">    3.45    3.46</time>
   <time name="orth">    0.29    0.29</time>
   <time name="total">    5.24    5.25</time>
   <dipole>
    <v name="dipole">      0.00000000       0.00000000       0.13344854 </v>
    <i name="Tr[quadrupol]"> -10377.45441831 </i>
    <i name="Echarged">      0.00000000 </i>
    <i name="Edipol_quadrupol">      0.00000000 </i>
    <i name="Eion">      0.00000000 </i>
   </dipole>
   <energy>
    <i name="e_fr_energy">   -188.95755082 </i>
    <i name="e_wo_entrp">   -188.68387774 </i>
    <i name="e_0_energy">   -188.82071428 </i>
   </energy>
  </scstep>
  <scstep>
   <time name="diag">    1.21    1.22</time>
   <time name="diis">    3.38    3.39</time>
   <time name="orth">    0.29    0.29</time>
   <time name="total">    5.17    5.19</time>
   <dipole>
    <v name="dipole">      0.00000000       0.00000000       0.11214284 </v>
    <i name="Tr[quadrupol]"> -10377.55983428 </i>
    <i name="Echarged">      0.00000000 </i>
    <i name="Edipol_quadrupol">      0.00000000 </i>
    <i name="Eion">      0.00000000 </i>
   </dipole>
   <energy>
    <i name="e_fr_energy">   -188.94917664 </i>
    <i name="e_wo_entrp">   -188.67423208 </i>
    <i name="e_0_energy">   -188.81170436 </i>
   </energy>
  </scstep>
  <scstep>
   <time name="diag">    1.20    1.21</time>
   <time name="diis">    3.39    3.40</time>
   <time name="orth">    0.28    0.29</time>
   <time name="total">    5.16    5.18</time>
   <dipole>
    <v name="dipole">      0.00000000       0.00000000       0.10684896 </v>
    <i name="Tr[quadrupol]"> -10377.63211672 </i>
    <i name="Echarged">      0.00000000 </i>
    <i name="Edipol_quadrupol">      0.00000000 </i>
    <i name="Eion">      0.00000000 </i>
   </dipole>
   <energy>
    <i name="e_fr_energy">   -188.94642689 </i>
    <i name="e_wo_entrp">   -188.67255487 </i>
    <i name="e_0_energy">   -188.80949088 </i>
   </energy>
  </scstep>
  <scstep>
   <time name="diag">    1.20    1.21</time>
   <time name="diis">    3.38    3.39</time>
   <time name="orth">    0.29    0.29</time>
   <time name="total">    5.15    5.17</time>
   <dipole>
    <v name="dipole">      0.00000000       0.00000000       0.10225088 </v>
    <i name="Tr[quadrupol]"> -10377.72761324 </i>
    <i name="Echarged">      0.00000000 </i>
    <i name="Edipol_quadrupol">      0.00000000 </i>
    <i name="Eion">      0.00000000 </i>
   </dipole>
   <energy>
    <i name="e_fr_energy">   -188.94482169 </i>
    <i name="e_wo_entrp">   -188.67091880 </i>
    <i name="e_0_energy">   -188.80787025 </i>
   </energy>
  </scstep>
  <scstep>
   <time name="diag">    1.21    1.21</time>
   <time name="diis">    3.38    3.48</time>
   <time name="orth">    0.28    0.28</time>
   <time name="total">    5.16    5.26</time>
   <dipole>
    <v name="dipole">      0.00000000       0.00000000       0.09597779 </v>
    <i name="Tr[quadrupol]"> -10377.89318613 </i>
    <i name="Echarged">      0.00000000 </i>
    <i name="Edipol_quadrupol">      0.00000000 </i>
    <i name="Eion">      0.00000000 </i>
   </dipole>
   <energy>
    <i name="e_fr_energy">   -188.94304098 </i>
    <i name="e_wo_entrp">   -188.67103814 </i>
    <i name="e_0_energy">   -188.80703956 </i>
   </energy>
  </scstep>
  <scstep>
   <time name="diag">    1.22    1.22</time>
   <time name="diis">    3.35    3.40</time>
   <time name="orth">    0.28    0.28</time>
   <time name="total">    5.14    5.19</time>
   <dipole>
    <v name="dipole">      0.00000000       0.00000000       0.09018083 </v>
    <i name="Tr[quadrupol]"> -10377.94862369 </i>
    <i name="Echarged">      0.00000000 </i>
    <i name="Edipol_quadrupol">      0.00000000 </i>
    <i name="Eion">      0.00000000 </i>
   </dipole>
   <energy>
    <i name="e_fr_energy">   -188.94220283 </i>
    <i name="e_wo_entrp">   -188.66866610 </i>
    <i name="e_0_energy">   -188.80543446 </i>
   </energy>
  </scstep>
  <scstep>
   <time name="diag">    1.20    1.21</time>
   <time name="diis">    3.47    3.48</time>
   <time name="orth">    0.28    0.28</time>
   <time name="total">    5.24    5.26</time>
   <dipole>
    <v name="dipole">      0.00000000       0.00000000       0.08467779 </v>
    <i name="Tr[quadrupol]"> -10377.99546884 </i>
    <i name="Echarged">      0.00000000 </i>
    <i name="Edipol_quadrupol">      0.00000000 </i>
    <i name="Eion">      0.00000000 </i>
   </dipole>
   <energy>
    <i name="e_fr_energy">   -188.94205928 </i>
    <i name="e_wo_entrp">   -188.66848105 </i>
    <i name="e_0_energy">   -188.80527016 </i>
   </energy>
  </scstep>
  <scstep>
   <time name="diag">    1.20    1.20</time>
   <time name="diis">    3.45    3.46</time>
   <time name="orth">    0.28    0.28</time>
   <time name="total">    5.22    5.23</time>
   <dipole>
    <v name="dipole">      0.00000000       0.00000000       0.07399718 </v>
    <i name="Tr[quadrupol]"> -10378.11417557 </i>
    <i name="Echarged">      0.00000000 </i>
    <i name="Edipol_quadrupol">      0.00000000 </i>
    <i name="Eion">      0.00000000 </i>
   </dipole>
   <energy>
    <i name="e_fr_energy">   -188.94218109 </i>
    <i name="e_wo_entrp">   -188.66766512 </i>
    <i name="e_0_energy">   -188.80492310 </i>
   </energy>
  </scstep>
  <scstep>
   <time name="diag">    1.21    1.21</time>
   <time name="diis">    3.45    3.45</time>
   <time name="orth">    0.28    0.28</time>
   <time name="total">    5.22    5.24</time>
   <dipole>
    <v name="dipole">      0.00000000       0.00000000       0.06941602 </v>
    <i name="Tr[quadrupol]"> -10378.16704032 </i>
    <i name="Echarged">      0.00000000 </i>
    <i name="Edipol_quadrupol">      0.00000000 </i>
    <i name="Eion">      0.00000000 </i>
   </dipole>
   <energy>
    <i name="e_fr_energy">   -188.94232657 </i>
    <i name="e_wo_entrp">   -188.66797495 </i>
    <i name="e_0_energy">   -188.80515076 </i>
   </energy>
  </scstep>
  <scstep>
   <time name="diag">    1.22    1.22</time>
   <time name="diis">    3.49    3.50</time>
   <time name="orth">    0.28    0.28</time>
   <time name="total">    5.28    5.30</time>
   <dipole>
    <v name="dipole">      0.00000000       0.00000000       0.06375625 </v>
    <i name="Tr[quadrupol]"> -10378.24073703 </i>
    <i name="Echarged">      0.00000000 </i>
    <i name="Edipol_quadrupol">      0.00000000 </i>
    <i name="Eion">      0.00000000 </i>
   </dipole>
   <energy>
    <i name="e_fr_energy">   -188.94274933 </i>
    <i name="e_wo_entrp">   -188.66862928 </i>
    <i name="e_0_energy">   -188.80568930 </i>
   </energy>
  </scstep>
  <scstep>
   <time name="diag">    1.20    1.21</time>
   <time name="diis">    3.45    3.46</time>
   <time name="orth">    0.28    0.28</time>
   <time name="total">    5.22    5.24</time>
   <dipole>
    <v name="dipole">      0.00000000       0.00000000       0.05913982 </v>
    <i name="Tr[quadrupol]"> -10378.29252456 </i>
    <i name="Echarged">      0.00000000 </i>
    <i name="Edipol_quadrupol">      0.00000000 </i>
    <i name="Eion">      0.00000000 </i>
   </dipole>
   <energy>
    <i name="e_fr_energy">   -188.94314872 </i>
    <i name="e_wo_entrp">   -188.66900769 </i>
    <i name="e_0_energy">   -188.80607821 </i>
   </energy>
  </scstep>
  <scstep>
   <time name="diag">    1.20    1.21</time>
   <time name="diis">    3.45    3.46</time>
   <time name="orth">    0.28    0.28</time>
   <time name="total">    5.22    5.24</time>
   <dipole>
    <v name="dipole">      0.00000000       0.00000000       0.05176769 </v>
    <i name="Tr[quadrupol]"> -10378.36646193 </i>
    <i name="Echarged">      0.00000000 </i>
    <i name="Edipol_quadrupol">      0.00000000 </i>
    <i name="Eion">      0.00000000 </i>
   </dipole>
   <energy>
    <i name="e_fr_energy">   -188.94387360 </i>
    <i name="e_wo_entrp">   -188.66976612 </i>
    <i name="e_0_energy">   -188.80681986 </i>
   </energy>
  </scstep>
  <scstep>
   <time name="diag">    1.22    1.24</time>
   <time name="diis">    3.22    3.31</time>
   <time name="orth">    0.28    0.29</time>
   <time name="total">    5.01    5.12</time>
   <dipole>
    <v name="dipole">      0.00000000       0.00000000       0.04708033 </v>
    <i name="Tr[quadrupol]"> -10378.40609508 </i>
    <i name="Echarged">      0.00000000 </i>
    <i name="Edipol_quadrupol">      0.00000000 </i>
    <i name="Eion">      0.00000000 </i>
   </dipole>
   <energy>
    <i name="e_fr_energy">   -188.94430227 </i>
    <i name="e_wo_entrp">   -188.67005826 </i>
    <i name="e_0_energy">   -188.80718026 </i>
   </energy>
  </scstep>
  <scstep>
   <time name="diag">    1.21    1.22</time>
   <time name="diis">    3.14    3.15</time>
   <time name="orth">    0.28    0.28</time>
   <time name="total">    4.93    4.95</time>
   <dipole>
    <v name="dipole">      0.00000000       0.00000000       0.04108269 </v>
    <i name="Tr[quadrupol]"> -10378.45048363 </i>
    <i name="Echarged">      0.00000000 </i>
    <i name="Edipol_quadrupol">      0.00000000 </i>
    <i name="Eion">      0.00000000 </i>
   </dipole>
   <energy>
    <i name="e_fr_energy">   -188.94479036 </i>
    <i name="e_wo_entrp">   -188.67060554 </i>
    <i name="e_0_energy">   -188.80769795 </i>
   </energy>
  </scstep>
  <scstep>
   <time name="diag">    1.20    1.21</time>
   <time name="diis">    2.59    2.60</time>
   <time name="orth">    0.28    0.28</time>
   <time name="total">    4.37    4.39</time>
   <dipole>
    <v name="dipole">      0.00000000       0.00000000       0.03908352 </v>
    <i name="Tr[quadrupol]"> -10378.46252830 </i>
    <i name="Echarged">      0.00000000 </i>
    <i name="Edipol_quadrupol">      0.00000000 </i>
    <i name="Eion">      0.00000000 </i>
   </dipole>
   <energy>
    <i name="e_fr_energy">   -188.94493203 </i>
    <i name="e_wo_entrp">   -188.67075086 </i>
    <i name="e_0_energy">   -188.80784144 </i>
   </energy>
  </scstep>
  <scstep>
   <time name="diag">    1.20    1.20</time>
   <time name="diis">    2.57    2.57</time>
   <time name="orth">    0.28    0.28</time>
   <time name="total">    4.34    4.35</time>
   <dipole>
    <v name="dipole">      0.00000000       0.00000000       0.03612408 </v>
    <i name="Tr[quadrupol]"> -10378.47976022 </i>
    <i name="Echarged">      0.00000000 </i>
    <i name="Edipol_quadrupol">      0.00000000 </i>
    <i name="Eion">      0.00000000 </i>
   </dipole>
   <energy>
    <i name="e_fr_energy">   -188.94511604 </i>
    <i name="e_wo_entrp">   -188.67098333 </i>
    <i name="e_0_energy">   -188.80804968 </i>
   </energy>
  </scstep>
  <scstep>
   <time name="diag">    1.21    1.21</time>
   <time name="diis">    2.27    2.27</time>
   <time name="orth">    0.28    0.28</time>
   <time name="total">    4.04    4.06</time>
   <dipole>
    <v name="dipole">      0.00000000       0.00000000       0.03478879 </v>
    <i name="Tr[quadrupol]"> -10378.48573942 </i>
    <i name="Echarged">      0.00000000 </i>
    <i name="Edipol_quadrupol">      0.00000000 </i>
    <i name="Eion">      0.00000000 </i>
   </dipole>
   <energy>
    <i name="e_fr_energy">   -188.94517661 </i>
    <i name="e_wo_entrp">   -188.67104306 </i>
    <i name="e_0_energy">   -188.80810983 </i>
   </energy>
  </scstep>
  <scstep>
   <time name="diag">    1.21    1.21</time>
   <time name="diis">    2.10    2.12</time>
   <time name="orth">    0.29    0.29</time>
   <time name="total">    3.89    3.91</time>
   <dipole>
    <v name="dipole">      0.00000000       0.00000000       0.03338364 </v>
    <i name="Tr[quadrupol]"> -10378.49141380 </i>
    <i name="Echarged">      0.00000000 </i>
    <i name="Edipol_quadrupol">      0.00000000 </i>
    <i name="Eion">      0.00000000 </i>
   </dipole>
   <energy>
    <i name="e_fr_energy">   -188.94523390 </i>
    <i name="e_wo_entrp">   -188.67110854 </i>
    <i name="e_0_energy">   -188.80817122 </i>
   </energy>
  </scstep>
  <scstep>
   <time name="diag">    1.20    1.21</time>
   <time name="diis">    2.12    2.13</time>
   <time name="orth">    0.28    0.28</time>
   <time name="total">    3.90    3.91</time>
   <dipole>
    <v name="dipole">      0.00000000       0.00000000       0.03198650 </v>
    <i name="Tr[quadrupol]"> -10378.49628388 </i>
    <i name="Echarged">      0.00000000 </i>
    <i name="Edipol_quadrupol">      0.00000000 </i>
    <i name="Eion">      0.00000000 </i>
   </dipole>
   <energy>
    <i name="e_fr_energy">   -188.94527958 </i>
    <i name="e_wo_entrp">   -188.67115159 </i>
    <i name="e_0_energy">   -188.80821559 </i>
   </energy>
  </scstep>
  <scstep>
   <time name="diag">    1.20    1.20</time>
   <time name="diis">    2.10    2.11</time>
   <time name="orth">    0.28    0.28</time>
   <time name="total">    3.87    3.89</time>
   <dipole>
    <v name="dipole">      0.00000000       0.00000000       0.03076725 </v>
    <i name="Tr[quadrupol]"> -10378.50029207 </i>
    <i name="Echarged">      0.00000000 </i>
    <i name="Edipol_quadrupol">      0.00000000 </i>
    <i name="Eion">      0.00000000 </i>
   </dipole>
   <energy>
    <i name="e_fr_energy">   -188.94530798 </i>
    <i name="e_wo_entrp">   -188.67118176 </i>
    <i name="e_0_energy">   -188.80824487 </i>
   </energy>
  </scstep>
  <scstep>
   <time name="diag">    1.20    1.21</time>
   <time name="diis">    1.84    1.84</time>
   <time name="orth">    0.28    0.29</time>
   <time name="total">    3.61    3.62</time>
   <dipole>
    <v name="dipole">      0.00000000       0.00000000       0.02996935 </v>
    <i name="Tr[quadrupol]"> -10378.50272948 </i>
    <i name="Echarged">      0.00000000 </i>
    <i name="Edipol_quadrupol">      0.00000000 </i>
    <i name="Eion">      0.00000000 </i>
   </dipole>
   <energy>
    <i name="e_fr_energy">   -188.94532027 </i>
    <i name="e_wo_entrp">   -188.67119839 </i>
    <i name="e_0_energy">   -188.80825933 </i>
   </energy>
  </scstep>
  <scstep>
   <time name="diag">    1.21    1.21</time>
   <time name="diis">    1.82    1.84</time>
   <time name="orth">    0.28    0.30</time>
   <time name="total">    3.60    3.68</time>
   <dipole>
    <v name="dipole">      0.00000000       0.00000000       0.02940525 </v>
    <i name="Tr[quadrupol]"> -10378.50462746 </i>
    <i name="Echarged">      0.00000000 </i>
    <i name="Edipol_quadrupol">      0.00000000 </i>
    <i name="Eion">      0.00000000 </i>
   </dipole>
   <energy>
    <i name="e_fr_energy">   -188.94532643 </i>
    <i name="e_wo_entrp">   -188.67120756 </i>
    <i name="e_0_energy">   -188.80826700 </i>
   </energy>
  </scstep>
  <scstep>
   <time name="diag">    1.20    1.22</time>
   <time name="diis">    1.71    1.71</time>
   <time name="orth">    0.28    0.28</time>
   <time name="total">    3.48    3.51</time>
   <dipole>
    <v name="dipole">      0.00000000       0.00000000       0.02893126 </v>
    <i name="Tr[quadrupol]"> -10378.50651543 </i>
    <i name="Echarged">      0.00000000 </i>
    <i name="Edipol_quadrupol">      0.00000000 </i>
    <i name="Eion">      0.00000000 </i>
   </dipole>
   <energy>
    <i name="e_fr_energy">   -188.94533041 </i>
    <i name="e_wo_entrp">   -188.67121279 </i>
    <i name="e_0_energy">   -188.80827160 </i>
   </energy>
  </scstep>
  <scstep>
   <time name="diag">    1.20    1.20</time>
   <time name="diis">    1.59    1.59</time>
   <time name="orth">    0.28    0.28</time>
   <time name="total">    3.36    3.37</time>
   <dipole>
    <v name="dipole">      0.00000000       0.00000000       0.02853802 </v>
    <i name="Tr[quadrupol]"> -10378.50812337 </i>
    <i name="Echarged">      0.00000000 </i>
    <i name="Edipol_quadrupol">      0.00000000 </i>
    <i name="Eion">      0.00000000 </i>
   </dipole>
   <energy>
    <i name="e_fr_energy">   -188.94533280 </i>
    <i name="e_wo_entrp">   -188.67121891 </i>
    <i name="e_0_energy">   -188.80827586 </i>
   </energy>
  </scstep>
  <scstep>
   <time name="diag">    1.21    1.21</time>
   <time name="diis">    1.51    1.52</time>
   <time name="orth">    0.28    0.29</time>
   <time name="total">    3.29    3.30</time>
   <dipole>
    <v name="dipole">      0.00000000       0.00000000       0.02821689 </v>
    <i name="Tr[quadrupol]"> -10378.50953657 </i>
    <i name="Echarged">      0.00000000 </i>
    <i name="Edipol_quadrupol">      0.00000000 </i>
    <i name="Eion">      0.00000000 </i>
   </dipole>
   <energy>
    <i name="e_fr_energy">   -188.94533465 </i>
    <i name="e_wo_entrp">   -188.67122002 </i>
    <i name="e_0_energy">   -188.80827733 </i>
   </energy>
  </scstep>
  <scstep>
   <time name="diag">    1.21    1.22</time>
   <time name="diis">    1.38    1.38</time>
   <time name="orth">    0.28    0.28</time>
   <time name="total">    2.92    2.93</time>
   <dipole>
    <v name="dipole">      0.00000000       0.00000000       0.02803735 </v>
    <i name="Tr[quadrupol]"> -10378.51040258 </i>
    <i name="Echarged">      0.00000000 </i>
    <i name="Edipol_quadrupol">      0.00000000 </i>
    <i name="Eion">      0.00000000 </i>
   </dipole>
   <energy>
    <i name="alphaZ">    805.89596284 </i>
    <i name="ewald"> 199715.00226604 </i>
    <i name="hartreedc">-241901.15428390 </i>
    <i name="XCdc">   -343.74787092 </i>
    <i name="pawpsdc">  49309.13020131 </i>
    <i name="pawaedc"> -47387.92146646 </i>
    <i name="eentropy">     -0.27411355 </i>
    <i name="bandstr">  -2045.66190333 </i>
    <i name="atom">  41659.78587232 </i>
    <i name="e_fr_energy">   -188.94533564 </i>
    <i name="e_wo_entrp">   -188.67122210 </i>
    <i name="e_0_energy">   -188.80827887 </i>
   </energy>
  </scstep>
  <structure>
   <crystal>
    <varray name="basis" >
     <v>      11.00258152       0.00000000       0.00000000 </v>
     <v>       5.50129076       9.52851510       0.00000000 </v>
     <v>       0.00000000       0.00000000      24.49178509 </v>
    </varray>
    <i name="volume">   2567.67623402 </i>
    <varray name="rec_basis" >
     <v>       0.09088776      -0.05247407       0.00000000 </v>
     <v>       0.00000000       0.10494815       0.00000000 </v>
     <v>       0.00000000       0.00000000       0.04083002 </v>
    </varray>
   </crystal>
   <varray name="positions" >
    <v>       0.08333333       0.08333333       0.40830017 </v>
    <v>       0.08333333       0.83333333       0.40830017 </v>
    <v>       0.08333333       0.58333333       0.40830017 </v>
    <v>       0.33333333       0.33333333       0.40830017 </v>
    <v>       0.75000000       0.75000000       0.59169983 </v>
    <v>       0.16666667       0.66666667       0.50000000 </v>
    <v>       0.58333333       0.83333333       0.40830017 </v>
    <v>       0.83333333       0.83333333       0.40830017 </v>
    <v>       0.75000000       0.50000000       0.59169983 </v>
    <v>       0.83333333       0.58333333       0.40830017 </v>
    <v>       0.66666667       0.41666667       0.50000000 </v>
    <v>       0.83333333       0.33333333       0.40830017 </v>
    <v>       0.33333333       0.58333333       0.40830017 </v>
    <v>       0.41666667       0.91666667       0.50000000 </v>
    <v>       0.50000000       0.50000000       0.59169983 </v>
    <v>       0.16666667       0.91666667       0.50000000 </v>
    <v>       0.58333333       0.58333333       0.40830017 </v>
    <v>       0.50000000       0.25000000       0.59169983 </v>
    <v>       0.41666667       0.41666667       0.50000000 </v>
    <v>       0.58333333       0.33333333       0.40830017 </v>
    <v>       0.50000000       0.00000000       0.59169983 </v>
    <v>       0.41666667       0.16666667       0.50000000 </v>
    <v>       0.58333333       0.08333333       0.40830017 </v>
    <v>       0.75000000       0.00000000       0.59169983 </v>
    <v>       0.91666667       0.91666667       0.50000000 </v>
    <v>       0.00000000       0.75000000       0.59169983 </v>
    <v>       0.33333333       0.08333333       0.40830017 </v>
    <v>       0.16666667       0.16666667       0.50000000 </v>
    <v>       0.33333333       0.83333333       0.40830017 </v>
    <v>       0.16666667       0.41666667       0.50000000 </v>
    <v>       0.66666667       0.91666667       0.50000000 </v>
    <v>       0.25000000       0.25000000       0.59169983 </v>
    <v>       0.41666667       0.66666667       0.50000000 </v>
    <v>       0.25000000       0.00000000       0.59169983 </v>
    <v>       0.00000000       0.50000000       0.59169983 </v>
    <v>       0.91666667       0.41666667       0.50000000 </v>
    <v>       0.83333333       0.08333333       0.40830017 </v>
    <v>       0.66666667       0.16666667       0.50000000 </v>
    <v>       0.00000000       0.25000000       0.59169983 </v>
    <v>       0.75000000       0.25000000       0.59169983 </v>
    <v>       0.08333333       0.33333333       0.40830017 </v>
    <v>       0.66666667       0.66666667       0.50000000 </v>
    <v>       0.00000000       0.00000000       0.59169983 </v>
    <v>       0.91666667       0.16666667       0.50000000 </v>
    <v>       0.25000000       0.50000000       0.59169983 </v>
    <v>       0.91666667       0.66666667       0.50000000 </v>
    <v>       0.50000000       0.75000000       0.59169983 </v>
    <v>       0.25000000       0.75000000       0.59169983 </v>
   </varray>
  </structure>
  <varray name="forces" >
   <v>       0.24169560       0.17815559      -1.29204731 </v>
   <v>      -0.01302410       0.32144749      -1.59233037 </v>
   <v>      -0.26775974      -0.30854079      -1.36919456 </v>
   <v>      -0.54244219      -0.15365028      -1.63799646 </v>
   <v>       0.15791331      -0.24526504       1.11590632 </v>
   <v>      -0.29811742       0.04266287       0.91344222 </v>
   <v>      -0.23602158       0.13679810      -1.32882819 </v>
   <v>       0.11116843       0.23188913      -1.11179825 </v>
   <v>       0.28017746      -0.11897631       1.30185061 </v>
   <v>       0.12854531      -0.23114471      -1.08000788 </v>
   <v>       0.34611760      -0.25865182       0.33598221 </v>
   <v>       0.29180537      -0.30090752      -1.30999235 </v>
   <v>       0.26384950       0.30776128      -1.68119063 </v>
   <v>      -0.23905072      -0.25509474       0.03517571 </v>
   <v>      -0.10663892       0.40759584       1.58926797 </v>
   <v>       0.02278480       0.18301295       0.59597241 </v>
   <v>      -0.11445057       0.37188966      -1.39384174 </v>
   <v>       0.00370703       0.12309110       1.61468341 </v>
   <v>      -0.21412002       0.12412329       0.39634625 </v>
   <v>       0.13977838      -0.38173620      -1.62301777 </v>
   <v>      -0.37381562      -0.09789189       1.59420969 </v>
   <v>      -0.46322259       0.02287063       0.01840399 </v>
   <v>       0.15477349      -0.08313125      -1.35953192 </v>
   <v>       0.51833078      -0.02209452       1.12652953 </v>
   <v>      -0.17578241       0.26090049       0.23972455 </v>
   <v>       0.16162370      -0.11061767       0.62775583 </v>
   <v>      -0.22646927       0.08195914      -0.84134283 </v>
   <v>      -0.18134841       0.45130707       0.26563225 </v>
   <v>       0.08413991       0.02609518      -0.92201493 </v>
   <v>      -0.55001713      -0.07248456       0.39250171 </v>
   <v>       0.31073230      -0.19614421      -0.05129404 </v>
   <v>      -0.34514977       0.17971726       0.69377247 </v>
   <v>       0.18325717       0.28303283       0.23439705 </v>
   <v>      -0.16513013       0.11248411       0.79818582 </v>
   <v>       0.23328552      -0.14097370       0.49260069 </v>
   <v>       0.45278436      -0.16919792       0.22296260 </v>
   <v>      -0.00353693      -0.00995841      -0.60634912 </v>
   <v>       0.51948135      -0.35747684       0.01390879 </v>
   <v>       0.12142540      -0.18382158       0.43083546 </v>
   <v>       0.27445035      -0.26427150       0.69361063 </v>
   <v>       0.08073605      -0.13723488      -0.53342004 </v>
   <v>       0.08718030       0.07027408       0.16128398 </v>
   <v>       0.08726158       0.08934883       0.63459502 </v>
   <v>      -0.05386456      -0.04858678       0.39118865 </v>
   <v>      -0.33913794       0.08685169       0.82450587 </v>
   <v>      -0.08482054      -0.11377947       0.37846668 </v>
   <v>      -0.24966687       0.06380699       0.77205403 </v>
   <v>      -0.01341761       0.10455702       0.82844601 </v>
  </varray>
  <energy>
   <i name="e_fr_energy">   -188.94533564 </i>
   <i name="e_wo_entrp">   -188.80827887 </i>
   <i name="e_0_energy">     -0.27411355 </i>
  </energy>
  <time name="totalsc">  226.84  228.20</time>
 </calculation>
 <calculation>
  <scstep>
   <time name="dav">    7.13    7.15</time>
   <time name="total">    7.42    7.44</time>
   <dipole>
    <v name="dipole">      0.00000000       0.00000000       0.02781973 </v>
    <i name="Tr[quadrupol]"> -10354.82135584 </i>
    <i name="Echarged">      0.00000000 </i>
    <i name="Edipol_quadrupol">      0.00000000 </i>
    <i name="Eion">      0.00000000 </i>
   </dipole>
   <energy>
    <i name="alphaZ">    805.88202050 </i>
    <i name="ewald"> 198566.98324063 </i>
    <i name="hartreedc">-240760.42570097 </i>
    <i name="XCdc">   -344.70862190 </i>
    <i name="pawpsdc">  49309.12435154 </i>
    <i name="pawaedc"> -47387.91560639 </i>
    <i name="eentropy">     -0.27278828 </i>
    <i name="bandstr">  -2037.90871465 </i>
    <i name="atom">  41659.78587232 </i>
    <i name="e_fr_energy">   -189.45594721 </i>
    <i name="e_wo_entrp">   -189.18315893 </i>
    <i name="e_0_energy">   -189.31955307 </i>
   </energy>
  </scstep>
  <scstep>
   <time name="diag">    1.20    1.21</time>
   <time name="diis">    3.44    3.44</time>
   <time name="orth">    0.29    0.29</time>
   <time name="total">    5.21    5.23</time>
   <dipole>
    <v name="dipole">      0.00000000       0.00000000       0.06904288 </v>
    <i name="Tr[quadrupol]"> -10354.66687168 </i>
    <i name="Echarged">      0.00000000 </i>
    <i name="Edipol_quadrupol">      0.00000000 </i>
    <i name="Eion">      0.00000000 </i>
   </dipole>
   <energy>
    <i name="e_fr_energy">   -189.64192199 </i>
    <i name="e_wo_entrp">   -189.38250184 </i>
    <i name="e_0_energy">   -189.51221191 </i>
   </energy>
  </scstep>
  <scstep>
   <time name="diag">    1.20    1.20</time>
   <time name="diis">    3.53    3.54</time>
   <time name="orth">    0.28    0.29</time>
   <time name="total">    5.29    5.31</time>
   <dipole>
    <v name="dipole">      0.00000000       0.00000000      -0.03998360 </v>
    <i name="Tr[quadrupol]"> -10354.84280299 </i>
    <i name="Echarged">      0.00000000 </i>
    <i name="Edipol_quadrupol">      0.00000000 </i>
    <i name="Eion">      0.00000000 </i>
   </dipole>
   <energy>
    <i name="e_fr_energy">   -189.72168051 </i>
    <i name="e_wo_entrp">   -189.43849050 </i>
    <i name="e_0_energy">   -189.58008551 </i>
   </energy>
  </scstep>
  <scstep>
   <time name="diag">    1.21    1.22</time>
   <time name="diis">    3.41    3.42</time>
   <time name="orth">    0.28    0.28</time>
   <time name="total">    5.19    5.20</time>
   <dipole>
    <v name="dipole">      0.00000000       0.00000000       0.03516591 </v>
    <i name="Tr[quadrupol]"> -10354.84744652 </i>
    <i name="Echarged">      0.00000000 </i>
    <i name="Edipol_quadrupol">      0.00000000 </i>
    <i name="Eion">      0.00000000 </i>
   </dipole>
   <energy>
    <i name="e_fr_energy">   -189.62102257 </i>
    <i name="e_wo_entrp">   -189.35055858 </i>
    <i name="e_0_energy">   -189.48579057 </i>
   </energy>
  </scstep>
  <scstep>
   <time name="diag">    1.21    1.28</time>
   <time name="diis">    3.42    3.44</time>
   <time name="orth">    0.28    0.28</time>
   <time name="total">    5.20    5.29</time>
   <dipole>
    <v name="dipole">      0.00000000       0.00000000       0.00639986 </v>
    <i name="Tr[quadrupol]"> -10354.82204657 </i>
    <i name="Echarged">      0.00000000 </i>
    <i name="Edipol_quadrupol">      0.00000000 </i>
    <i name="Eion">      0.00000000 </i>
   </dipole>
   <energy>
    <i name="e_fr_energy">   -189.62323692 </i>
    <i name="e_wo_entrp">   -189.34749694 </i>
    <i name="e_0_energy">   -189.48536693 </i>
   </energy>
  </scstep>
  <scstep>
   <time name="diag">    1.20    1.21</time>
   <time name="diis">    3.39    3.39</time>
   <time name="orth">    0.28    0.28</time>
   <time name="total">    5.15    5.17</time>
   <dipole>
    <v name="dipole">      0.00000000       0.00000000       0.04024593 </v>
    <i name="Tr[quadrupol]"> -10354.84174436 </i>
    <i name="Echarged">      0.00000000 </i>
    <i name="Edipol_quadrupol">      0.00000000 </i>
    <i name="Eion">      0.00000000 </i>
   </dipole>
   <energy>
    <i name="e_fr_energy">   -189.62119615 </i>
    <i name="e_wo_entrp">   -189.35362518 </i>
    <i name="e_0_energy">   -189.48741066 </i>
   </energy>
  </scstep>
  <scstep>
   <time name="diag">    1.21    1.22</time>
   <time name="diis">    3.45    3.46</time>
   <time name="orth">    0.28    0.28</time>
   <time name="total">    5.23    5.25</time>
   <dipole>
    <v name="dipole">      0.00000000       0.00000000       0.04235238 </v>
    <i name="Tr[quadrupol]"> -10354.84247577 </i>
    <i name="Echarged">      0.00000000 </i>
    <i name="Edipol_quadrupol">      0.00000000 </i>
    <i name="Eion">      0.00000000 </i>
   </dipole>
   <energy>
    <i name="e_fr_energy">   -189.61264561 </i>
    <i name="e_wo_entrp">   -189.34121976 </i>
    <i name="e_0_energy">   -189.47693268 </i>
   </energy>
  </scstep>
  <scstep>
   <time name="diag">    1.20    1.21</time>
   <time name="diis">    3.40    3.41</time>
   <time name="orth">    0.28    0.28</time>
   <time name="total">    5.18    5.19</time>
   <dipole>
    <v name="dipole">      0.00000000       0.00000000       0.03235537 </v>
    <i name="Tr[quadrupol]"> -10354.82987454 </i>
    <i name="Echarged">      0.00000000 </i>
    <i name="Edipol_quadrupol">      0.00000000 </i>
    <i name="Eion">      0.00000000 </i>
   </dipole>
   <energy>
    <i name="e_fr_energy">   -189.61158623 </i>
    <i name="e_wo_entrp">   -189.33935685 </i>
    <i name="e_0_energy">   -189.47547154 </i>
   </energy>
  </scstep>
  <scstep>
   <time name="diag">    1.21    1.21</time>
   <time name="diis">    3.41    3.42</time>
   <time name="orth">    0.28    0.28</time>
   <time name="total">    5.19    5.20</time>
   <dipole>
    <v name="dipole">      0.00000000       0.00000000       0.03190652 </v>
    <i name="Tr[quadrupol]"> -10354.82509710 </i>
    <i name="Echarged">      0.00000000 </i>
    <i name="Edipol_quadrupol">      0.00000000 </i>
    <i name="Eion">      0.00000000 </i>
   </dipole>
   <energy>
    <i name="e_fr_energy">   -189.61110414 </i>
    <i name="e_wo_entrp">   -189.33827965 </i>
    <i name="e_0_energy">   -189.47469190 </i>
   </energy>
  </scstep>
  <scstep>
   <time name="diag">    1.20    1.20</time>
   <time name="diis">    3.39    3.40</time>
   <time name="orth">    0.29    0.29</time>
   <time name="total">    5.17    5.18</time>
   <dipole>
    <v name="dipole">      0.00000000       0.00000000       0.03235442 </v>
    <i name="Tr[quadrupol]"> -10354.82349302 </i>
    <i name="Echarged">      0.00000000 </i>
    <i name="Edipol_quadrupol">      0.00000000 </i>
    <i name="Eion">      0.00000000 </i>
   </dipole>
   <energy>
    <i name="e_fr_energy">   -189.61102476 </i>
    <i name="e_wo_entrp">   -189.33812322 </i>
    <i name="e_0_energy">   -189.47457399 </i>
   </energy>
  </scstep>
  <scstep>
   <time name="diag">    1.20    1.20</time>
   <time name="diis">    3.43    3.43</time>
   <time name="orth">    0.28    0.28</time>
   <time name="total">    5.19    5.20</time>
   <dipole>
    <v name="dipole">      0.00000000       0.00000000       0.03272461 </v>
    <i name="Tr[quadrupol]"> -10354.82375246 </i>
    <i name="Echarged">      0.00000000 </i>
    <i name="Edipol_quadrupol">      0.00000000 </i>
    <i name="Eion">      0.00000000 </i>
   </dipole>
   <energy>
    <i name="e_fr_energy">   -189.61097980 </i>
    <i name="e_wo_entrp">   -189.33795582 </i>
    <i name="e_0_energy">   -189.47446781 </i>
   </energy>
  </scstep>
  <scstep>
   <time name="diag">    1.21    1.21</time>
   <time name="diis">    3.41    3.49</time>
   <time name="orth">    0.28    0.29</time>
   <time name="total">    5.18    5.28</time>
   <dipole>
    <v name="dipole">      0.00000000       0.00000000       0.03257166 </v>
    <i name="Tr[quadrupol]"> -10354.82508565 </i>
    <i name="Echarged">      0.00000000 </i>
    <i name="Edipol_quadrupol">      0.00000000 </i>
    <i name="Eion">      0.00000000 </i>
   </dipole>
   <energy>
    <i name="e_fr_energy">   -189.61097693 </i>
    <i name="e_wo_entrp">   -189.33804215 </i>
    <i name="e_0_energy">   -189.47450954 </i>
   </energy>
  </scstep>
  <scstep>
   <time name="diag">    1.20    1.21</time>
   <time name="diis">    3.38    3.39</time>
   <time name="orth">    0.28    0.28</time>
   <time name="total">    5.16    5.17</time>
   <dipole>
    <v name="dipole">      0.00000000       0.00000000       0.03240780 </v>
    <i name="Tr[quadrupol]"> -10354.82698269 </i>
    <i name="Echarged">      0.00000000 </i>
    <i name="Edipol_quadrupol">      0.00000000 </i>
    <i name="Eion">      0.00000000 </i>
   </dipole>
   <energy>
    <i name="e_fr_energy">   -189.61097162 </i>
    <i name="e_wo_entrp">   -189.33809096 </i>
    <i name="e_0_energy">   -189.47453129 </i>
   </energy>
  </scstep>
  <scstep>
   <time name="diag">    1.20    1.20</time>
   <time name="diis">    2.73    2.75</time>
   <time name="orth">    0.28    0.28</time>
   <time name="total">    4.50    4.52</time>
   <dipole>
    <v name="dipole">      0.00000000       0.00000000       0.03253315 </v>
    <i name="Tr[quadrupol]"> -10354.82899588 </i>
    <i name="Echarged">      0.00000000 </i>
    <i name="Edipol_quadrupol">      0.00000000 </i>
    <i name="Eion">      0.00000000 </i>
   </dipole>
   <energy>
    <i name="e_fr_energy">   -189.61097059 </i>
    <i name="e_wo_entrp">   -189.33813654 </i>
    <i name="e_0_energy">   -189.47455357 </i>
   </energy>
  </scstep>
  <scstep>
   <time name="diag">    1.20    1.20</time>
   <time name="diis">    2.13    2.13</time>
   <time name="orth">    0.28    0.28</time>
   <time name="total">    3.65    3.66</time>
   <dipole>
    <v name="dipole">      0.00000000       0.00000000       0.03260859 </v>
    <i name="Tr[quadrupol]"> -10354.83065229 </i>
    <i name="Echarged">      0.00000000 </i>
    <i name="Edipol_quadrupol">      0.00000000 </i>
    <i name="Eion">      0.00000000 </i>
   </dipole>
   <energy>
    <i name="alphaZ">    805.88419362 </i>
    <i name="ewald"> 198566.98324063 </i>
    <i name="hartreedc">-240760.86746261 </i>
    <i name="XCdc">   -344.67612497 </i>
    <i name="pawpsdc">  49113.82985080 </i>
    <i name="pawaedc"> -47191.29265760 </i>
    <i name="eentropy">     -0.27279594 </i>
    <i name="bandstr">  -2038.98508624 </i>
    <i name="atom">  41659.78587232 </i>
    <i name="e_fr_energy">   -189.61096998 </i>
    <i name="e_wo_entrp">   -189.33817404 </i>
    <i name="e_0_energy">   -189.47457201 </i>
   </energy>
  </scstep>
  <structure>
   <crystal>
    <varray name="basis" >
     <v>      11.00258152       0.00000000       0.00000000 </v>
     <v>       5.50129076       9.52851510       0.00000000 </v>
     <v>       0.00000000       0.00000000      24.49178509 </v>
    </varray>
    <i name="volume">   2567.67623402 </i>
    <varray name="rec_basis" >
     <v>       0.09088776      -0.05247407       0.00000000 </v>
     <v>       0.00000000       0.10494815       0.00000000 </v>
     <v>       0.00000000       0.00000000       0.04083002 </v>
    </varray>
   </crystal>
   <varray name="positions" >
    <v>       0.08333333       0.08333333       0.40830017 </v>
    <v>       0.08333333       0.83333333       0.40830017 </v>
    <v>       0.08333333       0.58333333       0.40830017 </v>
    <v>       0.33333333       0.33333333       0.40830017 </v>
    <v>       0.75091930       0.74913076       0.59323847 </v>
    <v>       0.16567606       0.66681787       0.50125948 </v>
    <v>       0.58333333       0.83333333       0.40830017 </v>
    <v>       0.83333333       0.83333333       0.40830017 </v>
    <v>       0.75107077       0.49957834       0.59349485 </v>
    <v>       0.83333333       0.58333333       0.40830017 </v>
    <v>       0.66818734       0.41574998       0.50046326 </v>
    <v>       0.83333333       0.33333333       0.40830017 </v>
    <v>       0.33333333       0.58333333       0.40830017 </v>
    <v>       0.41638499       0.91576259       0.50004850 </v>
    <v>       0.49895042       0.50144455       0.59389115 </v>
    <v>       0.16641229       0.91731528       0.50082174 </v>
    <v>       0.58333333       0.58333333       0.40830017 </v>
    <v>       0.49979326       0.25043625       0.59392619 </v>
    <v>       0.41578952       0.41710657       0.50054649 </v>
    <v>       0.58333333       0.33333333       0.40830017 </v>
    <v>       0.49902613      -0.00034694       0.59389797 </v>
    <v>       0.41520439       0.16674772       0.50002538 </v>
    <v>       0.58333333       0.08333333       0.40830017 </v>
    <v>       0.75163005      -0.00007830       0.59325312 </v>
    <v>       0.91566482       0.91759132       0.50033054 </v>
    <v>       0.00069209       0.74960796       0.59256540 </v>
    <v>       0.33333333       0.08333333       0.40830017 </v>
    <v>       0.16531032       0.16826614       0.50036626 </v>
    <v>       0.33333333       0.83333333       0.40830017 </v>
    <v>       0.16510696       0.41640978       0.50054119 </v>
    <v>       0.66796796       0.91597152       0.49992927 </v>
    <v>       0.24862218       0.25063693       0.59265642 </v>
    <v>       0.41672759       0.66766976       0.50032319 </v>
    <v>       0.24929384       0.00039865       0.59280039 </v>
    <v>       0.00096583       0.49950038       0.59237904 </v>
    <v>       0.91835621       0.41606702       0.50030743 </v>
    <v>       0.83333333       0.08333333       0.40830017 </v>
    <v>       0.66889456       0.16539974       0.50001918 </v>
    <v>       0.00069843       0.24934852       0.59229388 </v>
    <v>       0.75131066       0.24906340       0.59265620 </v>
    <v>       0.08333333       0.33333333       0.40830017 </v>
    <v>       0.66680972       0.66691572       0.50022238 </v>
    <v>       0.00010950       0.00031666       0.59257483 </v>
    <v>       0.91658744       0.16649447       0.50053938 </v>
    <v>       0.24880519       0.50030781       0.59283668 </v>
    <v>       0.91660795       0.66626342       0.50052184 </v>
    <v>       0.49912064       0.75022614       0.59276436 </v>
    <v>       0.24977354       0.75037056       0.59284211 </v>
   </varray>
  </structure>
  <varray name="forces" >
   <v>       0.23750957       0.15429595      -1.19437620 </v>
   <v>       0.01525491       0.28080008      -1.40181448 </v>
   <v>      -0.22019494      -0.28798676      -1.23428276 </v>
   <v>      -0.53683083      -0.11500197      -1.54231297 </v>
   <v>       0.08870076      -0.09324688       0.89192270 </v>
   <v>      -0.16399366       0.05648635       0.62954511 </v>
   <v>      -0.23799208       0.13881000      -1.29585835 </v>
   <v>       0.14512112       0.19625287      -1.08046253 </v>
   <v>       0.17061757      -0.09519535       1.00147635 </v>
   <v>       0.13005534      -0.23696701      -1.02000298 </v>
   <v>       0.16418749      -0.06787800       0.53774154 </v>
   <v>       0.30154998      -0.30228619      -1.24249320 </v>
   <v>       0.21715296       0.33342756      -1.49545456 </v>
   <v>      -0.05406612      -0.04700297       0.26579288 </v>
   <v>      -0.04035848       0.21701622       1.16744521 </v>
   <v>      -0.04061840       0.12444593       0.47180717 </v>
   <v>      -0.12289265       0.34035640      -1.29279952 </v>
   <v>      -0.00281139       0.02948885       1.13620359 </v>
   <v>      -0.04958375       0.01240028       0.57250793 </v>
   <v>       0.12132649      -0.34795671      -1.48132058 </v>
   <v>      -0.16685384      -0.04586966       1.10784529 </v>
   <v>      -0.18433809      -0.06799090       0.38701021 </v>
   <v>       0.13860455      -0.05971271      -1.28534822 </v>
   <v>       0.21741951      -0.02765805       0.90893634 </v>
   <v>      -0.08729831       0.12495976       0.26599151 </v>
   <v>       0.09295999      -0.03804229       0.61777095 </v>
   <v>      -0.25085344       0.06877693      -0.80782315 </v>
   <v>      -0.14491360       0.21900031       0.25894480 </v>
   <v>       0.03305401       0.03441559      -0.88159394 </v>
   <v>      -0.30277994      -0.02165275       0.31981825 </v>
   <v>       0.12335059      -0.07005646       0.31929858 </v>
   <v>      -0.18590199       0.08623245       0.61356050 </v>
   <v>       0.07702804       0.04217304       0.32885836 </v>
   <v>      -0.08991918       0.08858171       0.68709567 </v>
   <v>       0.14982753      -0.09246334       0.51324069 </v>
   <v>       0.19400300      -0.06639541       0.27291219 </v>
   <v>       0.02474469      -0.01358801      -0.61038663 </v>
   <v>       0.17685155      -0.17520460       0.26432711 </v>
   <v>       0.07452030      -0.12447065       0.44635231 </v>
   <v>       0.15428663      -0.10125500       0.61366847 </v>
   <v>       0.08527614      -0.13183301      -0.54701652 </v>
   <v>       0.09740942      -0.01948859       0.35779488 </v>
   <v>       0.08864679       0.03555828       0.60675703 </v>
   <v>       0.01307858      -0.04148986       0.32330368 </v>
   <v>      -0.20958777       0.00804076       0.75243161 </v>
   <v>      -0.09532172      -0.04266895       0.36736359 </v>
   <v>      -0.13068075       0.04444614       0.65293892 </v>
   <v>      -0.01474652       0.09739665       0.75268317 </v>
  </varray>
  <energy>
   <i name="e_fr_energy">   -189.61096998 </i>
   <i name="e_wo_entrp">   -189.47457201 </i>
   <i name="e_0_energy">     -0.27279594 </i>
  </energy>
  <time name="totalsc">   80.34   80.78</time>
 </calculation>
 <calculation>
  <scstep>
   <time name="dav">    7.03    7.05</time>
   <time name="total">    7.32    7.34</time>
   <dipole>
    <v name="dipole">      0.00000000       0.00000000       0.03258425 </v>
    <i name="Tr[quadrupol]"> -10286.06555502 </i>
    <i name="Echarged">      0.00000000 </i>
    <i name="Edipol_quadrupol">      0.00000000 </i>
    <i name="Eion">      0.00000000 </i>
   </dipole>
   <energy>
    <i name="alphaZ">    805.83697350 </i>
    <i name="ewald"> 195234.88478792 </i>
    <i name="hartreedc">-237448.10835373 </i>
    <i name="XCdc">   -347.11157096 </i>
    <i name="pawpsdc">  49113.80608112 </i>
    <i name="pawaedc"> -47191.26920568 </i>
    <i name="eentropy">     -0.26548742 </i>
    <i name="bandstr">  -2016.80706830 </i>
    <i name="atom">  41659.78587232 </i>
    <i name="e_fr_energy">   -189.24797124 </i>
    <i name="e_wo_entrp">   -188.98248382 </i>
    <i name="e_0_energy">   -189.11522753 </i>
   </energy>
  </scstep>
  <scstep>
   <time name="diag">    1.21    1.21</time>
   <time name="diis">    3.43    3.44</time>
   <time name="orth">    0.28    0.28</time>
   <time name="total">    5.20    5.22</time>
   <dipole>
    <v name="dipole">      0.00000000       0.00000000       0.13599198 </v>
    <i name="Tr[quadrupol]"> -10285.53101103 </i>
    <i name="Echarged">      0.00000000 </i>
    <i name="Edipol_quadrupol">      0.00000000 </i>
    <i name="Eion">      0.00000000 </i>
   </dipole>
   <energy>
    <i name="e_fr_energy">   -190.84992897 </i>
    <i name="e_wo_entrp">   -190.62325786 </i>
    <i name="e_0_energy">   -190.73659342 </i>
   </energy>
  </scstep>
  <scstep>
   <time name="diag">    1.22    1.23</time>
   <time name="diis">    3.54    3.54</time>
   <time name="orth">    0.28    0.28</time>
   <time name="total">    5.32    5.34</time>
   <dipole>
    <v name="dipole">      0.00000000       0.00000000      -0.12331079 </v>
    <i name="Tr[quadrupol]"> -10286.07339714 </i>
    <i name="Echarged">      0.00000000 </i>
    <i name="Edipol_quadrupol">      0.00000000 </i>
    <i name="Eion">      0.00000000 </i>
   </dipole>
   <energy>
[...]
       <r>    -9.3146     0.0000     0.0000 </r>
       <r>    -9.2606     0.0000     0.0000 </r>
       <r>    -9.2066     0.0000     0.0000 </r>
       <r>    -9.1526     0.0000     0.0000 </r>
       <r>    -9.0986     0.0002     0.0000 </r>
       <r>    -9.0447     0.0042     0.0002 </r>
       <r>    -8.9907     0.0542     0.0032 </r>
       <r>    -8.9367     0.3966     0.0246 </r>
       <r>    -8.8827     1.6617     0.1143 </r>
       <r>    -8.8287     3.9975     0.3301 </r>
       <r>    -8.7747     5.5923     0.6320 </r>
       <r>    -8.7207     4.9540     0.8995 </r>
       <r>    -8.6667     4.1637     1.1243 </r>
       <r>    -8.6127     5.0639     1.3977 </r>
       <r>    -8.5588     5.5209     1.6958 </r>
       <r>    -8.5048     3.7586     1.8987 </r>
       <r>    -8.4508     1.4891     1.9791 </r>
       <r>    -8.3968     0.3444     1.9977 </r>
       <r>    -8.3428     0.1036     2.0033 </r>
       <r>    -8.2888     0.4225     2.0261 </r>
       <r>    -8.2348     1.7116     2.1185 </r>
       <r>    -8.1808     4.0540     2.3374 </r>
       <r>    -8.1268     5.7361     2.6471 </r>
       <r>    -8.0728     5.6260     2.9508 </r>
       <r>    -8.0189     6.0893     3.2796 </r>
       <r>    -7.9649     8.9601     3.7633 </r>
       <r>    -7.9109    11.7442     4.3974 </r>
       <r>    -7.8569    11.4447     5.0153 </r>
       <r>    -7.8029     8.8157     5.4912 </r>
       <r>    -7.7489     6.1749     5.8246 </r>
       <r>    -7.6949     5.2775     6.1096 </r>
       <r>    -7.6409     7.2709     6.5021 </r>
       <r>    -7.5869     9.9934     7.0417 </r>
       <r>    -7.5329     9.7681     7.5690 </r>
       <r>    -7.4790     7.3886     7.9679 </r>
       <r>    -7.4250     6.7038     8.3299 </r>
       <r>    -7.3710     9.3356     8.8339 </r>
       <r>    -7.3170    13.7061     9.5739 </r>
       <r>    -7.2630    17.6928    10.5291 </r>
       <r>    -7.2090    21.3923    11.6841 </r>
       <r>    -7.1550    25.4493    13.0581 </r>
       <r>    -7.1010    28.7000    14.6076 </r>
       <r>    -7.0470    29.6407    16.2079 </r>
       <r>    -6.9931    27.9453    17.7166 </r>
       <r>    -6.9391    25.9569    19.1180 </r>
       <r>    -6.8851    27.1352    20.5831 </r>
       <r>    -6.8311    31.4592    22.2815 </r>
       <r>    -6.7771    36.0342    24.2270 </r>
       <r>    -6.7231    38.4724    26.3041 </r>
       <r>    -6.6691    38.3773    28.3761 </r>
       <r>    -6.6151    38.3686    30.4476 </r>
       <r>    -6.5611    41.4911    32.6877 </r>
       <r>    -6.5071    46.6825    35.2081 </r>
       <r>    -6.4532    50.9192    37.9572 </r>
       <r>    -6.3992    55.2743    40.9414 </r>
       <r>    -6.3452    61.5550    44.2648 </r>
       <r>    -6.2912    66.9934    47.8817 </r>
       <r>    -6.2372    68.5393    51.5822 </r>
       <r>    -6.1832    67.3779    55.2199 </r>
       <r>    -6.1292    67.0343    58.8390 </r>
       <r>    -6.0752    69.2156    62.5760 </r>
       <r>    -6.0212    73.5704    66.5480 </r>
       <r>    -5.9672    77.9304    70.7554 </r>
       <r>    -5.9133    79.1135    75.0268 </r>
       <r>    -5.8593    76.7687    79.1715 </r>
       <r>    -5.8053    72.8349    83.1038 </r>
       <r>    -5.7513    68.4510    86.7995 </r>
       <r>    -5.6973    64.1421    90.2625 </r>
       <r>    -5.6433    62.5983    93.6422 </r>
       <r>    -5.5893    66.3978    97.2269 </r>
       <r>    -5.5353    73.0033   101.1684 </r>
       <r>    -5.4813    78.1943   105.3901 </r>
       <r>    -5.4273    80.4819   109.7353 </r>
       <r>    -5.3734    79.9356   114.0510 </r>
       <r>    -5.3194    78.1926   118.2726 </r>
       <r>    -5.2654    77.7518   122.4704 </r>
       <r>    -5.2114    79.4458   126.7596 </r>
       <r>    -5.1574    82.2298   131.1992 </r>
       <r>    -5.1034    84.3031   135.7507 </r>
       <r>    -5.0494    84.5634   140.3162 </r>
       <r>    -4.9954    84.1263   144.8582 </r>
       <r>    -4.9414    84.8886   149.4413 </r>
       <r>    -4.8875    86.0220   154.0856 </r>
       <r>    -4.8335    85.9431   158.7256 </r>
       <r>    -4.7795    85.8142   163.3587 </r>
       <r>    -4.7255    86.3269   168.0195 </r>
       <r>    -4.6715    86.0460   172.6651 </r>
       <r>    -4.6175    84.8578   177.2465 </r>
       <r>    -4.5635    84.8556   181.8279 </r>
       <r>    -4.5095    86.8962   186.5194 </r>
       <r>    -4.4555    89.4803   191.3504 </r>
       <r>    -4.4015    91.3403   196.2818 </r>
       <r>    -4.3476    92.8294   201.2937 </r>
       <r>    -4.2936    93.8912   206.3628 </r>
       <r>    -4.2396    92.8475   211.3756 </r>
       <r>    -4.1856    89.9564   216.2323 </r>
       <r>    -4.1316    88.5297   221.0120 </r>
       <r>    -4.0776    90.7023   225.9090 </r>
       <r>    -4.0236    94.9504   231.0354 </r>
       <r>    -3.9696    98.1505   236.3345 </r>
       <r>    -3.9156    99.0427   241.6818 </r>
       <r>    -3.8616    99.2984   247.0429 </r>
       <r>    -3.8077   100.4642   252.4669 </r>
       <r>    -3.7537   101.6073   257.9526 </r>
       <r>    -3.6997   101.1073   263.4114 </r>
       <r>    -3.6457    99.4774   268.7822 </r>
       <r>    -3.5917    98.9733   274.1257 </r>
       <r>    -3.5377    99.6824   279.5075 </r>
       <r>    -3.4837   100.4992   284.9334 </r>
       <r>    -3.4297   102.0235   290.4417 </r>
       <r>    -3.3757   103.2797   296.0177 </r>
       <r>    -3.3217   101.8201   301.5149 </r>
       <r>    -3.2678    97.4763   306.7777 </r>
       <r>    -3.2138    92.6187   311.7781 </r>
       <r>    -3.1598    89.9116   316.6324 </r>
       <r>    -3.1058    89.8904   321.4856 </r>
       <r>    -3.0518    91.2564   326.4125 </r>
       <r>    -2.9978    91.7160   331.3642 </r>
       <r>    -2.9438    89.5290   336.1979 </r>
       <r>    -2.8898    86.3090   340.8577 </r>
       <r>    -2.8358    85.5970   345.4790 </r>
       <r>    -2.7819    87.6296   350.2101 </r>
       <r>    -2.7279    89.6374   355.0496 </r>
       <r>    -2.6739    90.2863   359.9241 </r>
       <r>    -2.6199    90.2246   364.7953 </r>
       <r>    -2.5659    89.9990   369.6544 </r>
       <r>    -2.5119    89.6130   374.4925 </r>
       <r>    -2.4579    89.2468   379.3109 </r>
       <r>    -2.4039    89.2326   384.1286 </r>
       <r>    -2.3499    89.4779   388.9595 </r>
       <r>    -2.2959    89.3497   393.7834 </r>
       <r>    -2.2420    88.4326   398.5579 </r>
       <r>    -2.1880    87.2981   403.2711 </r>
       <r>    -2.1340    86.9282   407.9643 </r>
       <r>    -2.0800    86.7017   412.6453 </r>
       <r>    -2.0260    85.3378   417.2527 </r>
       <r>    -1.9720    84.7391   421.8277 </r>
       <r>    -1.9180    87.4232   426.5477 </r>
       <r>    -1.8640    92.4164   431.5372 </r>
       <r>    -1.8100    97.0504   436.7769 </r>
       <r>    -1.7560    98.6022   442.1004 </r>
       <r>    -1.7021    96.5851   447.3150 </r>
       <r>    -1.6481    95.1852   452.4541 </r>
       <r>    -1.5941    97.5237   457.7193 </r>
       <r>    -1.5401   100.6367   463.1527 </r>
       <r>    -1.4861   101.1557   468.6141 </r>
       <r>    -1.4321    99.8056   474.0025 </r>
       <r>    -1.3781    97.5044   479.2668 </r>
       <r>    -1.3241    93.6297   484.3218 </r>
       <r>    -1.2701    89.0811   489.1313 </r>
       <r>    -1.2162    84.8520   493.7124 </r>
       <r>    -1.1622    78.2413   497.9366 </r>
       <r>    -1.1082    66.8676   501.5468 </r>
       <r>    -1.0542    53.7301   504.4477 </r>
       <r>    -1.0002    41.7796   506.7033 </r>
       <r>    -0.9462    30.3343   508.3411 </r>
       <r>    -0.8922    19.5135   509.3946 </r>
       <r>    -0.8382    11.8775   510.0359 </r>
       <r>    -0.7842     9.0949   510.5269 </r>
       <r>    -0.7302     9.2691   511.0273 </r>
       <r>    -0.6763     9.5355   511.5422 </r>
       <r>    -0.6223    10.5715   512.1129 </r>
       <r>    -0.5683    14.9605   512.9206 </r>
       <r>    -0.5143    21.3268   514.0721 </r>
       <r>    -0.4603    24.8247   515.4123 </r>
       <r>    -0.4063    22.9604   516.6520 </r>
       <r>    -0.3523    18.4117   517.6460 </r>
       <r>    -0.2983    16.9791   518.5627 </r>
       <r>    -0.2443    19.5878   519.6202 </r>
       <r>    -0.1903    20.1716   520.7093 </r>
       <r>    -0.1364    16.8206   521.6174 </r>
       <r>    -0.0824    13.7416   522.3593 </r>
       <r>    -0.0284    12.3210   523.0246 </r>
       <r>     0.0256    11.3597   523.6379 </r>
       <r>     0.0796    11.5834   524.2632 </r>
       <r>     0.1336    14.5463   525.0486 </r>
       <r>     0.1876    18.2193   526.0322 </r>
       <r>     0.2416    18.6257   527.0378 </r>
       <r>     0.2956    16.4971   527.9285 </r>
       <r>     0.3496    15.7075   528.7766 </r>
       <r>     0.4035    16.8933   529.6886 </r>
       <r>     0.4575    18.7405   530.7004 </r>
       <r>     0.5115    20.6355   531.8145 </r>
       <r>     0.5655    22.1006   533.0077 </r>
       <r>     0.6195    23.1553   534.2579 </r>
       <r>     0.6735    23.0013   535.4997 </r>
       <r>     0.7275    20.5376   536.6085 </r>
       <r>     0.7815    17.4163   537.5488 </r>
       <r>     0.8355    14.9084   538.3537 </r>
       <r>     0.8894    12.3667   539.0214 </r>
       <r>     0.9434    10.6298   539.5953 </r>
       <r>     0.9974    10.5454   540.1647 </r>
       <r>     1.0514    11.1236   540.7652 </r>
       <r>     1.1054    11.1258   541.3659 </r>
       <r>     1.1594     9.8483   541.8976 </r>
       <r>     1.2134     7.7855   542.3179 </r>
       <r>     1.2674     6.6480   542.6769 </r>
       <r>     1.3214     7.0537   543.0577 </r>
       <r>     1.3754     8.4277   543.5127 </r>
       <r>     1.4293    10.1563   544.0610 </r>
       <r>     1.4833    11.6177   544.6883 </r>
       <r>     1.5373    13.0688   545.3939 </r>
       <r>     1.5913    14.3231   546.1672 </r>
       <r>     1.6453    14.7905   546.9657 </r>
       <r>     1.6993    16.1149   547.8357 </r>
       <r>     1.7533    19.7027   548.8995 </r>
       <r>     1.8073    22.3525   550.1063 </r>
       <r>     1.8613    19.2609   551.1462 </r>
       <r>     1.9153    12.1033   551.7996 </r>
       <r>     1.9692     7.3404   552.1959 </r>
       <r>     2.0232     6.9530   552.5713 </r>
       <r>     2.0772     8.8112   553.0470 </r>
       <r>     2.1312    12.5229   553.7231 </r>
       <r>     2.1852    16.9859   554.6402 </r>
       <r>     2.2392    18.8436   555.6576 </r>
       <r>     2.2932    18.3210   556.6467 </r>
       <r>     2.3472    18.3249   557.6361 </r>
       <r>     2.4012    19.4296   558.6851 </r>
       <r>     2.4552    20.7862   559.8073 </r>
       <r>     2.5091    21.8499   560.9870 </r>
       <r>     2.5631    22.5709   562.2056 </r>
       <r>     2.6171    22.8929   563.4416 </r>
       <r>     2.6711    22.9359   564.6799 </r>
       <r>     2.7251    22.9725   565.9201 </r>
       <r>     2.7791    21.6892   567.0911 </r>
       <r>     2.8331    17.9795   568.0618 </r>
       <r>     2.8871    13.3734   568.7839 </r>
       <r>     2.9411     9.9114   569.3190 </r>
       <r>     2.9950     7.5808   569.7283 </r>
       <r>     3.0490     6.0933   570.0572 </r>
       <r>     3.1030     6.7784   570.4232 </r>
       <r>     3.1570    10.0282   570.9646 </r>
       <r>     3.2110    13.0973   571.6717 </r>
       <r>     3.2650    12.6511   572.3548 </r>
       <r>     3.3190     9.3089   572.8574 </r>
       <r>     3.3730     6.6935   573.2187 </r>
       <r>     3.4270     6.1942   573.5532 </r>
       <r>     3.4810     6.9761   573.9298 </r>
       <r>     3.5349     9.8058   574.4592 </r>
       <r>     3.5889    15.2065   575.2802 </r>
       <r>     3.6429    19.9406   576.3568 </r>
       <r>     3.6969    21.3867   577.5115 </r>
       <r>     3.7509    20.0966   578.5965 </r>
       <r>     3.8049    16.4455   579.4843 </r>
       <r>     3.8589    12.3580   580.1516 </r>
       <r>     3.9129    10.7618   580.7326 </r>
       <r>     3.9669    12.0023   581.3806 </r>
       <r>     4.0209    14.4151   582.1588 </r>
       <r>     4.0748    15.3142   582.9857 </r>
       <r>     4.1288    13.8395   583.7328 </r>
       <r>     4.1828    11.9330   584.3771 </r>
       <r>     4.2368    10.7999   584.9602 </r>
       <r>     4.2908     9.8625   585.4927 </r>
       <r>     4.3448     9.1248   585.9853 </r>
       <r>     4.3988     9.9989   586.5251 </r>
       <r>     4.4528    12.7473   587.2134 </r>
       <r>     4.5068    17.0887   588.1360 </r>
       <r>     4.5607    24.2425   589.4448 </r>
       <r>     4.6147    31.7252   591.1577 </r>
       <r>     4.6687    32.8451   592.9310 </r>
       <r>     4.7227    27.3546   594.4078 </r>
       <r>     4.7767    23.0074   595.6500 </r>
       <r>     4.8307    23.6484   596.9268 </r>
       <r>     4.8847    25.4946   598.3032 </r>
       <r>     4.9387    25.7336   599.6926 </r>
       <r>     4.9927    27.8190   601.1945 </r>
       <r>     5.0467    33.5425   603.0055 </r>
       <r>     5.1006    36.5425   604.9784 </r>
       <r>     5.1546    32.5153   606.7339 </r>
       <r>     5.2086    26.6923   608.1750 </r>
       <r>     5.2626    23.4020   609.4384 </r>
       <r>     5.3166    20.1344   610.5255 </r>
       <r>     5.3706    14.5139   611.3091 </r>
       <r>     5.4246     8.1423   611.7487 </r>
       <r>     5.4786     3.4153   611.9331 </r>
       <r>     5.5326     1.0136   611.9878 </r>
       <r>     5.5866     0.1994   611.9986 </r>
       <r>     5.6405     0.0246   611.9999 </r>
       <r>     5.6945     0.0018   612.0000 </r>
       <r>     5.7485     0.0001   612.0000 </r>
       <r>     5.8025     0.0000   612.0000 </r>
       <r>     5.8565     0.0000   612.0000 </r>
       <r>     5.9105     0.0000   612.0000 </r>
       <r>     5.9645     0.0000   612.0000 </r>
       <r>     6.0185     0.0000   612.0000 </r>
       <r>     6.0725     0.0000   612.0000 </r>
       <r>     6.1265     0.0000   612.0000 </r>
       <r>     6.1804     0.0000   612.0000 </r>
       <r>     6.2344     0.0000   612.0000 </r>
       <r>     6.2884     0.0000   612.0000 </r>
       <r>     6.3424     0.0000   612.0000 </r>
       <r>     6.3964     0.0000   612.0000 </r>
      </set>
     </set>
    </array>
   </total>
  </dos>
 </calculation>
 <structure name="finalpos" >
  <crystal>
   <varray name="basis" >
    <v>      11.00258152       0.00000000       0.00000000 </v>
    <v>       5.50129076       9.52851510       0.00000000 </v>
    <v>       0.00000000       0.00000000      24.49178509 </v>
   </varray>
   <i name="volume">   2567.67623402 </i>
   <varray name="rec_basis" >
    <v>       0.09088776      -0.05247407       0.00000000 </v>
    <v>       0.00000000       0.10494815       0.00000000 </v>
    <v>       0.00000000       0.00000000       0.04083002 </v>
   </varray>
  </crystal>
  <varray name="positions" >
   <v>       0.08333333       0.08333333       0.40830017 </v>
   <v>       0.08333333       0.83333333       0.40830017 </v>
   <v>       0.08333333       0.58333333       0.40830017 </v>
   <v>       0.33333333       0.33333333       0.40830017 </v>
   <v>       0.75278474       0.74826099       0.61003622 </v>
   <v>       0.16365455       0.66646368       0.51156489 </v>
   <v>       0.58333333       0.83333333       0.40830017 </v>
   <v>       0.83333333       0.83333333       0.40830017 </v>
   <v>       0.75429263       0.49784825       0.61150744 </v>
   <v>       0.83333333       0.58333333       0.40830017 </v>
   <v>       0.66827771       0.41594835       0.51179042 </v>
   <v>       0.83333333       0.33333333       0.40830017 </v>
   <v>       0.33333333       0.58333333       0.40830017 </v>
   <v>       0.41671020       0.91496802       0.50806073 </v>
   <v>       0.49762104       0.50395215       0.61548027 </v>
   <v>       0.16504912       0.91751136       0.50934827 </v>
   <v>       0.58333333       0.58333333       0.40830017 </v>
   <v>       0.49972897       0.25097632       0.61542440 </v>
   <v>       0.41633578       0.41533816       0.51320584 </v>
   <v>       0.58333333       0.33333333       0.40830017 </v>
   <v>       0.49773796      -0.00031427       0.61346054 </v>
   <v>       0.41488533       0.16553530       0.50989646 </v>
   <v>       0.58333333       0.08333333       0.40830017 </v>
   <v>       0.75366185      -0.00002539       0.61004178 </v>
   <v>       0.91274346       0.91866674       0.50858388 </v>
   <v>       0.00211479       0.74963167       0.60628284 </v>
   <v>       0.33333333       0.08333333       0.40830017 </v>
   <v>       0.16277283       0.16952090       0.50697958 </v>
   <v>       0.33333333       0.83333333       0.40830017 </v>
   <v>       0.16349094       0.41613218       0.50800039 </v>
   <v>       0.66812772       0.91532745       0.51006838 </v>
   <v>       0.24774757       0.25102654       0.60531560 </v>
   <v>       0.41726660       0.66566249       0.50975515 </v>
   <v>       0.24903426       0.00123972       0.60564645 </v>
   <v>       0.00354815       0.49832792       0.60388232 </v>
   <v>       0.91766481       0.41638744       0.50771761 </v>
   <v>       0.83333333       0.08333333       0.40830017 </v>
   <v>       0.66887108       0.16422948       0.50936150 </v>
   <v>       0.00255990       0.24816990       0.60320070 </v>
   <v>       0.75288126       0.24860506       0.60638448 </v>
   <v>       0.08333333       0.33333333       0.40830017 </v>
   <v>       0.66791113       0.66589391       0.51003305 </v>
   <v>       0.00131263       0.00097638       0.60506221 </v>
   <v>       0.91553002       0.16654474       0.50764772 </v>
   <v>       0.24760509       0.50022560       0.60821397 </v>
   <v>       0.91383986       0.66678783       0.50917810 </v>
   <v>       0.49849354       0.75077803       0.60609841 </v>
   <v>       0.24906114       0.75223244       0.60721072 </v>
  </varray>
  <varray name="selective"  type="logical" >
   <v type="logical" >  F  F  F </v>
   <v type="logical" >  F  F  F </v>
   <v type="logical" >  F  F  F </v>
   <v type="logical" >  F  F  F </v>
   <v type="logical" >  T  T  T </v>
   <v type="logical" >  T  T  T </v>
   <v type="logical" >  F  F  F </v>
   <v type="logical" >  F  F  F </v>
   <v type="logical" >  T  T  T </v>
   <v type="logical" >  F  F  F </v>
   <v type="logical" >  T  T  T </v>
   <v type="logical" >  F  F  F </v>
   <v type="logical" >  F  F  F </v>
   <v type="logical" >  T  T  T </v>
   <v type="logical" >  T  T  T </v>
   <v type="logical" >  T  T  T </v>
   <v type="logical" >  F  F  F </v>
   <v type="logical" >  T  T  T </v>
   <v type="logical" >  T  T  T </v>
   <v type="logical" >  F  F  F </v>
   <v type="logical" >  T  T  T </v>
   <v type="logical" >  T  T  T </v>
   <v type="logical" >  F  F  F </v>
   <v type="logical" >  T  T  T </v>
   <v type="logical" >  T  T  T </v>
   <v type="logical" >  T  T  T </v>
   <v type="logical" >  F  F  F </v>
   <v type="logical" >  T  T  T </v>
   <v type="logical" >  F  F  F </v>
   <v type="logical" >  T  T  T </v>
   <v type="logical" >  T  T  T </v>
   <v type="logical" >  T  T  T </v>
   <v type="logical" >  T  T  T </v>
   <v type="logical" >  T  T  T </v>
   <v type="logical" >  T  T  T </v>
   <v type="logical" >  T  T  T </v>
   <v type="logical" >  F  F  F </v>
   <v type="logical" >  T  T  T </v>
   <v type="logical" >  T  T  T </v>
   <v type="logical" >  T  T  T </v>
   <v type="logical" >  F  F  F </v>
   <v type="logical" >  T  T  T </v>
   <v type="logical" >  T  T  T </v>
   <v type="logical" >  T  T  T </v>
   <v type="logical" >  T  T  T </v>
   <v type="logical" >  T  T  T </v>
   <v type="logical" >  T  T  T </v>
   <v type="logical" >  T  T  T </v>
  </varray>
  <nose>
   <v>      -3.00000000       0.00000000       0.00010000       0.00010000 </v>
  </nose>
 </structure>
</modeling>
