  56  56   0   0
  0.4903395E+02  0.1100258E-08  0.1100258E-08  0.2619179E-08  0.3500000E-15
  1.000000000000000E-004
  CAR 
 unknown system                          
      6.42778443    -21.24224389  301     -1.46547732      1.00000000
    -21.242  0.0000E+00  0.0000E+00
    -21.150  0.0000E+00  0.0000E+00
    -21.058  0.0000E+00  0.0000E+00
    -20.966  0.0000E+00  0.0000E+00
    -20.873  0.0000E+00  0.0000E+00
    -20.781  0.0000E+00  0.0000E+00
    -20.689  0.0000E+00  0.0000E+00
    -20.597  0.0000E+00  0.0000E+00
    -20.504  0.4008E-14  0.3697E-15
    -20.412  0.3046E-10  0.2810E-11
    -20.320  0.4396E-07  0.4057E-08
    -20.228  0.1228E-04  0.1137E-05
    -20.135  0.6860E-03  0.6441E-04
    -20.043  0.8026E-02  0.8047E-03
    -19.951  0.2080E-01  0.2723E-02
    -19.859  0.1399E-01  0.4014E-02
    -19.767  0.1788E-01  0.5662E-02
    -19.674  0.4921E-01  0.1020E-01
    -19.582  0.6454E-01  0.1615E-01
    -19.490  0.5125E-01  0.2088E-01
    -19.398  0.4933E-01  0.2543E-01
    -19.305  0.3528E-01  0.2869E-01
    -19.213  0.2456E-01  0.3095E-01
    -19.121  0.1026E-01  0.3190E-01
    -19.029  0.1091E-02  0.3200E-01
    -18.936  0.2471E-04  0.3200E-01
    -18.844  0.1126E-06  0.3200E-01
    -18.752  0.9969E-10  0.3200E-01
    -18.660  0.1681E-13  0.3200E-01
    -18.567  0.0000E+00  0.3200E-01
    -18.475  0.0000E+00  0.3200E-01
    -18.383  0.0000E+00  0.3200E-01
    -18.291  0.0000E+00  0.3200E-01
    -18.199  0.0000E+00  0.3200E-01
    -18.106  0.0000E+00  0.3200E-01
    -18.014  0.0000E+00  0.3200E-01
    -17.922  0.0000E+00  0.3200E-01
    -17.830  0.0000E+00  0.3200E-01
    -17.737  0.0000E+00  0.3200E-01
    -17.645  0.0000E+00  0.3200E-01
    -17.553  0.0000E+00  0.3200E-01
    -17.461  0.0000E+00  0.3200E-01
    -17.368  0.0000E+00  0.3200E-01
    -17.276  0.0000E+00  0.3200E-01
    -17.184  0.0000E+00  0.3200E-01
    -17.092  0.0000E+00  0.3200E-01
    -17.000  0.0000E+00  0.3200E-01
    -16.907  0.0000E+00  0.3200E-01
    -16.815  0.0000E+00  0.3200E-01
    -16.723  0.0000E+00  0.3200E-01
    -16.631  0.0000E+00  0.3200E-01
    -16.538  0.0000E+00  0.3200E-01
    -16.446  0.0000E+00  0.3200E-01
    -16.354  0.0000E+00  0.3200E-01
    -16.262  0.0000E+00  0.3200E-01
    -16.169  0.0000E+00  0.3200E-01
    -16.077  0.0000E+00  0.3200E-01
    -15.985  0.0000E+00  0.3200E-01
    -15.893  0.0000E+00  0.3200E-01
    -15.800  0.0000E+00  0.3200E-01
    -15.708  0.0000E+00  0.3200E-01
    -15.616  0.0000E+00  0.3200E-01
    -15.524  0.0000E+00  0.3200E-01
    -15.432  0.0000E+00  0.3200E-01
    -15.339  0.0000E+00  0.3200E-01
    -15.247  0.0000E+00  0.3200E-01
    -15.155  0.0000E+00  0.3200E-01
    -15.063  0.0000E+00  0.3200E-01
    -14.970  0.0000E+00  0.3200E-01
    -14.878  0.0000E+00  0.3200E-01
    -14.786  0.0000E+00  0.3200E-01
    -14.694  0.0000E+00  0.3200E-01
    -14.601  0.0000E+00  0.3200E-01
    -14.509  0.0000E+00  0.3200E-01
    -14.417  0.0000E+00  0.3200E-01
    -14.325  0.0000E+00  0.3200E-01
    -14.233  0.0000E+00  0.3200E-01
    -14.140  0.0000E+00  0.3200E-01
    -14.048  0.0000E+00  0.3200E-01
    -13.956  0.0000E+00  0.3200E-01
    -13.864  0.0000E+00  0.3200E-01
    -13.771  0.0000E+00  0.3200E-01
    -13.679  0.0000E+00  0.3200E-01
    -13.587  0.0000E+00  0.3200E-01
    -13.495  0.0000E+00  0.3200E-01
    -13.402  0.0000E+00  0.3200E-01
    -13.310  0.0000E+00  0.3200E-01
    -13.218  0.0000E+00  0.3200E-01
    -13.126  0.0000E+00  0.3200E-01
    -13.033  0.0000E+00  0.3200E-01
    -12.941  0.0000E+00  0.3200E-01
    -12.849  0.0000E+00  0.3200E-01
    -12.757  0.0000E+00  0.3200E-01
    -12.665  0.0000E+00  0.3200E-01
    -12.572  0.0000E+00  0.3200E-01
    -12.480  0.0000E+00  0.3200E-01
    -12.388  0.0000E+00  0.3200E-01
    -12.296  0.0000E+00  0.3200E-01
    -12.203  0.0000E+00  0.3200E-01
    -12.111  0.0000E+00  0.3200E-01
    -12.019  0.0000E+00  0.3200E-01
    -11.927  0.0000E+00  0.3200E-01
    -11.834  0.0000E+00  0.3200E-01
    -11.742  0.0000E+00  0.3200E-01
    -11.650  0.0000E+00  0.3200E-01
    -11.558  0.0000E+00  0.3200E-01
    -11.466  0.0000E+00  0.3200E-01
    -11.373  0.0000E+00  0.3200E-01
    -11.281  0.0000E+00  0.3200E-01
    -11.189  0.0000E+00  0.3200E-01
    -11.097  0.0000E+00  0.3200E-01
    -11.004  0.0000E+00  0.3200E-01
    -10.912  0.0000E+00  0.3200E-01
    -10.820  0.0000E+00  0.3200E-01
    -10.728  0.0000E+00  0.3200E-01
    -10.635  0.0000E+00  0.3200E-01
    -10.543  0.0000E+00  0.3200E-01
    -10.451  0.0000E+00  0.3200E-01
    -10.359  0.0000E+00  0.3200E-01
    -10.266  0.0000E+00  0.3200E-01
    -10.174  0.0000E+00  0.3200E-01
    -10.082  0.0000E+00  0.3200E-01
     -9.990  0.0000E+00  0.3200E-01
     -9.898  0.0000E+00  0.3200E-01
     -9.805  0.0000E+00  0.3200E-01
     -9.713  0.0000E+00  0.3200E-01
     -9.621  0.0000E+00  0.3200E-01
     -9.529  0.1953E-14  0.3200E-01
     -9.436  0.1464E-10  0.3200E-01
     -9.344  0.2097E-07  0.3200E-01
     -9.252  0.5860E-05  0.3200E-01
     -9.160  0.3297E-03  0.3203E-01
     -9.067  0.3931E-02  0.3239E-01
     -8.975  0.1108E-01  0.3342E-01
     -8.883  0.1206E-01  0.3453E-01
     -8.791  0.1118E-01  0.3556E-01
     -8.698  0.4571E-02  0.3598E-01
     -8.606  0.3601E-02  0.3631E-01
     -8.514  0.1375E-01  0.3758E-01
     -8.422  0.2087E-01  0.3951E-01
     -8.330  0.2110E-01  0.4145E-01
     -8.237  0.2394E-01  0.4366E-01
     -8.145  0.3114E-01  0.4653E-01
     -8.053  0.3959E-01  0.5018E-01
     -7.961  0.4502E-01  0.5434E-01
     -7.868  0.5323E-01  0.5925E-01
     -7.776  0.4540E-01  0.6343E-01
     -7.684  0.3916E-01  0.6704E-01
     -7.592  0.4582E-01  0.7127E-01
     -7.499  0.5618E-01  0.7645E-01
     -7.407  0.7029E-01  0.8294E-01
     -7.315  0.7784E-01  0.9012E-01
     -7.223  0.9104E-01  0.9851E-01
     -7.131  0.1176E+00  0.1094E+00
     -7.038  0.1408E+00  0.1223E+00
     -6.946  0.1496E+00  0.1361E+00
     -6.854  0.1484E+00  0.1498E+00
     -6.762  0.1464E+00  0.1633E+00
     -6.669  0.1465E+00  0.1769E+00
     -6.577  0.1568E+00  0.1913E+00
     -6.485  0.1604E+00  0.2061E+00
     -6.393  0.1560E+00  0.2205E+00
     -6.300  0.1571E+00  0.2350E+00
     -6.208  0.1696E+00  0.2506E+00
     -6.116  0.1786E+00  0.2671E+00
     -6.024  0.1714E+00  0.2829E+00
     -5.931  0.1655E+00  0.2982E+00
     -5.839  0.1704E+00  0.3139E+00
     -5.747  0.1758E+00  0.3301E+00
     -5.655  0.1799E+00  0.3467E+00
     -5.563  0.1785E+00  0.3632E+00
     -5.470  0.1761E+00  0.3794E+00
     -5.378  0.1747E+00  0.3955E+00
     -5.286  0.1701E+00  0.4112E+00
     -5.194  0.1688E+00  0.4268E+00
     -5.101  0.1703E+00  0.4425E+00
     -5.009  0.1734E+00  0.4585E+00
     -4.917  0.1820E+00  0.4753E+00
     -4.825  0.1879E+00  0.4926E+00
     -4.732  0.1815E+00  0.5093E+00
     -4.640  0.1794E+00  0.5259E+00
     -4.548  0.1819E+00  0.5427E+00
     -4.456  0.1798E+00  0.5593E+00
     -4.364  0.1784E+00  0.5757E+00
     -4.271  0.1721E+00  0.5916E+00
     -4.179  0.1737E+00  0.6076E+00
     -4.087  0.1855E+00  0.6247E+00
     -3.995  0.1966E+00  0.6429E+00
     -3.902  0.1985E+00  0.6612E+00
     -3.810  0.1935E+00  0.6790E+00
     -3.718  0.1880E+00  0.6964E+00
     -3.626  0.1825E+00  0.7132E+00
     -3.533  0.1698E+00  0.7288E+00
     -3.441  0.1707E+00  0.7446E+00
     -3.349  0.1814E+00  0.7613E+00
     -3.257  0.1891E+00  0.7788E+00
     -3.164  0.1888E+00  0.7962E+00
     -3.072  0.1796E+00  0.8127E+00
     -2.980  0.1741E+00  0.8288E+00
     -2.888  0.1798E+00  0.8454E+00
     -2.796  0.1787E+00  0.8619E+00
     -2.703  0.1758E+00  0.8781E+00
     -2.611  0.1858E+00  0.8952E+00
     -2.519  0.1964E+00  0.9133E+00
     -2.427  0.2047E+00  0.9322E+00
     -2.334  0.2080E+00  0.9514E+00
     -2.242  0.2089E+00  0.9707E+00
     -2.150  0.2119E+00  0.9902E+00
     -2.058  0.2068E+00  0.1009E+01
     -1.965  0.1947E+00  0.1027E+01
     -1.873  0.1797E+00  0.1044E+01
     -1.781  0.1732E+00  0.1060E+01
     -1.689  0.1573E+00  0.1074E+01
     -1.597  0.1399E+00  0.1087E+01
     -1.504  0.1322E+00  0.1099E+01
     -1.412  0.1099E+00  0.1110E+01
     -1.320  0.7241E-01  0.1116E+01
     -1.228  0.4198E-01  0.1120E+01
     -1.135  0.3721E-01  0.1123E+01
     -1.043  0.3820E-01  0.1127E+01
     -0.951  0.2638E-01  0.1129E+01
     -0.859  0.2374E-01  0.1132E+01
     -0.766  0.3599E-01  0.1135E+01
     -0.674  0.4139E-01  0.1139E+01
     -0.582  0.4164E-01  0.1143E+01
     -0.490  0.4796E-01  0.1147E+01
     -0.397  0.4998E-01  0.1152E+01
     -0.305  0.3737E-01  0.1155E+01
     -0.213  0.2630E-01  0.1158E+01
     -0.121  0.2505E-01  0.1160E+01
     -0.029  0.2498E-01  0.1162E+01
      0.064  0.3307E-01  0.1165E+01
      0.156  0.3493E-01  0.1168E+01
      0.248  0.3200E-01  0.1171E+01
      0.340  0.4300E-01  0.1175E+01
      0.433  0.4895E-01  0.1180E+01
      0.525  0.4220E-01  0.1184E+01
      0.617  0.3559E-01  0.1187E+01
      0.709  0.3117E-01  0.1190E+01
      0.802  0.2840E-01  0.1193E+01
      0.894  0.2510E-01  0.1195E+01
      0.986  0.2313E-01  0.1197E+01
      1.078  0.2064E-01  0.1199E+01
      1.170  0.2743E-01  0.1201E+01
      1.263  0.3427E-01  0.1205E+01
      1.355  0.2910E-01  0.1207E+01
      1.447  0.3015E-01  0.1210E+01
      1.539  0.2861E-01  0.1213E+01
      1.632  0.2702E-01  0.1215E+01
      1.724  0.2915E-01  0.1218E+01
      1.816  0.3436E-01  0.1221E+01
      1.908  0.3551E-01  0.1224E+01
      2.001  0.3404E-01  0.1227E+01
      2.093  0.3076E-01  0.1230E+01
      2.185  0.2737E-01  0.1233E+01
      2.277  0.2638E-01  0.1235E+01
      2.370  0.2942E-01  0.1238E+01
      2.462  0.3236E-01  0.1241E+01
      2.554  0.3401E-01  0.1244E+01
      2.646  0.3444E-01  0.1247E+01
      2.738  0.3384E-01  0.1250E+01
      2.831  0.2947E-01  0.1253E+01
      2.923  0.2566E-01  0.1255E+01
      3.015  0.2575E-01  0.1258E+01
      3.107  0.3447E-01  0.1261E+01
      3.200  0.4151E-01  0.1265E+01
      3.292  0.2768E-01  0.1267E+01
      3.384  0.2352E-01  0.1270E+01
      3.476  0.3597E-01  0.1273E+01
      3.569  0.4031E-01  0.1277E+01
      3.661  0.3336E-01  0.1280E+01
      3.753  0.2360E-01  0.1282E+01
      3.845  0.2532E-01  0.1284E+01
      3.937  0.3279E-01  0.1287E+01
      4.030  0.3859E-01  0.1291E+01
      4.122  0.4000E-01  0.1294E+01
      4.214  0.3167E-01  0.1297E+01
      4.306  0.3016E-01  0.1300E+01
      4.399  0.3586E-01  0.1303E+01
      4.491  0.4098E-01  0.1307E+01
      4.583  0.4519E-01  0.1311E+01
      4.675  0.4922E-01  0.1316E+01
      4.768  0.5268E-01  0.1321E+01
      4.860  0.5374E-01  0.1326E+01
      4.952  0.5211E-01  0.1331E+01
      5.044  0.6205E-01  0.1336E+01
      5.137  0.5380E-01  0.1341E+01
      5.229  0.2475E-01  0.1344E+01
      5.321  0.4807E-02  0.1344E+01
      5.413  0.2786E-03  0.1344E+01
      5.505  0.3877E-05  0.1344E+01
      5.598  0.1167E-07  0.1344E+01
      5.690  0.7184E-11  0.1344E+01
      5.782  0.8739E-15  0.1344E+01
      5.874  0.0000E+00  0.1344E+01
      5.967  0.0000E+00  0.1344E+01
      6.059  0.0000E+00  0.1344E+01
      6.151  0.0000E+00  0.1344E+01
      6.243  0.0000E+00  0.1344E+01
      6.336  0.0000E+00  0.1344E+01
      6.428  0.0000E+00  0.1344E+01
