  48  48   0   0
  0.5349325E+02  0.1100258E-08  0.1100258E-08  0.2449179E-08  0.3500000E-15
  1.000000000000000E-004
  CAR 
 unknown system                          
      6.43882120     -9.85732611  301     -1.10176110      1.00000000
     -9.857  0.0000E+00  0.0000E+00
     -9.803  0.0000E+00  0.0000E+00
     -9.749  0.0000E+00  0.0000E+00
     -9.694  0.0000E+00  0.0000E+00
     -9.640  0.0000E+00  0.0000E+00
     -9.586  0.0000E+00  0.0000E+00
     -9.531  0.0000E+00  0.0000E+00
     -9.477  0.0000E+00  0.0000E+00
     -9.423  0.1771E-16  0.9622E-18
     -9.368  0.6857E-14  0.3734E-15
     -9.314  0.1491E-11  0.8137E-13
     -9.260  0.1820E-09  0.9966E-11
     -9.205  0.1249E-07  0.6884E-09
     -9.151  0.4831E-06  0.2693E-07
     -9.097  0.1056E-04  0.6004E-06
     -9.043  0.1307E-03  0.7700E-05
     -8.988  0.9191E-03  0.5763E-04
     -8.934  0.3681E-02  0.2576E-03
     -8.880  0.8418E-02  0.7149E-03
     -8.825  0.1107E-01  0.1316E-02
     -8.771  0.8838E-02  0.1796E-02
     -8.717  0.6287E-02  0.2138E-02
     -8.662  0.7969E-02  0.2571E-02
     -8.608  0.1073E-01  0.3154E-02
     -8.554  0.9252E-02  0.3656E-02
     -8.499  0.4694E-02  0.3911E-02
     -8.445  0.1441E-02  0.3989E-02
     -8.391  0.6373E-03  0.4024E-02
     -8.336  0.1615E-02  0.4112E-02
     -8.282  0.3974E-02  0.4328E-02
     -8.228  0.6956E-02  0.4706E-02
     -8.173  0.9558E-02  0.5225E-02
     -8.119  0.1138E-01  0.5843E-02
     -8.065  0.1362E-01  0.6583E-02
     -8.010  0.1662E-01  0.7486E-02
     -7.956  0.1745E-01  0.8434E-02
     -7.902  0.1453E-01  0.9223E-02
     -7.847  0.9982E-02  0.9765E-02
     -7.793  0.7325E-02  0.1016E-01
     -7.739  0.8268E-02  0.1061E-01
     -7.685  0.1134E-01  0.1123E-01
     -7.630  0.1504E-01  0.1205E-01
     -7.576  0.1903E-01  0.1308E-01
     -7.522  0.2193E-01  0.1427E-01
     -7.467  0.2201E-01  0.1547E-01
     -7.413  0.1933E-01  0.1652E-01
     -7.359  0.1649E-01  0.1741E-01
     -7.304  0.1735E-01  0.1836E-01
     -7.250  0.2211E-01  0.1956E-01
     -7.196  0.2663E-01  0.2100E-01
     -7.141  0.2940E-01  0.2260E-01
     -7.087  0.3387E-01  0.2444E-01
     -7.033  0.4348E-01  0.2680E-01
     -6.978  0.5807E-01  0.2996E-01
     -6.924  0.7194E-01  0.3386E-01
     -6.870  0.7925E-01  0.3817E-01
     -6.815  0.8140E-01  0.4259E-01
     -6.761  0.8126E-01  0.4700E-01
     -6.707  0.7915E-01  0.5130E-01
     -6.652  0.7582E-01  0.5542E-01
     -6.598  0.7276E-01  0.5937E-01
     -6.544  0.7375E-01  0.6338E-01
     -6.489  0.8491E-01  0.6799E-01
     -6.435  0.1053E+00  0.7371E-01
     -6.381  0.1242E+00  0.8046E-01
     -6.326  0.1362E+00  0.8786E-01
     -6.272  0.1458E+00  0.9578E-01
     -6.218  0.1591E+00  0.1044E+00
     -6.164  0.1772E+00  0.1140E+00
     -6.109  0.1911E+00  0.1244E+00
     -6.055  0.1899E+00  0.1347E+00
     -6.001  0.1785E+00  0.1444E+00
     -5.946  0.1687E+00  0.1536E+00
     -5.892  0.1634E+00  0.1625E+00
     -5.838  0.1600E+00  0.1712E+00
     -5.783  0.1550E+00  0.1796E+00
     -5.729  0.1469E+00  0.1876E+00
     -5.675  0.1384E+00  0.1951E+00
     -5.620  0.1327E+00  0.2023E+00
     -5.566  0.1311E+00  0.2094E+00
     -5.512  0.1289E+00  0.2164E+00
     -5.457  0.1229E+00  0.2231E+00
     -5.403  0.1191E+00  0.2296E+00
     -5.349  0.1235E+00  0.2363E+00
     -5.294  0.1344E+00  0.2436E+00
     -5.240  0.1504E+00  0.2517E+00
     -5.186  0.1685E+00  0.2609E+00
     -5.131  0.1793E+00  0.2706E+00
     -5.077  0.1793E+00  0.2804E+00
     -5.023  0.1771E+00  0.2900E+00
     -4.968  0.1798E+00  0.2998E+00
     -4.914  0.1840E+00  0.3098E+00
     -4.860  0.1829E+00  0.3197E+00
     -4.806  0.1754E+00  0.3292E+00
     -4.751  0.1681E+00  0.3383E+00
     -4.697  0.1662E+00  0.3474E+00
     -4.643  0.1699E+00  0.3566E+00
     -4.588  0.1755E+00  0.3661E+00
     -4.534  0.1771E+00  0.3758E+00
     -4.480  0.1747E+00  0.3852E+00
     -4.425  0.1752E+00  0.3948E+00
     -4.371  0.1779E+00  0.4044E+00
     -4.317  0.1754E+00  0.4140E+00
     -4.262  0.1682E+00  0.4231E+00
     -4.208  0.1655E+00  0.4321E+00
     -4.154  0.1716E+00  0.4414E+00
     -4.099  0.1788E+00  0.4511E+00
     -4.045  0.1795E+00  0.4609E+00
     -3.991  0.1765E+00  0.4704E+00
     -3.936  0.1746E+00  0.4799E+00
     -3.882  0.1727E+00  0.4893E+00
     -3.828  0.1715E+00  0.4986E+00
     -3.773  0.1731E+00  0.5080E+00
     -3.719  0.1750E+00  0.5175E+00
     -3.665  0.1757E+00  0.5271E+00
     -3.610  0.1770E+00  0.5367E+00
     -3.556  0.1820E+00  0.5466E+00
     -3.502  0.1887E+00  0.5568E+00
     -3.448  0.1891E+00  0.5671E+00
     -3.393  0.1798E+00  0.5769E+00
     -3.339  0.1682E+00  0.5860E+00
     -3.285  0.1646E+00  0.5949E+00
     -3.230  0.1695E+00  0.6042E+00
     -3.176  0.1748E+00  0.6136E+00
     -3.122  0.1761E+00  0.6232E+00
     -3.067  0.1739E+00  0.6327E+00
     -3.013  0.1696E+00  0.6419E+00
     -2.959  0.1672E+00  0.6510E+00
     -2.904  0.1707E+00  0.6602E+00
     -2.850  0.1776E+00  0.6699E+00
     -2.796  0.1840E+00  0.6799E+00
     -2.741  0.1909E+00  0.6902E+00
     -2.687  0.1999E+00  0.7011E+00
     -2.633  0.2097E+00  0.7125E+00
     -2.578  0.2180E+00  0.7243E+00
     -2.524  0.2224E+00  0.7364E+00
     -2.470  0.2210E+00  0.7484E+00
     -2.415  0.2132E+00  0.7600E+00
     -2.361  0.2021E+00  0.7710E+00
     -2.307  0.1940E+00  0.7815E+00
     -2.252  0.1906E+00  0.7919E+00
     -2.198  0.1893E+00  0.8021E+00
     -2.144  0.1911E+00  0.8125E+00
     -2.089  0.1962E+00  0.8232E+00
     -2.035  0.1996E+00  0.8340E+00
     -1.981  0.1997E+00  0.8449E+00
     -1.927  0.2020E+00  0.8558E+00
     -1.872  0.2084E+00  0.8672E+00
     -1.818  0.2149E+00  0.8788E+00
     -1.764  0.2185E+00  0.8907E+00
     -1.709  0.2200E+00  0.9027E+00
     -1.655  0.2220E+00  0.9147E+00
     -1.601  0.2239E+00  0.9269E+00
     -1.546  0.2218E+00  0.9389E+00
     -1.492  0.2136E+00  0.9505E+00
     -1.438  0.1999E+00  0.9614E+00
     -1.383  0.1851E+00  0.9714E+00
     -1.329  0.1719E+00  0.9808E+00
     -1.275  0.1565E+00  0.9893E+00
     -1.220  0.1350E+00  0.9966E+00
     -1.166  0.1096E+00  0.1003E+01
     -1.112  0.8624E-01  0.1007E+01
     -1.057  0.6853E-01  0.1011E+01
     -1.003  0.5570E-01  0.1014E+01
     -0.949  0.4609E-01  0.1017E+01
     -0.894  0.3702E-01  0.1019E+01
     -0.840  0.2718E-01  0.1020E+01
     -0.786  0.1959E-01  0.1021E+01
     -0.731  0.1632E-01  0.1022E+01
     -0.677  0.1704E-01  0.1023E+01
     -0.623  0.2130E-01  0.1024E+01
     -0.569  0.2765E-01  0.1026E+01
     -0.514  0.3469E-01  0.1027E+01
     -0.460  0.4335E-01  0.1030E+01
     -0.406  0.5121E-01  0.1033E+01
     -0.351  0.5297E-01  0.1035E+01
     -0.297  0.5105E-01  0.1038E+01
     -0.243  0.4698E-01  0.1041E+01
     -0.188  0.3608E-01  0.1043E+01
     -0.134  0.2270E-01  0.1044E+01
     -0.080  0.1698E-01  0.1045E+01
     -0.025  0.1835E-01  0.1046E+01
      0.029  0.1953E-01  0.1047E+01
      0.083  0.1939E-01  0.1048E+01
      0.138  0.2206E-01  0.1049E+01
      0.192  0.2660E-01  0.1051E+01
      0.246  0.2980E-01  0.1052E+01
      0.301  0.3426E-01  0.1054E+01
      0.355  0.3998E-01  0.1056E+01
      0.409  0.4294E-01  0.1059E+01
      0.464  0.4366E-01  0.1061E+01
      0.518  0.4504E-01  0.1063E+01
      0.572  0.4750E-01  0.1066E+01
      0.627  0.4968E-01  0.1069E+01
      0.681  0.5076E-01  0.1071E+01
      0.735  0.5030E-01  0.1074E+01
      0.789  0.4642E-01  0.1077E+01
      0.844  0.3568E-01  0.1079E+01
      0.898  0.2185E-01  0.1080E+01
      0.952  0.1449E-01  0.1081E+01
      1.007  0.1379E-01  0.1081E+01
      1.061  0.1446E-01  0.1082E+01
      1.115  0.1601E-01  0.1083E+01
      1.170  0.1774E-01  0.1084E+01
      1.224  0.1797E-01  0.1085E+01
      1.278  0.1764E-01  0.1086E+01
      1.333  0.1776E-01  0.1087E+01
      1.387  0.1791E-01  0.1088E+01
      1.441  0.1874E-01  0.1089E+01
      1.496  0.2235E-01  0.1090E+01
      1.550  0.2710E-01  0.1092E+01
      1.604  0.3069E-01  0.1093E+01
      1.659  0.3358E-01  0.1095E+01
      1.713  0.3410E-01  0.1097E+01
      1.767  0.3116E-01  0.1099E+01
      1.822  0.2720E-01  0.1100E+01
      1.876  0.2328E-01  0.1101E+01
      1.930  0.2036E-01  0.1102E+01
      1.985  0.2080E-01  0.1104E+01
      2.039  0.2401E-01  0.1105E+01
      2.093  0.2784E-01  0.1106E+01
      2.148  0.3217E-01  0.1108E+01
      2.202  0.3748E-01  0.1110E+01
      2.256  0.4307E-01  0.1113E+01
      2.310  0.4944E-01  0.1115E+01
      2.365  0.5534E-01  0.1118E+01
      2.419  0.5765E-01  0.1121E+01
      2.473  0.5481E-01  0.1124E+01
      2.528  0.4619E-01  0.1127E+01
      2.582  0.3684E-01  0.1129E+01
      2.636  0.3492E-01  0.1131E+01
      2.691  0.3929E-01  0.1133E+01
      2.745  0.4038E-01  0.1135E+01
      2.799  0.3141E-01  0.1137E+01
      2.854  0.1712E-01  0.1138E+01
      2.908  0.8587E-02  0.1138E+01
      2.962  0.8811E-02  0.1139E+01
      3.017  0.1102E-01  0.1139E+01
      3.071  0.9652E-02  0.1140E+01
      3.125  0.8295E-02  0.1140E+01
      3.180  0.1249E-01  0.1141E+01
      3.234  0.1909E-01  0.1142E+01
      3.288  0.2131E-01  0.1143E+01
      3.343  0.2081E-01  0.1144E+01
      3.397  0.2308E-01  0.1145E+01
      3.451  0.2701E-01  0.1147E+01
      3.506  0.2953E-01  0.1149E+01
      3.560  0.3196E-01  0.1150E+01
      3.614  0.3532E-01  0.1152E+01
      3.668  0.3735E-01  0.1154E+01
      3.723  0.3748E-01  0.1156E+01
      3.777  0.3624E-01  0.1158E+01
      3.831  0.3191E-01  0.1160E+01
      3.886  0.2558E-01  0.1161E+01
      3.940  0.2359E-01  0.1163E+01
      3.994  0.2856E-01  0.1164E+01
      4.049  0.3210E-01  0.1166E+01
      4.103  0.2815E-01  0.1167E+01
      4.157  0.2285E-01  0.1169E+01
      4.212  0.2105E-01  0.1170E+01
      4.266  0.1958E-01  0.1171E+01
      4.320  0.1704E-01  0.1172E+01
      4.375  0.1727E-01  0.1173E+01
      4.429  0.2208E-01  0.1174E+01
      4.483  0.2940E-01  0.1176E+01
      4.538  0.3791E-01  0.1178E+01
      4.592  0.4606E-01  0.1180E+01
      4.646  0.4907E-01  0.1183E+01
      4.701  0.4490E-01  0.1185E+01
      4.755  0.4084E-01  0.1187E+01
      4.809  0.4489E-01  0.1190E+01
      4.864  0.5459E-01  0.1193E+01
      4.918  0.6040E-01  0.1196E+01
      4.972  0.6114E-01  0.1199E+01
      5.026  0.6488E-01  0.1203E+01
      5.081  0.7139E-01  0.1207E+01
      5.135  0.7141E-01  0.1211E+01
      5.189  0.6481E-01  0.1214E+01
      5.244  0.5768E-01  0.1217E+01
      5.298  0.4869E-01  0.1220E+01
      5.352  0.3501E-01  0.1222E+01
      5.407  0.2069E-01  0.1223E+01
      5.461  0.1057E-01  0.1224E+01
      5.515  0.4704E-02  0.1224E+01
      5.570  0.1616E-02  0.1224E+01
      5.624  0.3699E-03  0.1224E+01
      5.678  0.5156E-04  0.1224E+01
      5.733  0.4194E-05  0.1224E+01
      5.787  0.1952E-06  0.1224E+01
      5.841  0.5149E-08  0.1224E+01
      5.896  0.7655E-10  0.1224E+01
      5.950  0.6395E-12  0.1224E+01
      6.004  0.2994E-14  0.1224E+01
      6.059  0.8175E-17  0.1224E+01
      6.113  0.0000E+00  0.1224E+01
      6.167  0.0000E+00  0.1224E+01
      6.222  0.0000E+00  0.1224E+01
      6.276  0.0000E+00  0.1224E+01
      6.330  0.0000E+00  0.1224E+01
      6.385  0.0000E+00  0.1224E+01
      6.439  0.0000E+00  0.1224E+01
