       N       E                     dE             d eps       ncg     rms          rms(c)
DAV:   1     0.320199572933E+04    0.32020E+04   -0.18978E+05  3672   0.112E+03
DAV:   2     0.170776619574E+02   -0.31849E+04   -0.29332E+04  4380   0.263E+02
DAV:   3    -0.199179915601E+03   -0.21626E+03   -0.20087E+03  4164   0.651E+01
DAV:   4    -0.204941427943E+03   -0.57615E+01   -0.56945E+01  4272   0.107E+01
DAV:   5    -0.205116356551E+03   -0.17493E+00   -0.17448E+00  4452   0.192E+00    0.625E+01
RMM:   6    -0.197450452583E+03    0.76659E+01   -0.84539E+01  3678   0.148E+01    0.517E+01
RMM:   7    -0.217336967165E+03   -0.19887E+02   -0.58183E+01  3684   0.123E+01    0.467E+01
RMM:   8    -0.220707052921E+03   -0.33701E+01   -0.90244E+01  3677   0.141E+01    0.416E+01
RMM:   9    -0.209688404912E+03    0.11019E+02   -0.43723E+01  3679   0.104E+01    0.345E+01
RMM:  10    -0.196138508509E+03    0.13550E+02   -0.16447E+01  3684   0.687E+00    0.186E+01
RMM:  11    -0.191153995941E+03    0.49845E+01   -0.10233E+01  3679   0.499E+00    0.124E+01
RMM:  12    -0.189139339414E+03    0.20147E+01   -0.48271E+00  3679   0.336E+00    0.844E+00
RMM:  13    -0.188961028065E+03    0.17831E+00   -0.15183E+00  3684   0.193E+00    0.645E+00
RMM:  14    -0.189009587127E+03   -0.48559E-01   -0.65237E-01  3679   0.127E+00    0.594E+00
RMM:  15    -0.188886419687E+03    0.12317E+00   -0.25993E-01  3684   0.795E-01    0.526E+00
RMM:  16    -0.188664551397E+03    0.22187E+00   -0.18849E-01  3679   0.678E-01    0.357E+00
RMM:  17    -0.188585269430E+03    0.79282E-01   -0.14609E-01  3683   0.579E-01    0.269E+00
RMM:  18    -0.188502250038E+03    0.83019E-01   -0.61249E-02  3679   0.369E-01    0.117E+00
RMM:  19    -0.188487335652E+03    0.14914E-01   -0.20052E-02  3679   0.208E-01    0.798E-01
RMM:  20    -0.188482566091E+03    0.47696E-02   -0.43898E-03  3684   0.955E-02    0.543E-01
RMM:  21    -0.188480085941E+03    0.24802E-02   -0.25873E-03  3681   0.735E-02    0.400E-01
RMM:  22    -0.188478175974E+03    0.19100E-02   -0.33479E-03  3680   0.824E-02    0.242E-01
RMM:  23    -0.188477961204E+03    0.21477E-03   -0.84459E-04  3685   0.449E-02    0.149E-01
RMM:  24    -0.188477797986E+03    0.16322E-03   -0.59667E-04  3681   0.347E-02    0.616E-02
RMM:  25    -0.188478097452E+03   -0.29947E-03   -0.16072E-04  3681   0.172E-02    0.551E-02
RMM:  26    -0.188478511387E+03   -0.41394E-03   -0.10080E-04  3679   0.134E-02    0.555E-02
RMM:  27    -0.188479078380E+03   -0.56699E-03   -0.55559E-05  3674   0.110E-02    0.307E-02
RMM:  28    -0.188479457869E+03   -0.37949E-03   -0.32862E-05  3672   0.851E-03    0.162E-02
RMM:  29    -0.188480443484E+03   -0.98561E-03   -0.57543E-05  3672   0.998E-03    0.168E-02
RMM:  30    -0.188480903334E+03   -0.45985E-03   -0.32166E-05  3573   0.745E-03    0.150E-02
RMM:  31    -0.188481157022E+03   -0.25369E-03   -0.16878E-05  3071   0.499E-03    0.694E-03
RMM:  32    -0.188481266641E+03   -0.10962E-03   -0.47889E-06  2654   0.276E-03    0.624E-03
RMM:  33    -0.188481367710E+03   -0.10107E-03   -0.28214E-06  2426   0.226E-03    0.306E-03
RMM:  34    -0.188481418964E+03   -0.51255E-04   -0.98534E-07  2157   0.140E-03    0.295E-03
RMM:  35    -0.188481468904E+03   -0.49939E-04   -0.85059E-07  2152   0.128E-03    0.188E-03
RMM:  36    -0.188481496692E+03   -0.27789E-04   -0.56288E-07  2138   0.106E-03    0.141E-03
RMM:  37    -0.188481510342E+03   -0.13650E-04   -0.37677E-07  2032   0.853E-04    0.111E-03
RMM:  38    -0.188481515062E+03   -0.47201E-05   -0.16073E-07  1316   0.524E-04    0.692E-04
RMM:  39    -0.188481516452E+03   -0.13896E-05   -0.52545E-08  1050   0.426E-04    0.449E-04
RMM:  40    -0.188481517743E+03   -0.12915E-05   -0.46115E-08  1037   0.405E-04    0.306E-04
RMM:  41    -0.188481518573E+03   -0.82968E-06   -0.33821E-08   846   0.347E-04
   1 F= -.18848152E+03 E0= -.18837793E+03  d E =-.188482E+03
       N       E                     dE             d eps       ncg     rms          rms(c)
DAV:   1    -0.189549205476E+03   -0.10677E+01   -0.36007E+02  3672   0.291E+01    0.358E+00
RMM:   2    -0.189918130320E+03   -0.36892E+00   -0.38370E+00  3682   0.422E+00    0.205E+00
RMM:   3    -0.189959145363E+03   -0.41015E-01   -0.26630E-01  3703   0.916E-01    0.274E+00
RMM:   4    -0.189914795831E+03    0.44350E-01   -0.10276E-01  3687   0.539E-01    0.151E+00
RMM:   5    -0.190001028402E+03   -0.86233E-01   -0.83617E-02  3686   0.425E-01    0.306E+00
RMM:   6    -0.189899279340E+03    0.10175E+00   -0.53152E-02  3684   0.356E-01    0.748E-01
RMM:   7    -0.189896009639E+03    0.32697E-02   -0.12437E-02  3681   0.179E-01    0.536E-01
RMM:   8    -0.189893243870E+03    0.27658E-02   -0.43585E-03  3685   0.104E-01    0.231E-01
RMM:   9    -0.189892785546E+03    0.45832E-03   -0.14802E-03  3686   0.610E-02    0.129E-01
RMM:  10    -0.189892666168E+03    0.11938E-03   -0.48064E-04  3686   0.343E-02    0.920E-02
RMM:  11    -0.189892597595E+03    0.68573E-04   -0.11359E-04  3686   0.172E-02    0.418E-02
RMM:  12    -0.189892600907E+03   -0.33123E-05   -0.38553E-05  3677   0.990E-03    0.353E-02
RMM:  13    -0.189892590848E+03    0.10059E-04   -0.20420E-05  3671   0.746E-03    0.124E-02
RMM:  14    -0.189892591767E+03   -0.91895E-06   -0.51684E-06  2909   0.371E-03
   2 F= -.18989259E+03 E0= -.18979227E+03  d E =-.141107E+01
       N       E                     dE             d eps       ncg     rms          rms(c)
DAV:   1    -0.188729445842E+03    0.11631E+01   -0.33742E+03  3672   0.914E+01    0.859E+00
RMM:   2    -0.191937548919E+03   -0.32081E+01   -0.33427E+01  3682   0.126E+01    0.498E+00
RMM:   3    -0.192310778906E+03   -0.37323E+00   -0.17600E+00  3707   0.233E+00    0.738E+00
RMM:   4    -0.191934720968E+03    0.37606E+00   -0.51785E-01  3678   0.115E+00    0.475E+00
RMM:   5    -0.191983051394E+03   -0.48330E-01   -0.51827E-01  3685   0.112E+00    0.485E+00
RMM:   6    -0.191759272033E+03    0.22378E+00   -0.37442E-01  3681   0.990E-01    0.182E+00
RMM:   7    -0.191730416029E+03    0.28856E-01   -0.10098E-01  3680   0.514E-01    0.135E+00
RMM:   8    -0.191709550973E+03    0.20865E-01   -0.35265E-02  3683   0.295E-01    0.628E-01
RMM:   9    -0.191706554981E+03    0.29960E-02   -0.10449E-02  3681   0.162E-01    0.413E-01
RMM:  10    -0.191705051995E+03    0.15030E-02   -0.38390E-03  3686   0.962E-02    0.221E-01
RMM:  11    -0.191704972790E+03    0.79205E-04   -0.12602E-03  3685   0.568E-02    0.176E-01
RMM:  12    -0.191704721817E+03    0.25097E-03   -0.55200E-04  3682   0.381E-02    0.745E-02
RMM:  13    -0.191704711214E+03    0.10603E-04   -0.15264E-04  3683   0.202E-02    0.422E-02
RMM:  14    -0.191704704086E+03    0.71287E-05   -0.45845E-05  3677   0.108E-02    0.178E-02
RMM:  15    -0.191704717596E+03   -0.13510E-04   -0.10910E-05  3672   0.523E-03    0.109E-02
RMM:  16    -0.191704724283E+03   -0.66874E-05   -0.28288E-06  2508   0.275E-03    0.670E-03
RMM:  17    -0.191704736548E+03   -0.12265E-04   -0.10369E-06  2133   0.174E-03    0.345E-03
RMM:  18    -0.191704744570E+03   -0.80215E-05   -0.51079E-07  2093   0.119E-03    0.178E-03
RMM:  19    -0.191704753185E+03   -0.86155E-05   -0.25787E-07  1742   0.724E-04    0.127E-03
RMM:  20    -0.191704762031E+03   -0.88461E-05   -0.27315E-07  1839   0.663E-04    0.145E-03
RMM:  21    -0.191704774459E+03   -0.12427E-04   -0.52193E-07  1806   0.758E-04    0.874E-04
RMM:  22    -0.191704781710E+03   -0.72509E-05   -0.46145E-07  1836   0.693E-04    0.822E-04
RMM:  23    -0.191704784208E+03   -0.24982E-05   -0.22012E-07  1408   0.505E-04    0.485E-04
RMM:  24    -0.191704785750E+03   -0.15420E-05   -0.11480E-07  1127   0.423E-04    0.371E-04
RMM:  25    -0.191704786399E+03   -0.64872E-06   -0.59851E-08   869   0.385E-04
   3 F= -.19170479E+03 E0= -.19161188E+03  d E =-.322327E+01
       N       E                     dE             d eps       ncg     rms          rms(c)
DAV:   1    -0.191685358882E+03    0.19427E-01   -0.51011E+01  3732   0.109E+01    0.932E-01
RMM:   2    -0.191739516552E+03   -0.54158E-01   -0.56181E-01  3683   0.162E+00    0.580E-01
RMM:   3    -0.191746625100E+03   -0.71085E-02   -0.35664E-02  3716   0.339E-01    0.990E-01
RMM:   4    -0.191739629168E+03    0.69959E-02   -0.87483E-03  3686   0.154E-01    0.607E-01
RMM:   5    -0.191738642533E+03    0.98664E-03   -0.51870E-03  3683   0.112E-01    0.539E-01
RMM:   6    -0.191736282883E+03    0.23597E-02   -0.68017E-03  3684   0.131E-01    0.179E-01
RMM:   7    -0.191736234318E+03    0.48565E-04   -0.15087E-03  3682   0.620E-02    0.178E-01
RMM:   8    -0.191735859336E+03    0.37498E-03   -0.55058E-04  3681   0.375E-02    0.893E-02
RMM:   9    -0.191735792232E+03    0.67105E-04   -0.19070E-04  3683   0.217E-02    0.510E-02
RMM:  10    -0.191735763381E+03    0.28850E-04   -0.78999E-05  3684   0.135E-02    0.232E-02
RMM:  11    -0.191735759818E+03    0.35636E-05   -0.13912E-05  3671   0.591E-03    0.121E-02
RMM:  12    -0.191735760872E+03   -0.10545E-05   -0.40078E-06  2801   0.330E-03    0.106E-02
RMM:  13    -0.191735760289E+03    0.58311E-06   -0.19311E-06  2142   0.252E-03
   4 F= -.19173576E+03 E0= -.19164339E+03  d E =-.325424E+01
       N       E                     dE             d eps       ncg     rms          rms(c)
DAV:   1    -0.191810527079E+03   -0.74766E-01   -0.24771E+02  3672   0.244E+01    0.203E+00
RMM:   2    -0.192070961903E+03   -0.26043E+00   -0.27944E+00  3685   0.354E+00    0.120E+00
RMM:   3    -0.192108442894E+03   -0.37481E-01   -0.16240E-01  3701   0.704E-01    0.213E+00
RMM:   4    -0.192074222493E+03    0.34220E-01   -0.41189E-02  3687   0.334E-01    0.127E+00
RMM:   5    -0.192068675920E+03    0.55466E-02   -0.22080E-02  3684   0.231E-01    0.104E+00
RMM:   6    -0.192060197170E+03    0.84788E-02   -0.29063E-02  3683   0.270E-01    0.439E-01
RMM:   7    -0.192058987898E+03    0.12093E-02   -0.76692E-03  3682   0.139E-01    0.316E-01
RMM:   8    -0.192057536550E+03    0.14513E-02   -0.22906E-03  3683   0.768E-02    0.157E-01
RMM:   9    -0.192057289191E+03    0.24736E-03   -0.55349E-04  3682   0.371E-02    0.819E-02
RMM:  10    -0.192057235283E+03    0.53908E-04   -0.21068E-04  3683   0.222E-02    0.524E-02
RMM:  11    -0.192057207235E+03    0.28048E-04   -0.63846E-05  3683   0.126E-02    0.211E-02
RMM:  12    -0.192057209636E+03   -0.24009E-05   -0.22787E-05  3680   0.744E-03    0.168E-02
RMM:  13    -0.192057207933E+03    0.17034E-05   -0.59248E-06  2960   0.411E-03    0.720E-03
RMM:  14    -0.192057208784E+03   -0.85114E-06   -0.16655E-06  2080   0.221E-03
   5 F= -.19205721E+03 E0= -.19196611E+03  d E =-.321448E+00
       N       E                     dE             d eps       ncg     rms          rms(c)
DAV:   1    -0.192057270500E+03   -0.62567E-04   -0.44327E+00  3744   0.325E+00    0.250E-01
RMM:   2    -0.192061954107E+03   -0.46836E-02   -0.50546E-02  3685   0.476E-01    0.157E-01
RMM:   3    -0.192062795478E+03   -0.84137E-03   -0.30586E-03  3702   0.963E-02    0.300E-01
RMM:   4    -0.192061978871E+03    0.81661E-03   -0.75176E-04  3687   0.448E-02    0.169E-01
RMM:   5    -0.192061825484E+03    0.15339E-03   -0.32606E-04  3684   0.288E-02    0.112E-01
RMM:   6    -0.192061765786E+03    0.59698E-04   -0.55851E-04  3683   0.372E-02    0.620E-02
RMM:   7    -0.192061739183E+03    0.26603E-04   -0.14907E-04  3682   0.193E-02    0.406E-02
RMM:   8    -0.192061714219E+03    0.24965E-04   -0.39067E-05  3682   0.101E-02    0.177E-02
RMM:   9    -0.192061710917E+03    0.33018E-05   -0.95380E-06  3670   0.485E-03    0.104E-02
RMM:  10    -0.192061710153E+03    0.76380E-06   -0.36328E-06  2425   0.301E-03
   6 F= -.19206171E+03 E0= -.19197080E+03  d E =-.325950E+00
       N       E                     dE             d eps       ncg     rms          rms(c)
DAV:   1    -0.192069356548E+03   -0.76456E-02   -0.29349E+01  3672   0.833E+00    0.664E-01
RMM:   2    -0.192099458629E+03   -0.30102E-01   -0.31609E-01  3686   0.120E+00    0.428E-01
RMM:   3    -0.192104620479E+03   -0.51618E-02   -0.18377E-02  3701   0.238E-01    0.744E-01
RMM:   4    -0.192100032384E+03    0.45881E-02   -0.53481E-03  3687   0.117E-01    0.473E-01
RMM:   5    -0.192098857719E+03    0.11747E-02   -0.34729E-03  3681   0.928E-02    0.343E-01
RMM:   6    -0.192098253108E+03    0.60461E-03   -0.33931E-03  3684   0.940E-02    0.210E-01
RMM:   7    -0.192097858203E+03    0.39491E-03   -0.10599E-03  3681   0.518E-02    0.907E-02
RMM:   8    -0.192097745726E+03    0.11248E-03   -0.23154E-04  3682   0.248E-02    0.513E-02
RMM:   9    -0.192097713130E+03    0.32596E-04   -0.76422E-05  3681   0.138E-02    0.284E-02
RMM:  10    -0.192097706093E+03    0.70369E-05   -0.28763E-05  3681   0.828E-03    0.208E-02
RMM:  11    -0.192097701847E+03    0.42463E-05   -0.93815E-06  3672   0.479E-03    0.778E-03
RMM:  12    -0.192097702252E+03   -0.40510E-06   -0.32684E-06  2251   0.300E-03
   7 F= -.19209770E+03 E0= -.19200696E+03  d E =-.359921E-01
       N       E                     dE             d eps       ncg     rms          rms(c)
DAV:   1    -0.192097705034E+03   -0.31870E-05   -0.56867E-01  3744   0.116E+00    0.896E-02
RMM:   2    -0.192098282167E+03   -0.57713E-03   -0.61125E-03  3685   0.168E-01    0.593E-02
RMM:   3    -0.192098356962E+03   -0.74795E-04   -0.35180E-04  3702   0.331E-02    0.946E-02
RMM:   4    -0.192098292081E+03    0.64881E-04   -0.97683E-05  3687   0.160E-02    0.677E-02
RMM:   5    -0.192098268408E+03    0.23672E-04   -0.62222E-05  3684   0.124E-02    0.485E-02
RMM:   6    -0.192098256254E+03    0.12154E-04   -0.68886E-05  3681   0.133E-02    0.293E-02
RMM:   7    -0.192098248642E+03    0.76124E-05   -0.21350E-05  3675   0.737E-03    0.131E-02
RMM:   8    -0.192098246813E+03    0.18285E-05   -0.44550E-06  2897   0.354E-03    0.800E-03
RMM:   9    -0.192098246115E+03    0.69807E-06   -0.16976E-06  2043   0.224E-03
   8 F= -.19209825E+03 E0= -.19200753E+03  d E =-.365360E-01
       N       E                     dE             d eps       ncg     rms          rms(c)
DAV:   1    -0.192100626540E+03   -0.23797E-02   -0.58109E+00  3672   0.368E+00    0.234E-01
RMM:   2    -0.192106531583E+03   -0.59050E-02   -0.62226E-02  3685   0.534E-01    0.173E-01
RMM:   3    -0.192107268281E+03   -0.73670E-03   -0.34721E-03  3717   0.105E-01    0.293E-01
RMM:   4    -0.192106459009E+03    0.80927E-03   -0.70985E-04  3680   0.439E-02    0.152E-01
RMM:   5    -0.192106426253E+03    0.32756E-04   -0.57027E-04  3682   0.375E-02    0.154E-01
RMM:   6    -0.192106275913E+03    0.15034E-03   -0.70799E-04  3684   0.419E-02    0.960E-02
RMM:   7    -0.192106227911E+03    0.48002E-04   -0.26750E-04  3685   0.261E-02    0.501E-02
RMM:   8    -0.192106197035E+03    0.30876E-04   -0.46779E-05  3683   0.113E-02    0.242E-02
RMM:   9    -0.192106186605E+03    0.10430E-04   -0.25809E-05  3675   0.791E-03    0.164E-02
RMM:  10    -0.192106182142E+03    0.44631E-05   -0.11585E-05  3672   0.514E-03    0.713E-03
RMM:  11    -0.192106181817E+03    0.32483E-06   -0.29072E-06  2128   0.277E-03
   9 F= -.19210618E+03 E0= -.19201553E+03  d E =-.793570E-02
       N       E                     dE             d eps       ncg     rms          rms(c)
DAV:   1    -0.192105898556E+03    0.28359E-03   -0.11932E+00  3672   0.167E+00    0.105E-01
RMM:   2    -0.192107107132E+03   -0.12086E-02   -0.12776E-02  3685   0.242E-01    0.779E-02
RMM:   3    -0.192107251887E+03   -0.14475E-03   -0.70753E-04  3718   0.476E-02    0.131E-01
RMM:   4    -0.192107085378E+03    0.16651E-03   -0.14070E-04  3681   0.196E-02    0.682E-02
RMM:   5    -0.192107078576E+03    0.68025E-05   -0.11259E-04  3682   0.167E-02    0.673E-02
RMM:   6    -0.192107051130E+03    0.27445E-04   -0.15064E-04  3683   0.194E-02    0.424E-02
RMM:   7    -0.192107043598E+03    0.75327E-05   -0.52697E-05  3682   0.116E-02    0.247E-02
RMM:   8    -0.192107036892E+03    0.67057E-05   -0.10277E-05  3612   0.529E-03    0.122E-02
RMM:   9    -0.192107034642E+03    0.22500E-05   -0.51912E-06  3256   0.361E-03    0.896E-03
RMM:  10    -0.192107033461E+03    0.11813E-05   -0.25166E-06  2071   0.263E-03    0.444E-03
RMM:  11    -0.192107033317E+03    0.14307E-06   -0.11992E-06  1934   0.199E-03
  10 F= -.19210703E+03 E0= -.19201638E+03  d E =-.878720E-02
       N       E                     dE             d eps       ncg     rms          rms(c)
DAV:   1    -0.192108159886E+03   -0.11264E-02   -0.45082E+00  3672   0.323E+00    0.179E-01
RMM:   2    -0.192112744920E+03   -0.45850E-02   -0.47571E-02  3683   0.473E-01    0.168E-01
RMM:   3    -0.192112833137E+03   -0.88217E-04   -0.26997E-03  3786   0.945E-02    0.166E-01
RMM:   4    -0.192112770718E+03    0.62418E-04   -0.41000E-04  3674   0.337E-02    0.165E-01
RMM:   5    -0.192112702808E+03    0.67911E-04   -0.36102E-04  3685   0.290E-02    0.163E-01
RMM:   6    -0.192112488506E+03    0.21430E-03   -0.66355E-04  3681   0.401E-02    0.950E-02
RMM:   7    -0.192112472512E+03    0.15993E-04   -0.36763E-04  3685   0.301E-02    0.616E-02
RMM:   8    -0.192112443813E+03    0.28699E-04   -0.58018E-05  3684   0.124E-02    0.339E-02
RMM:   9    -0.192112432414E+03    0.11400E-04   -0.18823E-05  3672   0.695E-03    0.278E-02
RMM:  10    -0.192112420034E+03    0.12380E-04   -0.21088E-05  3680   0.697E-03    0.135E-02
RMM:  11    -0.192112417671E+03    0.23630E-05   -0.11779E-05  3672   0.515E-03    0.713E-03
RMM:  12    -0.192112417296E+03    0.37436E-06   -0.46910E-06  2984   0.330E-03
  11 F= -.19211242E+03 E0= -.19202170E+03  d E =-.538398E-02
       N       E                     dE             d eps       ncg     rms          rms(c)
DAV:   1    -0.192109775472E+03    0.26422E-02   -0.60005E+00  3672   0.372E+00    0.205E-01
RMM:   2    -0.192115874839E+03   -0.60994E-02   -0.63211E-02  3683   0.545E-01    0.193E-01
RMM:   3    -0.192115983193E+03   -0.10835E-03   -0.35695E-03  3786   0.109E-01    0.189E-01
RMM:   4    -0.192115904414E+03    0.78779E-04   -0.53360E-04  3673   0.385E-02    0.189E-01
RMM:   5    -0.192115817501E+03    0.86913E-04   -0.47155E-04  3685   0.331E-02    0.188E-01
RMM:   6    -0.192115528887E+03    0.28861E-03   -0.88784E-04  3681   0.464E-02    0.110E-01
RMM:   7    -0.192115506838E+03    0.22050E-04   -0.49505E-04  3685   0.349E-02    0.711E-02
RMM:   8    -0.192115468514E+03    0.38324E-04   -0.77315E-05  3687   0.144E-02    0.391E-02
RMM:   9    -0.192115453145E+03    0.15369E-04   -0.25390E-05  3672   0.805E-03    0.325E-02
RMM:  10    -0.192115436588E+03    0.16557E-04   -0.27973E-05  3683   0.802E-03    0.155E-02
RMM:  11    -0.192115433581E+03    0.30071E-05   -0.16131E-05  3672   0.602E-03    0.822E-03
RMM:  12    -0.192115433118E+03    0.46335E-06   -0.65506E-06  3570   0.381E-03
  12 F= -.19211543E+03 E0= -.19202461E+03  d E =-.839980E-02
       N       E                     dE             d eps       ncg     rms          rms(c)
DAV:   1    -0.192114959412E+03    0.47417E-03   -0.77008E-01  3720   0.133E+00    0.727E-02
RMM:   2    -0.192115735335E+03   -0.77592E-03   -0.81041E-03  3683   0.195E-01    0.693E-02
RMM:   3    -0.192115744963E+03   -0.96280E-05   -0.45703E-04  3794   0.389E-02    0.674E-02
RMM:   4    -0.192115734416E+03    0.10547E-04   -0.66260E-05  3673   0.136E-02    0.675E-02
RMM:   5    -0.192115724156E+03    0.10260E-04   -0.59674E-05  3676   0.118E-02    0.669E-02
RMM:   6    -0.192115689891E+03    0.34264E-04   -0.11680E-04  3682   0.168E-02    0.398E-02
RMM:   7    -0.192115688024E+03    0.18675E-05   -0.66061E-05  3680   0.128E-02    0.260E-02
RMM:   8    -0.192115683012E+03    0.50117E-05   -0.10187E-05  3565   0.523E-03    0.141E-02
RMM:   9    -0.192115681008E+03    0.20046E-05   -0.31239E-06  2409   0.293E-03    0.121E-02
RMM:  10    -0.192115678772E+03    0.22354E-05   -0.37509E-06  2446   0.326E-03    0.581E-03
RMM:  11    -0.192115678422E+03    0.35024E-06   -0.25793E-06  1946   0.275E-03
  13 F= -.19211568E+03 E0= -.19202480E+03  d E =-.864510E-02
       N       E                     dE             d eps       ncg     rms          rms(c)
DAV:   1    -0.192112726797E+03    0.29520E-02   -0.62138E+00  3672   0.382E+00    0.198E-01
RMM:   2    -0.192119297505E+03   -0.65707E-02   -0.67690E-02  3684   0.561E-01    0.213E-01
RMM:   3    -0.192119557015E+03   -0.25951E-03   -0.41104E-03  3748   0.114E-01    0.237E-01
RMM:   4    -0.192119150444E+03    0.40657E-03   -0.54713E-04  3675   0.392E-02    0.167E-01
RMM:   5    -0.192118988792E+03    0.16165E-03   -0.28487E-04  3685   0.269E-02    0.143E-01
RMM:   6    -0.192118866655E+03    0.12214E-03   -0.80477E-04  3680   0.438E-02    0.122E-01
RMM:   7    -0.192118799031E+03    0.67624E-04   -0.66965E-04  3686   0.402E-02    0.653E-02
RMM:   8    -0.192118786361E+03    0.12670E-04   -0.10057E-04  3686   0.162E-02    0.441E-02
RMM:   9    -0.192118769909E+03    0.16452E-04   -0.21973E-05  3673   0.763E-03    0.344E-02
RMM:  10    -0.192118750736E+03    0.19173E-04   -0.30635E-05  3685   0.840E-03    0.193E-02
RMM:  11    -0.192118745440E+03    0.52961E-05   -0.17224E-05  3672   0.622E-03    0.974E-03
RMM:  12    -0.192118744537E+03    0.90219E-06   -0.12884E-05  3672   0.525E-03    0.346E-03
RMM:  13    -0.192118744678E+03   -0.14050E-06   -0.85643E-07  1950   0.163E-03
  14 F= -.19211874E+03 E0= -.19202759E+03  d E =-.306626E-02
       N       E                     dE             d eps       ncg     rms          rms(c)
DAV:   1    -0.192118700953E+03    0.43584E-04   -0.89926E-02  3792   0.460E-01    0.234E-02
RMM:   2    -0.192118794024E+03   -0.93071E-04   -0.97150E-04  3685   0.675E-02    0.263E-02
RMM:   3    -0.192118796073E+03   -0.20492E-05   -0.58713E-05  3751   0.137E-02    0.281E-02
RMM:   4    -0.192118790142E+03    0.59309E-05   -0.72779E-06  3560   0.455E-03    0.199E-02
RMM:   5    -0.192118788365E+03    0.17776E-05   -0.36961E-06  2663   0.316E-03    0.174E-02
RMM:   6    -0.192118787216E+03    0.11485E-05   -0.13037E-05  3672   0.569E-03    0.153E-02
RMM:   7    -0.192118786365E+03    0.85157E-06   -0.10867E-05  3672   0.512E-03    0.814E-03
RMM:   8    -0.192118786262E+03    0.10237E-06   -0.13402E-06  1978   0.200E-03
  15 F= -.19211879E+03 E0= -.19202760E+03  d E =-.310784E-02
       N       E                     dE             d eps       ncg     rms          rms(c)
DAV:   1    -0.192116867624E+03    0.19187E-02   -0.38264E+00  3672   0.302E+00    0.151E-01
RMM:   2    -0.192121060630E+03   -0.41930E-02   -0.42606E-02  3682   0.443E-01    0.178E-01
RMM:   3    -0.192121232068E+03   -0.17144E-03   -0.27641E-03  3734   0.923E-02    0.201E-01
RMM:   4    -0.192120898061E+03    0.33401E-03   -0.36689E-04  3676   0.320E-02    0.128E-01
RMM:   5    -0.192120775651E+03    0.12241E-03   -0.96737E-05  3686   0.164E-02    0.885E-02
RMM:   6    -0.192120746787E+03    0.28864E-04   -0.34119E-04  3679   0.286E-02    0.953E-02
RMM:   7    -0.192120688645E+03    0.58142E-04   -0.46048E-04  3685   0.330E-02    0.418E-02
RMM:   8    -0.192120695370E+03   -0.67243E-05   -0.66459E-05  3684   0.130E-02    0.348E-02
RMM:   9    -0.192120685758E+03    0.96112E-05   -0.11692E-05  3664   0.567E-03    0.236E-02
RMM:  10    -0.192120678000E+03    0.77583E-05   -0.11939E-05  3672   0.529E-03    0.155E-02
RMM:  11    -0.192120674747E+03    0.32534E-05   -0.91029E-06  3672   0.453E-03    0.742E-03
RMM:  12    -0.192120674455E+03    0.29125E-06   -0.67299E-06  3626   0.384E-03
  16 F= -.19212067E+03 E0= -.19202935E+03  d E =-.188819E-02
       N       E                     dE             d eps       ncg     rms          rms(c)
DAV:   1    -0.192120537328E+03    0.13742E-03   -0.23248E-01  3684   0.744E-01    0.367E-02
RMM:   2    -0.192120788960E+03   -0.25163E-03   -0.25681E-03  3681   0.109E-01    0.448E-02
RMM:   3    -0.192120793303E+03   -0.43436E-05   -0.16524E-04  3739   0.226E-02    0.472E-02
RMM:   4    -0.192120775169E+03    0.18134E-04   -0.20519E-05  3676   0.762E-03    0.315E-02
RMM:   5    -0.192120768869E+03    0.62999E-05   -0.51154E-06  2913   0.386E-03    0.227E-02
RMM:   6    -0.192120769024E+03   -0.15519E-06   -0.23047E-05  3674   0.751E-03    0.251E-02
RMM:   7    -0.192120765841E+03    0.31833E-05   -0.31711E-05  3675   0.865E-03    0.105E-02
RMM:   8    -0.192120766442E+03   -0.60057E-06   -0.38285E-06  2732   0.322E-03
  17 F= -.19212077E+03 E0= -.19202938E+03  d E =-.198018E-02
       N       E                     dE             d eps       ncg     rms          rms(c)
DAV:   1    -0.192118859519E+03    0.19063E-02   -0.33726E+00  3672   0.283E+00    0.143E-01
RMM:   2    -0.192122568978E+03   -0.37095E-02   -0.37979E-02  3680   0.417E-01    0.161E-01
RMM:   3    -0.192122576221E+03   -0.72433E-05   -0.24319E-03  3731   0.869E-02    0.150E-01
RMM:   4    -0.192122435585E+03    0.14064E-03   -0.27344E-04  3678   0.285E-02    0.116E-01
RMM:   5    -0.192122350728E+03    0.84857E-04   -0.74765E-05  3685   0.140E-02    0.873E-02
RMM:   6    -0.192122332077E+03    0.18650E-04   -0.26063E-04  3680   0.249E-02    0.934E-02
RMM:   7    -0.192122274312E+03    0.57765E-04   -0.45346E-04  3683   0.326E-02    0.376E-02
RMM:   8    -0.192122285310E+03   -0.10998E-04   -0.61026E-05  3683   0.124E-02    0.356E-02
RMM:   9    -0.192122273816E+03    0.11495E-04   -0.10992E-05  3659   0.554E-03    0.216E-02
RMM:  10    -0.192122268237E+03    0.55787E-05   -0.84508E-06  3635   0.447E-03    0.152E-02
RMM:  11    -0.192122264687E+03    0.35502E-05   -0.10356E-05  3672   0.481E-03    0.661E-03
RMM:  12    -0.192122264545E+03    0.14193E-06   -0.47654E-06  2984   0.331E-03
  18 F= -.19212226E+03 E0= -.19203078E+03  d E =-.149810E-02
       N       E                     dE             d eps       ncg     rms          rms(c)
DAV:   1    -0.192122122300E+03    0.14239E-03   -0.25387E-01  3696   0.777E-01    0.385E-02
RMM:   2    -0.192122398387E+03   -0.27609E-03   -0.28338E-03  3680   0.114E-01    0.456E-02
RMM:   3    -0.192122393829E+03    0.45574E-05   -0.18020E-04  3735   0.237E-02    0.402E-02
RMM:   4    -0.192122383771E+03    0.10058E-04   -0.19013E-05  3678   0.754E-03    0.320E-02
RMM:   5    -0.192122378418E+03    0.53527E-05   -0.50207E-06  2888   0.373E-03    0.248E-02
RMM:   6    -0.192122379320E+03   -0.90155E-06   -0.21874E-05  3674   0.729E-03    0.273E-02
RMM:   7    -0.192122375850E+03    0.34698E-05   -0.39256E-05  3673   0.959E-03    0.105E-02
RMM:   8    -0.192122376850E+03   -0.10000E-05   -0.44193E-06  2842   0.342E-03    0.992E-03
RMM:   9    -0.192122376001E+03    0.84943E-06   -0.97822E-07  1947   0.186E-03
  19 F= -.19212238E+03 E0= -.19203085E+03  d E =-.160956E-02
       N       E                     dE             d eps       ncg     rms          rms(c)
DAV:   1    -0.192120191326E+03    0.21855E-02   -0.36320E+00  3672   0.294E+00    0.146E-01
RMM:   2    -0.192124184680E+03   -0.39934E-02   -0.40567E-02  3681   0.432E-01    0.177E-01
RMM:   3    -0.192124119695E+03    0.64985E-04   -0.25991E-03  3742   0.900E-02    0.139E-01
RMM:   4    -0.192123999349E+03    0.12035E-03   -0.26190E-04  3676   0.283E-02    0.115E-01
RMM:   5    -0.192123961454E+03    0.37895E-04   -0.97907E-05  3685   0.157E-02    0.109E-01
RMM:   6    -0.192123925239E+03    0.36215E-04   -0.30742E-04  3680   0.269E-02    0.107E-01
RMM:   7    -0.192123842543E+03    0.82696E-04   -0.53540E-04  3684   0.355E-02    0.384E-02
RMM:   8    -0.192123855659E+03   -0.13117E-04   -0.61810E-05  3682   0.125E-02    0.373E-02
RMM:   9    -0.192123843156E+03    0.12503E-04   -0.10358E-05  3654   0.539E-03    0.236E-02
RMM:  10    -0.192123836888E+03    0.62679E-05   -0.90136E-06  3662   0.459E-03    0.174E-02
RMM:  11    -0.192123831394E+03    0.54939E-05   -0.19176E-05  3672   0.653E-03    0.561E-03
RMM:  12    -0.192123831529E+03   -0.13471E-06   -0.37581E-06  2545   0.303E-03
  20 F= -.19212383E+03 E0= -.19203221E+03  d E =-.145553E-02
       N       E                     dE             d eps       ncg     rms          rms(c)
DAV:   1    -0.192123579718E+03    0.25168E-03   -0.40422E-01  3684   0.981E-01    0.478E-02
RMM:   2    -0.192124017765E+03   -0.43805E-03   -0.44770E-03  3681   0.144E-01    0.597E-02
RMM:   3    -0.192124004321E+03    0.13444E-04   -0.28357E-04  3744   0.298E-02    0.454E-02
RMM:   4    -0.192123991449E+03    0.12871E-04   -0.26415E-05  3676   0.908E-03    0.375E-02
RMM:   5    -0.192123990738E+03    0.71093E-06   -0.10450E-05  3622   0.515E-03    0.383E-02
RMM:   6    -0.192123988927E+03    0.18118E-05   -0.37359E-05  3679   0.938E-03    0.374E-02
RMM:   7    -0.192123981190E+03    0.77364E-05   -0.65791E-05  3676   0.124E-02    0.134E-02
RMM:   8    -0.192123982808E+03   -0.16177E-05   -0.69137E-06  3174   0.424E-03    0.129E-02
RMM:   9    -0.192123981339E+03    0.14691E-05   -0.12848E-06  1967   0.207E-03    0.831E-03
RMM:  10    -0.192123980579E+03    0.76014E-06   -0.98731E-07  1944   0.169E-03
  21 F= -.19212398E+03 E0= -.19203231E+03  d E =-.160458E-02
       N       E                     dE             d eps       ncg     rms          rms(c)
DAV:   1    -0.192122605428E+03    0.13759E-02   -0.22024E+00  3672   0.229E+00    0.108E-01
RMM:   2    -0.192124960935E+03   -0.23555E-02   -0.24201E-02  3681   0.335E-01    0.126E-01
RMM:   3    -0.192124985568E+03   -0.24632E-04   -0.14963E-03  3741   0.684E-02    0.124E-01
RMM:   4    -0.192124882168E+03    0.10340E-03   -0.16137E-04  3676   0.217E-02    0.899E-02
RMM:   5    -0.192124845566E+03    0.36603E-04   -0.64123E-05  3683   0.129E-02    0.804E-02
RMM:   6    -0.192124824097E+03    0.21468E-04   -0.21243E-04  3682   0.225E-02    0.801E-02
RMM:   7    -0.192124780869E+03    0.43228E-04   -0.29002E-04  3680   0.262E-02    0.278E-02
RMM:   8    -0.192124792116E+03   -0.11247E-04   -0.36610E-05  3677   0.960E-03    0.286E-02
RMM:   9    -0.192124785031E+03    0.70855E-05   -0.59875E-06  2972   0.410E-03    0.194E-02
RMM:  10    -0.192124779978E+03    0.50523E-05   -0.78375E-06  3658   0.433E-03    0.134E-02
RMM:  11    -0.192124776742E+03    0.32365E-05   -0.13101E-05  3672   0.540E-03    0.362E-03
RMM:  12    -0.192124776876E+03   -0.13388E-06   -0.20465E-06  2006   0.234E-03
  22 F= -.19212478E+03 E0= -.19203313E+03  d E =-.796297E-03
       N       E                     dE             d eps       ncg     rms          rms(c)
DAV:   1    -0.192124768552E+03    0.81894E-05   -0.21996E-02  3792   0.229E-01    0.102E-02
RMM:   2    -0.192124791672E+03   -0.23120E-04   -0.23654E-04  3683   0.335E-02    0.137E-02
RMM:   3    -0.192124790943E+03    0.72981E-06   -0.14292E-05  3694   0.675E-03    0.118E-02
RMM:   4    -0.192124789980E+03    0.96270E-06   -0.10817E-06  2007   0.202E-03
  23 F= -.19212479E+03 E0= -.19203313E+03  d E =-.809401E-03
       N       E                     dE             d eps       ncg     rms          rms(c)
DAV:   1    -0.192123202835E+03    0.15881E-02   -0.21532E+00  3672   0.226E+00    0.102E-01
RMM:   2    -0.192125439847E+03   -0.22370E-02   -0.22837E-02  3681   0.329E-01    0.122E-01
RMM:   3    -0.192125492332E+03   -0.52485E-04   -0.13815E-03  3752   0.660E-02    0.133E-01
RMM:   4    -0.192125345581E+03    0.14675E-03   -0.14785E-04  3676   0.207E-02    0.858E-02
RMM:   5    -0.192125311692E+03    0.33889E-04   -0.51182E-05  3680   0.119E-02    0.760E-02
RMM:   6    -0.192125293745E+03    0.17948E-04   -0.27487E-04  3682   0.256E-02    0.811E-02
RMM:   7    -0.192125251132E+03    0.42613E-04   -0.27567E-04  3680   0.256E-02    0.287E-02
RMM:   8    -0.192125260676E+03   -0.95447E-05   -0.31947E-05  3680   0.902E-03    0.273E-02
RMM:   9    -0.192125254300E+03    0.63762E-05   -0.52183E-06  2916   0.384E-03    0.199E-02
RMM:  10    -0.192125248553E+03    0.57469E-05   -0.10442E-05  3672   0.501E-03    0.125E-02
RMM:  11    -0.192125246005E+03    0.25479E-05   -0.11256E-05  3672   0.502E-03    0.332E-03
RMM:  12    -0.192125246102E+03   -0.96428E-07   -0.23650E-06  2016   0.250E-03
  24 F= -.19212525E+03 E0= -.19203360E+03  d E =-.456122E-03
       N       E                     dE             d eps       ncg     rms          rms(c)
DAV:   1    -0.192125228515E+03    0.17490E-04   -0.20231E-02  3744   0.219E-01    0.109E-02
RMM:   2    -0.192125249797E+03   -0.21282E-04   -0.22211E-04  3684   0.320E-02    0.109E-02
RMM:   3    -0.192125250051E+03   -0.25382E-06   -0.13750E-05  3694   0.658E-03    0.109E-02
RMM:   4    -0.192125249268E+03    0.78348E-06   -0.13687E-06  2038   0.222E-03
  25 F= -.19212525E+03 E0= -.19203362E+03  d E =-.459288E-03
       N       E                     dE             d eps       ncg     rms          rms(c)
DAV:   1    -0.192124574440E+03    0.67561E-03   -0.94681E-01  3672   0.150E+00    0.735E-02
RMM:   2    -0.192125596959E+03   -0.10225E-02   -0.10605E-02  3682   0.221E-01    0.756E-02
RMM:   3    -0.192125597446E+03   -0.48707E-06   -0.65877E-04  3740   0.455E-02    0.690E-02
RMM:   4    -0.192125558939E+03    0.38507E-04   -0.65785E-05  3675   0.143E-02    0.500E-02
RMM:   5    -0.192125561030E+03   -0.20909E-05   -0.26207E-05  3677   0.806E-03    0.566E-02
RMM:   6    -0.192125544518E+03    0.16512E-04   -0.59321E-05  3677   0.118E-02    0.495E-02
RMM:   7    -0.192125527315E+03    0.17203E-04   -0.11573E-04  3675   0.165E-02    0.177E-02
RMM:   8    -0.192125530406E+03   -0.30902E-05   -0.15519E-05  3672   0.626E-03    0.161E-02
RMM:   9    -0.192125527674E+03    0.27318E-05   -0.24252E-06  2286   0.268E-03    0.107E-02
RMM:  10    -0.192125526187E+03    0.14869E-05   -0.26198E-06  2031   0.271E-03    0.745E-03
RMM:  11    -0.192125525357E+03    0.83005E-06   -0.32034E-06  2163   0.304E-03
  26 F= -.19212553E+03 E0= -.19203390E+03  d E =-.276089E-03
