       N       E                     dE             d eps       ncg     rms          rms(c)
DAV:   1     0.320210620337E+04    0.32021E+04   -0.18976E+05  3672   0.112E+03
DAV:   2     0.157557194790E+02   -0.31864E+04   -0.29337E+04  4392   0.263E+02
DAV:   3    -0.199145258554E+03   -0.21490E+03   -0.19974E+03  4152   0.651E+01
DAV:   4    -0.204919375067E+03   -0.57741E+01   -0.57071E+01  4224   0.108E+01
DAV:   5    -0.205108401735E+03   -0.18903E+00   -0.18848E+00  4440   0.199E+00    0.629E+01
RMM:   6    -0.197838608102E+03    0.72698E+01   -0.91799E+01  3679   0.151E+01    0.554E+01
RMM:   7    -0.202566126472E+03   -0.47275E+01   -0.46537E+01  3682   0.115E+01    0.403E+01
RMM:   8    -0.234719989491E+03   -0.32154E+02   -0.96513E+01  3678   0.145E+01    0.480E+01
RMM:   9    -0.214923385846E+03    0.19797E+02   -0.49505E+01  3680   0.105E+01    0.430E+01
RMM:  10    -0.197455401582E+03    0.17468E+02   -0.25429E+01  3683   0.826E+00    0.216E+01
RMM:  11    -0.190485915876E+03    0.69695E+01   -0.11080E+01  3680   0.538E+00    0.117E+01
RMM:  12    -0.187889820673E+03    0.25961E+01   -0.60476E+00  3679   0.375E+00    0.730E+00
RMM:  13    -0.188043337121E+03   -0.15352E+00   -0.11856E+00  3679   0.176E+00    0.628E+00
RMM:  14    -0.187951276384E+03    0.92061E-01   -0.52951E-01  3680   0.114E+00    0.568E+00
RMM:  15    -0.187831260403E+03    0.12002E+00   -0.18496E-01  3678   0.668E-01    0.468E+00
RMM:  16    -0.187718239001E+03    0.11302E+00   -0.14998E-01  3679   0.602E-01    0.376E+00
RMM:  17    -0.187627256675E+03    0.90982E-01   -0.15030E-01  3680   0.593E-01    0.266E+00
RMM:  18    -0.187553065415E+03    0.74191E-01   -0.74372E-02  3680   0.415E-01    0.127E+00
RMM:  19    -0.187538685023E+03    0.14380E-01   -0.19734E-02  3682   0.213E-01    0.774E-01
RMM:  20    -0.187534156614E+03    0.45284E-02   -0.39530E-03  3681   0.927E-02    0.518E-01
RMM:  21    -0.187532142915E+03    0.20137E-02   -0.31150E-03  3680   0.829E-02    0.418E-01
RMM:  22    -0.187530307126E+03    0.18358E-02   -0.19555E-03  3681   0.643E-02    0.262E-01
RMM:  23    -0.187529625707E+03    0.68142E-03   -0.12995E-03  3680   0.508E-02    0.166E-01
RMM:  24    -0.187529534635E+03    0.91072E-04   -0.37854E-04  3682   0.286E-02    0.906E-02
RMM:  25    -0.187529704551E+03   -0.16992E-03   -0.20824E-04  3679   0.202E-02    0.700E-02
RMM:  26    -0.187530011261E+03   -0.30671E-03   -0.12200E-04  3679   0.156E-02    0.476E-02
RMM:  27    -0.187530553657E+03   -0.54240E-03   -0.10872E-04  3678   0.132E-02    0.513E-02
RMM:  28    -0.187530962091E+03   -0.40843E-03   -0.32976E-05  3665   0.833E-03    0.259E-02
RMM:  29    -0.187531743305E+03   -0.78121E-03   -0.50920E-05  3672   0.101E-02    0.209E-02
RMM:  30    -0.187532127108E+03   -0.38380E-03   -0.21249E-05  3447   0.642E-03    0.143E-02
RMM:  31    -0.187532737828E+03   -0.61072E-03   -0.41430E-05  3615   0.816E-03    0.120E-02
RMM:  32    -0.187532889749E+03   -0.15192E-03   -0.96067E-06  2854   0.383E-03    0.761E-03
RMM:  33    -0.187533018254E+03   -0.12851E-03   -0.49817E-06  2674   0.280E-03    0.385E-03
RMM:  34    -0.187533086685E+03   -0.68431E-04   -0.18528E-06  2274   0.186E-03    0.431E-03
RMM:  35    -0.187533138971E+03   -0.52286E-04   -0.97422E-07  2170   0.137E-03    0.201E-03
RMM:  36    -0.187533172273E+03   -0.33302E-04   -0.59469E-07  2136   0.110E-03    0.201E-03
RMM:  37    -0.187533197827E+03   -0.25555E-04   -0.54940E-07  2139   0.113E-03    0.877E-04
RMM:  38    -0.187533207754E+03   -0.99264E-05   -0.26939E-07  1778   0.717E-04    0.798E-04
RMM:  39    -0.187533210425E+03   -0.26718E-05   -0.11404E-07  1377   0.491E-04    0.439E-04
RMM:  40    -0.187533211849E+03   -0.14232E-05   -0.55642E-08  1142   0.426E-04    0.219E-04
RMM:  41    -0.187533212671E+03   -0.82226E-06   -0.38667E-08   967   0.375E-04
   1 F= -.18753321E+03 E0= -.18740770E+03  d E =-.187533E+03
       N       E                     dE             d eps       ncg     rms          rms(c)
DAV:   1    -0.188709928309E+03   -0.11767E+01   -0.40470E+02  3696   0.309E+01    0.417E+00
RMM:   2    -0.189119038793E+03   -0.40911E+00   -0.42642E+00  3682   0.445E+00    0.236E+00
RMM:   3    -0.189164785364E+03   -0.45747E-01   -0.29150E-01  3702   0.963E-01    0.286E+00
RMM:   4    -0.189173207664E+03   -0.84223E-02   -0.13533E-01  3685   0.590E-01    0.278E+00
RMM:   5    -0.189171077977E+03    0.21297E-02   -0.10690E-01  3682   0.487E-01    0.274E+00
RMM:   6    -0.189104268563E+03    0.66809E-01   -0.61370E-02  3682   0.392E-01    0.106E+00
RMM:   7    -0.189094325273E+03    0.99433E-02   -0.18411E-02  3680   0.218E-01    0.493E-01
RMM:   8    -0.189092877549E+03    0.14477E-02   -0.54920E-03  3685   0.116E-01    0.409E-01
RMM:   9    -0.189091335524E+03    0.15420E-02   -0.22081E-03  3682   0.746E-02    0.155E-01
RMM:  10    -0.189091319229E+03    0.16295E-04   -0.82370E-04  3684   0.447E-02    0.147E-01
RMM:  11    -0.189091117580E+03    0.20165E-03   -0.26144E-04  3686   0.260E-02    0.500E-02
RMM:  12    -0.189091120114E+03   -0.25337E-05   -0.72783E-05  3682   0.133E-02    0.472E-02
RMM:  13    -0.189091105374E+03    0.14740E-04   -0.30949E-05  3673   0.933E-03    0.187E-02
RMM:  14    -0.189091103535E+03    0.18385E-05   -0.10897E-05  3440   0.527E-03    0.852E-03
RMM:  15    -0.189091105198E+03   -0.16623E-05   -0.23405E-06  2202   0.261E-03    0.539E-03
RMM:  16    -0.189091105888E+03   -0.69033E-06   -0.85802E-07  1984   0.176E-03
   2 F= -.18909111E+03 E0= -.18897038E+03  d E =-.155789E+01
       N       E                     dE             d eps       ncg     rms          rms(c)
DAV:   1    -0.187496003916E+03    0.15951E+01   -0.38175E+03  3672   0.976E+01    0.970E+00
RMM:   2    -0.191129259964E+03   -0.36333E+01   -0.37857E+01  3682   0.134E+01    0.549E+00
RMM:   3    -0.191354146846E+03   -0.22489E+00   -0.19901E+00  3703   0.250E+00    0.701E+00
RMM:   4    -0.191345207264E+03    0.89396E-02   -0.66270E-01  3684   0.130E+00    0.655E+00
RMM:   5    -0.191197310443E+03    0.14790E+00   -0.60446E-01  3682   0.118E+00    0.589E+00
RMM:   6    -0.191001336392E+03    0.19597E+00   -0.52552E-01  3682   0.115E+00    0.314E+00
RMM:   7    -0.190898918514E+03    0.10242E+00   -0.19590E-01  3680   0.714E-01    0.157E+00
RMM:   8    -0.190873131037E+03    0.25787E-01   -0.55815E-02  3682   0.372E-01    0.979E-01
RMM:   9    -0.190863650830E+03    0.94802E-02   -0.16295E-02  3685   0.201E-01    0.457E-01
RMM:  10    -0.190861675109E+03    0.19757E-02   -0.63287E-03  3681   0.122E-01    0.264E-01
RMM:  11    -0.190861551440E+03    0.12367E-03   -0.22036E-03  3685   0.732E-02    0.218E-01
RMM:  12    -0.190861231692E+03    0.31975E-03   -0.89960E-04  3680   0.482E-02    0.133E-01
RMM:  13    -0.190861159186E+03    0.72506E-04   -0.37724E-04  3681   0.312E-02    0.888E-02
RMM:  14    -0.190861099944E+03    0.59241E-04   -0.10679E-04  3681   0.167E-02    0.377E-02
RMM:  15    -0.190861102204E+03   -0.22598E-05   -0.36630E-05  3674   0.953E-03    0.255E-02
RMM:  16    -0.190861108474E+03   -0.62702E-05   -0.10007E-05  3481   0.513E-03    0.116E-02
RMM:  17    -0.190861115548E+03   -0.70741E-05   -0.35712E-06  2652   0.306E-03    0.849E-03
RMM:  18    -0.190861124064E+03   -0.85157E-05   -0.11335E-06  2125   0.189E-03    0.298E-03
RMM:  19    -0.190861129158E+03   -0.50944E-05   -0.38604E-07  2044   0.103E-03    0.191E-03
RMM:  20    -0.190861138263E+03   -0.91045E-05   -0.24666E-07  1695   0.712E-04    0.112E-03
RMM:  21    -0.190861147530E+03   -0.92670E-05   -0.29935E-07  1882   0.665E-04    0.133E-03
RMM:  22    -0.190861155581E+03   -0.80512E-05   -0.32800E-07  1697   0.651E-04    0.932E-04
RMM:  23    -0.190861162444E+03   -0.68628E-05   -0.38152E-07  1788   0.669E-04    0.958E-04
RMM:  24    -0.190861164934E+03   -0.24900E-05   -0.19801E-07  1420   0.499E-04    0.712E-04
RMM:  25    -0.190861166652E+03   -0.17178E-05   -0.13662E-07  1193   0.434E-04    0.372E-04
RMM:  26    -0.190861167150E+03   -0.49866E-06   -0.46440E-08   781   0.355E-04
   3 F= -.19086117E+03 E0= -.19075526E+03  d E =-.332795E+01
       N       E                     dE             d eps       ncg     rms          rms(c)
DAV:   1    -0.191011214244E+03   -0.15005E+00   -0.32226E+02  3684   0.277E+01    0.261E+00
RMM:   2    -0.191353101162E+03   -0.34189E+00   -0.35395E+00  3686   0.402E+00    0.162E+00
RMM:   3    -0.191417396271E+03   -0.64295E-01   -0.25848E-01  3697   0.880E-01    0.322E+00
RMM:   4    -0.191340503600E+03    0.76893E-01   -0.73777E-02  3686   0.463E-01    0.125E+00
RMM:   5    -0.191374203134E+03   -0.33700E-01   -0.41331E-02  3682   0.305E-01    0.210E+00
RMM:   6    -0.191342467434E+03    0.31736E-01   -0.46317E-02  3685   0.328E-01    0.120E+00
RMM:   7    -0.191327469235E+03    0.14998E-01   -0.21456E-02  3680   0.234E-01    0.325E-01
RMM:   8    -0.191326439769E+03    0.10295E-02   -0.42506E-03  3681   0.101E-01    0.275E-01
RMM:   9    -0.191325363850E+03    0.10759E-02   -0.16823E-03  3682   0.659E-02    0.854E-02
RMM:  10    -0.191325317923E+03    0.45928E-04   -0.41979E-04  3682   0.313E-02    0.627E-02
RMM:  11    -0.191325277267E+03    0.40656E-04   -0.10902E-04  3685   0.166E-02    0.309E-02
RMM:  12    -0.191325281101E+03   -0.38342E-05   -0.29214E-05  3680   0.863E-03    0.303E-02
RMM:  13    -0.191325276798E+03    0.43027E-05   -0.14199E-05  3665   0.611E-03    0.177E-02
RMM:  14    -0.191325276667E+03    0.13171E-06   -0.52760E-06  2895   0.380E-03
   4 F= -.19132528E+03 E0= -.19122006E+03  d E =-.464110E+00
       N       E                     dE             d eps       ncg     rms          rms(c)
DAV:   1    -0.191319259970E+03    0.60168E-02   -0.35706E+01  3744   0.921E+00    0.785E-01
RMM:   2    -0.191358139923E+03   -0.38880E-01   -0.39911E-01  3686   0.135E+00    0.572E-01
RMM:   3    -0.191364073342E+03   -0.59334E-02   -0.30085E-02  3700   0.300E-01    0.990E-01
RMM:   4    -0.191356598103E+03    0.74752E-02   -0.72463E-03  3687   0.146E-01    0.457E-01
RMM:   5    -0.191357605425E+03   -0.10073E-02   -0.31720E-03  3685   0.850E-02    0.541E-01
RMM:   6    -0.191355972441E+03    0.16330E-02   -0.49914E-03  3682   0.109E-01    0.354E-01
RMM:   7    -0.191354700330E+03    0.12721E-02   -0.24023E-03  3681   0.787E-02    0.102E-01
RMM:   8    -0.191354612497E+03    0.87833E-04   -0.41861E-04  3685   0.322E-02    0.903E-02
RMM:   9    -0.191354492052E+03    0.12045E-03   -0.17088E-04  3681   0.210E-02    0.278E-02
RMM:  10    -0.191354488253E+03    0.37992E-05   -0.51125E-05  3681   0.108E-02    0.246E-02
RMM:  11    -0.191354482260E+03    0.59930E-05   -0.12846E-05  3672   0.563E-03    0.992E-03
RMM:  12    -0.191354483494E+03   -0.12339E-05   -0.43892E-06  2790   0.340E-03    0.106E-02
RMM:  13    -0.191354483627E+03   -0.13367E-06   -0.18595E-06  2083   0.249E-03
   5 F= -.19135448E+03 E0= -.19124926E+03  d E =-.493316E+00
       N       E                     dE             d eps       ncg     rms          rms(c)
DAV:   1    -0.191367824785E+03   -0.13341E-01   -0.58330E+01  3684   0.118E+01    0.103E+00
RMM:   2    -0.191427924045E+03   -0.60099E-01   -0.63306E-01  3684   0.170E+00    0.619E-01
RMM:   3    -0.191430786163E+03   -0.28621E-02   -0.35673E-02  3696   0.338E-01    0.749E-01
RMM:   4    -0.191428521927E+03    0.22642E-02   -0.10477E-02  3687   0.173E-01    0.606E-01
RMM:   5    -0.191434302428E+03   -0.57805E-02   -0.82603E-03  3683   0.135E-01    0.940E-01
RMM:   6    -0.191426437658E+03    0.78648E-02   -0.70168E-03  3682   0.130E-01    0.403E-01
RMM:   7    -0.191424911655E+03    0.15260E-02   -0.26514E-03  3681   0.823E-02    0.131E-01
RMM:   8    -0.191424744990E+03    0.16666E-03   -0.55025E-04  3682   0.383E-02    0.904E-02
RMM:   9    -0.191424655931E+03    0.89059E-04   -0.21409E-04  3681   0.227E-02    0.532E-02
RMM:  10    -0.191424630453E+03    0.25478E-04   -0.74066E-05  3682   0.137E-02    0.330E-02
RMM:  11    -0.191424620991E+03    0.94623E-05   -0.17602E-05  3672   0.660E-03    0.126E-02
RMM:  12    -0.191424621559E+03   -0.56852E-06   -0.66696E-06  3519   0.414E-03
   6 F= -.19142462E+03 E0= -.19131924E+03  d E =-.701379E-01
       N       E                     dE             d eps       ncg     rms          rms(c)
DAV:   1    -0.191424350403E+03    0.27059E-03   -0.23446E+00  3744   0.236E+00    0.200E-01
RMM:   2    -0.191426763128E+03   -0.24127E-02   -0.25546E-02  3684   0.342E-01    0.121E-01
RMM:   3    -0.191426891975E+03   -0.12885E-03   -0.14626E-03  3695   0.683E-02    0.160E-01
RMM:   4    -0.191426720356E+03    0.17162E-03   -0.37880E-04  3687   0.334E-02    0.981E-02
RMM:   5    -0.191427036987E+03   -0.31663E-03   -0.33771E-04  3683   0.277E-02    0.194E-01
RMM:   6    -0.191426711028E+03    0.32596E-03   -0.27698E-04  3684   0.253E-02    0.931E-02
RMM:   7    -0.191426633684E+03    0.77344E-04   -0.11894E-04  3681   0.174E-02    0.268E-02
RMM:   8    -0.191426627581E+03    0.61035E-05   -0.21144E-05  3672   0.761E-03    0.158E-02
RMM:   9    -0.191426625249E+03    0.23313E-05   -0.86737E-06  3596   0.456E-03    0.126E-02
RMM:  10    -0.191426623459E+03    0.17902E-05   -0.31135E-06  2324   0.292E-03    0.555E-03
RMM:  11    -0.191426623269E+03    0.18958E-06   -0.92264E-07  1953   0.178E-03
   7 F= -.19142662E+03 E0= -.19132126E+03  d E =-.721396E-01
       N       E                     dE             d eps       ncg     rms          rms(c)
DAV:   1    -0.191431164209E+03   -0.45407E-02   -0.88461E+00  3672   0.455E+00    0.314E-01
RMM:   2    -0.191440199732E+03   -0.90355E-02   -0.96762E-02  3683   0.664E-01    0.228E-01
RMM:   3    -0.191440264680E+03   -0.64948E-04   -0.50232E-03  3708   0.129E-01    0.204E-01
RMM:   4    -0.191440580624E+03   -0.31594E-03   -0.12915E-03  3684   0.600E-02    0.286E-01
RMM:   5    -0.191440548418E+03    0.32206E-04   -0.98912E-04  3679   0.474E-02    0.284E-01
RMM:   6    -0.191439873846E+03    0.67457E-03   -0.10179E-03  3682   0.497E-02    0.141E-01
RMM:   7    -0.191439746765E+03    0.12708E-03   -0.43365E-04  3682   0.335E-02    0.632E-02
RMM:   8    -0.191439705198E+03    0.41567E-04   -0.92277E-05  3685   0.154E-02    0.332E-02
RMM:   9    -0.191439687822E+03    0.17376E-04   -0.43142E-05  3681   0.102E-02    0.230E-02
RMM:  10    -0.191439678736E+03    0.90860E-05   -0.20862E-05  3672   0.695E-03    0.856E-03
RMM:  11    -0.191439678663E+03    0.72905E-07   -0.56724E-06  3427   0.361E-03
   8 F= -.19143968E+03 E0= -.19133420E+03  d E =-.130554E-01
       N       E                     dE             d eps       ncg     rms          rms(c)
DAV:   1    -0.191439285862E+03    0.39287E-03   -0.20049E+00  3720   0.216E+00    0.147E-01
RMM:   2    -0.191441333159E+03   -0.20473E-02   -0.21955E-02  3683   0.316E-01    0.107E-01
RMM:   3    -0.191441341632E+03   -0.84736E-05   -0.11373E-03  3711   0.614E-02    0.951E-02
RMM:   4    -0.191441414721E+03   -0.73089E-04   -0.28182E-04  3684   0.281E-02    0.135E-01
RMM:   5    -0.191441396159E+03    0.18562E-04   -0.21548E-04  3680   0.221E-02    0.131E-01
RMM:   6    -0.191441255398E+03    0.14076E-03   -0.22953E-04  3682   0.236E-02    0.668E-02
RMM:   7    -0.191441230117E+03    0.25281E-04   -0.97840E-05  3682   0.159E-02    0.326E-02
RMM:   8    -0.191441220059E+03    0.10058E-04   -0.22216E-05  3672   0.756E-03    0.173E-02
RMM:   9    -0.191441215851E+03    0.42086E-05   -0.96911E-06  3672   0.487E-03    0.117E-02
RMM:  10    -0.191441213607E+03    0.22431E-05   -0.52150E-06  3344   0.350E-03    0.569E-03
RMM:  11    -0.191441213389E+03    0.21856E-06   -0.12845E-06  1949   0.191E-03
   9 F= -.19144121E+03 E0= -.19133574E+03  d E =-.145901E-01
       N       E                     dE             d eps       ncg     rms          rms(c)
DAV:   1    -0.191442696440E+03   -0.14828E-02   -0.67122E+00  3672   0.391E+00    0.242E-01
RMM:   2    -0.191449559608E+03   -0.68632E-02   -0.70947E-02  3683   0.574E-01    0.228E-01
RMM:   3    -0.191449615977E+03   -0.56369E-04   -0.41205E-03  3750   0.117E-01    0.205E-01
RMM:   4    -0.191449356171E+03    0.25981E-03   -0.75029E-04  3683   0.465E-02    0.179E-01
RMM:   5    -0.191449810627E+03   -0.45446E-03   -0.85541E-04  3682   0.450E-02    0.277E-01
RMM:   6    -0.191449303718E+03    0.50691E-03   -0.81457E-04  3681   0.428E-02    0.185E-01
RMM:   7    -0.191449052111E+03    0.25161E-03   -0.58050E-04  3683   0.380E-02    0.730E-02
RMM:   8    -0.191449013887E+03    0.38224E-04   -0.99000E-05  3683   0.162E-02    0.376E-02
RMM:   9    -0.191448994659E+03    0.19228E-04   -0.31823E-05  3678   0.890E-03    0.286E-02
RMM:  10    -0.191448980463E+03    0.14196E-04   -0.31695E-05  3682   0.849E-03    0.160E-02
RMM:  11    -0.191448977894E+03    0.25693E-05   -0.11410E-05  3672   0.508E-03    0.100E-02
RMM:  12    -0.191448976925E+03    0.96949E-06   -0.44245E-06  2872   0.324E-03
  10 F= -.19144898E+03 E0= -.19134306E+03  d E =-.776354E-02
       N       E                     dE             d eps       ncg     rms          rms(c)
DAV:   1    -0.191444232779E+03    0.47451E-02   -0.86074E+00  3672   0.443E+00    0.270E-01
RMM:   2    -0.191453057768E+03   -0.88250E-02   -0.90916E-02  3683   0.650E-01    0.261E-01
RMM:   3    -0.191453120105E+03   -0.62338E-04   -0.53238E-03  3749   0.132E-01    0.233E-01
RMM:   4    -0.191452751437E+03    0.36867E-03   -0.92678E-04  3683   0.519E-02    0.198E-01
RMM:   5    -0.191453266727E+03   -0.51529E-03   -0.10858E-03  3682   0.509E-02    0.302E-01
RMM:   6    -0.191452750982E+03    0.51575E-03   -0.10262E-03  3681   0.479E-02    0.219E-01
RMM:   7    -0.191452372101E+03    0.37888E-03   -0.76446E-04  3683   0.435E-02    0.827E-02
RMM:   8    -0.191452326089E+03    0.46012E-04   -0.12871E-04  3683   0.185E-02    0.431E-02
RMM:   9    -0.191452301107E+03    0.24982E-04   -0.41058E-05  3679   0.101E-02    0.333E-02
RMM:  10    -0.191452281971E+03    0.19136E-04   -0.41297E-05  3682   0.970E-03    0.185E-02
RMM:  11    -0.191452278487E+03    0.34836E-05   -0.15329E-05  3672   0.589E-03    0.116E-02
RMM:  12    -0.191452277206E+03    0.12816E-05   -0.63643E-06  3466   0.379E-03    0.358E-03
RMM:  13    -0.191452277388E+03   -0.18221E-06   -0.10321E-06  1961   0.178E-03
  11 F= -.19145228E+03 E0= -.19134583E+03  d E =-.110640E-01
       N       E                     dE             d eps       ncg     rms          rms(c)
DAV:   1    -0.191450412300E+03    0.18649E-02   -0.64110E+00  3672   0.385E+00    0.206E-01
RMM:   2    -0.191456908931E+03   -0.64966E-02   -0.68255E-02  3683   0.562E-01    0.179E-01
RMM:   3    -0.191457011006E+03   -0.10207E-03   -0.36070E-03  3737   0.109E-01    0.184E-01
RMM:   4    -0.191456941670E+03    0.69336E-04   -0.53626E-04  3682   0.392E-02    0.189E-01
RMM:   5    -0.191456823318E+03    0.11835E-03   -0.37000E-04  3682   0.296E-02    0.180E-01
RMM:   6    -0.191456553224E+03    0.27009E-03   -0.70625E-04  3680   0.416E-02    0.111E-01
RMM:   7    -0.191456532755E+03    0.20469E-04   -0.57217E-04  3686   0.375E-02    0.725E-02
RMM:   8    -0.191456489905E+03    0.42850E-04   -0.10355E-04  3684   0.164E-02    0.358E-02
RMM:   9    -0.191456470773E+03    0.19131E-04   -0.27967E-05  3678   0.825E-03    0.265E-02
RMM:  10    -0.191456458800E+03    0.11973E-04   -0.21617E-05  3676   0.712E-03    0.134E-02
RMM:  11    -0.191456456149E+03    0.26517E-05   -0.17032E-05  3678   0.603E-03    0.767E-03
RMM:  12    -0.191456455758E+03    0.39073E-06   -0.34304E-06  2333   0.301E-03
  12 F= -.19145646E+03 E0= -.19134945E+03  d E =-.417837E-02
       N       E                     dE             d eps       ncg     rms          rms(c)
DAV:   1    -0.191456314512E+03    0.14164E-03   -0.33050E-01  3732   0.873E-01    0.462E-02
RMM:   2    -0.191456647745E+03   -0.33323E-03   -0.35117E-03  3683   0.128E-01    0.424E-02
RMM:   3    -0.191456650557E+03   -0.28112E-05   -0.18962E-04  3739   0.250E-02    0.419E-02
RMM:   4    -0.191456642358E+03    0.81986E-05   -0.25744E-05  3679   0.873E-03    0.386E-02
RMM:   5    -0.191456644737E+03   -0.23789E-05   -0.17719E-05  3674   0.644E-03    0.448E-02
RMM:   6    -0.191456626641E+03    0.18096E-04   -0.37839E-05  3682   0.953E-03    0.263E-02
RMM:   7    -0.191456625879E+03    0.76150E-06   -0.32471E-05  3681   0.892E-03    0.172E-02
RMM:   8    -0.191456623697E+03    0.21825E-05   -0.56804E-06  3024   0.391E-03    0.862E-03
RMM:   9    -0.191456622871E+03    0.82550E-06   -0.14325E-06  1965   0.204E-03
  13 F= -.19145662E+03 E0= -.19134953E+03  d E =-.434548E-02
       N       E                     dE             d eps       ncg     rms          rms(c)
DAV:   1    -0.191455478276E+03    0.11454E-02   -0.27657E+00  3672   0.254E+00    0.140E-01
RMM:   2    -0.191458308729E+03   -0.28305E-02   -0.29477E-02  3683   0.370E-01    0.117E-01
RMM:   3    -0.191458378495E+03   -0.69766E-04   -0.16012E-03  3724   0.721E-02    0.130E-01
RMM:   4    -0.191458321591E+03    0.56904E-04   -0.24731E-04  3682   0.266E-02    0.125E-01
RMM:   5    -0.191458227253E+03    0.94338E-04   -0.12705E-04  3684   0.176E-02    0.946E-02
RMM:   6    -0.191458175015E+03    0.52238E-04   -0.31204E-04  3680   0.276E-02    0.780E-02
RMM:   7    -0.191458146655E+03    0.28361E-04   -0.22769E-04  3684   0.237E-02    0.451E-02
RMM:   8    -0.191458133341E+03    0.13314E-04   -0.41097E-05  3686   0.104E-02    0.239E-02
RMM:   9    -0.191458127333E+03    0.60072E-05   -0.95083E-06  3669   0.497E-03    0.183E-02
RMM:  10    -0.191458121876E+03    0.54569E-05   -0.85651E-06  3672   0.450E-03    0.108E-02
RMM:  11    -0.191458120386E+03    0.14906E-05   -0.39356E-06  2565   0.312E-03    0.687E-03
RMM:  12    -0.191458119871E+03    0.51465E-06   -0.43083E-06  2742   0.337E-03
  14 F= -.19145812E+03 E0= -.19135058E+03  d E =-.149700E-02
       N       E                     dE             d eps       ncg     rms          rms(c)
DAV:   1    -0.191458117370E+03    0.30158E-05   -0.14343E-02  3768   0.183E-01    0.985E-03
RMM:   2    -0.191458131833E+03   -0.14463E-04   -0.15101E-04  3685   0.267E-02    0.100E-02
RMM:   3    -0.191458131914E+03   -0.81411E-07   -0.86669E-06  3688   0.533E-03
  15 F= -.19145813E+03 E0= -.19135057E+03  d E =-.150904E-02
       N       E                     dE             d eps       ncg     rms          rms(c)
DAV:   1    -0.191457894526E+03    0.23731E-03   -0.95039E-01  3672   0.150E+00    0.813E-02
RMM:   2    -0.191458896957E+03   -0.10024E-02   -0.10371E-02  3683   0.220E-01    0.843E-02
RMM:   3    -0.191458943495E+03   -0.46539E-04   -0.64222E-04  3734   0.450E-02    0.101E-01
RMM:   4    -0.191458874428E+03    0.69067E-04   -0.87938E-05  3680   0.156E-02    0.722E-02
RMM:   5    -0.191458839991E+03    0.34437E-04   -0.46251E-05  3677   0.109E-02    0.533E-02
RMM:   6    -0.191458835641E+03    0.43503E-05   -0.13721E-04  3680   0.181E-02    0.548E-02
RMM:   7    -0.191458815192E+03    0.20449E-04   -0.97341E-05  3683   0.154E-02    0.245E-02
RMM:   8    -0.191458814121E+03    0.10709E-05   -0.15497E-05  3662   0.635E-03    0.162E-02
RMM:   9    -0.191458811112E+03    0.30090E-05   -0.31915E-06  2604   0.295E-03    0.113E-02
RMM:  10    -0.191458808740E+03    0.23715E-05   -0.41336E-06  2734   0.327E-03    0.691E-03
RMM:  11    -0.191458808185E+03    0.55546E-06   -0.21319E-06  1948   0.252E-03
  16 F= -.19145881E+03 E0= -.19135107E+03  d E =-.676271E-03
