<?xml version="1.0" encoding="ISO-8859-1"?>
<modeling>
 <generator>
  <i name="program" type="string">vasp </i>
  <i name="version" type="string">5.4.1  </i>
  <i name="subversion" type="string">24Jun15 (build Mar 14 2019 10:18:33) complex                          parallel </i>
  <i name="platform" type="string">INTEL-19.0.2+OPENMPI-3.1.3 </i>
  <i name="date" type="string">2022 07 15 </i>
  <i name="time" type="string">17:34:10 </i>
 </generator>
 <incar>
  <i type="int" name="ISTART">     0</i>
  <i type="string" name="PREC">normal</i>
  <i type="string" name="ALGO"> Fast</i>
  <i type="int" name="NELM">   500</i>
  <i type="int" name="IBRION">     2</i>
  <i type="int" name="NFREE">     2</i>
  <i name="EDIFF">      0.00000100</i>
  <i name="EDIFFG">     -0.02000000</i>
  <i type="int" name="NSW">   500</i>
  <i type="int" name="ISIF">     0</i>
  <i type="int" name="ISYM">     2</i>
  <i name="ENCUT">    400.00000000</i>
  <i name="POTIM">      0.35000000</i>
  <i type="string" name="LREAL"> Auto</i>
  <i type="logical" name="LPLANE"> T  </i>
  <i type="int" name="ISMEAR">     0</i>
  <i name="SIGMA">      0.10000000</i>
  <i type="int" name="NWRITE">     1</i>
  <i type="logical" name="LWAVE"> F  </i>
  <i type="logical" name="LCHARG"> F  </i>
  <i type="logical" name="LVTOT"> F  </i>
  <i type="logical" name="LORBIT"> F  </i>
  <i type="logical" name="LAECHG"> F  </i>
  <v type="int" name="KPOINT_BSE">    -1     0     0     0</v>
  <i type="int" name="NELM">   500</i>
  <i type="string" name="GGA"> PE          ! optPBE-vdW XC-functional</i>
  <i type="int" name="VOSKOWN">     1</i>
  <i type="logical" name="LDIPOL"> T  </i>
  <i type="logical" name="LMONO"> F  </i>
  <i type="int" name="IDIPOL">     3</i>
  <v name="DIPOL">      0.00000000      0.00000000      0.50000000</v>
 </incar>
 <kpoints>
  <generation param="Monkhorst-Pack">
   <v type="int" name="divisions">       2        2        1 </v>
   <v name="usershift">      0.00000000       0.00000000       0.00000000 </v>
   <v name="genvec1">      0.50000000      -0.00000000       0.00000000 </v>
   <v name="genvec2">      0.00000000       0.50000000       0.00000000 </v>
   <v name="genvec3">      0.00000000       0.00000000       1.00000000 </v>
   <v name="shift">      0.50000000       0.50000000       0.00000000 </v>
  </generation>
  <varray name="kpointlist" >
   <v>       0.25000000       0.25000000       0.00000000 </v>
   <v>       0.00000000       0.25000000       0.00000000 </v>
   <v>      -0.25000000       0.00000000       0.00000000 </v>
   <v>      -0.25000000       0.25000000       0.00000000 </v>
   <v>       0.50000000      -0.25000000       0.00000000 </v>
   <v>      -0.25000000       0.50000000       0.00000000 </v>
  </varray>
  <varray name="weights" >
   <v>       0.16666667 </v>
   <v>       0.16666667 </v>
   <v>       0.16666667 </v>
   <v>       0.16666667 </v>
   <v>       0.16666667 </v>
   <v>       0.16666667 </v>
  </varray>
 </kpoints>
 <parameters>
  <separator name="general" >
   <i type="string" name="SYSTEM">unknown system</i>
   <i type="logical" name="LCOMPAT"> F  </i>
  </separator>
  <separator name="electronic" >
   <i type="string" name="PREC">normal</i>
   <i name="ENMAX">    400.00000000</i>
   <i name="ENAUG">    416.23000000</i>
   <i name="EDIFF">      0.00000100</i>
   <i type="int" name="IALGO">    68</i>
   <i type="int" name="IWAVPR">    11</i>
   <i type="int" name="NBANDS">   306</i>
   <i name="NELECT">    504.00000000</i>
   <i type="int" name="TURBO">     0</i>
   <i type="int" name="IRESTART">     0</i>
   <i type="int" name="NREBOOT">     0</i>
   <i type="int" name="NMIN">     0</i>
   <i name="EREF">      0.00000000</i>
   <separator name="electronic smearing" >
    <i type="int" name="ISMEAR">     0</i>
    <i name="SIGMA">      0.10000000</i>
    <i name="KSPACING">      0.50000000</i>
    <i type="logical" name="KGAMMA"> T  </i>
   </separator>
   <separator name="electronic projectors" >
    <i type="logical" name="LREAL"> T  </i>
    <v name="ROPT">     -0.00050000     -0.00050000</v>
    <i type="int" name="LMAXPAW">  -100</i>
    <i type="int" name="LMAXMIX">     2</i>
    <i type="logical" name="NLSPLINE"> F  </i>
   </separator>
   <separator name="electronic startup" >
    <i type="int" name="ISTART">     0</i>
    <i type="int" name="ICHARG">     2</i>
    <i type="int" name="INIWAV">     1</i>
   </separator>
   <separator name="electronic spin" >
    <i type="int" name="ISPIN">     1</i>
    <i type="logical" name="LNONCOLLINEAR"> F  </i>
    <v name="MAGMOM">      1.00000000      1.00000000      1.00000000      1.00000000      1.00000000      1.00000000      1.00000000      1.00000000      1.00000000      1.00000000      1.00000000      1.00000000      1.00000000      1.00000000      1.00000000      1.00000000      1.00000000      1.00000000      1.00000000      1.00000000
      1.00000000      1.00000000      1.00000000      1.00000000      1.00000000      1.00000000      1.00000000      1.00000000      1.00000000      1.00000000      1.00000000      1.00000000      1.00000000      1.00000000      1.00000000      1.00000000      1.00000000      1.00000000      1.00000000      1.00000000
      1.00000000      1.00000000      1.00000000      1.00000000      1.00000000      1.00000000      1.00000000      1.00000000</v>
    <i name="NUPDOWN">     -1.00000000</i>
    <i type="logical" name="LSORBIT"> F  </i>
    <v name="SAXIS">      0.00000000      0.00000000      1.00000000</v>
    <i type="logical" name="LSPIRAL"> F  </i>
    <v name="QSPIRAL">      0.00000000      0.00000000      0.00000000</v>
    <i type="logical" name="LZEROZ"> F  </i>
   </separator>
   <separator name="electronic exchange-correlation" >
    <i type="logical" name="LASPH"> F  </i>
    <i type="logical" name="LMETAGGA"> F  </i>
   </separator>
   <separator name="electronic convergence" >
    <i type="int" name="NELM">   500</i>
    <i type="int" name="NELMDL">    -5</i>
    <i type="int" name="NELMIN">     2</i>
    <i name="ENINI">    400.00000000</i>
    <separator name="electronic convergence detail" >
     <i type="logical" name="LDIAG"> T  </i>
     <i type="logical" name="LSUBROT"> F  </i>
     <i name="WEIMIN">      0.00100000</i>
     <i name="EBREAK">      0.00000000</i>
     <i name="DEPER">      0.30000000</i>
     <i type="int" name="NRMM">     4</i>
     <i name="TIME">      0.40000000</i>
    </separator>
   </separator>
   <separator name="electronic mixer" >
    <i name="AMIX">      0.40000000</i>
    <i name="BMIX">      1.00000000</i>
    <i name="AMIN">      0.10000000</i>
    <i name="AMIX_MAG">      1.60000000</i>
    <i name="BMIX_MAG">      1.00000000</i>
    <separator name="electronic mixer details" >
     <i type="int" name="IMIX">     4</i>
     <i type="logical" name="MIXFIRST"> F  </i>
     <i type="int" name="MAXMIX">   -45</i>
     <i name="WC">    100.00000000</i>
     <i type="int" name="INIMIX">     1</i>
     <i type="int" name="MIXPRE">     1</i>
     <i type="int" name="MREMOVE">     5</i>
    </separator>
   </separator>
   <separator name="electronic dipolcorrection" >
    <i type="logical" name="LDIPOL"> T  </i>
    <i type="logical" name="LMONO"> F  </i>
    <i type="int" name="IDIPOL">     3</i>
    <i name="EPSILON">      1.00000000</i>
    <v name="DIPOL">      0.00000000      0.00000000      0.50000000</v>
    <i name="EFIELD">      0.00000000</i>
   </separator>
  </separator>
  <separator name="grids" >
   <i type="int" name="NGX">    54</i>
   <i type="int" name="NGY">    54</i>
   <i type="int" name="NGZ">   120</i>
   <i type="int" name="NGXF">   108</i>
   <i type="int" name="NGYF">   108</i>
   <i type="int" name="NGZF">   240</i>
   <i type="logical" name="ADDGRID"> F  </i>
  </separator>
  <separator name="ionic" >
   <i type="int" name="NSW">   500</i>
   <i type="int" name="IBRION">     2</i>
   <i type="int" name="ISIF">     0</i>
   <i name="PSTRESS">      0.00000000</i>
   <i name="EDIFFG">     -0.02000000</i>
   <i type="int" name="NFREE">     2</i>
   <i name="POTIM">      0.35000000</i>
   <i name="SMASS">     -3.00000000</i>
   <i name="SCALEE">      1.00000000</i>
  </separator>
  <separator name="ionic md" >
   <i name="TEBEG">      0.00010000</i>
   <i name="TEEND">      0.00010000</i>
   <i type="int" name="NBLOCK">     1</i>
   <i type="int" name="KBLOCK">   500</i>
   <i type="int" name="NPACO">   256</i>
   <i name="APACO">     16.00000000</i>
  </separator>
  <separator name="symmetry" >
   <i type="int" name="ISYM">     2</i>
   <i name="SYMPREC">      0.00001000</i>
  </separator>
  <separator name="dos" >
   <i type="logical" name="LORBIT"> F  </i>
   <v name="RWIGS">     -1.00000000     -1.00000000</v>
   <i type="int" name="NEDOS">   301</i>
   <i name="EMIN">     10.00000000</i>
   <i name="EMAX">    -10.00000000</i>
   <i name="EFERMI">      0.00000000</i>
  </separator>
  <separator name="writing" >
   <i type="int" name="NWRITE">     1</i>
   <i type="logical" name="LWAVE"> F  </i>
   <i type="logical" name="LCHARG"> F  </i>
   <i type="logical" name="LPARD"> F  </i>
   <i type="logical" name="LVTOT"> F  </i>
   <i type="logical" name="LVHAR"> F  </i>
   <i type="logical" name="LELF"> F  </i>
   <i type="logical" name="LOPTICS"> F  </i>
   <v name="STM">      0.00000000      0.00000000      0.00000000      0.00000000      0.00000000      0.00000000      0.00000000</v>
  </separator>
  <separator name="performance" >
   <i type="int" name="NPAR">     6</i>
   <i type="int" name="NSIM">     4</i>
   <i type="int" name="NBLK">    -1</i>
   <i type="logical" name="LPLANE"> T  </i>
   <i type="logical" name="LSCALAPACK"> T  </i>
   <i type="logical" name="LSCAAWARE"> F  </i>
   <i type="logical" name="LSCALU"> F  </i>
   <i type="logical" name="LASYNC"> F  </i>
   <i type="logical" name="LORBITALREAL"> F  </i>
  </separator>
  <separator name="miscellaneous" >
   <i type="int" name="IDIOT">     3</i>
   <i type="logical" name="LMUSIC"> F  </i>
   <v name="POMASS">    196.96600000    106.42000000</v>
   <v name="DARWINR">      0.00000000      0.00000000</v>
   <v name="DARWINV">      1.00000000      1.00000000</v>
   <i type="logical" name="LCORR"> T  </i>
  </separator>
  <i type="logical" name="GGA_COMPAT"> T  </i>
  <i type="logical" name="LBERRY"> F  </i>
  <i type="int" name="ICORELEVEL">     0</i>
  <i type="logical" name="LDAU"> F  </i>
  <i type="int" name="I_CONSTRAINED_M">     0</i>
  <separator name="electronic exchange-correlation" >
   <i type="string" name="GGA">PE</i>
   <i type="int" name="VOSKOWN">     1</i>
   <i type="logical" name="LHFCALC"> F  </i>
   <i type="string" name="PRECFOCK"></i>
   <i type="logical" name="LSYMGRAD"> F  </i>
   <i type="logical" name="LHFONE"> F  </i>
   <i type="logical" name="LRHFCALC"> F  </i>
   <i type="logical" name="LTHOMAS"> F  </i>
   <i type="logical" name="LMODELHF"> F  </i>
   <i name="ENCUT4O">     -1.00000000</i>
   <i type="int" name="EXXOEP">     0</i>
   <i type="int" name="FOURORBIT">     0</i>
   <i name="AEXX">      0.00000000</i>
   <i name="HFALPHA">      0.00000000</i>
   <i name="MCALPHA">      0.00000000</i>
   <i name="ALDAX">      1.00000000</i>
   <i name="AGGAX">      1.00000000</i>
   <i name="ALDAC">      1.00000000</i>
   <i name="AGGAC">      1.00000000</i>
   <i type="int" name="NKREDX">     1</i>
   <i type="int" name="NKREDY">     1</i>
   <i type="int" name="NKREDZ">     1</i>
   <i type="logical" name="SHIFTRED"> F  </i>
   <i type="logical" name="ODDONLY"> F  </i>
   <i type="logical" name="EVENONLY"> F  </i>
   <i type="int" name="LMAXFOCK">     0</i>
   <i type="int" name="NMAXFOCKAE">     0</i>
   <i type="logical" name="LFOCKAEDFT"> F  </i>
   <i name="HFSCREEN">      0.00000000</i>
   <i name="HFSCREENC">      0.00000000</i>
   <i type="int" name="NBANDSGWLOW">     0</i>
  </separator>
  <separator name="vdW DFT" >
   <i type="logical" name="LUSE_VDW"> F  </i>
   <i name="Zab_VDW">     -0.84910000</i>
   <i name="PARAM1">      0.12340000</i>
   <i name="PARAM2">      1.00000000</i>
   <i name="PARAM3">      0.00000000</i>
  </separator>
  <separator name="model GW" >
   <i type="int" name="MODEL_GW">     0</i>
   <i name="MODEL_EPS0">     32.09595293</i>
   <i name="MODEL_ALPHA">      1.00000000</i>
  </separator>
  <separator name="linear response parameters" >
   <i type="logical" name="LEPSILON"> F  </i>
   <i type="logical" name="LRPA"> F  </i>
   <i type="logical" name="LNABLA"> F  </i>
   <i type="logical" name="LVEL"> F  </i>
   <i type="int" name="KINTER">     0</i>
   <i name="CSHIFT">      0.10000000</i>
   <i name="OMEGAMAX">     -1.00000000</i>
   <i name="DEG_THRESHOLD">      0.00200000</i>
  </separator>
  <separator name="orbital magnetization" >
   <i type="logical" name="NUCIND"> F  </i>
   <v name="MAGPOS">      0.00000000      0.00000000      0.00000000</v>
   <i type="logical" name="LNICSALL"> T  </i>
   <i type="logical" name="ORBITALMAG"> F  </i>
   <i type="logical" name="LMAGBLOCH"> F  </i>
   <i type="logical" name="LCHIMAG"> F  </i>
   <i type="logical" name="LGAUGE"> T  </i>
   <i type="int" name="MAGATOM">     0</i>
   <v name="MAGDIPOL">      0.00000000      0.00000000      0.00000000</v>
   <v name="AVECCONST">      0.00000000      0.00000000      0.00000000</v>
  </separator>
  <separator name="response functions" >
   <i type="logical" name="LADDER"> F  </i>
   <i type="logical" name="LFXC"> F  </i>
   <i type="logical" name="LHARTREE"> T  </i>
   <i type="int" name="IBSE">     0</i>
   <v type="int" name="KPOINT">    -1     0     0     0</v>
   <i type="logical" name="LTCTE"> F  </i>
   <i type="logical" name="LTETE"> F  </i>
   <i type="logical" name="LTRIPLET"> F  </i>
   <i type="logical" name="LFXCEPS"> F  </i>
   <i type="logical" name="LFXHEG"> F  </i>
   <i type="int" name="NATURALO">     0</i>
   <i type="logical" name="L2ORDER"> F  </i>
   <i type="logical" name="LUSEW"> F  </i>
   <i name="ENCUTGW">     -2.00000000</i>
   <i name="ENCUTGWSOFT">     -2.00000000</i>
   <i name="ENCUTLF">     -1.00000000</i>
   <i type="int" name="LMAXMP2">    -1</i>
   <i name="SCISSOR">      0.00000000</i>
   <i type="int" name="NOMEGA">     0</i>
   <i type="int" name="NOMEGAR">     0</i>
   <i type="int" name="NBANDSGW">    -1</i>
   <i type="int" name="NBANDSO">    -1</i>
   <i type="int" name="NBANDSV">    -1</i>
   <i type="int" name="NELM">   500</i>
   <i type="int" name="NELMHF">     1</i>
   <i type="int" name="DIM">     3</i>
   <i type="int" name="ANTIRES">     0</i>
   <i name="OMEGAMAX">    -30.00000000</i>
   <i name="OMEGAMIN">    -30.00000000</i>
   <i name="OMEGATL">   -200.00000000</i>
   <i type="int" name="OMEGAGRID">     0</i>
   <i name="CSHIFT">     -0.10000000</i>
   <i type="logical" name="SELFENERGY"> F  </i>
   <i type="logical" name="LSPECTRAL"> F  </i>
   <i type="logical" name="LSPECTRALGW"> F  </i>
   <i type="logical" name="LSINGLES"> F  </i>
   <i type="logical" name="LFERMIGW"> F  </i>
   <i type="logical" name="ODDONLYGW"> F  </i>
   <i type="logical" name="EVENONLYGW"> F  </i>
   <i type="int" name="NKREDLFX">     1</i>
   <i type="int" name="NKREDLFY">     1</i>
   <i type="int" name="NKREDLFZ">     1</i>
   <i type="int" name="MAXMEM">  1800</i>
   <i type="int" name="TELESCOPE">     0</i>
   <i type="int" name="TAUPAR">     1</i>
   <i type="int" name="OMEGAPAR">    -1</i>
   <i name="LAMBDA">      1.00000000</i>
  </separator>
  <separator name="External order field" >
   <i name="OFIELD_KAPPA">      0.00000000</i>
   <v name="OFIELD_K">      0.00000000      0.00000000      0.00000000</v>
   <i name="OFIELD_Q6_NEAR">      0.00000000</i>
   <i name="OFIELD_Q6_FAR">      0.00000000</i>
   <i name="OFIELD_A">      0.00000000</i>
  </separator>
 </parameters>
 <atominfo>
  <atoms>      48 </atoms>
  <types>       2 </types>
  <array name="atoms" >
   <dimension dim="1">ion</dimension>
   <field type="string">element</field>
   <field type="int">atomtype</field>
   <set>
    <rc><c>Au</c><c>   1</c></rc>
    <rc><c>Au</c><c>   1</c></rc>
    <rc><c>Au</c><c>   1</c></rc>
    <rc><c>Au</c><c>   1</c></rc>
    <rc><c>Au</c><c>   1</c></rc>
    <rc><c>Au</c><c>   1</c></rc>
    <rc><c>Au</c><c>   1</c></rc>
    <rc><c>Au</c><c>   1</c></rc>
    <rc><c>Au</c><c>   1</c></rc>
    <rc><c>Au</c><c>   1</c></rc>
    <rc><c>Au</c><c>   1</c></rc>
    <rc><c>Au</c><c>   1</c></rc>
    <rc><c>Au</c><c>   1</c></rc>
    <rc><c>Au</c><c>   1</c></rc>
    <rc><c>Au</c><c>   1</c></rc>
    <rc><c>Au</c><c>   1</c></rc>
    <rc><c>Au</c><c>   1</c></rc>
    <rc><c>Au</c><c>   1</c></rc>
    <rc><c>Au</c><c>   1</c></rc>
    <rc><c>Au</c><c>   1</c></rc>
    <rc><c>Au</c><c>   1</c></rc>
    <rc><c>Au</c><c>   1</c></rc>
    <rc><c>Au</c><c>   1</c></rc>
    <rc><c>Au</c><c>   1</c></rc>
    <rc><c>Pd</c><c>   2</c></rc>
    <rc><c>Pd</c><c>   2</c></rc>
    <rc><c>Pd</c><c>   2</c></rc>
    <rc><c>Pd</c><c>   2</c></rc>
    <rc><c>Pd</c><c>   2</c></rc>
    <rc><c>Pd</c><c>   2</c></rc>
    <rc><c>Pd</c><c>   2</c></rc>
    <rc><c>Pd</c><c>   2</c></rc>
    <rc><c>Pd</c><c>   2</c></rc>
    <rc><c>Pd</c><c>   2</c></rc>
    <rc><c>Pd</c><c>   2</c></rc>
    <rc><c>Pd</c><c>   2</c></rc>
    <rc><c>Pd</c><c>   2</c></rc>
    <rc><c>Pd</c><c>   2</c></rc>
    <rc><c>Pd</c><c>   2</c></rc>
    <rc><c>Pd</c><c>   2</c></rc>
    <rc><c>Pd</c><c>   2</c></rc>
    <rc><c>Pd</c><c>   2</c></rc>
    <rc><c>Pd</c><c>   2</c></rc>
    <rc><c>Pd</c><c>   2</c></rc>
    <rc><c>Pd</c><c>   2</c></rc>
    <rc><c>Pd</c><c>   2</c></rc>
    <rc><c>Pd</c><c>   2</c></rc>
    <rc><c>Pd</c><c>   2</c></rc>
   </set>
  </array>
  <array name="atomtypes" >
   <dimension dim="1">type</dimension>
   <field type="int">atomspertype</field>
   <field type="string">element</field>
   <field>mass</field>
   <field>valence</field>
   <field type="string">pseudopotential</field>
   <set>
    <rc><c>  24</c><c>Au</c><c>    196.96600000</c><c>     11.00000000</c><c>  PAW_PBE Au 04Oct2007                  </c></rc>
    <rc><c>  24</c><c>Pd</c><c>    106.42000000</c><c>     10.00000000</c><c>  PAW_PBE Pd 04Jan2005                  </c></rc>
   </set>
  </array>
 </atominfo>
 <structure name="initialpos" >
  <crystal>
   <varray name="basis" >
    <v>      11.00258152       0.00000000       0.00000000 </v>
    <v>       5.50129076       9.52851510       0.00000000 </v>
    <v>       0.00000000       0.00000000      24.49178509 </v>
   </varray>
   <i name="volume">   2567.67623402 </i>
   <varray name="rec_basis" >
    <v>       0.09088776      -0.05247407       0.00000000 </v>
    <v>       0.00000000       0.10494815       0.00000000 </v>
    <v>       0.00000000       0.00000000       0.04083002 </v>
   </varray>
  </crystal>
  <varray name="positions" >
   <v>       0.08333333       0.08333333       0.40830017 </v>
   <v>       0.58333333       0.08333333       0.40830017 </v>
   <v>       0.41666667       0.16666667       0.50000000 </v>
   <v>       0.41666667       0.41666667       0.50000000 </v>
   <v>       0.50000000       0.25000000       0.59169983 </v>
   <v>       0.58333333       0.58333333       0.40830017 </v>
   <v>       0.41666667       0.66666667       0.50000000 </v>
   <v>       0.41666667       0.91666667       0.50000000 </v>
   <v>       0.50000000       0.75000000       0.59169983 </v>
   <v>       0.66666667       0.16666667       0.50000000 </v>
   <v>       0.83333333       0.33333333       0.40830017 </v>
   <v>       0.66666667       0.41666667       0.50000000 </v>
   <v>       0.83333333       0.58333333       0.40830017 </v>
   <v>       0.66666667       0.66666667       0.50000000 </v>
   <v>       0.75000000       0.50000000       0.59169983 </v>
   <v>       0.83333333       0.83333333       0.40830017 </v>
   <v>       0.16666667       0.66666667       0.50000000 </v>
   <v>       0.33333333       0.58333333       0.40830017 </v>
   <v>       0.75000000       0.75000000       0.59169983 </v>
   <v>       0.16666667       0.41666667       0.50000000 </v>
   <v>       0.00000000       0.00000000       0.59169983 </v>
   <v>       0.91666667       0.41666667       0.50000000 </v>
   <v>       0.00000000       0.25000000       0.59169983 </v>
   <v>       0.91666667       0.66666667       0.50000000 </v>
   <v>       0.91666667       0.16666667       0.50000000 </v>
   <v>       0.08333333       0.33333333       0.40830017 </v>
   <v>       0.75000000       0.25000000       0.59169983 </v>
   <v>       0.08333333       0.58333333       0.40830017 </v>
   <v>       0.75000000       0.00000000       0.59169983 </v>
   <v>       0.83333333       0.08333333       0.40830017 </v>
   <v>       0.00000000       0.50000000       0.59169983 </v>
   <v>       0.08333333       0.83333333       0.40830017 </v>
   <v>       0.25000000       0.25000000       0.59169983 </v>
   <v>       0.58333333       0.83333333       0.40830017 </v>
   <v>       0.91666667       0.91666667       0.50000000 </v>
   <v>       0.00000000       0.75000000       0.59169983 </v>
   <v>       0.33333333       0.08333333       0.40830017 </v>
   <v>       0.16666667       0.16666667       0.50000000 </v>
   <v>       0.58333333       0.33333333       0.40830017 </v>
   <v>       0.50000000       0.00000000       0.59169983 </v>
   <v>       0.25000000       0.00000000       0.59169983 </v>
   <v>       0.33333333       0.33333333       0.40830017 </v>
   <v>       0.66666667       0.91666667       0.50000000 </v>
   <v>       0.16666667       0.91666667       0.50000000 </v>
   <v>       0.33333333       0.83333333       0.40830017 </v>
   <v>       0.25000000       0.50000000       0.59169983 </v>
   <v>       0.50000000       0.50000000       0.59169983 </v>
   <v>       0.25000000       0.75000000       0.59169983 </v>
  </varray>
 </structure>
 <calculation>
  <scstep>
   <time name="dav">    9.38    9.38</time>
   <time name="total">    9.44    9.45</time>
   <dipole>
    <v name="dipole">      0.00000000       0.00000000       0.00000074 </v>
    <i name="Tr[quadrupol]"> -10342.89453625 </i>
    <i name="Echarged">      0.00000000 </i>
    <i name="Edipol_quadrupol">      0.00000000 </i>
    <i name="Eion">      0.00000000 </i>
   </dipole>
   <energy>
    <i name="alphaZ">    805.86936440 </i>
    <i name="ewald"> 200872.37171578 </i>
    <i name="hartreedc">-243289.57125771 </i>
    <i name="XCdc">   -327.43183378 </i>
    <i name="pawpsdc">  40340.05962942 </i>
    <i name="pawaedc"> -38292.62782345 </i>
    <i name="eentropy">     -0.13399111 </i>
    <i name="bandstr">   1433.78452749 </i>
    <i name="atom">  41659.78587232 </i>
    <i name="e_fr_energy">   3202.10620337 </i>
    <i name="e_wo_entrp">   3202.24019448 </i>
    <i name="e_0_energy">   3202.17319893 </i>
   </energy>
  </scstep>
  <scstep>
   <time name="dav">   11.10   11.17</time>
   <time name="total">   11.11   11.18</time>
   <dipole>
    <v name="dipole">      0.00000000       0.00000000       0.00000074 </v>
    <i name="Tr[quadrupol]"> -10342.89453625 </i>
    <i name="Echarged">      0.00000000 </i>
    <i name="Edipol_quadrupol">      0.00000000 </i>
    <i name="Eion">      0.00000000 </i>
   </dipole>
   <energy>
    <i name="e_fr_energy">     15.75571948 </i>
    <i name="e_wo_entrp">     15.88991201 </i>
    <i name="e_0_energy">     15.82281575 </i>
   </energy>
  </scstep>
  <scstep>
   <time name="dav">   10.82   10.83</time>
   <time name="total">   10.82   10.84</time>
   <dipole>
    <v name="dipole">      0.00000000       0.00000000       0.00000074 </v>
    <i name="Tr[quadrupol]"> -10342.89453625 </i>
    <i name="Echarged">      0.00000000 </i>
    <i name="Edipol_quadrupol">      0.00000000 </i>
    <i name="Eion">      0.00000000 </i>
   </dipole>
   <energy>
    <i name="e_fr_energy">   -199.14525855 </i>
    <i name="e_wo_entrp">   -198.91685685 </i>
    <i name="e_0_energy">   -199.03105770 </i>
   </energy>
  </scstep>
  <scstep>
   <time name="dav">   10.97   10.98</time>
   <time name="total">   10.98   10.99</time>
   <dipole>
    <v name="dipole">      0.00000000       0.00000000       0.00000074 </v>
    <i name="Tr[quadrupol]"> -10342.89453625 </i>
    <i name="Echarged">      0.00000000 </i>
    <i name="Edipol_quadrupol">      0.00000000 </i>
    <i name="Eion">      0.00000000 </i>
   </dipole>
   <energy>
    <i name="e_fr_energy">   -204.91937507 </i>
    <i name="e_wo_entrp">   -204.68289358 </i>
    <i name="e_0_energy">   -204.80113432 </i>
   </energy>
  </scstep>
  <scstep>
   <time name="dav">   11.17   11.89</time>
   <time name="total">   11.48   12.20</time>
   <dipole>
    <v name="dipole">      0.00000000       0.00000000       0.00000074 </v>
    <i name="Tr[quadrupol]"> -10342.89453625 </i>
    <i name="Echarged">      0.00000000 </i>
    <i name="Edipol_quadrupol">      0.00000000 </i>
    <i name="Eion">      0.00000000 </i>
   </dipole>
   <energy>
    <i name="e_fr_energy">   -205.10840173 </i>
    <i name="e_wo_entrp">   -204.87146687 </i>
    <i name="e_0_energy">   -204.98993430 </i>
   </energy>
  </scstep>
  <scstep>
   <time name="diag">    1.68    1.68</time>
   <time name="diis">    4.44    4.51</time>
   <time name="orth">    0.41    0.42</time>
   <time name="total">    6.90    6.98</time>
   <dipole>
    <v name="dipole">      0.00000000       0.00000000       0.33957732 </v>
    <i name="Tr[quadrupol]"> -10342.16829874 </i>
    <i name="Echarged">      0.00000000 </i>
    <i name="Edipol_quadrupol">      0.00000000 </i>
    <i name="Eion">      0.00000000 </i>
   </dipole>
   <energy>
    <i name="e_fr_energy">   -197.83860810 </i>
    <i name="e_wo_entrp">   -197.60735186 </i>
    <i name="e_0_energy">   -197.72297998 </i>
   </energy>
  </scstep>
  <scstep>
   <time name="diag">    1.68    1.68</time>
   <time name="diis">    4.57    4.57</time>
   <time name="orth">    0.41    0.41</time>
   <time name="total">    7.03    7.04</time>
   <dipole>
    <v name="dipole">      0.00000000       0.00000000      -0.87384456 </v>
    <i name="Tr[quadrupol]"> -10342.50338070 </i>
    <i name="Echarged">      0.00000000 </i>
    <i name="Edipol_quadrupol">      0.00000000 </i>
    <i name="Eion">      0.00000000 </i>
   </dipole>
   <energy>
    <i name="e_fr_energy">   -202.56612647 </i>
    <i name="e_wo_entrp">   -202.37636240 </i>
    <i name="e_0_energy">   -202.47124444 </i>
   </energy>
  </scstep>
  <scstep>
   <time name="diag">    1.70    1.70</time>
   <time name="diis">    4.54    4.54</time>
   <time name="orth">    0.41    0.41</time>
   <time name="total">    7.02    7.02</time>
   <dipole>
    <v name="dipole">      0.00000000       0.00000000       2.37890448 </v>
    <i name="Tr[quadrupol]"> -10344.70603195 </i>
    <i name="Echarged">      0.00000000 </i>
    <i name="Edipol_quadrupol">      0.00000000 </i>
    <i name="Eion">      0.00000000 </i>
   </dipole>
   <energy>
    <i name="e_fr_energy">   -234.71998949 </i>
    <i name="e_wo_entrp">   -234.36008296 </i>
    <i name="e_0_energy">   -234.54003623 </i>
   </energy>
  </scstep>
  <scstep>
   <time name="diag">    1.68    1.68</time>
   <time name="diis">    4.49    4.49</time>
   <time name="orth">    0.42    0.42</time>
   <time name="total">    6.95    6.96</time>
   <dipole>
    <v name="dipole">      0.00000000       0.00000000      -0.58004307 </v>
    <i name="Tr[quadrupol]"> -10345.64100105 </i>
    <i name="Echarged">      0.00000000 </i>
    <i name="Edipol_quadrupol">      0.00000000 </i>
    <i name="Eion">      0.00000000 </i>
   </dipole>
   <energy>
    <i name="e_fr_energy">   -214.92338585 </i>
    <i name="e_wo_entrp">   -214.72227430 </i>
    <i name="e_0_energy">   -214.82283007 </i>
   </energy>
  </scstep>
  <scstep>
   <time name="diag">    1.68    1.68</time>
   <time name="diis">    4.56    4.56</time>
   <time name="orth">    0.41    0.41</time>
   <time name="total">    7.01    7.02</time>
   <dipole>
    <v name="dipole">      0.00000000       0.00000000       0.23774889 </v>
    <i name="Tr[quadrupol]"> -10343.98382884 </i>
    <i name="Echarged">      0.00000000 </i>
    <i name="Edipol_quadrupol">      0.00000000 </i>
    <i name="Eion">      0.00000000 </i>
   </dipole>
   <energy>
    <i name="e_fr_energy">   -197.45540158 </i>
    <i name="e_wo_entrp">   -197.30103795 </i>
    <i name="e_0_energy">   -197.37821976 </i>
   </energy>
  </scstep>
  <scstep>
   <time name="diag">    1.68    1.68</time>
   <time name="diis">    4.58    4.58</time>
   <time name="orth">    0.40    0.40</time>
   <time name="total">    7.02    7.03</time>
   <dipole>
    <v name="dipole">      0.00000000       0.00000000       0.11386890 </v>
    <i name="Tr[quadrupol]"> -10344.47336934 </i>
    <i name="Echarged">      0.00000000 </i>
    <i name="Edipol_quadrupol">      0.00000000 </i>
    <i name="Eion">      0.00000000 </i>
   </dipole>
   <energy>
    <i name="e_fr_energy">   -190.48591588 </i>
    <i name="e_wo_entrp">   -190.30664122 </i>
    <i name="e_0_energy">   -190.39627855 </i>
   </energy>
  </scstep>
  <scstep>
   <time name="diag">    1.69    1.69</time>
   <time name="diis">    4.36    4.43</time>
   <time name="orth">    0.40    0.40</time>
   <time name="total">    6.82    7.03</time>
   <dipole>
    <v name="dipole">      0.00000000       0.00000000       0.07530930 </v>
    <i name="Tr[quadrupol]"> -10344.98939785 </i>
    <i name="Echarged">      0.00000000 </i>
    <i name="Edipol_quadrupol">      0.00000000 </i>
    <i name="Eion">      0.00000000 </i>
   </dipole>
   <energy>
    <i name="e_fr_energy">   -187.88982067 </i>
    <i name="e_wo_entrp">   -187.68062687 </i>
    <i name="e_0_energy">   -187.78522377 </i>
   </energy>
  </scstep>
  <scstep>
   <time name="diag">    1.46    2.11</time>
   <time name="diis">    4.56    4.56</time>
   <time name="orth">    0.40    0.40</time>
   <time name="total">    6.78    7.47</time>
   <dipole>
    <v name="dipole">      0.00000000       0.00000000      -0.00943387 </v>
    <i name="Tr[quadrupol]"> -10345.31869916 </i>
    <i name="Echarged">      0.00000000 </i>
    <i name="Edipol_quadrupol">      0.00000000 </i>
    <i name="Eion">      0.00000000 </i>
   </dipole>
   <energy>
    <i name="e_fr_energy">   -188.04333712 </i>
    <i name="e_wo_entrp">   -187.79181581 </i>
    <i name="e_0_energy">   -187.91757647 </i>
   </energy>
  </scstep>
  <scstep>
   <time name="diag">    1.66    1.66</time>
   <time name="diis">    4.60    4.60</time>
   <time name="orth">    0.40    0.40</time>
   <time name="total">    7.02    7.03</time>
   <dipole>
    <v name="dipole">      0.00000000       0.00000000       0.00762001 </v>
    <i name="Tr[quadrupol]"> -10345.42899104 </i>
    <i name="Echarged">      0.00000000 </i>
    <i name="Edipol_quadrupol">      0.00000000 </i>
    <i name="Eion">      0.00000000 </i>
   </dipole>
   <energy>
    <i name="e_fr_energy">   -187.95127638 </i>
    <i name="e_wo_entrp">   -187.72008971 </i>
    <i name="e_0_energy">   -187.83568305 </i>
   </energy>
  </scstep>
  <scstep>
   <time name="diag">    1.67    1.67</time>
   <time name="diis">    4.52    4.53</time>
   <time name="orth">    0.40    0.40</time>
   <time name="total">    6.96    6.96</time>
   <dipole>
    <v name="dipole">      0.00000000       0.00000000       0.02070739 </v>
    <i name="Tr[quadrupol]"> -10345.69581163 </i>
    <i name="Echarged">      0.00000000 </i>
    <i name="Edipol_quadrupol">      0.00000000 </i>
    <i name="Eion">      0.00000000 </i>
   </dipole>
   <energy>
    <i name="e_fr_energy">   -187.83126040 </i>
    <i name="e_wo_entrp">   -187.58327415 </i>
    <i name="e_0_energy">   -187.70726727 </i>
   </energy>
  </scstep>
  <scstep>
   <time name="diag">    1.69    1.70</time>
   <time name="diis">    4.45    4.46</time>
   <time name="orth">    0.40    0.40</time>
   <time name="total">    6.91    6.92</time>
   <dipole>
    <v name="dipole">      0.00000000       0.00000000       0.03106437 </v>
    <i name="Tr[quadrupol]"> -10346.02318452 </i>
    <i name="Echarged">      0.00000000 </i>
    <i name="Edipol_quadrupol">      0.00000000 </i>
    <i name="Eion">      0.00000000 </i>
   </dipole>
   <energy>
    <i name="e_fr_energy">   -187.71823900 </i>
    <i name="e_wo_entrp">   -187.47770555 </i>
    <i name="e_0_energy">   -187.59797227 </i>
   </energy>
  </scstep>
  <scstep>
   <time name="diag">    1.66    1.66</time>
   <time name="diis">    4.57    4.57</time>
   <time name="orth">    0.40    0.40</time>
   <time name="total">    7.00    7.00</time>
   <dipole>
    <v name="dipole">      0.00000000       0.00000000       0.02159474 </v>
    <i name="Tr[quadrupol]"> -10346.32804425 </i>
    <i name="Echarged">      0.00000000 </i>
    <i name="Edipol_quadrupol">      0.00000000 </i>
    <i name="Eion">      0.00000000 </i>
   </dipole>
   <energy>
    <i name="e_fr_energy">   -187.62725668 </i>
    <i name="e_wo_entrp">   -187.38202401 </i>
    <i name="e_0_energy">   -187.50464034 </i>
   </energy>
  </scstep>
  <scstep>
   <time name="diag">    1.62    1.69</time>
   <time name="diis">    4.53    4.53</time>
   <time name="orth">    0.40    0.40</time>
   <time name="total">    6.91    6.98</time>
   <dipole>
    <v name="dipole">      0.00000000       0.00000000       0.01321750 </v>
    <i name="Tr[quadrupol]"> -10346.57061516 </i>
    <i name="Echarged">      0.00000000 </i>
    <i name="Edipol_quadrupol">      0.00000000 </i>
    <i name="Eion">      0.00000000 </i>
   </dipole>
   <energy>
    <i name="e_fr_energy">   -187.55306542 </i>
    <i name="e_wo_entrp">   -187.30580656 </i>
    <i name="e_0_energy">   -187.42943599 </i>
   </energy>
  </scstep>
  <scstep>
   <time name="diag">    1.66    1.66</time>
   <time name="diis">    4.48    4.48</time>
   <time name="orth">    0.40    0.40</time>
   <time name="total">    6.90    6.91</time>
   <dipole>
    <v name="dipole">      0.00000000       0.00000000       0.01034389 </v>
    <i name="Tr[quadrupol]"> -10346.66245506 </i>
    <i name="Echarged">      0.00000000 </i>
    <i name="Edipol_quadrupol">      0.00000000 </i>
    <i name="Eion">      0.00000000 </i>
   </dipole>
   <energy>
    <i name="e_fr_energy">   -187.53868502 </i>
    <i name="e_wo_entrp">   -187.28754996 </i>
    <i name="e_0_energy">   -187.41311749 </i>
   </energy>
  </scstep>
  <scstep>
   <time name="diag">    1.68    1.68</time>
   <time name="diis">    4.55    4.55</time>
   <time name="orth">    0.40    0.40</time>
   <time name="total">    6.98    6.99</time>
   <dipole>
    <v name="dipole">      0.00000000       0.00000000       0.00799508 </v>
    <i name="Tr[quadrupol]"> -10346.77667023 </i>
    <i name="Echarged">      0.00000000 </i>
    <i name="Edipol_quadrupol">      0.00000000 </i>
    <i name="Eion">      0.00000000 </i>
   </dipole>
   <energy>
    <i name="e_fr_energy">   -187.53415661 </i>
    <i name="e_wo_entrp">   -187.28248735 </i>
    <i name="e_0_energy">   -187.40832198 </i>
   </energy>
  </scstep>
  <scstep>
   <time name="diag">    1.65    1.65</time>
   <time name="diis">    4.03    4.86</time>
   <time name="orth">    0.40    0.40</time>
   <time name="total">    6.43    7.27</time>
   <dipole>
    <v name="dipole">      0.00000000       0.00000000       0.00718019 </v>
    <i name="Tr[quadrupol]"> -10346.92186736 </i>
    <i name="Echarged">      0.00000000 </i>
    <i name="Edipol_quadrupol">      0.00000000 </i>
    <i name="Eion">      0.00000000 </i>
   </dipole>
   <energy>
    <i name="e_fr_energy">   -187.53214291 </i>
    <i name="e_wo_entrp">   -187.27958173 </i>
    <i name="e_0_energy">   -187.40586232 </i>
   </energy>
  </scstep>
  <scstep>
   <time name="diag">    1.65    1.65</time>
   <time name="diis">    4.42    4.42</time>
   <time name="orth">    0.40    0.40</time>
   <time name="total">    6.83    6.84</time>
   <dipole>
    <v name="dipole">      0.00000000       0.00000000       0.00614211 </v>
    <i name="Tr[quadrupol]"> -10347.09536243 </i>
    <i name="Echarged">      0.00000000 </i>
    <i name="Edipol_quadrupol">      0.00000000 </i>
    <i name="Eion">      0.00000000 </i>
   </dipole>
   <energy>
    <i name="e_fr_energy">   -187.53030713 </i>
    <i name="e_wo_entrp">   -187.27847330 </i>
    <i name="e_0_energy">   -187.40439022 </i>
   </energy>
  </scstep>
  <scstep>
   <time name="diag">    1.66    1.66</time>
   <time name="diis">    4.49    4.54</time>
   <time name="orth">    0.39    0.40</time>
   <time name="total">    6.90    6.97</time>
   <dipole>
    <v name="dipole">      0.00000000       0.00000000       0.00753997 </v>
    <i name="Tr[quadrupol]"> -10347.25126963 </i>
    <i name="Echarged">      0.00000000 </i>
    <i name="Edipol_quadrupol">      0.00000000 </i>
    <i name="Eion">      0.00000000 </i>
   </dipole>
   <energy>
    <i name="e_fr_energy">   -187.52962571 </i>
    <i name="e_wo_entrp">   -187.27847246 </i>
    <i name="e_0_energy">   -187.40404908 </i>
   </energy>
  </scstep>
  <scstep>
   <time name="diag">    1.68    1.68</time>
   <time name="diis">    4.57    4.57</time>
   <time name="orth">    0.40    0.40</time>
   <time name="total">    7.00    7.01</time>
   <dipole>
    <v name="dipole">      0.00000000       0.00000000       0.00908787 </v>
    <i name="Tr[quadrupol]"> -10347.35125514 </i>
    <i name="Echarged">      0.00000000 </i>
    <i name="Edipol_quadrupol">      0.00000000 </i>
    <i name="Eion">      0.00000000 </i>
   </dipole>
   <energy>
    <i name="e_fr_energy">   -187.52953463 </i>
    <i name="e_wo_entrp">   -187.27822986 </i>
    <i name="e_0_energy">   -187.40388225 </i>
   </energy>
  </scstep>
  <scstep>
   <time name="diag">    1.65    1.65</time>
   <time name="diis">    4.57    4.58</time>
   <time name="orth">    0.40    0.40</time>
   <time name="total">    6.98    6.99</time>
   <dipole>
    <v name="dipole">      0.00000000       0.00000000       0.00744409 </v>
    <i name="Tr[quadrupol]"> -10347.43833636 </i>
    <i name="Echarged">      0.00000000 </i>
    <i name="Edipol_quadrupol">      0.00000000 </i>
    <i name="Eion">      0.00000000 </i>
   </dipole>
   <energy>
    <i name="e_fr_energy">   -187.52970455 </i>
    <i name="e_wo_entrp">   -187.27844767 </i>
    <i name="e_0_energy">   -187.40407611 </i>
   </energy>
  </scstep>
  <scstep>
   <time name="diag">    1.65    1.65</time>
   <time name="diis">    4.56    4.56</time>
   <time name="orth">    0.40    0.40</time>
   <time name="total">    6.98    6.98</time>
   <dipole>
    <v name="dipole">      0.00000000       0.00000000       0.00656011 </v>
    <i name="Tr[quadrupol]"> -10347.52780353 </i>
    <i name="Echarged">      0.00000000 </i>
    <i name="Edipol_quadrupol">      0.00000000 </i>
    <i name="Eion">      0.00000000 </i>
   </dipole>
   <energy>
    <i name="e_fr_energy">   -187.53001126 </i>
    <i name="e_wo_entrp">   -187.27872628 </i>
    <i name="e_0_energy">   -187.40436877 </i>
   </energy>
  </scstep>
  <scstep>
   <time name="diag">    1.67    1.67</time>
   <time name="diis">    4.53    4.53</time>
   <time name="orth">    0.40    0.40</time>
   <time name="total">    6.96    6.96</time>
   <dipole>
    <v name="dipole">      0.00000000       0.00000000       0.00623911 </v>
    <i name="Tr[quadrupol]"> -10347.64020424 </i>
    <i name="Echarged">      0.00000000 </i>
    <i name="Edipol_quadrupol">      0.00000000 </i>
    <i name="Eion">      0.00000000 </i>
   </dipole>
   <energy>
    <i name="e_fr_energy">   -187.53055366 </i>
    <i name="e_wo_entrp">   -187.27962615 </i>
    <i name="e_0_energy">   -187.40508990 </i>
   </energy>
  </scstep>
  <scstep>
   <time name="diag">    1.68    1.68</time>
   <time name="diis">    4.48    4.48</time>
   <time name="orth">    0.40    0.40</time>
   <time name="total">    6.91    6.92</time>
   <dipole>
    <v name="dipole">      0.00000000       0.00000000       0.00668393 </v>
    <i name="Tr[quadrupol]"> -10347.69786836 </i>
    <i name="Echarged">      0.00000000 </i>
    <i name="Edipol_quadrupol">      0.00000000 </i>
    <i name="Eion">      0.00000000 </i>
   </dipole>
   <energy>
    <i name="e_fr_energy">   -187.53096209 </i>
    <i name="e_wo_entrp">   -187.27995698 </i>
    <i name="e_0_energy">   -187.40545953 </i>
   </energy>
  </scstep>
  <scstep>
   <time name="diag">    1.65    1.65</time>
   <time name="diis">    4.41    4.49</time>
   <time name="orth">    0.40    0.40</time>
   <time name="total">    6.82    6.90</time>
   <dipole>
    <v name="dipole">      0.00000000       0.00000000       0.00589200 </v>
    <i name="Tr[quadrupol]"> -10347.78773817 </i>
    <i name="Echarged">      0.00000000 </i>
    <i name="Edipol_quadrupol">      0.00000000 </i>
    <i name="Eion">      0.00000000 </i>
   </dipole>
   <energy>
    <i name="e_fr_energy">   -187.53174331 </i>
    <i name="e_wo_entrp">   -187.28080466 </i>
    <i name="e_0_energy">   -187.40627398 </i>
   </energy>
  </scstep>
  <scstep>
   <time name="diag">    1.63    1.74</time>
   <time name="diis">    3.86    4.40</time>
   <time name="orth">    0.40    0.40</time>
   <time name="total">    6.25    6.90</time>
   <dipole>
    <v name="dipole">      0.00000000       0.00000000       0.00544966 </v>
    <i name="Tr[quadrupol]"> -10347.83127042 </i>
    <i name="Echarged">      0.00000000 </i>
    <i name="Edipol_quadrupol">      0.00000000 </i>
    <i name="Eion">      0.00000000 </i>
   </dipole>
   <energy>
    <i name="e_fr_energy">   -187.53212711 </i>
    <i name="e_wo_entrp">   -187.28110980 </i>
    <i name="e_0_energy">   -187.40661845 </i>
   </energy>
  </scstep>
  <scstep>
   <time name="diag">    1.68    1.68</time>
   <time name="diis">    4.35    4.36</time>
   <time name="orth">    0.40    0.40</time>
   <time name="total">    6.79    6.80</time>
   <dipole>
    <v name="dipole">      0.00000000       0.00000000       0.00435336 </v>
    <i name="Tr[quadrupol]"> -10347.91438360 </i>
    <i name="Echarged">      0.00000000 </i>
    <i name="Edipol_quadrupol">      0.00000000 </i>
    <i name="Eion">      0.00000000 </i>
   </dipole>
   <energy>
    <i name="e_fr_energy">   -187.53273783 </i>
    <i name="e_wo_entrp">   -187.28167708 </i>
    <i name="e_0_energy">   -187.40720746 </i>
   </energy>
  </scstep>
  <scstep>
   <time name="diag">    1.68    1.68</time>
   <time name="diis">    3.58    3.58</time>
   <time name="orth">    0.40    0.40</time>
   <time name="total">    6.01    6.03</time>
   <dipole>
    <v name="dipole">      0.00000000       0.00000000       0.00414130 </v>
    <i name="Tr[quadrupol]"> -10347.93624553 </i>
    <i name="Echarged">      0.00000000 </i>
    <i name="Edipol_quadrupol">      0.00000000 </i>
    <i name="Eion">      0.00000000 </i>
   </dipole>
   <energy>
    <i name="e_fr_energy">   -187.53288975 </i>
    <i name="e_wo_entrp">   -187.28185666 </i>
    <i name="e_0_energy">   -187.40737320 </i>
   </energy>
  </scstep>
  <scstep>
   <time name="diag">    1.65    1.65</time>
   <time name="diis">    3.36    3.36</time>
   <time name="orth">    0.40    0.40</time>
   <time name="total">    5.77    5.77</time>
   <dipole>
    <v name="dipole">      0.00000000       0.00000000       0.00400227 </v>
    <i name="Tr[quadrupol]"> -10347.95554491 </i>
    <i name="Echarged">      0.00000000 </i>
    <i name="Edipol_quadrupol">      0.00000000 </i>
    <i name="Eion">      0.00000000 </i>
   </dipole>
   <energy>
    <i name="e_fr_energy">   -187.53301825 </i>
    <i name="e_wo_entrp">   -187.28199822 </i>
    <i name="e_0_energy">   -187.40750824 </i>
   </energy>
  </scstep>
  <scstep>
   <time name="diag">    1.65    1.65</time>
   <time name="diis">    2.90    2.90</time>
   <time name="orth">    0.40    0.40</time>
   <time name="total">    5.31    5.31</time>
   <dipole>
    <v name="dipole">      0.00000000       0.00000000       0.00384582 </v>
    <i name="Tr[quadrupol]"> -10347.96566163 </i>
    <i name="Echarged">      0.00000000 </i>
    <i name="Edipol_quadrupol">      0.00000000 </i>
    <i name="Eion">      0.00000000 </i>
   </dipole>
   <energy>
    <i name="e_fr_energy">   -187.53308668 </i>
    <i name="e_wo_entrp">   -187.28206122 </i>
    <i name="e_0_energy">   -187.40757395 </i>
   </energy>
  </scstep>
  <scstep>
   <time name="diag">    1.66    1.66</time>
   <time name="diis">    2.76    2.76</time>
   <time name="orth">    0.39    0.39</time>
   <time name="total">    5.18    5.18</time>
   <dipole>
    <v name="dipole">      0.00000000       0.00000000       0.00369242 </v>
    <i name="Tr[quadrupol]"> -10347.97546840 </i>
    <i name="Echarged">      0.00000000 </i>
    <i name="Edipol_quadrupol">      0.00000000 </i>
    <i name="Eion">      0.00000000 </i>
   </dipole>
   <energy>
    <i name="e_fr_energy">   -187.53313897 </i>
    <i name="e_wo_entrp">   -187.28211159 </i>
    <i name="e_0_energy">   -187.40762528 </i>
   </energy>
  </scstep>
  <scstep>
   <time name="diag">    1.64    1.70</time>
   <time name="diis">    2.71    2.72</time>
   <time name="orth">    0.39    0.39</time>
   <time name="total">    5.11    5.19</time>
   <dipole>
    <v name="dipole">      0.00000000       0.00000000       0.00357803 </v>
    <i name="Tr[quadrupol]"> -10347.98199356 </i>
    <i name="Echarged">      0.00000000 </i>
    <i name="Edipol_quadrupol">      0.00000000 </i>
    <i name="Eion">      0.00000000 </i>
   </dipole>
   <energy>
    <i name="e_fr_energy">   -187.53317227 </i>
    <i name="e_wo_entrp">   -187.28214339 </i>
    <i name="e_0_energy">   -187.40765783 </i>
   </energy>
  </scstep>
  <scstep>
   <time name="diag">    1.64    1.64</time>
   <time name="diis">    2.76    2.76</time>
   <time name="orth">    0.39    0.39</time>
   <time name="total">    5.16    5.16</time>
   <dipole>
    <v name="dipole">      0.00000000       0.00000000       0.00347674 </v>
    <i name="Tr[quadrupol]"> -10347.98926583 </i>
    <i name="Echarged">      0.00000000 </i>
    <i name="Edipol_quadrupol">      0.00000000 </i>
    <i name="Eion">      0.00000000 </i>
   </dipole>
   <energy>
    <i name="e_fr_energy">   -187.53319783 </i>
    <i name="e_wo_entrp">   -187.28217521 </i>
    <i name="e_0_energy">   -187.40768652 </i>
   </energy>
  </scstep>
  <scstep>
   <time name="diag">    1.65    1.65</time>
   <time name="diis">    2.51    2.52</time>
   <time name="orth">    0.39    0.39</time>
   <time name="total">    4.92    4.93</time>
   <dipole>
    <v name="dipole">      0.00000000       0.00000000       0.00341114 </v>
    <i name="Tr[quadrupol]"> -10347.99482428 </i>
    <i name="Echarged">      0.00000000 </i>
    <i name="Edipol_quadrupol">      0.00000000 </i>
    <i name="Eion">      0.00000000 </i>
   </dipole>
   <energy>
    <i name="e_fr_energy">   -187.53320775 </i>
    <i name="e_wo_entrp">   -187.28218424 </i>
    <i name="e_0_energy">   -187.40769600 </i>
   </energy>
  </scstep>
  <scstep>
   <time name="diag">    1.66    1.66</time>
   <time name="diis">    2.31    2.32</time>
   <time name="orth">    0.39    0.39</time>
   <time name="total">    4.73    4.74</time>
   <dipole>
    <v name="dipole">      0.00000000       0.00000000       0.00337025 </v>
    <i name="Tr[quadrupol]"> -10347.99845693 </i>
    <i name="Echarged">      0.00000000 </i>
    <i name="Edipol_quadrupol">      0.00000000 </i>
    <i name="Eion">      0.00000000 </i>
   </dipole>
   <energy>
    <i name="e_fr_energy">   -187.53321043 </i>
    <i name="e_wo_entrp">   -187.28218532 </i>
    <i name="e_0_energy">   -187.40769787 </i>
   </energy>
  </scstep>
  <scstep>
   <time name="diag">    1.68    1.68</time>
   <time name="diis">    2.21    2.21</time>
   <time name="orth">    0.39    0.39</time>
   <time name="total">    4.65    4.65</time>
   <dipole>
    <v name="dipole">      0.00000000       0.00000000       0.00334480 </v>
    <i name="Tr[quadrupol]"> -10348.00197727 </i>
    <i name="Echarged">      0.00000000 </i>
    <i name="Edipol_quadrupol">      0.00000000 </i>
    <i name="Eion">      0.00000000 </i>
   </dipole>
   <energy>
    <i name="e_fr_energy">   -187.53321185 </i>
    <i name="e_wo_entrp">   -187.28218862 </i>
    <i name="e_0_energy">   -187.40770023 </i>
   </energy>
  </scstep>
  <scstep>
   <time name="diag">    1.52    1.92</time>
   <time name="diis">    1.89    2.24</time>
   <time name="orth">    0.39    0.39</time>
   <time name="total">    3.86    4.62</time>
   <dipole>
    <v name="dipole">      0.00000000       0.00000000       0.00332984 </v>
    <i name="Tr[quadrupol]"> -10348.00424716 </i>
    <i name="Echarged">      0.00000000 </i>
    <i name="Edipol_quadrupol">      0.00000000 </i>
    <i name="Eion">      0.00000000 </i>
   </dipole>
   <energy>
    <i name="alphaZ">    805.86989094 </i>
    <i name="ewald"> 200872.37171578 </i>
    <i name="hartreedc">-243049.07156928 </i>
    <i name="XCdc">   -342.93356712 </i>
    <i name="pawpsdc">  49507.25416559 </i>
    <i name="pawaedc"> -47584.82100518 </i>
    <i name="eentropy">     -0.25102378 </i>
    <i name="bandstr">  -2055.73769194 </i>
    <i name="atom">  41659.78587232 </i>
    <i name="e_fr_energy">   -187.53321267 </i>
    <i name="e_wo_entrp">   -187.28218889 </i>
    <i name="e_0_energy">   -187.40770078 </i>
   </energy>
  </scstep>
  <structure>
   <crystal>
    <varray name="basis" >
     <v>      11.00258152       0.00000000       0.00000000 </v>
     <v>       5.50129076       9.52851510       0.00000000 </v>
     <v>       0.00000000       0.00000000      24.49178509 </v>
    </varray>
    <i name="volume">   2567.67623402 </i>
    <varray name="rec_basis" >
     <v>       0.09088776      -0.05247407       0.00000000 </v>
     <v>       0.00000000       0.10494815       0.00000000 </v>
     <v>       0.00000000       0.00000000       0.04083002 </v>
    </varray>
   </crystal>
   <varray name="positions" >
    <v>       0.08333333       0.08333333       0.40830017 </v>
    <v>       0.58333333       0.08333333       0.40830017 </v>
    <v>       0.41666667       0.16666667       0.50000000 </v>
    <v>       0.41666667       0.41666667       0.50000000 </v>
    <v>       0.50000000       0.25000000       0.59169983 </v>
    <v>       0.58333333       0.58333333       0.40830017 </v>
    <v>       0.41666667       0.66666667       0.50000000 </v>
    <v>       0.41666667       0.91666667       0.50000000 </v>
    <v>       0.50000000       0.75000000       0.59169983 </v>
    <v>       0.66666667       0.16666667       0.50000000 </v>
    <v>       0.83333333       0.33333333       0.40830017 </v>
    <v>       0.66666667       0.41666667       0.50000000 </v>
    <v>       0.83333333       0.58333333       0.40830017 </v>
    <v>       0.66666667       0.66666667       0.50000000 </v>
    <v>       0.75000000       0.50000000       0.59169983 </v>
    <v>       0.83333333       0.83333333       0.40830017 </v>
    <v>       0.16666667       0.66666667       0.50000000 </v>
    <v>       0.33333333       0.58333333       0.40830017 </v>
    <v>       0.75000000       0.75000000       0.59169983 </v>
    <v>       0.16666667       0.41666667       0.50000000 </v>
    <v>       0.00000000       0.00000000       0.59169983 </v>
    <v>       0.91666667       0.41666667       0.50000000 </v>
    <v>       0.00000000       0.25000000       0.59169983 </v>
    <v>       0.91666667       0.66666667       0.50000000 </v>
    <v>       0.91666667       0.16666667       0.50000000 </v>
    <v>       0.08333333       0.33333333       0.40830017 </v>
    <v>       0.75000000       0.25000000       0.59169983 </v>
    <v>       0.08333333       0.58333333       0.40830017 </v>
    <v>       0.75000000       0.00000000       0.59169983 </v>
    <v>       0.83333333       0.08333333       0.40830017 </v>
    <v>       0.00000000       0.50000000       0.59169983 </v>
    <v>       0.08333333       0.83333333       0.40830017 </v>
    <v>       0.25000000       0.25000000       0.59169983 </v>
    <v>       0.58333333       0.83333333       0.40830017 </v>
    <v>       0.91666667       0.91666667       0.50000000 </v>
    <v>       0.00000000       0.75000000       0.59169983 </v>
    <v>       0.33333333       0.08333333       0.40830017 </v>
    <v>       0.16666667       0.16666667       0.50000000 </v>
    <v>       0.58333333       0.33333333       0.40830017 </v>
    <v>       0.50000000       0.00000000       0.59169983 </v>
    <v>       0.25000000       0.00000000       0.59169983 </v>
    <v>       0.33333333       0.33333333       0.40830017 </v>
    <v>       0.66666667       0.91666667       0.50000000 </v>
    <v>       0.16666667       0.91666667       0.50000000 </v>
    <v>       0.33333333       0.83333333       0.40830017 </v>
    <v>       0.25000000       0.50000000       0.59169983 </v>
    <v>       0.50000000       0.50000000       0.59169983 </v>
    <v>       0.25000000       0.75000000       0.59169983 </v>
   </varray>
  </structure>
  <varray name="forces" >
   <v>       0.08732125      -0.22777113      -1.03867768 </v>
   <v>      -0.10098148       0.04816731      -1.55483226 </v>
   <v>      -0.55094907      -0.26133699      -0.00120319 </v>
   <v>      -0.07273459      -0.00328976       0.04607315 </v>
   <v>       0.00026114      -0.01679611       1.79277293 </v>
   <v>      -0.14350599       0.20294415      -1.89621262 </v>
   <v>      -0.38267439       0.43159538       0.28142141 </v>
   <v>      -0.15257934       0.48521165      -0.25057940 </v>
   <v>      -0.36756657       0.22527812       1.83849194 </v>
   <v>       0.62977174      -0.50617145       0.02154799 </v>
   <v>      -0.08001261      -0.37277695      -1.60184183 </v>
   <v>      -0.24970775      -0.55621780       0.27121527 </v>
   <v>       0.25176386       0.01818487      -1.88770530 </v>
   <v>       0.13616916       0.57567546      -0.25988074 </v>
   <v>      -0.12922819      -0.22044935       1.86290748 </v>
   <v>       0.23109163       0.16038723      -1.38085134 </v>
   <v>      -0.16225041       0.59067624       0.27541995 </v>
   <v>      -0.25503067       0.01640432      -1.83847295 </v>
   <v>       0.41292726       0.39088007       1.60865739 </v>
   <v>      -0.12595777      -0.27300045       0.01021454 </v>
   <v>      -0.07404003      -0.19386882       1.08777732 </v>
   <v>       0.46885356      -0.57555231       0.04038813 </v>
   <v>       0.24069720      -0.17747257       1.36907970 </v>
   <v>       0.45317783       0.30906893       0.25505466 </v>
   <v>      -0.02059762      -0.35395555      -0.02446841 </v>
   <v>       0.34856592      -0.10609266      -0.87715053 </v>
   <v>      -0.07372461      -0.04904359       0.88177047 </v>
   <v>       0.05811522      -0.10599791      -1.03173545 </v>
   <v>      -0.01618041      -0.12816494       0.68701461 </v>
   <v>       0.07523654      -0.11890211      -0.68570576 </v>
   <v>       0.31018486      -0.04444843       1.03112199 </v>
   <v>       0.00057599       0.13852841      -0.64754998 </v>
   <v>      -0.06261766      -0.01045491       0.84996453 </v>
   <v>      -0.18245009       0.18227129      -0.89541201 </v>
   <v>       0.10654936       0.14662450       0.03565995 </v>
   <v>       0.07120592       0.02908778       0.78354852 </v>
   <v>      -0.08864376       0.00980288      -0.78721287 </v>
   <v>      -0.08221981      -0.21704038      -0.01385016 </v>
   <v>      -0.08096603      -0.13619230      -1.08444969 </v>
   <v>      -0.01081981       0.09663476       0.89442689 </v>
   <v>       0.06720519       0.04209607       0.64340308 </v>
   <v>      -0.18771825      -0.02067465      -1.03900816 </v>
   <v>       0.11760065       0.08815490       0.17156354 </v>
   <v>      -0.11411016       0.18724257      -0.00877806 </v>
   <v>       0.03315900       0.18788168      -0.86800955 </v>
   <v>      -0.07648659       0.15718783       1.05065173 </v>
   <v>      -0.14707270       0.02440054       1.06394084 </v>
   <v>      -0.10960692      -0.06871579       0.81949994 </v>
  </varray>
  <energy>
   <i name="e_fr_energy">   -187.53321267 </i>
   <i name="e_wo_entrp">   -187.40770078 </i>
   <i name="e_0_energy">     -0.25102378 </i>
  </energy>
  <time name="totalsc">  286.77  291.30</time>
 </calculation>
 <calculation>
  <scstep>
   <time name="dav">    9.56    9.63</time>
   <time name="total">    9.93   10.00</time>
   <dipole>
    <v name="dipole">      0.00000000       0.00000000       0.00331817 </v>
    <i name="Tr[quadrupol]"> -10313.33487240 </i>
    <i name="Echarged">      0.00000000 </i>
    <i name="Edipol_quadrupol">      0.00000000 </i>
    <i name="Eion">      0.00000000 </i>
   </dipole>
   <energy>
    <i name="alphaZ">    805.86989659 </i>
    <i name="ewald"> 198063.91737356 </i>
    <i name="hartreedc">-240258.22654662 </i>
    <i name="XCdc">   -345.27989469 </i>
    <i name="pawpsdc">  49507.25129055 </i>
    <i name="pawaedc"> -47584.81807196 </i>
    <i name="eentropy">     -0.23710033 </i>
    <i name="bandstr">  -2036.97274773 </i>
    <i name="atom">  41659.78587232 </i>
    <i name="e_fr_energy">   -188.70992831 </i>
    <i name="e_wo_entrp">   -188.47282798 </i>
    <i name="e_0_energy">   -188.59137814 </i>
   </energy>
  </scstep>
  <scstep>
   <time name="diag">    1.65    1.65</time>
   <time name="diis">    4.53    4.53</time>
   <time name="orth">    0.40    0.40</time>
   <time name="total">    6.94    6.95</time>
   <dipole>
    <v name="dipole">      0.00000000       0.00000000       0.00612941 </v>
    <i name="Tr[quadrupol]"> -10313.08001574 </i>
    <i name="Echarged">      0.00000000 </i>
    <i name="Edipol_quadrupol">      0.00000000 </i>
    <i name="Eion">      0.00000000 </i>
   </dipole>
   <energy>
    <i name="e_fr_energy">   -189.11903879 </i>
    <i name="e_wo_entrp">   -188.87899823 </i>
    <i name="e_0_energy">   -188.99901851 </i>
   </energy>
  </scstep>
  <scstep>
   <time name="diag">    1.65    1.66</time>
   <time name="diis">    4.51    4.52</time>
   <time name="orth">    0.40    0.40</time>
   <time name="total">    6.93    6.94</time>
   <dipole>
    <v name="dipole">      0.00000000       0.00000000      -0.03532234 </v>
    <i name="Tr[quadrupol]"> -10313.46248198 </i>
    <i name="Echarged">      0.00000000 </i>
    <i name="Edipol_quadrupol">      0.00000000 </i>
    <i name="Eion">      0.00000000 </i>
   </dipole>
   <energy>
    <i name="e_fr_energy">   -189.16478536 </i>
    <i name="e_wo_entrp">   -188.92284128 </i>
    <i name="e_0_energy">   -189.04381332 </i>
   </energy>
  </scstep>
  <scstep>
   <time name="diag">    1.69    1.69</time>
   <time name="diis">    4.55    4.55</time>
   <time name="orth">    0.40    0.40</time>
   <time name="total">    7.00    7.01</time>
   <dipole>
    <v name="dipole">      0.00000000       0.00000000       0.07269861 </v>
    <i name="Tr[quadrupol]"> -10313.45442658 </i>
    <i name="Echarged">      0.00000000 </i>
    <i name="Edipol_quadrupol">      0.00000000 </i>
    <i name="Eion">      0.00000000 </i>
   </dipole>
   <energy>
    <i name="e_fr_energy">   -189.17320766 </i>
    <i name="e_wo_entrp">   -188.94414204 </i>
    <i name="e_0_energy">   -189.05867485 </i>
   </energy>
  </scstep>
  <scstep>
   <time name="diag">    1.64    1.64</time>
   <time name="diis">    4.46    4.47</time>
   <time name="orth">    0.40    0.40</time>
   <time name="total">    6.87    6.88</time>
   <dipole>
    <v name="dipole">      0.00000000       0.00000000      -0.05225360 </v>
    <i name="Tr[quadrupol]"> -10313.43613411 </i>
    <i name="Echarged">      0.00000000 </i>
    <i name="Edipol_quadrupol">      0.00000000 </i>
    <i name="Eion">      0.00000000 </i>
   </dipole>
   <energy>
    <i name="e_fr_energy">   -189.17107798 </i>
    <i name="e_wo_entrp">   -188.93678415 </i>
    <i name="e_0_energy">   -189.05393106 </i>
   </energy>
  </scstep>
  <scstep>
   <time name="diag">    1.65    1.65</time>
   <time name="diis">    4.47    4.47</time>
   <time name="orth">    0.40    0.40</time>
   <time name="total">    6.88    6.89</time>
   <dipole>
    <v name="dipole">      0.00000000       0.00000000       0.00786211 </v>
    <i name="Tr[quadrupol]"> -10313.40918642 </i>
    <i name="Echarged">      0.00000000 </i>
    <i name="Edipol_quadrupol">      0.00000000 </i>
    <i name="Eion">      0.00000000 </i>
   </dipole>
   <energy>
    <i name="e_fr_energy">   -189.10426856 </i>
    <i name="e_wo_entrp">   -188.86779079 </i>
    <i name="e_0_energy">   -188.98602967 </i>
   </energy>
  </scstep>
  <scstep>
   <time name="diag">    1.66    1.66</time>
   <time name="diis">    4.38    4.46</time>
   <time name="orth">    0.40    0.40</time>
   <time name="total">    6.79    6.88</time>
   <dipole>
    <v name="dipole">      0.00000000       0.00000000       0.00175467 </v>
    <i name="Tr[quadrupol]"> -10313.40847400 </i>
    <i name="Echarged">      0.00000000 </i>
    <i name="Edipol_quadrupol">      0.00000000 </i>
    <i name="Eion">      0.00000000 </i>
   </dipole>
   <energy>
    <i name="e_fr_energy">   -189.09432527 </i>
    <i name="e_wo_entrp">   -188.85169512 </i>
    <i name="e_0_energy">   -188.97301020 </i>
   </energy>
  </scstep>
  <scstep>
   <time name="diag">    1.69    1.69</time>
   <time name="diis">    4.00    4.98</time>
   <time name="orth">    0.40    0.40</time>
   <time name="total">    6.44    7.44</time>
   <dipole>
    <v name="dipole">      0.00000000       0.00000000       0.00402150 </v>
    <i name="Tr[quadrupol]"> -10313.36930956 </i>
    <i name="Echarged">      0.00000000 </i>
    <i name="Edipol_quadrupol">      0.00000000 </i>
    <i name="Eion">      0.00000000 </i>
   </dipole>
   <energy>
    <i name="e_fr_energy">   -189.09287755 </i>
    <i name="e_wo_entrp">   -188.85226983 </i>
    <i name="e_0_energy">   -188.97257369 </i>
   </energy>
  </scstep>
  <scstep>
   <time name="diag">    1.64    1.64</time>
   <time name="diis">    4.54    4.54</time>
   <time name="orth">    0.40    0.40</time>
   <time name="total">    6.94    6.95</time>
   <dipole>
    <v name="dipole">      0.00000000       0.00000000       0.00310747 </v>
    <i name="Tr[quadrupol]"> -10313.36218232 </i>
    <i name="Echarged">      0.00000000 </i>
    <i name="Edipol_quadrupol">      0.00000000 </i>
    <i name="Eion">      0.00000000 </i>
   </dipole>
   <energy>
    <i name="e_fr_energy">   -189.09133552 </i>
    <i name="e_wo_entrp">   -188.85046996 </i>
    <i name="e_0_energy">   -188.97090274 </i>
   </energy>
  </scstep>
  <scstep>
   <time name="diag">    1.65    1.65</time>
   <time name="diis">    4.53    4.54</time>
   <time name="orth">    0.40    0.40</time>
   <time name="total">    6.94    6.95</time>
   <dipole>
    <v name="dipole">      0.00000000       0.00000000       0.00273787 </v>
    <i name="Tr[quadrupol]"> -10313.36187584 </i>
    <i name="Echarged">      0.00000000 </i>
    <i name="Edipol_quadrupol">      0.00000000 </i>
    <i name="Eion">      0.00000000 </i>
   </dipole>
   <energy>
    <i name="e_fr_energy">   -189.09131923 </i>
    <i name="e_wo_entrp">   -188.84898846 </i>
    <i name="e_0_energy">   -188.97015384 </i>
   </energy>
  </scstep>
  <scstep>
   <time name="diag">    1.65    1.65</time>
   <time name="diis">    4.53    4.53</time>
   <time name="orth">    0.40    0.40</time>
   <time name="total">    6.94    6.94</time>
   <dipole>
    <v name="dipole">      0.00000000       0.00000000       0.00212418 </v>
    <i name="Tr[quadrupol]"> -10313.35850490 </i>
    <i name="Echarged">      0.00000000 </i>
    <i name="Edipol_quadrupol">      0.00000000 </i>
    <i name="Eion">      0.00000000 </i>
   </dipole>
   <energy>
    <i name="e_fr_energy">   -189.09111758 </i>
    <i name="e_wo_entrp">   -188.84996181 </i>
    <i name="e_0_energy">   -188.97053969 </i>
   </energy>
  </scstep>
  <scstep>
   <time name="diag">    1.69    1.69</time>
   <time name="diis">    4.57    4.57</time>
   <time name="orth">    0.40    0.40</time>
   <time name="total">    7.01    7.02</time>
   <dipole>
    <v name="dipole">      0.00000000       0.00000000       0.00252476 </v>
    <i name="Tr[quadrupol]"> -10313.36459218 </i>
    <i name="Echarged">      0.00000000 </i>
    <i name="Edipol_quadrupol">      0.00000000 </i>
    <i name="Eion">      0.00000000 </i>
   </dipole>
   <energy>
    <i name="e_fr_energy">   -189.09112011 </i>
    <i name="e_wo_entrp">   -188.84927043 </i>
    <i name="e_0_energy">   -188.97019527 </i>
   </energy>
  </scstep>
  <scstep>
   <time name="diag">    1.63    1.65</time>
   <time name="diis">    4.44    4.50</time>
   <time name="orth">    0.40    0.40</time>
   <time name="total">    6.84    6.91</time>
   <dipole>
    <v name="dipole">      0.00000000       0.00000000       0.00257263 </v>
    <i name="Tr[quadrupol]"> -10313.37078364 </i>
    <i name="Echarged">      0.00000000 </i>
    <i name="Edipol_quadrupol">      0.00000000 </i>
    <i name="Eion">      0.00000000 </i>
   </dipole>
   <energy>
    <i name="e_fr_energy">   -189.09110537 </i>
    <i name="e_wo_entrp">   -188.84965531 </i>
    <i name="e_0_energy">   -188.97038034 </i>
   </energy>
  </scstep>
  <scstep>
   <time name="diag">    1.65    1.65</time>
   <time name="diis">    4.14    4.14</time>
   <time name="orth">    0.40    0.40</time>
   <time name="total">    6.55    6.56</time>
   <dipole>
    <v name="dipole">      0.00000000       0.00000000       0.00250462 </v>
    <i name="Tr[quadrupol]"> -10313.37463123 </i>
    <i name="Echarged">      0.00000000 </i>
    <i name="Edipol_quadrupol">      0.00000000 </i>
    <i name="Eion">      0.00000000 </i>
   </dipole>
   <energy>
    <i name="e_fr_energy">   -189.09110354 </i>
    <i name="e_wo_entrp">   -188.84962487 </i>
    <i name="e_0_energy">   -188.97036420 </i>
   </energy>
  </scstep>
  <scstep>
   <time name="diag">    1.66    1.66</time>
   <time name="diis">    2.81    2.81</time>
   <time name="orth">    0.40    0.40</time>
   <time name="total">    5.23    5.24</time>
   <dipole>
    <v name="dipole">      0.00000000       0.00000000       0.00246916 </v>
    <i name="Tr[quadrupol]"> -10313.37945030 </i>
    <i name="Echarged">      0.00000000 </i>
    <i name="Edipol_quadrupol">      0.00000000 </i>
    <i name="Eion">      0.00000000 </i>
   </dipole>
   <energy>
    <i name="e_fr_energy">   -189.09110520 </i>
    <i name="e_wo_entrp">   -188.84965127 </i>
    <i name="e_0_energy">   -188.97037823 </i>
   </energy>
  </scstep>
  <scstep>
   <time name="diag">    1.69    1.69</time>
   <time name="diis">    2.63    2.63</time>
   <time name="orth">    0.40    0.40</time>
   <time name="total">    4.78    4.79</time>
   <dipole>
    <v name="dipole">      0.00000000       0.00000000       0.00248078 </v>
    <i name="Tr[quadrupol]"> -10313.38142299 </i>
    <i name="Echarged">      0.00000000 </i>
    <i name="Edipol_quadrupol">      0.00000000 </i>
    <i name="Eion">      0.00000000 </i>
   </dipole>
   <energy>
    <i name="alphaZ">    805.86976233 </i>
    <i name="ewald"> 198063.91737356 </i>
    <i name="hartreedc">-240260.40679774 </i>
    <i name="XCdc">   -345.20469970 </i>
    <i name="pawpsdc">  49028.90397130 </i>
    <i name="pawaedc"> -47103.15040907 </i>
    <i name="eentropy">     -0.24145349 </i>
    <i name="bandstr">  -2038.56472540 </i>
    <i name="atom">  41659.78587232 </i>
    <i name="e_fr_energy">   -189.09110589 </i>
    <i name="e_wo_entrp">   -188.84965240 </i>
    <i name="e_0_energy">   -188.97037915 </i>
   </energy>
  </scstep>
  <structure>
   <crystal>
    <varray name="basis" >
     <v>      11.00258152       0.00000000       0.00000000 </v>
     <v>       5.50129076       9.52851510       0.00000000 </v>
     <v>       0.00000000       0.00000000      24.49178509 </v>
    </varray>
    <i name="volume">   2567.67623402 </i>
    <varray name="rec_basis" >
     <v>       0.09088776      -0.05247407       0.00000000 </v>
     <v>       0.00000000       0.10494815       0.00000000 </v>
     <v>       0.00000000       0.00000000       0.04083002 </v>
    </varray>
   </crystal>
   <varray name="positions" >
    <v>       0.08400497       0.08252609       0.40686802 </v>
    <v>       0.58293804       0.08350404       0.40615633 </v>
    <v>       0.41543876       0.16574047       0.49999834 </v>
    <v>       0.41644925       0.41665501       0.50006353 </v>
    <v>       0.50003056       0.24994047       0.59417175 </v>
    <v>       0.58253325       0.58405258       0.40568563 </v>
    <v>       0.41472733       0.66819628       0.50038803 </v>
    <v>       0.41533854       0.91838630       0.49965450 </v>
    <v>       0.49847264       0.75079840       0.59423479 </v>
    <v>       0.66949656       0.16487275       0.50002971 </v>
    <v>       0.83374833       0.33201218       0.40609151 </v>
    <v>       0.66688589       0.41469538       0.50037396 </v>
    <v>       0.83407384       0.58339778       0.40569736 </v>
    <v>       0.66606449       0.66870691       0.49964167 </v>
    <v>       0.74999401       0.49921871       0.59426845 </v>
    <v>       0.83375840       0.83390176       0.40639622 </v>
    <v>       0.16512197       0.66876007       0.50037976 </v>
    <v>       0.33252151       0.58339147       0.40576524 </v>
    <v>       0.75057473       0.75138531       0.59391789 </v>
    <v>       0.16676384       0.41569913       0.50001408 </v>
    <v>       0.00011630      -0.00068709       0.59319968 </v>
    <v>       0.91912561       0.41462686       0.50005569 </v>
    <v>       0.00105325       0.24937102       0.59358755 </v>
    <v>       0.91750991       0.66776203       0.50035168 </v>
    <v>       0.91723067       0.16541222       0.49996626 </v>
    <v>       0.08459118       0.33295733       0.40709073 </v>
    <v>       0.74986063       0.24982619       0.59291564 </v>
    <v>       0.08369954       0.58295767       0.40687759 </v>
    <v>       0.75017745      -0.00045423       0.59264710 </v>
    <v>       0.83377495       0.08291193       0.40735470 </v>
    <v>       0.00103080       0.49984247       0.59312157 </v>
    <v>       0.08308962       0.83382429       0.40740731 </v>
    <v>       0.24982634       0.24996295       0.59287178 </v>
    <v>       0.58245035       0.83397932       0.40706555 </v>
    <v>       0.91673387       0.91718632       0.50004917 </v>
    <v>       0.00016701       0.75010309       0.59278021 </v>
    <v>       0.33304389       0.08336808       0.40721474 </v>
    <v>       0.16679892       0.16589746       0.49998090 </v>
    <v>       0.58332617       0.33285066       0.40680490 </v>
    <v>       0.49979555       0.00034248       0.59293309 </v>
    <v>       0.25013167       0.00014919       0.59258697 </v>
    <v>       0.33279381       0.33326006       0.40686756 </v>
    <v>       0.66687140       0.91697910       0.50023656 </v>
    <v>       0.16598463       0.91733027       0.49998790 </v>
    <v>       0.33310217       0.83399920       0.40710334 </v>
    <v>       0.24948670       0.50055709       0.59314849 </v>
    <v>       0.49950536       0.50008648       0.59316682 </v>
    <v>       0.24978535       0.74975647       0.59282978 </v>
   </varray>
  </structure>
  <varray name="forces" >
   <v>       0.07305347      -0.12471154      -0.83001700 </v>
   <v>      -0.07935043       0.06588815      -1.08971135 </v>
   <v>      -0.05164169      -0.07274695       0.02338674 </v>
   <v>      -0.09412977      -0.05680305       0.00335636 </v>
   <v>      -0.01187113      -0.02149483       1.21049652 </v>
   <v>      -0.09687333       0.06584240      -1.22266243 </v>
   <v>      -0.09090815       0.17209897       0.05306479 </v>
   <v>      -0.11250025       0.13343047      -0.05609859 </v>
   <v>      -0.12945036       0.12693892       1.27882861 </v>
   <v>       0.08704977      -0.28772789       0.01134520 </v>
   <v>      -0.03145745      -0.13881780      -1.09091552 </v>
   <v>       0.03868082      -0.07656237       0.04507756 </v>
   <v>       0.14607317      -0.02841962      -1.25824545 </v>
   <v>       0.06344867       0.11378373      -0.05628935 </v>
   <v>      -0.02828309      -0.02336333       1.20090304 </v>
   <v>       0.11343755       0.07477114      -1.00152470 </v>
   <v>      -0.03029959       0.23407312       0.05396678 </v>
   <v>      -0.17039738       0.02586770      -1.26458772 </v>
   <v>       0.15144313       0.14368283       1.17542025 </v>
   <v>       0.02909404      -0.07952028       0.00956309 </v>
   <v>      -0.03520336      -0.10870601       0.87101455 </v>
   <v>       0.04457040      -0.17734833      -0.01053425 </v>
   <v>       0.12174266      -0.12077630       1.03921716 </v>
   <v>       0.09645504       0.13154723       0.05469248 </v>
   <v>       0.12699272      -0.19703430       0.00502901 </v>
   <v>       0.20272201      -0.07390383      -0.71867552 </v>
   <v>      -0.03369876      -0.06364500       0.73604513 </v>
   <v>       0.05052681      -0.05860785      -0.72411071 </v>
   <v>      -0.00867632      -0.03103254       0.58957861 </v>
   <v>       0.03862840      -0.07772864      -0.60015928 </v>
   <v>       0.15812525      -0.00829916       0.76728927 </v>
   <v>       0.01326210       0.05110022      -0.53139499 </v>
   <v>       0.00505166       0.00796063       0.69604036 </v>
   <v>      -0.08198883       0.12507799      -0.70830657 </v>
   <v>       0.06876844       0.08454163       0.00368775 </v>
   <v>       0.06426512       0.01958538       0.71616275 </v>
   <v>      -0.04676454       0.02802489      -0.71070462 </v>
   <v>      -0.19283972      -0.16636491      -0.00512030 </v>
   <v>      -0.07974118      -0.06863248      -0.76589497 </v>
   <v>      -0.02256039       0.05632495       0.69220653 </v>
   <v>       0.04817397       0.00817805       0.52822261 </v>
   <v>      -0.08726485      -0.02490960      -0.75206028 </v>
   <v>       0.10016284       0.08617573       0.02703419 </v>
   <v>      -0.09610879       0.19975788       0.00877262 </v>
   <v>       0.00835874       0.06281290      -0.66686605 </v>
   <v>      -0.04785906       0.08558687       0.76330082 </v>
   <v>      -0.10443641       0.02165950       0.78380468 </v>
   <v>      -0.08578198      -0.03755470       0.71637222 </v>
  </varray>
  <energy>
   <i name="e_fr_energy">   -189.09110589 </i>
   <i name="e_wo_entrp">   -188.97037915 </i>
   <i name="e_0_energy">     -0.24145349 </i>
  </energy>
  <time name="totalsc">  112.17  113.48</time>
 </calculation>
 <calculation>
  <scstep>
   <time name="dav">    9.36   10.19</time>
   <time name="total">    9.72   10.56</time>
   <dipole>
    <v name="dipole">      0.00000000       0.00000000       0.00248873 </v>
    <i name="Tr[quadrupol]"> -10210.60101050 </i>
    <i name="Echarged">      0.00000000 </i>
    <i name="Edipol_quadrupol">      0.00000000 </i>
    <i name="Eion">      0.00000000 </i>
   </dipole>
   <energy>
    <i name="alphaZ">    805.86978047 </i>
    <i name="ewald"> 189778.12959043 </i>
    <i name="hartreedc">-232020.32759936 </i>
    <i name="XCdc">   -351.06941644 </i>
    <i name="pawpsdc">  49028.86426184 </i>
    <i name="pawaedc"> -47103.11062841 </i>
    <i name="eentropy">     -0.20196002 </i>
    <i name="bandstr">  -1985.43590475 </i>
    <i name="atom">  41659.78587232 </i>
    <i name="e_fr_energy">   -187.49600392 </i>
    <i name="e_wo_entrp">   -187.29404390 </i>
    <i name="e_0_energy">   -187.39502391 </i>
   </energy>
  </scstep>
  <scstep>
   <time name="diag">    1.65    1.65</time>
   <time name="diis">    4.40    4.47</time>
   <time name="orth">    0.40    0.40</time>
   <time name="total">    6.81    6.89</time>
   <dipole>
    <v name="dipole">      0.00000000       0.00000000       0.01427446 </v>
    <i name="Tr[quadrupol]"> -10209.80235063 </i>
    <i name="Echarged">      0.00000000 </i>
    <i name="Edipol_quadrupol">      0.00000000 </i>
    <i name="Eion">      0.00000000 </i>
   </dipole>
   <energy>
    <i name="e_fr_energy">   -191.12925996 </i>
    <i name="e_wo_entrp">   -190.91462925 </i>
    <i name="e_0_energy">   -191.02194460 </i>
   </energy>
  </scstep>
  <scstep>
   <time name="diag">    1.66    1.67</time>
   <time name="diis">    4.51    4.51</time>
   <time name="orth">    0.40    0.40</time>
   <time name="total">    6.94    6.94</time>
   <dipole>
    <v name="dipole">      0.00000000       0.00000000      -0.12896843 </v>
    <i name="Tr[quadrupol]"> -10210.63650396 </i>
    <i name="Echarged">      0.00000000 </i>
    <i name="Edipol_quadrupol">      0.00000000 </i>
    <i name="Eion">      0.00000000 </i>
   </dipole>
   <energy>
    <i name="e_fr_energy">   -191.35414685 </i>
    <i name="e_wo_entrp">   -191.15891590 </i>
    <i name="e_0_energy">   -191.25653137 </i>
   </energy>
  </scstep>
  <scstep>
   <time name="diag">    1.66    1.66</time>
   <time name="diis">    4.57    4.58</time>
   <time name="orth">    0.40    0.40</time>
   <time name="total">    7.00    7.00</time>
   <dipole>
    <v name="dipole">      0.00000000       0.00000000       0.17362895 </v>
    <i name="Tr[quadrupol]"> -10210.73380980 </i>
    <i name="Echarged">      0.00000000 </i>
    <i name="Edipol_quadrupol">      0.00000000 </i>
    <i name="Eion">      0.00000000 </i>
   </dipole>
   <energy>
    <i name="e_fr_energy">   -191.34520726 </i>
    <i name="e_wo_entrp">   -191.16609409 </i>
    <i name="e_0_energy">   -191.25565068 </i>
   </energy>
  </scstep>
  <scstep>
   <time name="diag">    1.69    1.69</time>
   <time name="diis">    4.49    4.50</time>
   <time name="orth">    0.40    0.40</time>
   <time name="total">    6.94    6.95</time>
   <dipole>
    <v name="dipole">      0.00000000       0.00000000      -0.08699216 </v>
    <i name="Tr[quadrupol]"> -10210.84254515 </i>
    <i name="Echarged">      0.00000000 </i>
    <i name="Edipol_quadrupol">      0.00000000 </i>
    <i name="Eion">      0.00000000 </i>
   </dipole>
   <energy>
    <i name="e_fr_energy">   -191.19731044 </i>
    <i name="e_wo_entrp">   -190.97530626 </i>
    <i name="e_0_energy">   -191.08630835 </i>
   </energy>
  </scstep>
  <scstep>
   <time name="diag">    1.64    1.64</time>
   <time name="diis">    4.52    4.53</time>
   <time name="orth">    0.40    0.40</time>
   <time name="total">    6.92    6.93</time>
   <dipole>
    <v name="dipole">      0.00000000       0.00000000       0.00897451 </v>
    <i name="Tr[quadrupol]"> -10210.73845873 </i>
    <i name="Echarged">      0.00000000 </i>
    <i name="Edipol_quadrupol">      0.00000000 </i>
    <i name="Eion">      0.00000000 </i>
   </dipole>
   <energy>
    <i name="e_fr_energy">   -191.00133639 </i>
    <i name="e_wo_entrp">   -190.81286543 </i>
    <i name="e_0_energy">   -190.90710091 </i>
   </energy>
  </scstep>
  <scstep>
   <time name="diag">    1.64    1.65</time>
   <time name="diis">    4.44    4.44</time>
   <time name="orth">    0.40    0.40</time>
   <time name="total">    6.84    6.85</time>
   <dipole>
    <v name="dipole">      0.00000000       0.00000000       0.00556068 </v>
    <i name="Tr[quadrupol]"> -10210.76108981 </i>
    <i name="Echarged">      0.00000000 </i>
    <i name="Edipol_quadrupol">      0.00000000 </i>
    <i name="Eion">      0.00000000 </i>
   </dipole>
   <energy>
    <i name="e_fr_energy">   -190.89891851 </i>
    <i name="e_wo_entrp">   -190.68276766 </i>
    <i name="e_0_energy">   -190.79084309 </i>
   </energy>
  </scstep>
  <scstep>
   <time name="diag">    1.66    1.66</time>
   <time name="diis">    4.40    4.47</time>
   <time name="orth">    0.40    0.40</time>
   <time name="total">    6.81    6.89</time>
   <dipole>
    <v name="dipole">      0.00000000       0.00000000       0.00447265 </v>
    <i name="Tr[quadrupol]"> -10210.61550644 </i>
    <i name="Echarged">      0.00000000 </i>
    <i name="Edipol_quadrupol">      0.00000000 </i>
    <i name="Eion">      0.00000000 </i>
[...]
       <r>    2.2237    0.0000 </r>
       <r>    2.2644    0.0000 </r>
       <r>    2.4005    0.0000 </r>
       <r>    2.5306    0.0000 </r>
       <r>    2.6739    0.0000 </r>
       <r>    2.9387    0.0000 </r>
       <r>    3.1645    0.0000 </r>
       <r>    3.2692    0.0000 </r>
       <r>    3.4953    0.0000 </r>
       <r>    3.6023    0.0000 </r>
       <r>    3.6255    0.0000 </r>
       <r>    3.9261    0.0000 </r>
       <r>    4.0391    0.0000 </r>
       <r>    4.1480    0.0000 </r>
       <r>    4.4254    0.0000 </r>
       <r>    4.5488    0.0000 </r>
       <r>    4.5926    0.0000 </r>
       <r>    4.6434    0.0000 </r>
       <r>    4.7426    0.0000 </r>
       <r>    4.8239    0.0000 </r>
       <r>    4.8536    0.0000 </r>
       <r>    4.9145    0.0000 </r>
       <r>    4.9891    0.0000 </r>
       <r>    5.0493    0.0000 </r>
       <r>    5.0787    0.0000 </r>
       <r>    5.1388    0.0000 </r>
       <r>    5.1871    0.0000 </r>
       <r>    5.2403    0.0000 </r>
      </set>
     </set>
    </set>
   </array>
  </eigenvalues>
  <separator name="orbital magnetization" >
   <v name="MAGDIPOLOUT">      0.00000000      0.00000000      0.00000000</v>
  </separator>
  <dos>
   <i name="efermi">     -1.10316899 </i>
   <total>
    <array>
     <dimension dim="1">gridpoints</dimension>
     <dimension dim="2">spin</dimension>
     <field>energy</field>
     <field>total</field>
     <field>integrated</field>
     <set>
      <set comment="spin 1">
       <r>   -10.0534     0.0000     0.0000 </r>
       <r>    -9.9987     0.0000     0.0000 </r>
       <r>    -9.9441     0.0000     0.0000 </r>
       <r>    -9.8894     0.0000     0.0000 </r>
       <r>    -9.8348     0.0000     0.0000 </r>
       <r>    -9.7801     0.0000     0.0000 </r>
       <r>    -9.7255     0.0000     0.0000 </r>
       <r>    -9.6708     0.0000     0.0000 </r>
       <r>    -9.6161     0.0000     0.0000 </r>
       <r>    -9.5615     0.0000     0.0000 </r>
       <r>    -9.5068     0.0000     0.0000 </r>
       <r>    -9.4522     0.0000     0.0000 </r>
       <r>    -9.3975     0.0000     0.0000 </r>
       <r>    -9.3429     0.0002     0.0000 </r>
       <r>    -9.2882     0.0041     0.0002 </r>
       <r>    -9.2335     0.0525     0.0031 </r>
       <r>    -9.1789     0.3845     0.0241 </r>
       <r>    -9.1242     1.6161     0.1125 </r>
       <r>    -9.0696     3.9194     0.3267 </r>
       <r>    -9.0149     5.5957     0.6325 </r>
       <r>    -8.9603     5.2114     0.9174 </r>
       <r>    -8.9056     4.5246     1.1647 </r>
       <r>    -8.8509     4.9228     1.4337 </r>
       <r>    -8.7963     4.8627     1.6995 </r>
       <r>    -8.7416     3.3847     1.8845 </r>
       <r>    -8.6870     1.5717     1.9704 </r>
       <r>    -8.6323     0.5494     2.0004 </r>
       <r>    -8.5776     0.5147     2.0286 </r>
       <r>    -8.5230     1.2048     2.0944 </r>
       <r>    -8.4683     2.0071     2.2041 </r>
       <r>    -8.4137     2.4847     2.3399 </r>
       <r>    -8.3590     3.1381     2.5115 </r>
       <r>    -8.3044     3.8710     2.7230 </r>
       <r>    -8.2497     3.8385     2.9328 </r>
       <r>    -8.1950     3.7729     3.1391 </r>
       <r>    -8.1404     4.4726     3.3835 </r>
       <r>    -8.0857     5.1828     3.6668 </r>
       <r>    -8.0311     5.8058     3.9841 </r>
       <r>    -7.9764     6.2372     4.3250 </r>
       <r>    -7.9218     5.5272     4.6271 </r>
       <r>    -7.8671     4.0748     4.8499 </r>
       <r>    -7.8124     3.3501     5.0330 </r>
       <r>    -7.7578     4.3478     5.2706 </r>
       <r>    -7.7031     6.2453     5.6120 </r>
       <r>    -7.6485     6.9924     5.9941 </r>
       <r>    -7.5938     6.5929     6.3545 </r>
       <r>    -7.5392     7.0137     6.7379 </r>
       <r>    -7.4845     9.3501     7.2489 </r>
       <r>    -7.4298    13.7609     8.0010 </r>
       <r>    -7.3752    20.0073     9.0946 </r>
       <r>    -7.3205    26.5037    10.5432 </r>
       <r>    -7.2659    30.5671    12.2139 </r>
       <r>    -7.2112    31.0846    13.9129 </r>
       <r>    -7.1566    29.4527    15.5227 </r>
       <r>    -7.1019    27.1888    17.0088 </r>
       <r>    -7.0472    24.3383    18.3391 </r>
       <r>    -6.9926    21.1575    19.4955 </r>
       <r>    -6.9379    19.1033    20.5396 </r>
       <r>    -6.8833    18.8916    21.5722 </r>
       <r>    -6.8286    20.8796    22.7134 </r>
       <r>    -6.7740    26.2086    24.1459 </r>
       <r>    -6.7193    33.9538    26.0017 </r>
       <r>    -6.6646    40.4478    28.2125 </r>
       <r>    -6.6100    43.8183    30.6075 </r>
       <r>    -6.5553    45.7381    33.1074 </r>
       <r>    -6.5007    48.4929    35.7579 </r>
       <r>    -6.4460    54.2495    38.7231 </r>
       <r>    -6.3914    63.4119    42.1890 </r>
       <r>    -6.3367    72.3496    46.1435 </r>
       <r>    -6.2820    77.6000    50.3849 </r>
       <r>    -6.2274    78.9810    54.7018 </r>
       <r>    -6.1727    78.2706    58.9798 </r>
       <r>    -6.1181    77.6560    63.2243 </r>
       <r>    -6.0634    78.5851    67.5196 </r>
       <r>    -6.0087    79.7726    71.8798 </r>
       <r>    -5.9541    79.1774    76.2074 </r>
       <r>    -5.8994    76.9739    80.4146 </r>
       <r>    -5.8448    73.8588    84.4515 </r>
       <r>    -5.7901    70.6703    88.3142 </r>
       <r>    -5.7355    68.2738    92.0458 </r>
       <r>    -5.6808    66.4156    95.6759 </r>
       <r>    -5.6261    65.1608    99.2375 </r>
       <r>    -5.5715    65.4033   102.8123 </r>
       <r>    -5.5168    67.9074   106.5239 </r>
       <r>    -5.4622    72.4100   110.4816 </r>
       <r>    -5.4075    76.6904   114.6733 </r>
       <r>    -5.3529    78.7567   118.9780 </r>
       <r>    -5.2982    79.4187   123.3188 </r>
       <r>    -5.2435    80.9671   127.7443 </r>
       <r>    -5.1889    83.8544   132.3275 </r>
       <r>    -5.1342    86.1501   137.0363 </r>
       <r>    -5.0796    86.8314   141.7823 </r>
       <r>    -5.0249    86.6421   146.5179 </r>
       <r>    -4.9703    86.4427   151.2426 </r>
       <r>    -4.9156    86.7900   155.9864 </r>
       <r>    -4.8609    86.8327   160.7324 </r>
       <r>    -4.8063    85.1882   165.3886 </r>
       <r>    -4.7516    81.9641   169.8685 </r>
       <r>    -4.6970    79.2679   174.2011 </r>
       <r>    -4.6423    79.2174   178.5309 </r>
       <r>    -4.5877    80.9982   182.9581 </r>
       <r>    -4.5330    82.8381   187.4858 </r>
       <r>    -4.4783    84.2210   192.0891 </r>
       <r>    -4.4237    84.7293   196.7202 </r>
       <r>    -4.3690    83.9390   201.3081 </r>
       <r>    -4.3144    81.6507   205.7709 </r>
       <r>    -4.2597    78.4697   210.0599 </r>
       <r>    -4.2051    76.7676   214.2558 </r>
       <r>    -4.1504    78.5520   218.5492 </r>
       <r>    -4.0957    83.0960   223.0910 </r>
       <r>    -4.0411    87.5159   227.8744 </r>
       <r>    -3.9864    89.7249   232.7786 </r>
       <r>    -3.9318    90.8346   237.7434 </r>
       <r>    -3.8771    92.6123   242.8053 </r>
       <r>    -3.8225    95.2808   248.0131 </r>
       <r>    -3.7678    98.7815   253.4123 </r>
       <r>    -3.7131   101.5644   258.9635 </r>
       <r>    -3.6585   101.6079   264.5171 </r>
       <r>    -3.6038    99.9622   269.9808 </r>
       <r>    -3.5492    98.6515   275.3729 </r>
       <r>    -3.4945    97.5161   280.7028 </r>
       <r>    -3.4398    96.0532   285.9529 </r>
       <r>    -3.3852    94.6774   291.1277 </r>
       <r>    -3.3305    93.0812   296.2153 </r>
       <r>    -3.2759    91.2250   301.2014 </r>
       <r>    -3.2212    90.2901   306.1364 </r>
       <r>    -3.1666    90.5166   311.0838 </r>
       <r>    -3.1119    90.4906   316.0298 </r>
       <r>    -3.0572    90.1902   320.9594 </r>
       <r>    -3.0026    91.0745   325.9373 </r>
       <r>    -2.9479    93.2264   331.0328 </r>
       <r>    -2.8933    95.8591   336.2722 </r>
       <r>    -2.8386    98.1538   341.6371 </r>
       <r>    -2.7840    99.2692   347.0629 </r>
       <r>    -2.7293    99.0636   352.4774 </r>
       <r>    -2.6746    99.5391   357.9180 </r>
       <r>    -2.6200   102.0161   363.4939 </r>
       <r>    -2.5653   103.9668   369.1765 </r>
       <r>    -2.5107   102.8270   374.7967 </r>
       <r>    -2.4560    98.7582   380.1946 </r>
       <r>    -2.4014    93.5707   385.3089 </r>
       <r>    -2.3467    88.9547   390.1710 </r>
       <r>    -2.2920    85.9642   394.8696 </r>
       <r>    -2.2374    84.7261   399.5005 </r>
       <r>    -2.1827    85.5981   404.1790 </r>
       <r>    -2.1281    88.9461   409.0406 </r>
       <r>    -2.0734    92.3240   414.0868 </r>
       <r>    -2.0188    94.9267   419.2753 </r>
       <r>    -1.9641    99.5266   424.7151 </r>
       <r>    -1.9094   105.1306   430.4613 </r>
       <r>    -1.8548   108.2381   436.3773 </r>
       <r>    -1.8001   109.4765   442.3610 </r>
       <r>    -1.7455   110.9038   448.4227 </r>
       <r>    -1.6908   111.9833   454.5435 </r>
       <r>    -1.6362   111.3250   460.6282 </r>
       <r>    -1.5815   107.7500   466.5175 </r>
       <r>    -1.5268   100.6724   472.0200 </r>
       <r>    -1.4722    92.4074   477.0708 </r>
       <r>    -1.4175    86.3105   481.7883 </r>
       <r>    -1.3629    82.8221   486.3151 </r>
       <r>    -1.3082    80.5160   490.7159 </r>
       <r>    -1.2536    77.5794   494.9562 </r>
       <r>    -1.1989    70.8966   498.8313 </r>
       <r>    -1.1442    58.9516   502.0534 </r>
       <r>    -1.0896    46.0200   504.5687 </r>
       <r>    -1.0349    36.2392   506.5495 </r>
       <r>    -0.9803    27.1293   508.0323 </r>
       <r>    -0.9256    17.5276   508.9903 </r>
       <r>    -0.8709    10.5996   509.5697 </r>
       <r>    -0.8163     7.4134   509.9749 </r>
       <r>    -0.7616     7.8005   510.4012 </r>
       <r>    -0.7070    11.7167   511.0416 </r>
       <r>    -0.6523    17.3397   511.9894 </r>
       <r>    -0.5977    22.2347   513.2047 </r>
       <r>    -0.5430    25.0074   514.5715 </r>
       <r>    -0.4883    24.3983   515.9050 </r>
       <r>    -0.4337    20.1359   517.0056 </r>
       <r>    -0.3790    15.7965   517.8690 </r>
       <r>    -0.3244    15.8429   518.7349 </r>
       <r>    -0.2697    19.0500   519.7762 </r>
       <r>    -0.2151    19.7333   520.8547 </r>
       <r>    -0.1604    16.1679   521.7384 </r>
       <r>    -0.1057    11.9568   522.3920 </r>
       <r>    -0.0511     9.4813   522.9102 </r>
       <r>     0.0036     8.3753   523.3680 </r>
       <r>     0.0582     8.7235   523.8448 </r>
       <r>     0.1129    11.1611   524.4548 </r>
       <r>     0.1675    14.2216   525.2321 </r>
       <r>     0.2222    15.4596   526.0771 </r>
       <r>     0.2769    15.8972   526.9460 </r>
       <r>     0.3315    17.3951   527.8968 </r>
       <r>     0.3862    18.8140   528.9251 </r>
       <r>     0.4408    19.8359   530.0093 </r>
       <r>     0.4955    22.8409   531.2577 </r>
       <r>     0.5501    27.4322   532.7571 </r>
       <r>     0.6048    29.0050   534.3424 </r>
       <r>     0.6595    25.8692   535.7564 </r>
       <r>     0.7141    21.6520   536.9398 </r>
       <r>     0.7688    18.8770   537.9716 </r>
       <r>     0.8234    16.4489   538.8706 </r>
       <r>     0.8781    14.1884   539.6461 </r>
       <r>     0.9327    12.9611   540.3546 </r>
       <r>     0.9874    12.3363   541.0288 </r>
       <r>     1.0421    11.6503   541.6656 </r>
       <r>     1.0967    10.0352   542.2141 </r>
       <r>     1.1514     7.6818   542.6340 </r>
       <r>     1.2060     6.6059   542.9950 </r>
       <r>     1.2607     6.9190   543.3732 </r>
       <r>     1.3153     6.2339   543.7139 </r>
       <r>     1.3700     4.3090   543.9495 </r>
       <r>     1.4247     4.2372   544.1810 </r>
       <r>     1.4793     8.5854   544.6503 </r>
       <r>     1.5340    15.6965   545.5082 </r>
       <r>     1.5886    19.7083   546.5854 </r>
       <r>     1.6433    17.6425   547.5497 </r>
       <r>     1.6980    14.2934   548.3310 </r>
       <r>     1.7526    13.7686   549.0835 </r>
       <r>     1.8073    13.7321   549.8341 </r>
       <r>     1.8619    12.7112   550.5289 </r>
       <r>     1.9166    12.8815   551.2329 </r>
       <r>     1.9712    15.4392   552.0768 </r>
       <r>     2.0259    19.2589   553.1294 </r>
       <r>     2.0806    21.6271   554.3115 </r>
       <r>     2.1352    21.6356   555.4941 </r>
       <r>     2.1899    22.1019   556.7021 </r>
       <r>     2.2445    23.4539   557.9840 </r>
       <r>     2.2992    22.2356   559.1994 </r>
       <r>     2.3538    18.3324   560.2014 </r>
       <r>     2.4085    15.4629   561.0465 </r>
       <r>     2.4632    15.5376   561.8958 </r>
       <r>     2.5178    17.9204   562.8753 </r>
       <r>     2.5725    20.7280   564.0082 </r>
       <r>     2.6271    23.0489   565.2680 </r>
       <r>     2.6818    24.2704   566.5946 </r>
       <r>     2.7364    21.4476   567.7668 </r>
       <r>     2.7911    14.3419   568.5507 </r>
       <r>     2.8458     7.9825   568.9870 </r>
       <r>     2.9004     5.9191   569.3105 </r>
       <r>     2.9551     5.8610   569.6309 </r>
       <r>     3.0097     4.4787   569.8757 </r>
       <r>     3.0644     2.8479   570.0313 </r>
       <r>     3.1190     3.6648   570.2317 </r>
       <r>     3.1737     6.8537   570.6063 </r>
       <r>     3.2284    10.0782   571.1571 </r>
       <r>     3.2830    11.3434   571.7771 </r>
       <r>     3.3377    10.2087   572.3351 </r>
       <r>     3.3923     8.9593   572.8248 </r>
       <r>     3.4470    10.7558   573.4127 </r>
       <r>     3.5016    14.9727   574.2310 </r>
       <r>     3.5563    19.0477   575.2721 </r>
       <r>     3.6110    22.5344   576.5038 </r>
       <r>     3.6656    23.6882   577.7985 </r>
       <r>     3.7203    20.7590   578.9332 </r>
       <r>     3.7749    16.4921   579.8346 </r>
       <r>     3.8296    13.4004   580.5670 </r>
       <r>     3.8842    11.4541   581.1931 </r>
       <r>     3.9389    11.4470   581.8187 </r>
       <r>     3.9936    13.4671   582.5548 </r>
       <r>     4.0482    14.1213   583.3267 </r>
       <r>     4.1029    11.9671   583.9807 </r>
       <r>     4.1575    10.1239   584.5341 </r>
       <r>     4.2122     9.7121   585.0649 </r>
       <r>     4.2669     8.7824   585.5450 </r>
       <r>     4.3215     7.1427   585.9354 </r>
       <r>     4.3762     7.6274   586.3522 </r>
       <r>     4.4308    11.3814   586.9743 </r>
       <r>     4.4855    15.7723   587.8364 </r>
       <r>     4.5401    19.9323   588.9258 </r>
       <r>     4.5948    24.2900   590.2535 </r>
       <r>     4.6495    26.5007   591.7019 </r>
       <r>     4.7041    25.8587   593.1153 </r>
       <r>     4.7588    25.2512   594.4955 </r>
       <r>     4.8134    25.4556   595.8868 </r>
       <r>     4.8681    24.8911   597.2473 </r>
       <r>     4.9227    25.1142   598.6200 </r>
       <r>     4.9774    29.0452   600.2075 </r>
       <r>     5.0321    34.8982   602.1150 </r>
       <r>     5.0867    38.2576   604.2060 </r>
       <r>     5.1414    37.1216   606.2350 </r>
       <r>     5.1960    33.3888   608.0599 </r>
       <r>     5.2507    28.8495   609.6368 </r>
       <r>     5.3053    22.0617   610.8426 </r>
       <r>     5.3600    13.2568   611.5672 </r>
       <r>     5.4147     5.7886   611.8836 </r>
       <r>     5.4693     1.7402   611.9787 </r>
       <r>     5.5240     0.3435   611.9975 </r>
       <r>     5.5786     0.0427   611.9998 </r>
       <r>     5.6333     0.0032   612.0000 </r>
       <r>     5.6879     0.0001   612.0000 </r>
       <r>     5.7426     0.0000   612.0000 </r>
       <r>     5.7973     0.0000   612.0000 </r>
       <r>     5.8519     0.0000   612.0000 </r>
       <r>     5.9066     0.0000   612.0000 </r>
       <r>     5.9612     0.0000   612.0000 </r>
       <r>     6.0159     0.0000   612.0000 </r>
       <r>     6.0705     0.0000   612.0000 </r>
       <r>     6.1252     0.0000   612.0000 </r>
       <r>     6.1799     0.0000   612.0000 </r>
       <r>     6.2345     0.0000   612.0000 </r>
       <r>     6.2892     0.0000   612.0000 </r>
       <r>     6.3438     0.0000   612.0000 </r>
      </set>
     </set>
    </array>
   </total>
  </dos>
 </calculation>
 <structure name="finalpos" >
  <crystal>
   <varray name="basis" >
    <v>      11.00258152       0.00000000       0.00000000 </v>
    <v>       5.50129076       9.52851510       0.00000000 </v>
    <v>       0.00000000       0.00000000      24.49178509 </v>
   </varray>
   <i name="volume">   2567.67623402 </i>
   <varray name="rec_basis" >
    <v>       0.09088776      -0.05247407       0.00000000 </v>
    <v>       0.00000000       0.10494815       0.00000000 </v>
    <v>       0.00000000       0.00000000       0.04083002 </v>
   </varray>
  </crystal>
  <varray name="positions" >
   <v>       0.08559309       0.08107916       0.39984977 </v>
   <v>       0.58193027       0.08414469       0.39625818 </v>
   <v>       0.41654175       0.16475522       0.50030393 </v>
   <v>       0.41657965       0.41679483       0.49984721 </v>
   <v>       0.49984176       0.25051428       0.60551434 </v>
   <v>       0.58172606       0.58391035       0.39345410 </v>
   <v>       0.41485207       0.66943002       0.50051050 </v>
   <v>       0.41484595       0.91797150       0.50019388 </v>
   <v>       0.49691702       0.75204863       0.60737922 </v>
   <v>       0.67000515       0.16344574       0.50018542 </v>
   <v>       0.83427025       0.33102135       0.39629348 </v>
   <v>       0.66832477       0.41535581       0.50020681 </v>
   <v>       0.83526198       0.58278763       0.39293118 </v>
   <v>       0.66652333       0.66853105       0.49959848 </v>
   <v>       0.74953903       0.49969342       0.60605812 </v>
   <v>       0.83451052       0.83405496       0.39768876 </v>
   <v>       0.16517723       0.67018024       0.50007805 </v>
   <v>       0.33088997       0.58330268       0.39306274 </v>
   <v>       0.75062289       0.75258459       0.60489947 </v>
   <v>       0.16651625       0.41528699       0.50020460 </v>
   <v>       0.00026392      -0.00180288       0.60130309 </v>
   <v>       0.91827624       0.41443252       0.49992788 </v>
   <v>       0.00260548       0.24889600       0.60267421 </v>
   <v>       0.91562156       0.66942484       0.50051093 </v>
   <v>       0.91883041       0.16504046       0.50043568 </v>
   <v>       0.08637277       0.33238971       0.40175354 </v>
   <v>       0.74974970       0.24986574       0.59809818 </v>
   <v>       0.08416656       0.58226002       0.40193543 </v>
   <v>       0.74916747      -0.00007843       0.59713590 </v>
   <v>       0.83409008       0.08252053       0.40322367 </v>
   <v>       0.00166046       0.50001343       0.59855399 </v>
   <v>       0.08357963       0.83333818       0.40323299 </v>
   <v>       0.25048570       0.25031016       0.59803282 </v>
   <v>       0.58196183       0.83398632       0.40205046 </v>
   <v>       0.91657842       0.91781643       0.50044105 </v>
   <v>       0.00047834       0.74980874       0.59823729 </v>
   <v>       0.33340231       0.08291042       0.40225423 </v>
   <v>       0.16487828       0.16530014       0.50001883 </v>
   <v>       0.58242177       0.33268203       0.40157155 </v>
   <v>       0.49935401       0.00097268       0.59815266 </v>
   <v>       0.25123037      -0.00035472       0.59703177 </v>
   <v>       0.33230305       0.33282006       0.40166527 </v>
   <v>       0.66767510       0.91678343       0.49950452 </v>
   <v>       0.16295595       0.92018042       0.50043027 </v>
   <v>       0.33406788       0.83273607       0.40248439 </v>
   <v>       0.24888991       0.50127824       0.59827650 </v>
   <v>       0.49868655       0.50064741       0.59837679 </v>
   <v>       0.24977727       0.74892895       0.59816788 </v>
  </varray>
 </structure>
</modeling>
