<?xml version="1.0" encoding="ISO-8859-1"?>
<modeling>
 <generator>
  <i name="program" type="string">vasp </i>
  <i name="version" type="string">5.4.1  </i>
  <i name="subversion" type="string">24Jun15 (build Mar 14 2019 10:18:33) complex                          parallel </i>
  <i name="platform" type="string">INTEL-19.0.2+OPENMPI-3.1.3 </i>
  <i name="date" type="string">2023 01 22 </i>
  <i name="time" type="string">03:21:18 </i>
 </generator>
 <incar>
  <i type="int" name="ISTART">     0</i>
  <i type="string" name="PREC">normal</i>
  <i type="string" name="ALGO"> Fast</i>
  <i type="int" name="NELM">   500</i>
  <i type="int" name="IBRION">     2</i>
  <i type="int" name="NFREE">     2</i>
  <i name="EDIFF">      0.00000100</i>
  <i name="EDIFFG">     -0.02000000</i>
  <i type="int" name="NSW">   500</i>
  <i type="int" name="ISIF">     0</i>
  <i type="int" name="ISYM">     2</i>
  <i name="ENCUT">    400.00000000</i>
  <i name="POTIM">      0.35000000</i>
  <i type="string" name="LREAL"> Auto</i>
  <i type="logical" name="LPLANE"> T  </i>
  <i type="int" name="ISMEAR">     0</i>
  <i name="SIGMA">      0.10000000</i>
  <i type="int" name="NWRITE">     1</i>
  <i type="logical" name="LWAVE"> F  </i>
  <i type="logical" name="LCHARG"> F  </i>
  <i type="logical" name="LVTOT"> F  </i>
  <i type="logical" name="LORBIT"> F  </i>
  <i type="logical" name="LAECHG"> F  </i>
  <v type="int" name="KPOINT_BSE">    -1     0     0     0</v>
  <i type="int" name="NELM">   500</i>
  <i type="string" name="GGA"> PE          ! optPBE-vdW XC-functional</i>
  <i type="int" name="VOSKOWN">     1</i>
  <i type="logical" name="LDIPOL"> T  </i>
  <i type="logical" name="LMONO"> F  </i>
  <i type="int" name="IDIPOL">     3</i>
  <v name="DIPOL">      0.00000000      0.00000000      0.50000000</v>
 </incar>
 <kpoints>
  <generation param="Monkhorst-Pack">
   <v type="int" name="divisions">       2        2        1 </v>
   <v name="usershift">      0.00000000       0.00000000       0.00000000 </v>
   <v name="genvec1">      0.50000000       0.00000000       0.00000000 </v>
   <v name="genvec2">      0.00000000       0.50000000       0.00000000 </v>
   <v name="genvec3">      0.00000000       0.00000000       1.00000000 </v>
   <v name="shift">      0.50000000       0.50000000       0.00000000 </v>
  </generation>
  <varray name="kpointlist" >
   <v>       0.25000000       0.25000000       0.00000000 </v>
   <v>       0.00000000       0.25000000       0.00000000 </v>
   <v>      -0.25000000       0.00000000       0.00000000 </v>
   <v>      -0.25000000       0.25000000       0.00000000 </v>
   <v>       0.50000000      -0.25000000       0.00000000 </v>
   <v>      -0.25000000       0.50000000       0.00000000 </v>
  </varray>
  <varray name="weights" >
   <v>       0.16666667 </v>
   <v>       0.16666667 </v>
   <v>       0.16666667 </v>
   <v>       0.16666667 </v>
   <v>       0.16666667 </v>
   <v>       0.16666667 </v>
  </varray>
 </kpoints>
 <parameters>
  <separator name="general" >
   <i type="string" name="SYSTEM">unknown system</i>
   <i type="logical" name="LCOMPAT"> F  </i>
  </separator>
  <separator name="electronic" >
   <i type="string" name="PREC">normal</i>
   <i name="ENMAX">    400.00000000</i>
   <i name="ENAUG">    605.39200000</i>
   <i name="EDIFF">      0.00000100</i>
   <i type="int" name="IALGO">    68</i>
   <i type="int" name="IWAVPR">    11</i>
   <i type="int" name="NBANDS">   336</i>
   <i name="NELECT">    552.00000000</i>
   <i type="int" name="TURBO">     0</i>
   <i type="int" name="IRESTART">     0</i>
   <i type="int" name="NREBOOT">     0</i>
   <i type="int" name="NMIN">     0</i>
   <i name="EREF">      0.00000000</i>
   <separator name="electronic smearing" >
    <i type="int" name="ISMEAR">     0</i>
    <i name="SIGMA">      0.10000000</i>
    <i name="KSPACING">      0.50000000</i>
    <i type="logical" name="KGAMMA"> T  </i>
   </separator>
   <separator name="electronic projectors" >
    <i type="logical" name="LREAL"> T  </i>
    <v name="ROPT">     -0.00050000     -0.00050000     -0.00050000</v>
    <i type="int" name="LMAXPAW">  -100</i>
    <i type="int" name="LMAXMIX">     2</i>
    <i type="logical" name="NLSPLINE"> F  </i>
   </separator>
   <separator name="electronic startup" >
    <i type="int" name="ISTART">     0</i>
    <i type="int" name="ICHARG">     2</i>
    <i type="int" name="INIWAV">     1</i>
   </separator>
   <separator name="electronic spin" >
    <i type="int" name="ISPIN">     1</i>
    <i type="logical" name="LNONCOLLINEAR"> F  </i>
    <v name="MAGMOM">      1.00000000      1.00000000      1.00000000      1.00000000      1.00000000      1.00000000      1.00000000      1.00000000      1.00000000      1.00000000      1.00000000      1.00000000      1.00000000      1.00000000      1.00000000      1.00000000      1.00000000      1.00000000      1.00000000      1.00000000
      1.00000000      1.00000000      1.00000000      1.00000000      1.00000000      1.00000000      1.00000000      1.00000000      1.00000000      1.00000000      1.00000000      1.00000000      1.00000000      1.00000000      1.00000000      1.00000000      1.00000000      1.00000000      1.00000000      1.00000000
      1.00000000      1.00000000      1.00000000      1.00000000      1.00000000      1.00000000      1.00000000      1.00000000      1.00000000      1.00000000      1.00000000      1.00000000      1.00000000      1.00000000      1.00000000      1.00000000</v>
    <i name="NUPDOWN">     -1.00000000</i>
    <i type="logical" name="LSORBIT"> F  </i>
    <v name="SAXIS">      0.00000000      0.00000000      1.00000000</v>
    <i type="logical" name="LSPIRAL"> F  </i>
    <v name="QSPIRAL">      0.00000000      0.00000000      0.00000000</v>
    <i type="logical" name="LZEROZ"> F  </i>
   </separator>
   <separator name="electronic exchange-correlation" >
    <i type="logical" name="LASPH"> F  </i>
    <i type="logical" name="LMETAGGA"> F  </i>
   </separator>
   <separator name="electronic convergence" >
    <i type="int" name="NELM">   500</i>
    <i type="int" name="NELMDL">    -5</i>
    <i type="int" name="NELMIN">     2</i>
    <i name="ENINI">    400.00000000</i>
    <separator name="electronic convergence detail" >
     <i type="logical" name="LDIAG"> T  </i>
     <i type="logical" name="LSUBROT"> F  </i>
     <i name="WEIMIN">      0.00100000</i>
     <i name="EBREAK">      0.00000000</i>
     <i name="DEPER">      0.30000000</i>
     <i type="int" name="NRMM">     4</i>
     <i name="TIME">      0.40000000</i>
    </separator>
   </separator>
   <separator name="electronic mixer" >
    <i name="AMIX">      0.40000000</i>
    <i name="BMIX">      1.00000000</i>
    <i name="AMIN">      0.10000000</i>
    <i name="AMIX_MAG">      1.60000000</i>
    <i name="BMIX_MAG">      1.00000000</i>
    <separator name="electronic mixer details" >
     <i type="int" name="IMIX">     4</i>
     <i type="logical" name="MIXFIRST"> F  </i>
     <i type="int" name="MAXMIX">   -45</i>
     <i name="WC">    100.00000000</i>
     <i type="int" name="INIMIX">     1</i>
     <i type="int" name="MIXPRE">     1</i>
     <i type="int" name="MREMOVE">     5</i>
    </separator>
   </separator>
   <separator name="electronic dipolcorrection" >
    <i type="logical" name="LDIPOL"> T  </i>
    <i type="logical" name="LMONO"> F  </i>
    <i type="int" name="IDIPOL">     3</i>
    <i name="EPSILON">      1.00000000</i>
    <v name="DIPOL">      0.00000000      0.00000000      0.50000000</v>
    <i name="EFIELD">      0.00000000</i>
   </separator>
  </separator>
  <separator name="grids" >
   <i type="int" name="NGX">    54</i>
   <i type="int" name="NGY">    54</i>
   <i type="int" name="NGZ">   128</i>
   <i type="int" name="NGXF">   108</i>
   <i type="int" name="NGYF">   108</i>
   <i type="int" name="NGZF">   256</i>
   <i type="logical" name="ADDGRID"> F  </i>
  </separator>
  <separator name="ionic" >
   <i type="int" name="NSW">   500</i>
   <i type="int" name="IBRION">     2</i>
   <i type="int" name="ISIF">     0</i>
   <i name="PSTRESS">      0.00000000</i>
   <i name="EDIFFG">     -0.02000000</i>
   <i type="int" name="NFREE">     2</i>
   <i name="POTIM">      0.35000000</i>
   <i name="SMASS">     -3.00000000</i>
   <i name="SCALEE">      1.00000000</i>
  </separator>
  <separator name="ionic md" >
   <i name="TEBEG">      0.00010000</i>
   <i name="TEEND">      0.00010000</i>
   <i type="int" name="NBLOCK">     1</i>
   <i type="int" name="KBLOCK">   500</i>
   <i type="int" name="NPACO">   256</i>
   <i name="APACO">     16.00000000</i>
  </separator>
  <separator name="symmetry" >
   <i type="int" name="ISYM">     2</i>
   <i name="SYMPREC">      0.00001000</i>
  </separator>
  <separator name="dos" >
   <i type="logical" name="LORBIT"> F  </i>
   <v name="RWIGS">     -1.00000000     -1.00000000     -1.00000000</v>
   <i type="int" name="NEDOS">   301</i>
   <i name="EMIN">     10.00000000</i>
   <i name="EMAX">    -10.00000000</i>
   <i name="EFERMI">      0.00000000</i>
  </separator>
  <separator name="writing" >
   <i type="int" name="NWRITE">     1</i>
   <i type="logical" name="LWAVE"> F  </i>
   <i type="logical" name="LCHARG"> F  </i>
   <i type="logical" name="LPARD"> F  </i>
   <i type="logical" name="LVTOT"> F  </i>
   <i type="logical" name="LVHAR"> F  </i>
   <i type="logical" name="LELF"> F  </i>
   <i type="logical" name="LOPTICS"> F  </i>
   <v name="STM">      0.00000000      0.00000000      0.00000000      0.00000000      0.00000000      0.00000000      0.00000000</v>
  </separator>
  <separator name="performance" >
   <i type="int" name="NPAR">     6</i>
   <i type="int" name="NSIM">     4</i>
   <i type="int" name="NBLK">    -1</i>
   <i type="logical" name="LPLANE"> T  </i>
   <i type="logical" name="LSCALAPACK"> T  </i>
   <i type="logical" name="LSCAAWARE"> F  </i>
   <i type="logical" name="LSCALU"> F  </i>
   <i type="logical" name="LASYNC"> F  </i>
   <i type="logical" name="LORBITALREAL"> F  </i>
  </separator>
  <separator name="miscellaneous" >
   <i type="int" name="IDIOT">     3</i>
   <i type="logical" name="LMUSIC"> F  </i>
   <v name="POMASS">    196.96600000     16.00000000    106.42000000</v>
   <v name="DARWINR">      0.00000000      0.00000000      0.00000000</v>
   <v name="DARWINV">      1.00000000      1.00000000      1.00000000</v>
   <i type="logical" name="LCORR"> T  </i>
  </separator>
  <i type="logical" name="GGA_COMPAT"> T  </i>
  <i type="logical" name="LBERRY"> F  </i>
  <i type="int" name="ICORELEVEL">     0</i>
  <i type="logical" name="LDAU"> F  </i>
  <i type="int" name="I_CONSTRAINED_M">     0</i>
  <separator name="electronic exchange-correlation" >
   <i type="string" name="GGA">PE</i>
   <i type="int" name="VOSKOWN">     1</i>
   <i type="logical" name="LHFCALC"> F  </i>
   <i type="string" name="PRECFOCK"></i>
   <i type="logical" name="LSYMGRAD"> F  </i>
   <i type="logical" name="LHFONE"> F  </i>
   <i type="logical" name="LRHFCALC"> F  </i>
   <i type="logical" name="LTHOMAS"> F  </i>
   <i type="logical" name="LMODELHF"> F  </i>
   <i name="ENCUT4O">     -1.00000000</i>
   <i type="int" name="EXXOEP">     0</i>
   <i type="int" name="FOURORBIT">     0</i>
   <i name="AEXX">      0.00000000</i>
   <i name="HFALPHA">      0.00000000</i>
   <i name="MCALPHA">      0.00000000</i>
   <i name="ALDAX">      1.00000000</i>
   <i name="AGGAX">      1.00000000</i>
   <i name="ALDAC">      1.00000000</i>
   <i name="AGGAC">      1.00000000</i>
   <i type="int" name="NKREDX">     1</i>
   <i type="int" name="NKREDY">     1</i>
   <i type="int" name="NKREDZ">     1</i>
   <i type="logical" name="SHIFTRED"> F  </i>
   <i type="logical" name="ODDONLY"> F  </i>
   <i type="logical" name="EVENONLY"> F  </i>
   <i type="int" name="LMAXFOCK">     0</i>
   <i type="int" name="NMAXFOCKAE">     0</i>
   <i type="logical" name="LFOCKAEDFT"> F  </i>
   <i name="HFSCREEN">      0.00000000</i>
   <i name="HFSCREENC">      0.00000000</i>
   <i type="int" name="NBANDSGWLOW">     0</i>
  </separator>
  <separator name="vdW DFT" >
   <i type="logical" name="LUSE_VDW"> F  </i>
   <i name="Zab_VDW">     -0.84910000</i>
   <i name="PARAM1">      0.12340000</i>
   <i name="PARAM2">      1.00000000</i>
   <i name="PARAM3">      0.00000000</i>
  </separator>
  <separator name="model GW" >
   <i type="int" name="MODEL_GW">     0</i>
   <i name="MODEL_EPS0">     29.42037089</i>
   <i name="MODEL_ALPHA">      1.00000000</i>
  </separator>
  <separator name="linear response parameters" >
   <i type="logical" name="LEPSILON"> F  </i>
   <i type="logical" name="LRPA"> F  </i>
   <i type="logical" name="LNABLA"> F  </i>
   <i type="logical" name="LVEL"> F  </i>
   <i type="int" name="KINTER">     0</i>
   <i name="CSHIFT">      0.10000000</i>
   <i name="OMEGAMAX">     -1.00000000</i>
   <i name="DEG_THRESHOLD">      0.00200000</i>
  </separator>
  <separator name="orbital magnetization" >
   <i type="logical" name="NUCIND"> F  </i>
   <v name="MAGPOS">      0.00000000      0.00000000      0.00000000</v>
   <i type="logical" name="LNICSALL"> T  </i>
   <i type="logical" name="ORBITALMAG"> F  </i>
   <i type="logical" name="LMAGBLOCH"> F  </i>
   <i type="logical" name="LCHIMAG"> F  </i>
   <i type="logical" name="LGAUGE"> T  </i>
   <i type="int" name="MAGATOM">     0</i>
   <v name="MAGDIPOL">      0.00000000      0.00000000      0.00000000</v>
   <v name="AVECCONST">      0.00000000      0.00000000      0.00000000</v>
  </separator>
  <separator name="response functions" >
   <i type="logical" name="LADDER"> F  </i>
   <i type="logical" name="LFXC"> F  </i>
   <i type="logical" name="LHARTREE"> T  </i>
   <i type="int" name="IBSE">     0</i>
   <v type="int" name="KPOINT">    -1     0     0     0</v>
   <i type="logical" name="LTCTE"> F  </i>
   <i type="logical" name="LTETE"> F  </i>
   <i type="logical" name="LTRIPLET"> F  </i>
   <i type="logical" name="LFXCEPS"> F  </i>
   <i type="logical" name="LFXHEG"> F  </i>
   <i type="int" name="NATURALO">     0</i>
   <i type="logical" name="L2ORDER"> F  </i>
   <i type="logical" name="LUSEW"> F  </i>
   <i name="ENCUTGW">     -2.00000000</i>
   <i name="ENCUTGWSOFT">     -2.00000000</i>
   <i name="ENCUTLF">     -1.00000000</i>
   <i type="int" name="LMAXMP2">    -1</i>
   <i name="SCISSOR">      0.00000000</i>
   <i type="int" name="NOMEGA">     0</i>
   <i type="int" name="NOMEGAR">     0</i>
   <i type="int" name="NBANDSGW">    -1</i>
   <i type="int" name="NBANDSO">    -1</i>
   <i type="int" name="NBANDSV">    -1</i>
   <i type="int" name="NELM">   500</i>
   <i type="int" name="NELMHF">     1</i>
   <i type="int" name="DIM">     3</i>
   <i type="int" name="ANTIRES">     0</i>
   <i name="OMEGAMAX">    -30.00000000</i>
   <i name="OMEGAMIN">    -30.00000000</i>
   <i name="OMEGATL">   -200.00000000</i>
   <i type="int" name="OMEGAGRID">     0</i>
   <i name="CSHIFT">     -0.10000000</i>
   <i type="logical" name="SELFENERGY"> F  </i>
   <i type="logical" name="LSPECTRAL"> F  </i>
   <i type="logical" name="LSPECTRALGW"> F  </i>
   <i type="logical" name="LSINGLES"> F  </i>
   <i type="logical" name="LFERMIGW"> F  </i>
   <i type="logical" name="ODDONLYGW"> F  </i>
   <i type="logical" name="EVENONLYGW"> F  </i>
   <i type="int" name="NKREDLFX">     1</i>
   <i type="int" name="NKREDLFY">     1</i>
   <i type="int" name="NKREDLFZ">     1</i>
   <i type="int" name="MAXMEM">  1800</i>
   <i type="int" name="TELESCOPE">     0</i>
   <i type="int" name="TAUPAR">     1</i>
   <i type="int" name="OMEGAPAR">    -1</i>
   <i name="LAMBDA">      1.00000000</i>
  </separator>
  <separator name="External order field" >
   <i name="OFIELD_KAPPA">      0.00000000</i>
   <v name="OFIELD_K">      0.00000000      0.00000000      0.00000000</v>
   <i name="OFIELD_Q6_NEAR">      0.00000000</i>
   <i name="OFIELD_Q6_FAR">      0.00000000</i>
   <i name="OFIELD_A">      0.00000000</i>
  </separator>
 </parameters>
 <atominfo>
  <atoms>      56 </atoms>
  <types>       3 </types>
  <array name="atoms" >
   <dimension dim="1">ion</dimension>
   <field type="string">element</field>
   <field type="int">atomtype</field>
   <set>
    <rc><c>Au</c><c>   1</c></rc>
    <rc><c>Au</c><c>   1</c></rc>
    <rc><c>Au</c><c>   1</c></rc>
    <rc><c>Au</c><c>   1</c></rc>
    <rc><c>Au</c><c>   1</c></rc>
    <rc><c>Au</c><c>   1</c></rc>
    <rc><c>Au</c><c>   1</c></rc>
    <rc><c>Au</c><c>   1</c></rc>
    <rc><c>Au</c><c>   1</c></rc>
    <rc><c>Au</c><c>   1</c></rc>
    <rc><c>Au</c><c>   1</c></rc>
    <rc><c>Au</c><c>   1</c></rc>
    <rc><c>Au</c><c>   1</c></rc>
    <rc><c>Au</c><c>   1</c></rc>
    <rc><c>Au</c><c>   1</c></rc>
    <rc><c>Au</c><c>   1</c></rc>
    <rc><c>Au</c><c>   1</c></rc>
    <rc><c>Au</c><c>   1</c></rc>
    <rc><c>Au</c><c>   1</c></rc>
    <rc><c>Au</c><c>   1</c></rc>
    <rc><c>Au</c><c>   1</c></rc>
    <rc><c>Au</c><c>   1</c></rc>
    <rc><c>Au</c><c>   1</c></rc>
    <rc><c>Au</c><c>   1</c></rc>
    <rc><c>O </c><c>   2</c></rc>
    <rc><c>O </c><c>   2</c></rc>
    <rc><c>O </c><c>   2</c></rc>
    <rc><c>O </c><c>   2</c></rc>
    <rc><c>O </c><c>   2</c></rc>
    <rc><c>O </c><c>   2</c></rc>
    <rc><c>O </c><c>   2</c></rc>
    <rc><c>O </c><c>   2</c></rc>
    <rc><c>Pd</c><c>   3</c></rc>
    <rc><c>Pd</c><c>   3</c></rc>
    <rc><c>Pd</c><c>   3</c></rc>
    <rc><c>Pd</c><c>   3</c></rc>
    <rc><c>Pd</c><c>   3</c></rc>
    <rc><c>Pd</c><c>   3</c></rc>
    <rc><c>Pd</c><c>   3</c></rc>
    <rc><c>Pd</c><c>   3</c></rc>
    <rc><c>Pd</c><c>   3</c></rc>
    <rc><c>Pd</c><c>   3</c></rc>
    <rc><c>Pd</c><c>   3</c></rc>
    <rc><c>Pd</c><c>   3</c></rc>
    <rc><c>Pd</c><c>   3</c></rc>
    <rc><c>Pd</c><c>   3</c></rc>
    <rc><c>Pd</c><c>   3</c></rc>
    <rc><c>Pd</c><c>   3</c></rc>
    <rc><c>Pd</c><c>   3</c></rc>
    <rc><c>Pd</c><c>   3</c></rc>
    <rc><c>Pd</c><c>   3</c></rc>
    <rc><c>Pd</c><c>   3</c></rc>
    <rc><c>Pd</c><c>   3</c></rc>
    <rc><c>Pd</c><c>   3</c></rc>
    <rc><c>Pd</c><c>   3</c></rc>
    <rc><c>Pd</c><c>   3</c></rc>
   </set>
  </array>
  <array name="atomtypes" >
   <dimension dim="1">type</dimension>
   <field type="int">atomspertype</field>
   <field type="string">element</field>
   <field>mass</field>
   <field>valence</field>
   <field type="string">pseudopotential</field>
   <set>
    <rc><c>  24</c><c>Au</c><c>    196.96600000</c><c>     11.00000000</c><c>  PAW_PBE Au 04Oct2007                  </c></rc>
    <rc><c>   8</c><c>O </c><c>     16.00000000</c><c>      6.00000000</c><c>  PAW_PBE O 08Apr2002                   </c></rc>
    <rc><c>  24</c><c>Pd</c><c>    106.42000000</c><c>     10.00000000</c><c>  PAW_PBE Pd 04Jan2005                  </c></rc>
   </set>
  </array>
 </atominfo>
 <structure name="initialpos" >
  <crystal>
   <varray name="basis" >
    <v>      11.00258152       0.00000000       0.00000000 </v>
    <v>       5.50129076       9.52851510       0.00000000 </v>
    <v>       0.00000000       0.00000000      26.19178509 </v>
   </varray>
   <i name="volume">   2745.90128299 </i>
   <varray name="rec_basis" >
    <v>       0.09088776      -0.05247407       0.00000000 </v>
    <v>       0.00000000       0.10494815       0.00000000 </v>
    <v>       0.00000000       0.00000000       0.03817991 </v>
   </varray>
  </crystal>
  <varray name="positions" >
   <v>       0.58333333       0.83333333       0.38179910 </v>
   <v>       0.08333333       0.83333333       0.38179910 </v>
   <v>       0.91666667       0.16666667       0.46754708 </v>
   <v>       0.00000000       0.00000000       0.55329505 </v>
   <v>       0.75000000       0.50000000       0.55329505 </v>
   <v>       0.91666667       0.41666667       0.46754708 </v>
   <v>       0.66666667       0.66666667       0.46754708 </v>
   <v>       0.66666667       0.41666667       0.46754708 </v>
   <v>       0.83333333       0.33333333       0.38179910 </v>
   <v>       0.91666667       0.66666667       0.46754708 </v>
   <v>       0.00000000       0.50000000       0.55329505 </v>
   <v>       0.33333333       0.83333333       0.38179910 </v>
   <v>       0.75000000       0.00000000       0.55329505 </v>
   <v>       0.50000000       0.50000000       0.55329505 </v>
   <v>       0.33333333       0.08333333       0.38179910 </v>
   <v>       0.41666667       0.66666667       0.46754708 </v>
   <v>       0.25000000       0.00000000       0.55329505 </v>
   <v>       0.58333333       0.58333333       0.38179910 </v>
   <v>       0.16666667       0.41666667       0.46754708 </v>
   <v>       0.25000000       0.25000000       0.55329505 </v>
   <v>       0.50000000       0.25000000       0.55329505 </v>
   <v>       0.41666667       0.41666667       0.46754708 </v>
   <v>       0.58333333       0.33333333       0.38179910 </v>
   <v>       0.25000000       0.75000000       0.55329505 </v>
   <v>       0.33333333       0.33333333       0.61820090 </v>
   <v>       0.08333333       0.83333333       0.61820090 </v>
   <v>       0.33333333       0.08333333       0.61820090 </v>
   <v>       0.83333333       0.83333333       0.61820090 </v>
   <v>       0.33333333       0.83333333       0.61820090 </v>
   <v>       0.83333333       0.58333333       0.61820090 </v>
   <v>       0.58333333       0.33333333       0.61820090 </v>
   <v>       0.58333333       0.58333333       0.61820090 </v>
   <v>       0.33333333       0.58333333       0.38179910 </v>
   <v>       0.08333333       0.08333333       0.38179910 </v>
   <v>       0.00000000       0.75000000       0.55329505 </v>
   <v>       0.50000000       0.00000000       0.55329505 </v>
   <v>       0.41666667       0.16666667       0.46754708 </v>
   <v>       0.58333333       0.08333333       0.38179910 </v>
   <v>       0.75000000       0.75000000       0.55329505 </v>
   <v>       0.25000000       0.50000000       0.55329505 </v>
   <v>       0.16666667       0.16666667       0.46754708 </v>
   <v>       0.50000000       0.75000000       0.55329505 </v>
   <v>       0.91666667       0.91666667       0.46754708 </v>
   <v>       0.41666667       0.91666667       0.46754708 </v>
   <v>       0.83333333       0.08333333       0.38179910 </v>
   <v>       0.66666667       0.16666667       0.46754708 </v>
   <v>       0.08333333       0.58333333       0.38179910 </v>
   <v>       0.75000000       0.25000000       0.55329505 </v>
   <v>       0.83333333       0.58333333       0.38179910 </v>
   <v>       0.00000000       0.25000000       0.55329505 </v>
   <v>       0.08333333       0.33333333       0.38179910 </v>
   <v>       0.83333333       0.83333333       0.38179910 </v>
   <v>       0.66666667       0.91666667       0.46754708 </v>
   <v>       0.16666667       0.91666667       0.46754708 </v>
   <v>       0.33333333       0.33333333       0.38179910 </v>
   <v>       0.16666667       0.66666667       0.46754708 </v>
  </varray>
  <varray name="selective"  type="logical" >
   <v type="logical" >  F  F  F </v>
   <v type="logical" >  F  F  F </v>
   <v type="logical" >  T  T  T </v>
   <v type="logical" >  T  T  T </v>
   <v type="logical" >  T  T  T </v>
   <v type="logical" >  T  T  T </v>
   <v type="logical" >  T  T  T </v>
   <v type="logical" >  T  T  T </v>
   <v type="logical" >  F  F  F </v>
   <v type="logical" >  T  T  T </v>
   <v type="logical" >  T  T  T </v>
   <v type="logical" >  F  F  F </v>
   <v type="logical" >  T  T  T </v>
   <v type="logical" >  T  T  T </v>
   <v type="logical" >  F  F  F </v>
   <v type="logical" >  T  T  T </v>
   <v type="logical" >  T  T  T </v>
   <v type="logical" >  F  F  F </v>
   <v type="logical" >  T  T  T </v>
   <v type="logical" >  T  T  T </v>
   <v type="logical" >  T  T  T </v>
   <v type="logical" >  T  T  T </v>
   <v type="logical" >  F  F  F </v>
   <v type="logical" >  T  T  T </v>
   <v type="logical" >  T  T  T </v>
   <v type="logical" >  T  T  T </v>
   <v type="logical" >  T  T  T </v>
   <v type="logical" >  T  T  T </v>
   <v type="logical" >  T  T  T </v>
   <v type="logical" >  T  T  T </v>
   <v type="logical" >  T  T  T </v>
   <v type="logical" >  T  T  T </v>
   <v type="logical" >  F  F  F </v>
   <v type="logical" >  F  F  F </v>
   <v type="logical" >  T  T  T </v>
   <v type="logical" >  T  T  T </v>
   <v type="logical" >  T  T  T </v>
   <v type="logical" >  F  F  F </v>
   <v type="logical" >  T  T  T </v>
   <v type="logical" >  T  T  T </v>
   <v type="logical" >  T  T  T </v>
   <v type="logical" >  T  T  T </v>
   <v type="logical" >  T  T  T </v>
   <v type="logical" >  T  T  T </v>
   <v type="logical" >  F  F  F </v>
   <v type="logical" >  T  T  T </v>
   <v type="logical" >  F  F  F </v>
   <v type="logical" >  T  T  T </v>
   <v type="logical" >  F  F  F </v>
   <v type="logical" >  T  T  T </v>
   <v type="logical" >  F  F  F </v>
   <v type="logical" >  F  F  F </v>
   <v type="logical" >  T  T  T </v>
   <v type="logical" >  T  T  T </v>
   <v type="logical" >  F  F  F </v>
   <v type="logical" >  T  T  T </v>
  </varray>
  <nose>
   <v>      -3.00000000       0.00000000       0.00010000       0.00010000 </v>
  </nose>
 </structure>
 <calculation>
  <scstep>
   <time name="dav">    8.66    8.71</time>
   <time name="total">    8.72    8.77</time>
   <dipole>
    <v name="dipole">      0.00000000       0.00000000       0.00012631 </v>
    <i name="Tr[quadrupol]"> -11364.23897979 </i>
    <i name="Echarged">      0.00000000 </i>
    <i name="Edipol_quadrupol">      0.00000000 </i>
    <i name="Eion">      0.00000000 </i>
   </dipole>
   <energy>
    <i name="alphaZ">    862.57877298 </i>
    <i name="ewald"> 255468.98519689 </i>
    <i name="hartreedc">-301045.39421568 </i>
    <i name="XCdc">   -109.69378505 </i>
    <i name="pawpsdc">  43112.45544455 </i>
    <i name="pawaedc"> -41079.41300390 </i>
    <i name="eentropy">     -0.15869235 </i>
    <i name="bandstr">   1335.60273722 </i>
    <i name="atom">  45117.89144060 </i>
    <i name="e_fr_energy">   3662.85389525 </i>
    <i name="e_wo_entrp">   3663.01258761 </i>
    <i name="e_0_energy">   3662.93324143 </i>
   </energy>
  </scstep>
  <scstep>
   <time name="dav">   10.29   10.34</time>
   <time name="total">   10.29   10.34</time>
   <dipole>
    <v name="dipole">      0.00000000       0.00000000       0.00012631 </v>
    <i name="Tr[quadrupol]"> -11364.23897979 </i>
    <i name="Echarged">      0.00000000 </i>
    <i name="Edipol_quadrupol">      0.00000000 </i>
    <i name="Eion">      0.00000000 </i>
   </dipole>
   <energy>
    <i name="e_fr_energy">     55.87626524 </i>
    <i name="e_wo_entrp">     56.04256843 </i>
    <i name="e_0_energy">     55.95941683 </i>
   </energy>
  </scstep>
  <scstep>
   <time name="dav">    9.92    9.99</time>
   <time name="total">    9.92    9.99</time>
   <dipole>
    <v name="dipole">      0.00000000       0.00000000       0.00012631 </v>
    <i name="Tr[quadrupol]"> -11364.23897979 </i>
    <i name="Echarged">      0.00000000 </i>
    <i name="Edipol_quadrupol">      0.00000000 </i>
    <i name="Eion">      0.00000000 </i>
   </dipole>
   <energy>
    <i name="e_fr_energy">   -250.08921101 </i>
    <i name="e_wo_entrp">   -249.66344213 </i>
    <i name="e_0_energy">   -249.87632657 </i>
   </energy>
  </scstep>
  <scstep>
   <time name="dav">    9.71    9.82</time>
   <time name="total">    9.71    9.83</time>
   <dipole>
    <v name="dipole">      0.00000000       0.00000000       0.00012631 </v>
    <i name="Tr[quadrupol]"> -11364.23897979 </i>
    <i name="Echarged">      0.00000000 </i>
    <i name="Edipol_quadrupol">      0.00000000 </i>
    <i name="Eion">      0.00000000 </i>
   </dipole>
   <energy>
    <i name="e_fr_energy">   -261.55471963 </i>
    <i name="e_wo_entrp">   -261.10995887 </i>
    <i name="e_0_energy">   -261.33233925 </i>
   </energy>
  </scstep>
  <scstep>
   <time name="dav">   10.21   10.26</time>
   <time name="total">   10.48   10.54</time>
   <dipole>
    <v name="dipole">      0.00000000       0.00000000       0.00012631 </v>
    <i name="Tr[quadrupol]"> -11364.23897979 </i>
    <i name="Echarged">      0.00000000 </i>
    <i name="Edipol_quadrupol">      0.00000000 </i>
    <i name="Eion">      0.00000000 </i>
   </dipole>
   <energy>
    <i name="e_fr_energy">   -261.89775711 </i>
    <i name="e_wo_entrp">   -261.45106868 </i>
    <i name="e_0_energy">   -261.67441290 </i>
   </energy>
  </scstep>
  <scstep>
   <time name="diag">    1.59    1.60</time>
   <time name="diis">    4.13    4.15</time>
   <time name="orth">    0.45    0.45</time>
   <time name="total">    6.48    6.52</time>
   <dipole>
    <v name="dipole">      0.00000000       0.00000000       3.32990233 </v>
    <i name="Tr[quadrupol]"> -11357.41895805 </i>
    <i name="Echarged">      0.00000000 </i>
    <i name="Edipol_quadrupol">      0.00000000 </i>
    <i name="Eion">      0.00000000 </i>
   </dipole>
   <energy>
    <i name="e_fr_energy">   -344.18435015 </i>
    <i name="e_wo_entrp">   -344.08233193 </i>
    <i name="e_0_energy">   -344.13334104 </i>
   </energy>
  </scstep>
  <scstep>
   <time name="diag">    1.57    1.58</time>
   <time name="diis">    4.14    4.16</time>
   <time name="orth">    0.45    0.45</time>
   <time name="total">    6.48    6.51</time>
   <dipole>
    <v name="dipole">      0.00000000       0.00000000      -1.38217081 </v>
    <i name="Tr[quadrupol]"> -11359.66208713 </i>
    <i name="Echarged">      0.00000000 </i>
    <i name="Edipol_quadrupol">      0.00000000 </i>
    <i name="Eion">      0.00000000 </i>
   </dipole>
   <energy>
    <i name="e_fr_energy">   -277.81273334 </i>
    <i name="e_wo_entrp">   -277.57840148 </i>
    <i name="e_0_energy">   -277.69556741 </i>
   </energy>
  </scstep>
  <scstep>
   <time name="diag">    1.57    1.58</time>
   <time name="diis">    4.13    4.14</time>
   <time name="orth">    0.45    0.45</time>
   <time name="total">    6.46    6.49</time>
   <dipole>
    <v name="dipole">      0.00000000       0.00000000       0.85937188 </v>
    <i name="Tr[quadrupol]"> -11363.03107793 </i>
    <i name="Echarged">      0.00000000 </i>
    <i name="Edipol_quadrupol">      0.00000000 </i>
    <i name="Eion">      0.00000000 </i>
   </dipole>
   <energy>
    <i name="e_fr_energy">   -234.09247606 </i>
    <i name="e_wo_entrp">   -233.81032150 </i>
    <i name="e_0_energy">   -233.95139878 </i>
   </energy>
  </scstep>
  <scstep>
   <time name="diag">    1.57    1.58</time>
   <time name="diis">    4.06    4.16</time>
   <time name="orth">    0.45    0.45</time>
   <time name="total">    6.38    6.50</time>
   <dipole>
    <v name="dipole">      0.00000000       0.00000000       0.61546690 </v>
    <i name="Tr[quadrupol]"> -11356.19295920 </i>
    <i name="Echarged">      0.00000000 </i>
    <i name="Edipol_quadrupol">      0.00000000 </i>
    <i name="Eion">      0.00000000 </i>
   </dipole>
   <energy>
    <i name="e_fr_energy">   -255.10528801 </i>
    <i name="e_wo_entrp">   -254.91907183 </i>
    <i name="e_0_energy">   -255.01217992 </i>
   </energy>
  </scstep>
  <scstep>
   <time name="diag">    1.57    1.58</time>
   <time name="diis">    4.15    4.17</time>
   <time name="orth">    0.45    0.45</time>
   <time name="total">    6.48    6.52</time>
   <dipole>
    <v name="dipole">      0.00000000       0.00000000       1.64358311 </v>
    <i name="Tr[quadrupol]"> -11359.28549263 </i>
    <i name="Echarged">      0.00000000 </i>
    <i name="Edipol_quadrupol">      0.00000000 </i>
    <i name="Eion">      0.00000000 </i>
   </dipole>
   <energy>
    <i name="e_fr_energy">   -252.73090021 </i>
    <i name="e_wo_entrp">   -252.58464336 </i>
    <i name="e_0_energy">   -252.65777179 </i>
   </energy>
  </scstep>
  <scstep>
   <time name="diag">    1.58    1.59</time>
   <time name="diis">    4.07    4.11</time>
   <time name="orth">    0.44    0.44</time>
   <time name="total">    6.40    6.46</time>
   <dipole>
    <v name="dipole">      0.00000000       0.00000000       1.50209355 </v>
    <i name="Tr[quadrupol]"> -11360.00427838 </i>
    <i name="Echarged">      0.00000000 </i>
    <i name="Edipol_quadrupol">      0.00000000 </i>
    <i name="Eion">      0.00000000 </i>
   </dipole>
   <energy>
    <i name="e_fr_energy">   -238.38454412 </i>
    <i name="e_wo_entrp">   -238.26103582 </i>
    <i name="e_0_energy">   -238.32278997 </i>
   </energy>
  </scstep>
  <scstep>
   <time name="diag">    1.57    1.58</time>
   <time name="diis">    4.07    4.09</time>
   <time name="orth">    0.44    0.44</time>
   <time name="total">    6.40    6.43</time>
   <dipole>
    <v name="dipole">      0.00000000       0.00000000       1.12339355 </v>
    <i name="Tr[quadrupol]"> -11360.60812683 </i>
    <i name="Echarged">      0.00000000 </i>
    <i name="Edipol_quadrupol">      0.00000000 </i>
    <i name="Eion">      0.00000000 </i>
   </dipole>
   <energy>
    <i name="e_fr_energy">   -225.46374969 </i>
    <i name="e_wo_entrp">   -225.24354495 </i>
    <i name="e_0_energy">   -225.35364732 </i>
   </energy>
  </scstep>
  <scstep>
   <time name="diag">    1.57    1.58</time>
   <time name="diis">    4.13    4.15</time>
   <time name="orth">    0.44    0.44</time>
   <time name="total">    6.45    6.48</time>
   <dipole>
    <v name="dipole">      0.00000000       0.00000000       1.10837589 </v>
    <i name="Tr[quadrupol]"> -11361.30911736 </i>
    <i name="Echarged">      0.00000000 </i>
    <i name="Edipol_quadrupol">      0.00000000 </i>
    <i name="Eion">      0.00000000 </i>
   </dipole>
   <energy>
    <i name="e_fr_energy">   -221.06744813 </i>
    <i name="e_wo_entrp">   -220.76382790 </i>
    <i name="e_0_energy">   -220.91563802 </i>
   </energy>
  </scstep>
  <scstep>
   <time name="diag">    1.57    1.58</time>
   <time name="diis">    4.15    4.17</time>
   <time name="orth">    0.44    0.44</time>
   <time name="total">    6.47    6.51</time>
   <dipole>
    <v name="dipole">      0.00000000       0.00000000       1.14933968 </v>
    <i name="Tr[quadrupol]"> -11361.37664602 </i>
    <i name="Echarged">      0.00000000 </i>
    <i name="Edipol_quadrupol">      0.00000000 </i>
    <i name="Eion">      0.00000000 </i>
   </dipole>
   <energy>
    <i name="e_fr_energy">   -220.16879345 </i>
    <i name="e_wo_entrp">   -219.84662233 </i>
    <i name="e_0_energy">   -220.00770789 </i>
   </energy>
  </scstep>
  <scstep>
   <time name="diag">    1.57    1.58</time>
   <time name="diis">    4.14    4.17</time>
   <time name="orth">    0.44    0.48</time>
   <time name="total">    6.47    6.57</time>
   <dipole>
    <v name="dipole">      0.00000000       0.00000000       1.19454705 </v>
    <i name="Tr[quadrupol]"> -11361.34919406 </i>
    <i name="Echarged">      0.00000000 </i>
    <i name="Edipol_quadrupol">      0.00000000 </i>
    <i name="Eion">      0.00000000 </i>
   </dipole>
   <energy>
    <i name="e_fr_energy">   -219.95261599 </i>
    <i name="e_wo_entrp">   -219.63203563 </i>
    <i name="e_0_energy">   -219.79232581 </i>
   </energy>
  </scstep>
  <scstep>
   <time name="diag">    1.57    1.58</time>
   <time name="diis">    4.13    4.15</time>
   <time name="orth">    0.44    0.44</time>
   <time name="total">    6.46    6.50</time>
   <dipole>
    <v name="dipole">      0.00000000       0.00000000       1.20024838 </v>
    <i name="Tr[quadrupol]"> -11361.19302599 </i>
    <i name="Echarged">      0.00000000 </i>
    <i name="Edipol_quadrupol">      0.00000000 </i>
    <i name="Eion">      0.00000000 </i>
   </dipole>
   <energy>
    <i name="e_fr_energy">   -219.98063172 </i>
    <i name="e_wo_entrp">   -219.67393309 </i>
    <i name="e_0_energy">   -219.82728241 </i>
   </energy>
  </scstep>
  <scstep>
   <time name="diag">    1.57    1.58</time>
   <time name="diis">    4.15    4.17</time>
   <time name="orth">    0.44    0.44</time>
   <time name="total">    6.47    6.51</time>
   <dipole>
    <v name="dipole">      0.00000000       0.00000000       1.20748244 </v>
    <i name="Tr[quadrupol]"> -11361.19741745 </i>
    <i name="Echarged">      0.00000000 </i>
    <i name="Edipol_quadrupol">      0.00000000 </i>
    <i name="Eion">      0.00000000 </i>
   </dipole>
   <energy>
    <i name="e_fr_energy">   -220.01324747 </i>
    <i name="e_wo_entrp">   -219.69933285 </i>
    <i name="e_0_energy">   -219.85629016 </i>
   </energy>
  </scstep>
  <scstep>
   <time name="diag">    1.57    1.58</time>
   <time name="diis">    4.12    4.14</time>
   <time name="orth">    0.44    0.44</time>
   <time name="total">    6.45    6.49</time>
   <dipole>
    <v name="dipole">      0.00000000       0.00000000       1.25928875 </v>
    <i name="Tr[quadrupol]"> -11361.30718978 </i>
    <i name="Echarged">      0.00000000 </i>
    <i name="Edipol_quadrupol">      0.00000000 </i>
    <i name="Eion">      0.00000000 </i>
   </dipole>
   <energy>
    <i name="e_fr_energy">   -220.01579543 </i>
    <i name="e_wo_entrp">   -219.70422244 </i>
    <i name="e_0_energy">   -219.86000894 </i>
   </energy>
  </scstep>
  <scstep>
   <time name="diag">    1.57    1.58</time>
   <time name="diis">    4.12    4.13</time>
   <time name="orth">    0.44    0.44</time>
   <time name="total">    6.44    6.47</time>
   <dipole>
    <v name="dipole">      0.00000000       0.00000000       1.28094982 </v>
    <i name="Tr[quadrupol]"> -11361.42847036 </i>
    <i name="Echarged">      0.00000000 </i>
    <i name="Edipol_quadrupol">      0.00000000 </i>
    <i name="Eion">      0.00000000 </i>
   </dipole>
   <energy>
    <i name="e_fr_energy">   -219.96804833 </i>
    <i name="e_wo_entrp">   -219.63526626 </i>
    <i name="e_0_energy">   -219.80165730 </i>
   </energy>
  </scstep>
  <scstep>
   <time name="diag">    1.57    1.58</time>
   <time name="diis">    4.07    4.12</time>
   <time name="orth">    0.44    0.44</time>
   <time name="total">    6.40    6.46</time>
   <dipole>
    <v name="dipole">      0.00000000       0.00000000       1.28406737 </v>
    <i name="Tr[quadrupol]"> -11361.48789149 </i>
    <i name="Echarged">      0.00000000 </i>
    <i name="Edipol_quadrupol">      0.00000000 </i>
    <i name="Eion">      0.00000000 </i>
   </dipole>
   <energy>
    <i name="e_fr_energy">   -219.87697229 </i>
    <i name="e_wo_entrp">   -219.53181470 </i>
    <i name="e_0_energy">   -219.70439350 </i>
   </energy>
  </scstep>
  <scstep>
   <time name="diag">    1.57    1.58</time>
   <time name="diis">    4.11    4.13</time>
   <time name="orth">    0.44    0.44</time>
   <time name="total">    6.43    6.46</time>
   <dipole>
    <v name="dipole">      0.00000000       0.00000000       1.28114441 </v>
    <i name="Tr[quadrupol]"> -11361.52102747 </i>
    <i name="Echarged">      0.00000000 </i>
    <i name="Edipol_quadrupol">      0.00000000 </i>
    <i name="Eion">      0.00000000 </i>
   </dipole>
   <energy>
    <i name="e_fr_energy">   -219.86481589 </i>
    <i name="e_wo_entrp">   -219.52209710 </i>
    <i name="e_0_energy">   -219.69345650 </i>
   </energy>
  </scstep>
  <scstep>
   <time name="diag">    1.55    1.63</time>
   <time name="diis">    4.11    4.13</time>
   <time name="orth">    0.44    0.44</time>
   <time name="total">    6.41    6.52</time>
   <dipole>
    <v name="dipole">      0.00000000       0.00000000       1.28166993 </v>
    <i name="Tr[quadrupol]"> -11361.53609371 </i>
    <i name="Echarged">      0.00000000 </i>
    <i name="Edipol_quadrupol">      0.00000000 </i>
    <i name="Eion">      0.00000000 </i>
   </dipole>
   <energy>
    <i name="e_fr_energy">   -219.85795145 </i>
    <i name="e_wo_entrp">   -219.51499321 </i>
    <i name="e_0_energy">   -219.68647233 </i>
   </energy>
  </scstep>
  <scstep>
   <time name="diag">    1.57    1.58</time>
   <time name="diis">    4.19    4.21</time>
   <time name="orth">    0.44    0.44</time>
   <time name="total">    6.51    6.55</time>
   <dipole>
    <v name="dipole">      0.00000000       0.00000000       1.28747696 </v>
    <i name="Tr[quadrupol]"> -11361.58959478 </i>
    <i name="Echarged">      0.00000000 </i>
    <i name="Edipol_quadrupol">      0.00000000 </i>
    <i name="Eion">      0.00000000 </i>
   </dipole>
   <energy>
    <i name="e_fr_energy">   -219.85411865 </i>
    <i name="e_wo_entrp">   -219.51821317 </i>
    <i name="e_0_energy">   -219.68616591 </i>
   </energy>
  </scstep>
  <scstep>
   <time name="diag">    1.57    1.58</time>
   <time name="diis">    4.13    4.15</time>
   <time name="orth">    0.44    0.44</time>
   <time name="total">    6.45    6.49</time>
   <dipole>
    <v name="dipole">      0.00000000       0.00000000       1.29653010 </v>
    <i name="Tr[quadrupol]"> -11361.68876001 </i>
    <i name="Echarged">      0.00000000 </i>
    <i name="Edipol_quadrupol">      0.00000000 </i>
    <i name="Eion">      0.00000000 </i>
   </dipole>
   <energy>
    <i name="e_fr_energy">   -219.84994934 </i>
    <i name="e_wo_entrp">   -219.51096443 </i>
    <i name="e_0_energy">   -219.68045688 </i>
   </energy>
  </scstep>
  <scstep>
   <time name="diag">    1.57    1.58</time>
   <time name="diis">    4.11    4.13</time>
   <time name="orth">    0.44    0.44</time>
   <time name="total">    6.43    6.47</time>
   <dipole>
    <v name="dipole">      0.00000000       0.00000000       1.29996295 </v>
    <i name="Tr[quadrupol]"> -11361.73948651 </i>
    <i name="Echarged">      0.00000000 </i>
    <i name="Edipol_quadrupol">      0.00000000 </i>
    <i name="Eion">      0.00000000 </i>
   </dipole>
   <energy>
    <i name="e_fr_energy">   -219.84832698 </i>
    <i name="e_wo_entrp">   -219.50822655 </i>
    <i name="e_0_energy">   -219.67827677 </i>
   </energy>
  </scstep>
  <scstep>
   <time name="diag">    1.57    1.58</time>
   <time name="diis">    4.19    4.21</time>
   <time name="orth">    0.44    0.44</time>
   <time name="total">    6.51    6.55</time>
   <dipole>
    <v name="dipole">      0.00000000       0.00000000       1.30198879 </v>
    <i name="Tr[quadrupol]"> -11361.77401456 </i>
    <i name="Echarged">      0.00000000 </i>
    <i name="Edipol_quadrupol">      0.00000000 </i>
    <i name="Eion">      0.00000000 </i>
   </dipole>
   <energy>
    <i name="e_fr_energy">   -219.84792420 </i>
    <i name="e_wo_entrp">   -219.50590132 </i>
    <i name="e_0_energy">   -219.67691276 </i>
   </energy>
  </scstep>
  <scstep>
   <time name="diag">    1.57    1.58</time>
   <time name="diis">    4.25    4.27</time>
   <time name="orth">    0.44    0.44</time>
   <time name="total">    6.57    6.60</time>
   <dipole>
    <v name="dipole">      0.00000000       0.00000000       1.30480593 </v>
    <i name="Tr[quadrupol]"> -11361.82816289 </i>
    <i name="Echarged">      0.00000000 </i>
    <i name="Edipol_quadrupol">      0.00000000 </i>
    <i name="Eion">      0.00000000 </i>
   </dipole>
   <energy>
    <i name="e_fr_energy">   -219.84837462 </i>
    <i name="e_wo_entrp">   -219.50568482 </i>
    <i name="e_0_energy">   -219.67702972 </i>
   </energy>
  </scstep>
  <scstep>
   <time name="diag">    1.56    1.61</time>
   <time name="diis">    4.09    4.15</time>
   <time name="orth">    0.44    0.44</time>
   <time name="total">    6.41    6.52</time>
   <dipole>
    <v name="dipole">      0.00000000       0.00000000       1.30929763 </v>
    <i name="Tr[quadrupol]"> -11361.85295428 </i>
    <i name="Echarged">      0.00000000 </i>
    <i name="Edipol_quadrupol">      0.00000000 </i>
    <i name="Eion">      0.00000000 </i>
   </dipole>
   <energy>
    <i name="e_fr_energy">   -219.84869056 </i>
    <i name="e_wo_entrp">   -219.50700054 </i>
    <i name="e_0_energy">   -219.67784555 </i>
   </energy>
  </scstep>
  <scstep>
   <time name="diag">    1.57    1.58</time>
   <time name="diis">    4.18    4.21</time>
   <time name="orth">    0.43    0.44</time>
   <time name="total">    6.50    6.55</time>
   <dipole>
    <v name="dipole">      0.00000000       0.00000000       1.31445729 </v>
    <i name="Tr[quadrupol]"> -11361.87671019 </i>
    <i name="Echarged">      0.00000000 </i>
    <i name="Edipol_quadrupol">      0.00000000 </i>
    <i name="Eion">      0.00000000 </i>
   </dipole>
   <energy>
    <i name="e_fr_energy">   -219.84900084 </i>
    <i name="e_wo_entrp">   -219.50721849 </i>
    <i name="e_0_energy">   -219.67810967 </i>
   </energy>
  </scstep>
  <scstep>
   <time name="diag">    1.56    1.58</time>
   <time name="diis">    4.22    4.24</time>
   <time name="orth">    0.44    0.44</time>
   <time name="total">    6.53    6.58</time>
   <dipole>
    <v name="dipole">      0.00000000       0.00000000       1.32111742 </v>
    <i name="Tr[quadrupol]"> -11361.91295891 </i>
    <i name="Echarged">      0.00000000 </i>
    <i name="Edipol_quadrupol">      0.00000000 </i>
    <i name="Eion">      0.00000000 </i>
   </dipole>
   <energy>
    <i name="e_fr_energy">   -219.84943704 </i>
    <i name="e_wo_entrp">   -219.50769997 </i>
    <i name="e_0_energy">   -219.67856850 </i>
   </energy>
  </scstep>
  <scstep>
   <time name="diag">    1.57    1.58</time>
   <time name="diis">    4.17    4.20</time>
   <time name="orth">    0.44    0.44</time>
   <time name="total">    6.49    6.54</time>
   <dipole>
    <v name="dipole">      0.00000000       0.00000000       1.32939279 </v>
    <i name="Tr[quadrupol]"> -11361.96002851 </i>
    <i name="Echarged">      0.00000000 </i>
    <i name="Edipol_quadrupol">      0.00000000 </i>
    <i name="Eion">      0.00000000 </i>
   </dipole>
   <energy>
    <i name="e_fr_energy">   -219.84997062 </i>
    <i name="e_wo_entrp">   -219.50770755 </i>
    <i name="e_0_energy">   -219.67883908 </i>
   </energy>
  </scstep>
  <scstep>
   <time name="diag">    1.57    1.57</time>
   <time name="diis">    4.17    4.19</time>
   <time name="orth">    0.44    0.44</time>
   <time name="total">    6.50    6.53</time>
   <dipole>
    <v name="dipole">      0.00000000       0.00000000       1.33332734 </v>
    <i name="Tr[quadrupol]"> -11361.98076527 </i>
    <i name="Echarged">      0.00000000 </i>
    <i name="Edipol_quadrupol">      0.00000000 </i>
    <i name="Eion">      0.00000000 </i>
   </dipole>
   <energy>
    <i name="e_fr_energy">   -219.85018626 </i>
    <i name="e_wo_entrp">   -219.50771373 </i>
    <i name="e_0_energy">   -219.67894999 </i>
   </energy>
  </scstep>
  <scstep>
   <time name="diag">    1.57    1.57</time>
   <time name="diis">    4.06    4.09</time>
   <time name="orth">    0.44    0.44</time>
   <time name="total">    6.38    6.42</time>
   <dipole>
    <v name="dipole">      0.00000000       0.00000000       1.33858592 </v>
    <i name="Tr[quadrupol]"> -11362.00586550 </i>
    <i name="Echarged">      0.00000000 </i>
    <i name="Edipol_quadrupol">      0.00000000 </i>
    <i name="Eion">      0.00000000 </i>
   </dipole>
   <energy>
    <i name="e_fr_energy">   -219.85046186 </i>
    <i name="e_wo_entrp">   -219.50807747 </i>
    <i name="e_0_energy">   -219.67926966 </i>
   </energy>
  </scstep>
  <scstep>
   <time name="diag">    1.57    1.58</time>
   <time name="diis">    3.97    4.07</time>
   <time name="orth">    0.44    0.44</time>
   <time name="total">    6.30    6.41</time>
   <dipole>
    <v name="dipole">      0.00000000       0.00000000       1.34490671 </v>
    <i name="Tr[quadrupol]"> -11362.03293601 </i>
    <i name="Echarged">      0.00000000 </i>
    <i name="Edipol_quadrupol">      0.00000000 </i>
    <i name="Eion">      0.00000000 </i>
   </dipole>
   <energy>
    <i name="e_fr_energy">   -219.85075224 </i>
    <i name="e_wo_entrp">   -219.50841571 </i>
    <i name="e_0_energy">   -219.67958398 </i>
   </energy>
  </scstep>
  <scstep>
   <time name="diag">    1.57    1.58</time>
   <time name="diis">    4.17    4.18</time>
   <time name="orth">    0.44    0.44</time>
   <time name="total">    6.49    6.52</time>
   <dipole>
    <v name="dipole">      0.00000000       0.00000000       1.35547949 </v>
    <i name="Tr[quadrupol]"> -11362.07981726 </i>
    <i name="Echarged">      0.00000000 </i>
    <i name="Edipol_quadrupol">      0.00000000 </i>
    <i name="Eion">      0.00000000 </i>
   </dipole>
   <energy>
    <i name="e_fr_energy">   -219.85120546 </i>
    <i name="e_wo_entrp">   -219.50890471 </i>
    <i name="e_0_energy">   -219.68005509 </i>
   </energy>
  </scstep>
  <scstep>
   <time name="diag">    1.56    1.57</time>
   <time name="diis">    3.70    3.72</time>
   <time name="orth">    0.44    0.44</time>
   <time name="total">    6.02    6.05</time>
   <dipole>
    <v name="dipole">      0.00000000       0.00000000       1.36056412 </v>
    <i name="Tr[quadrupol]"> -11362.09926990 </i>
    <i name="Echarged">      0.00000000 </i>
    <i name="Edipol_quadrupol">      0.00000000 </i>
    <i name="Eion">      0.00000000 </i>
   </dipole>
   <energy>
    <i name="e_fr_energy">   -219.85136397 </i>
    <i name="e_wo_entrp">   -219.50907662 </i>
    <i name="e_0_energy">   -219.68022029 </i>
   </energy>
  </scstep>
  <scstep>
   <time name="diag">    1.56    1.57</time>
   <time name="diis">    3.67    3.69</time>
   <time name="orth">    0.44    0.44</time>
   <time name="total">    5.99    6.02</time>
   <dipole>
    <v name="dipole">      0.00000000       0.00000000       1.36725682 </v>
    <i name="Tr[quadrupol]"> -11362.12412010 </i>
    <i name="Echarged">      0.00000000 </i>
    <i name="Edipol_quadrupol">      0.00000000 </i>
    <i name="Eion">      0.00000000 </i>
   </dipole>
   <energy>
    <i name="e_fr_energy">   -219.85151564 </i>
    <i name="e_wo_entrp">   -219.50921297 </i>
    <i name="e_0_energy">   -219.68036430 </i>
   </energy>
  </scstep>
  <scstep>
   <time name="diag">    1.57    1.58</time>
   <time name="diis">    3.21    3.22</time>
   <time name="orth">    0.44    0.44</time>
   <time name="total">    5.54    5.56</time>
   <dipole>
    <v name="dipole">      0.00000000       0.00000000       1.37137139 </v>
    <i name="Tr[quadrupol]"> -11362.13814663 </i>
    <i name="Echarged">      0.00000000 </i>
    <i name="Edipol_quadrupol">      0.00000000 </i>
    <i name="Eion">      0.00000000 </i>
   </dipole>
   <energy>
    <i name="e_fr_energy">   -219.85157717 </i>
    <i name="e_wo_entrp">   -219.50924829 </i>
    <i name="e_0_energy">   -219.68041273 </i>
   </energy>
  </scstep>
  <scstep>
   <time name="diag">    1.57    1.57</time>
   <time name="diis">    2.75    2.77</time>
   <time name="orth">    0.44    0.44</time>
   <time name="total">    5.07    5.10</time>
   <dipole>
    <v name="dipole">      0.00000000       0.00000000       1.37450699 </v>
    <i name="Tr[quadrupol]"> -11362.14754453 </i>
    <i name="Echarged">      0.00000000 </i>
    <i name="Edipol_quadrupol">      0.00000000 </i>
    <i name="Eion">      0.00000000 </i>
   </dipole>
   <energy>
    <i name="e_fr_energy">   -219.85161790 </i>
    <i name="e_wo_entrp">   -219.50928509 </i>
    <i name="e_0_energy">   -219.68045150 </i>
   </energy>
  </scstep>
  <scstep>
   <time name="diag">    1.57    1.57</time>
   <time name="diis">    2.55    2.56</time>
   <time name="orth">    0.44    0.45</time>
   <time name="total">    4.88    4.91</time>
   <dipole>
    <v name="dipole">      0.00000000       0.00000000       1.37710957 </v>
    <i name="Tr[quadrupol]"> -11362.15435725 </i>
    <i name="Echarged">      0.00000000 </i>
    <i name="Edipol_quadrupol">      0.00000000 </i>
    <i name="Eion">      0.00000000 </i>
   </dipole>
   <energy>
    <i name="e_fr_energy">   -219.85165704 </i>
    <i name="e_wo_entrp">   -219.50928824 </i>
    <i name="e_0_energy">   -219.68047264 </i>
   </energy>
  </scstep>
  <scstep>
   <time name="diag">    1.57    1.58</time>
   <time name="diis">    2.45    2.54</time>
   <time name="orth">    0.44    0.44</time>
   <time name="total">    4.77    4.88</time>
   <dipole>
    <v name="dipole">      0.00000000       0.00000000       1.37965549 </v>
    <i name="Tr[quadrupol]"> -11362.16010843 </i>
    <i name="Echarged">      0.00000000 </i>
    <i name="Edipol_quadrupol">      0.00000000 </i>
    <i name="Eion">      0.00000000 </i>
   </dipole>
   <energy>
    <i name="e_fr_energy">   -219.85169394 </i>
    <i name="e_wo_entrp">   -219.50932634 </i>
    <i name="e_0_energy">   -219.68051014 </i>
   </energy>
  </scstep>
  <scstep>
   <time name="diag">    1.57    1.58</time>
   <time name="diis">    2.55    2.56</time>
   <time name="orth">    0.44    0.44</time>
   <time name="total">    4.88    4.91</time>
   <dipole>
    <v name="dipole">      0.00000000       0.00000000       1.38239150 </v>
    <i name="Tr[quadrupol]"> -11362.16553661 </i>
    <i name="Echarged">      0.00000000 </i>
    <i name="Edipol_quadrupol">      0.00000000 </i>
    <i name="Eion">      0.00000000 </i>
   </dipole>
   <energy>
    <i name="e_fr_energy">   -219.85173218 </i>
    <i name="e_wo_entrp">   -219.50936142 </i>
    <i name="e_0_energy">   -219.68054680 </i>
   </energy>
  </scstep>
  <scstep>
   <time name="diag">    1.57    1.58</time>
   <time name="diis">    2.50    2.51</time>
   <time name="orth">    0.44    0.44</time>
   <time name="total">    4.83    4.85</time>
   <dipole>
    <v name="dipole">      0.00000000       0.00000000       1.38395874 </v>
    <i name="Tr[quadrupol]"> -11362.16849505 </i>
    <i name="Echarged">      0.00000000 </i>
    <i name="Edipol_quadrupol">      0.00000000 </i>
    <i name="Eion">      0.00000000 </i>
   </dipole>
   <energy>
    <i name="e_fr_energy">   -219.85175052 </i>
    <i name="e_wo_entrp">   -219.50937947 </i>
    <i name="e_0_energy">   -219.68056500 </i>
   </energy>
  </scstep>
  <scstep>
   <time name="diag">    1.57    1.58</time>
   <time name="diis">    2.51    2.52</time>
   <time name="orth">    0.44    0.44</time>
   <time name="total">    4.85    4.87</time>
   <dipole>
    <v name="dipole">      0.00000000       0.00000000       1.38592798 </v>
    <i name="Tr[quadrupol]"> -11362.17184281 </i>
    <i name="Echarged">      0.00000000 </i>
    <i name="Edipol_quadrupol">      0.00000000 </i>
    <i name="Eion">      0.00000000 </i>
   </dipole>
   <energy>
    <i name="e_fr_energy">   -219.85176854 </i>
    <i name="e_wo_entrp">   -219.50938554 </i>
    <i name="e_0_energy">   -219.68057704 </i>
   </energy>
  </scstep>
  <scstep>
   <time name="diag">    1.56    1.57</time>
   <time name="diis">    2.23    2.25</time>
   <time name="orth">    0.44    0.44</time>
   <time name="total">    4.56    4.59</time>
   <dipole>
    <v name="dipole">      0.00000000       0.00000000       1.38694968 </v>
    <i name="Tr[quadrupol]"> -11362.17343382 </i>
    <i name="Echarged">      0.00000000 </i>
    <i name="Edipol_quadrupol">      0.00000000 </i>
    <i name="Eion">      0.00000000 </i>
   </dipole>
   <energy>
    <i name="e_fr_energy">   -219.85177535 </i>
    <i name="e_wo_entrp">   -219.50938334 </i>
    <i name="e_0_energy">   -219.68057935 </i>
   </energy>
  </scstep>
  <scstep>
   <time name="diag">    1.57    1.58</time>
   <time name="diis">    2.21    2.22</time>
   <time name="orth">    0.44    0.44</time>
   <time name="total">    4.55    4.58</time>
   <dipole>
    <v name="dipole">      0.00000000       0.00000000       1.38770815 </v>
    <i name="Tr[quadrupol]"> -11362.17440231 </i>
    <i name="Echarged">      0.00000000 </i>
    <i name="Edipol_quadrupol">      0.00000000 </i>
    <i name="Eion">      0.00000000 </i>
   </dipole>
   <energy>
    <i name="e_fr_energy">   -219.85177937 </i>
    <i name="e_wo_entrp">   -219.50938615 </i>
    <i name="e_0_energy">   -219.68058276 </i>
   </energy>
  </scstep>
  <scstep>
   <time name="diag">    1.57    1.57</time>
   <time name="diis">    1.82    1.83</time>
   <time name="orth">    0.44    0.44</time>
   <time name="total">    4.15    4.17</time>
   <dipole>
    <v name="dipole">      0.00000000       0.00000000       1.38795258 </v>
    <i name="Tr[quadrupol]"> -11362.17455903 </i>
    <i name="Echarged">      0.00000000 </i>
    <i name="Edipol_quadrupol">      0.00000000 </i>
    <i name="Eion">      0.00000000 </i>
   </dipole>
   <energy>
    <i name="e_fr_energy">   -219.85178082 </i>
    <i name="e_wo_entrp">   -219.50938521 </i>
    <i name="e_0_energy">   -219.68058302 </i>
   </energy>
  </scstep>
  <scstep>
   <time name="diag">    1.56    1.57</time>
   <time name="diis">    1.83    1.85</time>
   <time name="orth">    0.44    0.44</time>
   <time name="total">    3.89    3.92</time>
   <dipole>
    <v name="dipole">      0.00000000       0.00000000       1.38810462 </v>
    <i name="Tr[quadrupol]"> -11362.17460533 </i>
    <i name="Echarged">      0.00000000 </i>
    <i name="Edipol_quadrupol">      0.00000000 </i>
    <i name="Eion">      0.00000000 </i>
   </dipole>
   <energy>
    <i name="alphaZ">    887.69664930 </i>
    <i name="ewald"> 255468.98519689 </i>
    <i name="hartreedc">-300464.20240486 </i>
    <i name="XCdc">   -123.98715297 </i>
    <i name="pawpsdc">  52900.48230601 </i>
    <i name="pawaedc"> -50998.67021242 </i>
    <i name="eentropy">     -0.34239554 </i>
    <i name="bandstr">  -3007.70520884 </i>
    <i name="atom">  45117.89144060 </i>
    <i name="e_fr_energy">   -219.85178182 </i>
    <i name="e_wo_entrp">   -219.50938628 </i>
    <i name="e_0_energy">   -219.68058405 </i>
   </energy>
  </scstep>
  <structure>
   <crystal>
    <varray name="basis" >
     <v>      11.00258152       0.00000000       0.00000000 </v>
     <v>       5.50129076       9.52851510       0.00000000 </v>
     <v>       0.00000000       0.00000000      26.19178509 </v>
    </varray>
    <i name="volume">   2745.90128299 </i>
    <varray name="rec_basis" >
     <v>       0.09088776      -0.05247407       0.00000000 </v>
     <v>       0.00000000       0.10494815       0.00000000 </v>
     <v>       0.00000000       0.00000000       0.03817991 </v>
    </varray>
   </crystal>
   <varray name="positions" >
    <v>       0.58333333       0.83333333       0.38179910 </v>
    <v>       0.08333333       0.83333333       0.38179910 </v>
    <v>       0.91666667       0.16666667       0.46754708 </v>
    <v>       0.00000000       0.00000000       0.55329505 </v>
    <v>       0.75000000       0.50000000       0.55329505 </v>
    <v>       0.91666667       0.41666667       0.46754708 </v>
    <v>       0.66666667       0.66666667       0.46754708 </v>
    <v>       0.66666667       0.41666667       0.46754708 </v>
    <v>       0.83333333       0.33333333       0.38179910 </v>
    <v>       0.91666667       0.66666667       0.46754708 </v>
    <v>       0.00000000       0.50000000       0.55329505 </v>
    <v>       0.33333333       0.83333333       0.38179910 </v>
    <v>       0.75000000       0.00000000       0.55329505 </v>
    <v>       0.50000000       0.50000000       0.55329505 </v>
    <v>       0.33333333       0.08333333       0.38179910 </v>
    <v>       0.41666667       0.66666667       0.46754708 </v>
    <v>       0.25000000       0.00000000       0.55329505 </v>
    <v>       0.58333333       0.58333333       0.38179910 </v>
    <v>       0.16666667       0.41666667       0.46754708 </v>
    <v>       0.25000000       0.25000000       0.55329505 </v>
    <v>       0.50000000       0.25000000       0.55329505 </v>
    <v>       0.41666667       0.41666667       0.46754708 </v>
    <v>       0.58333333       0.33333333       0.38179910 </v>
    <v>       0.25000000       0.75000000       0.55329505 </v>
    <v>       0.33333333       0.33333333       0.61820090 </v>
    <v>       0.08333333       0.83333333       0.61820090 </v>
    <v>       0.33333333       0.08333333       0.61820090 </v>
    <v>       0.83333333       0.83333333       0.61820090 </v>
    <v>       0.33333333       0.83333333       0.61820090 </v>
    <v>       0.83333333       0.58333333       0.61820090 </v>
    <v>       0.58333333       0.33333333       0.61820090 </v>
    <v>       0.58333333       0.58333333       0.61820090 </v>
    <v>       0.33333333       0.58333333       0.38179910 </v>
    <v>       0.08333333       0.08333333       0.38179910 </v>
    <v>       0.00000000       0.75000000       0.55329505 </v>
    <v>       0.50000000       0.00000000       0.55329505 </v>
    <v>       0.41666667       0.16666667       0.46754708 </v>
    <v>       0.58333333       0.08333333       0.38179910 </v>
    <v>       0.75000000       0.75000000       0.55329505 </v>
    <v>       0.25000000       0.50000000       0.55329505 </v>
    <v>       0.16666667       0.16666667       0.46754708 </v>
    <v>       0.50000000       0.75000000       0.55329505 </v>
    <v>       0.91666667       0.91666667       0.46754708 </v>
    <v>       0.41666667       0.91666667       0.46754708 </v>
    <v>       0.83333333       0.08333333       0.38179910 </v>
    <v>       0.66666667       0.16666667       0.46754708 </v>
    <v>       0.08333333       0.58333333       0.38179910 </v>
    <v>       0.75000000       0.25000000       0.55329505 </v>
    <v>       0.83333333       0.58333333       0.38179910 </v>
    <v>       0.00000000       0.25000000       0.55329505 </v>
    <v>       0.08333333       0.33333333       0.38179910 </v>
    <v>       0.83333333       0.83333333       0.38179910 </v>
    <v>       0.66666667       0.91666667       0.46754708 </v>
    <v>       0.16666667       0.91666667       0.46754708 </v>
    <v>       0.33333333       0.33333333       0.38179910 </v>
    <v>       0.16666667       0.66666667       0.46754708 </v>
   </varray>
  </structure>
  <varray name="forces" >
   <v>       0.50198328       0.17771036      -1.35889904 </v>
   <v>      -0.20092177      -0.03605830      -1.06096060 </v>
   <v>      -0.03337381      -0.62619855       0.39816932 </v>
   <v>      -0.23649122       0.26061191       1.83107295 </v>
   <v>       0.10785760      -0.46966275       2.65010862 </v>
   <v>       0.25326554      -0.33772792      -0.13880100 </v>
   <v>       0.24601510       0.79145909       0.44656600 </v>
   <v>      -0.03224532      -0.44185689       0.37678437 </v>
   <v>       0.38633874      -0.28297848      -1.82272980 </v>
   <v>       0.38072366       0.73676330      -0.32585332 </v>
   <v>       0.24749255       0.03147156       2.27978114 </v>
   <v>      -0.27842314       0.12379675      -1.30187989 </v>
   <v>      -0.10632437      -0.04613894       1.51374379 </v>
   <v>      -0.26690289       0.14727496       2.62476412 </v>
   <v>       0.03443900       0.40827266      -0.98182898 </v>
   <v>      -0.45054887       0.45926506       0.27266854 </v>
   <v>       0.02795115       0.34065313       1.79445856 </v>
   <v>       0.04328201       0.05164693      -1.88487462 </v>
   <v>       0.17317830      -0.18247416      -0.24640409 </v>
   <v>      -0.19538914       0.08206286       2.19439067 </v>
   <v>       0.15709150      -0.53534934       2.14940606 </v>
   <v>      -0.42830989      -0.04807683      -0.26463390 </v>
   <v>      -0.34477233      -0.41796467      -1.50640737 </v>
   <v>      -0.31837660      -0.45059020       2.11658513 </v>
   <v>      -0.18054716       0.53339687      -2.26572677 </v>
   <v>      -0.28292269      -0.02144486      -2.26347512 </v>
   <v>       0.32029706      -0.33544553      -2.22067315 </v>
   <v>       0.03803188      -0.06100172      -2.83222167 </v>
   <v>       0.35951804      -0.17498148      -2.13116217 </v>
   <v>       0.21279440       0.12582913      -2.28557687 </v>
   <v>       0.54160885      -0.42268666      -2.30465332 </v>
   <v>       0.04374011       0.50730937      -2.09960209 </v>
   <v>      -0.36152575      -0.04424774      -0.86874312 </v>
   <v>      -0.00370373       0.14171114      -0.65719140 </v>
   <v>      -0.04329326       0.26596065       2.57919091 </v>
   <v>      -0.22885402      -0.16152143       1.30248379 </v>
   <v>       0.19740732      -0.35049731      -0.17629043 </v>
   <v>       0.16970376      -0.01106741      -0.44843590 </v>
   <v>      -0.01907976       0.29860537       2.64812684 </v>
   <v>      -0.18622013      -0.04109308       1.74261416 </v>
   <v>       0.15896905      -0.28883284       0.29236909 </v>
   <v>       0.24228210       0.26261201       2.68421023 </v>
   <v>      -0.13384770      -0.09518512      -0.40566644 </v>
   <v>       0.19799274       0.20852411       0.40846424 </v>
   <v>      -0.22568586      -0.22899315      -0.56028986 </v>
   <v>      -0.24255421      -0.56306516       0.22472734 </v>
   <v>       0.01487678      -0.11706911      -0.69754911 </v>
   <v>      -0.20759994      -0.08147755       1.85248674 </v>
   <v>       0.31788697       0.09374330      -0.98003739 </v>
   <v>      -0.15329687      -0.03249465       0.74782552 </v>
   <v>       0.03730194      -0.02073027      -0.73717152 </v>
   <v>      -0.01608508       0.13089960      -0.58955244 </v>
   <v>      -0.11197767       0.27648687       0.41505105 </v>
   <v>       0.08584836       0.20202252      -0.10025312 </v>
   <v>      -0.06851074       0.04074669      -0.65732687 </v>
   <v>      -0.14009384       0.22807590       0.62882218 </v>
  </varray>
  <energy>
   <i name="e_fr_energy">   -219.85178182 </i>
   <i name="e_wo_entrp">   -219.68058405 </i>
   <i name="e_0_energy">     -0.34239554 </i>
  </energy>
  <time name="totalsc">  309.70  311.98</time>
 </calculation>
 <calculation>
  <scstep>
   <time name="dav">    8.89    9.01</time>
   <time name="total">    9.21    9.33</time>
   <dipole>
    <v name="dipole">      0.00000000       0.00000000       1.38821756 </v>
    <i name="Tr[quadrupol]"> -11334.06461818 </i>
    <i name="Echarged">      0.00000000 </i>
    <i name="Edipol_quadrupol">      0.00000000 </i>
    <i name="Eion">      0.00000000 </i>
   </dipole>
   <energy>
    <i name="alphaZ">    886.91268065 </i>
    <i name="ewald"> 254512.16901160 </i>
    <i name="hartreedc">-299499.89375748 </i>
    <i name="XCdc">   -123.89837623 </i>
    <i name="pawpsdc">  52900.48357865 </i>
    <i name="pawaedc"> -50998.67154374 </i>
    <i name="eentropy">     -0.30680864 </i>
    <i name="bandstr">  -3016.46416937 </i>
    <i name="atom">  45117.89144060 </i>
    <i name="e_fr_energy">   -221.77794396 </i>
    <i name="e_wo_entrp">   -221.47113532 </i>
    <i name="e_0_energy">   -221.62453964 </i>
   </energy>
  </scstep>
  <scstep>
   <time name="diag">    1.57    1.57</time>
   <time name="diis">    4.08    4.12</time>
   <time name="orth">    0.44    0.44</time>
   <time name="total">    6.40    6.46</time>
   <dipole>
    <v name="dipole">      0.00000000       0.00000000       0.89868957 </v>
    <i name="Tr[quadrupol]"> -11333.77812592 </i>
    <i name="Echarged">      0.00000000 </i>
    <i name="Edipol_quadrupol">      0.00000000 </i>
    <i name="Eion">      0.00000000 </i>
   </dipole>
   <energy>
    <i name="e_fr_energy">   -227.41787997 </i>
    <i name="e_wo_entrp">   -227.08174863 </i>
    <i name="e_0_energy">   -227.24981430 </i>
   </energy>
  </scstep>
  <scstep>
   <time name="diag">    1.58    1.58</time>
   <time name="diis">    4.13    4.15</time>
   <time name="orth">    0.44    0.44</time>
   <time name="total">    6.46    6.50</time>
   <dipole>
    <v name="dipole">      0.00000000       0.00000000       1.29897686 </v>
    <i name="Tr[quadrupol]"> -11334.07297392 </i>
    <i name="Echarged">      0.00000000 </i>
    <i name="Edipol_quadrupol">      0.00000000 </i>
    <i name="Eion">      0.00000000 </i>
   </dipole>
   <energy>
    <i name="e_fr_energy">   -223.65199522 </i>
    <i name="e_wo_entrp">   -223.33774034 </i>
    <i name="e_0_energy">   -223.49486778 </i>
   </energy>
  </scstep>
  <scstep>
   <time name="diag">    1.57    1.58</time>
   <time name="diis">    4.28    4.30</time>
   <time name="orth">    0.44    0.44</time>
   <time name="total">    6.59    6.63</time>
   <dipole>
    <v name="dipole">      0.00000000       0.00000000       1.08088723 </v>
    <i name="Tr[quadrupol]"> -11334.25812732 </i>
    <i name="Echarged">      0.00000000 </i>
    <i name="Edipol_quadrupol">      0.00000000 </i>
    <i name="Eion">      0.00000000 </i>
   </dipole>
   <energy>
    <i name="e_fr_energy">   -224.37184894 </i>
    <i name="e_wo_entrp">   -224.02581509 </i>
    <i name="e_0_energy">   -224.19883201 </i>
   </energy>
  </scstep>
  <scstep>
   <time name="diag">    1.57    1.58</time>
   <time name="diis">    4.20    4.22</time>
   <time name="orth">    0.44    0.44</time>
   <time name="total">    6.52    6.56</time>
   <dipole>
    <v name="dipole">      0.00000000       0.00000000       1.08513779 </v>
    <i name="Tr[quadrupol]"> -11334.47077261 </i>
    <i name="Echarged">      0.00000000 </i>
    <i name="Edipol_quadrupol">      0.00000000 </i>
    <i name="Eion">      0.00000000 </i>
   </dipole>
   <energy>
    <i name="e_fr_energy">   -223.96623249 </i>
    <i name="e_wo_entrp">   -223.60557541 </i>
    <i name="e_0_energy">   -223.78590395 </i>
   </energy>
  </scstep>
  <scstep>
   <time name="diag">    1.56    1.57</time>
   <time name="diis">    4.23    4.25</time>
   <time name="orth">    0.44    0.44</time>
   <time name="total">    6.55    6.59</time>
   <dipole>
    <v name="dipole">      0.00000000       0.00000000       1.12200462 </v>
    <i name="Tr[quadrupol]"> -11334.49164137 </i>
    <i name="Echarged">      0.00000000 </i>
    <i name="Edipol_quadrupol">      0.00000000 </i>
    <i name="Eion">      0.00000000 </i>
   </dipole>
   <energy>
    <i name="e_fr_energy">   -223.70276920 </i>
    <i name="e_wo_entrp">   -223.34806608 </i>
    <i name="e_0_energy">   -223.52541764 </i>
   </energy>
  </scstep>
  <scstep>
   <time name="diag">    1.55    1.63</time>
   <time name="diis">    4.08    4.10</time>
   <time name="orth">    0.44    0.44</time>
   <time name="total">    6.39    6.50</time>
   <dipole>
    <v name="dipole">      0.00000000       0.00000000       1.17163276 </v>
    <i name="Tr[quadrupol]"> -11334.66412008 </i>
    <i name="Echarged">      0.00000000 </i>
    <i name="Edipol_quadrupol">      0.00000000 </i>
    <i name="Eion">      0.00000000 </i>
   </dipole>
   <energy>
    <i name="e_fr_energy">   -223.51523650 </i>
    <i name="e_wo_entrp">   -223.19454430 </i>
    <i name="e_0_energy">   -223.35489040 </i>
   </energy>
  </scstep>
  <scstep>
   <time name="diag">    1.57    1.57</time>
   <time name="diis">    4.17    4.19</time>
   <time name="orth">    0.44    0.44</time>
   <time name="total">    6.49    6.52</time>
   <dipole>
    <v name="dipole">      0.00000000       0.00000000       1.18093054 </v>
    <i name="Tr[quadrupol]"> -11334.77849427 </i>
    <i name="Echarged">      0.00000000 </i>
    <i name="Edipol_quadrupol">      0.00000000 </i>
    <i name="Eion">      0.00000000 </i>
   </dipole>
   <energy>
    <i name="e_fr_energy">   -223.44627994 </i>
    <i name="e_wo_entrp">   -223.11660205 </i>
    <i name="e_0_energy">   -223.28144100 </i>
   </energy>
  </scstep>
  <scstep>
   <time name="diag">    1.57    1.58</time>
   <time name="diis">    4.19    4.21</time>
   <time name="orth">    0.44    0.44</time>
   <time name="total">    6.52    6.55</time>
   <dipole>
    <v name="dipole">      0.00000000       0.00000000       1.19021605 </v>
    <i name="Tr[quadrupol]"> -11334.82669391 </i>
    <i name="Echarged">      0.00000000 </i>
    <i name="Edipol_quadrupol">      0.00000000 </i>
    <i name="Eion">      0.00000000 </i>
   </dipole>
   <energy>
    <i name="e_fr_energy">   -223.42371115 </i>
    <i name="e_wo_entrp">   -223.09956749 </i>
    <i name="e_0_energy">   -223.26163932 </i>
   </energy>
  </scstep>
  <scstep>
   <time name="diag">    1.56    1.57</time>
   <time name="diis">    4.20    4.22</time>
   <time name="orth">    0.45    0.45</time>
   <time name="total">    6.52    6.56</time>
   <dipole>
    <v name="dipole">      0.00000000       0.00000000       1.18448436 </v>
    <i name="Tr[quadrupol]"> -11334.82741556 </i>
    <i name="Echarged">      0.00000000 </i>
    <i name="Edipol_quadrupol">      0.00000000 </i>
    <i name="Eion">      0.00000000 </i>
   </dipole>
   <energy>
    <i name="e_fr_energy">   -223.41812532 </i>
    <i name="e_wo_entrp">   -223.09290127 </i>
    <i name="e_0_energy">   -223.25551330 </i>
   </energy>
  </scstep>
  <scstep>
   <time name="diag">    1.57    1.58</time>
   <time name="diis">    4.09    4.11</time>
   <time name="orth">    0.44    0.44</time>
   <time name="total">    6.41    6.46</time>
   <dipole>
    <v name="dipole">      0.00000000       0.00000000       1.18499299 </v>
    <i name="Tr[quadrupol]"> -11334.85847956 </i>
    <i name="Echarged">      0.00000000 </i>
    <i name="Edipol_quadrupol">      0.00000000 </i>
    <i name="Eion">      0.00000000 </i>
   </dipole>
   <energy>
    <i name="e_fr_energy">   -223.42008455 </i>
    <i name="e_wo_entrp">   -223.09314071 </i>
    <i name="e_0_energy">   -223.25661263 </i>
   </energy>
  </scstep>
  <scstep>
   <time name="diag">    1.56    1.58</time>
   <time name="diis">    4.19    4.22</time>
   <time name="orth">    0.44    0.45</time>
   <time name="total">    6.51    6.56</time>
   <dipole>
    <v name="dipole">      0.00000000       0.00000000       1.18565668 </v>
    <i name="Tr[quadrupol]"> -11334.87262067 </i>
    <i name="Echarged">      0.00000000 </i>
    <i name="Edipol_quadrupol">      0.00000000 </i>
    <i name="Eion">      0.00000000 </i>
   </dipole>
   <energy>
    <i name="e_fr_energy">   -223.41857972 </i>
    <i name="e_wo_entrp">   -223.09220736 </i>
    <i name="e_0_energy">   -223.25539354 </i>
   </energy>
  </scstep>
  <scstep>
   <time name="diag">    1.57    1.58</time>
   <time name="diis">    4.03    4.14</time>
   <time name="orth">    0.44    0.44</time>
   <time name="total">    6.36    6.48</time>
   <dipole>
    <v name="dipole">      0.00000000       0.00000000       1.18438932 </v>
    <i name="Tr[quadrupol]"> -11334.88383073 </i>
    <i name="Echarged">      0.00000000 </i>
    <i name="Edipol_quadrupol">      0.00000000 </i>
    <i name="Eion">      0.00000000 </i>
   </dipole>
   <energy>
    <i name="e_fr_energy">   -223.41633165 </i>
    <i name="e_wo_entrp">   -223.09069455 </i>
    <i name="e_0_energy">   -223.25351310 </i>
   </energy>
  </scstep>
  <scstep>
   <time name="diag">    1.56    1.57</time>
   <time name="diis">    4.15    4.17</time>
   <time name="orth">    0.44    0.44</time>
   <time name="total">    6.47    6.50</time>
   <dipole>
    <v name="dipole">      0.00000000       0.00000000       1.18305248 </v>
    <i name="Tr[quadrupol]"> -11334.89046438 </i>
    <i name="Echarged">      0.00000000 </i>
    <i name="Edipol_quadrupol">      0.00000000 </i>
    <i name="Eion">      0.00000000 </i>
   </dipole>
   <energy>
    <i name="e_fr_energy">   -223.41622818 </i>
    <i name="e_wo_entrp">   -223.09007182 </i>
    <i name="e_0_energy">   -223.25315000 </i>
   </energy>
  </scstep>
  <scstep>
   <time name="diag">    1.58    1.59</time>
   <time name="diis">    4.16    4.18</time>
   <time name="orth">    0.44    0.44</time>
   <time name="total">    6.50    6.54</time>
   <dipole>
    <v name="dipole">      0.00000000       0.00000000       1.18221186 </v>
    <i name="Tr[quadrupol]"> -11334.90233715 </i>
    <i name="Echarged">      0.00000000 </i>
    <i name="Edipol_quadrupol">      0.00000000 </i>
    <i name="Eion">      0.00000000 </i>
   </dipole>
   <energy>
    <i name="e_fr_energy">   -223.41588313 </i>
    <i name="e_wo_entrp">   -223.08950675 </i>
    <i name="e_0_energy">   -223.25269494 </i>
   </energy>
  </scstep>
  <scstep>
   <time name="diag">    1.56    1.57</time>
   <time name="diis">    4.17    4.19</time>
   <time name="orth">    0.44    0.44</time>
   <time name="total">    6.49    6.52</time>
   <dipole>
    <v name="dipole">      0.00000000       0.00000000       1.18219185 </v>
    <i name="Tr[quadrupol]"> -11334.90907221 </i>
    <i name="Echarged">      0.00000000 </i>
    <i name="Edipol_quadrupol">      0.00000000 </i>
    <i name="Eion">      0.00000000 </i>
   </dipole>
   <energy>
    <i name="e_fr_energy">   -223.41584637 </i>
    <i name="e_wo_entrp">   -223.08994953 </i>
    <i name="e_0_energy">   -223.25289795 </i>
   </energy>
  </scstep>
  <scstep>
   <time name="diag">    1.57    1.58</time>
   <time name="diis">    4.16    4.18</time>
   <time name="orth">    0.44    0.44</time>
   <time name="total">    6.49    6.52</time>
   <dipole>
    <v name="dipole">      0.00000000       0.00000000       1.18179755 </v>
    <i name="Tr[quadrupol]"> -11334.92140276 </i>
    <i name="Echarged">      0.00000000 </i>
    <i name="Edipol_quadrupol">      0.00000000 </i>
    <i name="Eion">      0.00000000 </i>
   </dipole>
   <energy>
    <i name="e_fr_energy">   -223.41591229 </i>
    <i name="e_wo_entrp">   -223.09047219 </i>
    <i name="e_0_energy">   -223.25319224 </i>
   </energy>
  </scstep>
  <scstep>
   <time name="diag">    1.56    1.57</time>
   <time name="diis">    4.22    4.24</time>
   <time name="orth">    0.44    0.44</time>
   <time name="total">    6.54    6.57</time>
   <dipole>
    <v name="dipole">      0.00000000       0.00000000       1.18113767 </v>
    <i name="Tr[quadrupol]"> -11334.93615827 </i>
    <i name="Echarged">      0.00000000 </i>
    <i name="Edipol_quadrupol">      0.00000000 </i>
    <i name="Eion">      0.00000000 </i>
   </dipole>
   <energy>
    <i name="e_fr_energy">   -223.41598984 </i>
    <i name="e_wo_entrp">   -223.09039353 </i>
    <i name="e_0_energy">   -223.25319169 </i>
   </energy>
  </scstep>
  <scstep>
   <time name="diag">    1.58    1.58</time>
   <time name="diis">    4.09    4.20</time>
   <time name="orth">    0.44    0.44</time>
   <time name="total">    6.43    6.55</time>
   <dipole>
    <v name="dipole">      0.00000000       0.00000000       1.18003378 </v>
    <i name="Tr[quadrupol]"> -11334.94322511 </i>
    <i name="Echarged">      0.00000000 </i>
    <i name="Edipol_quadrupol">      0.00000000 </i>
    <i name="Eion">      0.00000000 </i>
   </dipole>
   <energy>
    <i name="e_fr_energy">   -223.41605822 </i>
    <i name="e_wo_entrp">   -223.09073099 </i>
    <i name="e_0_energy">   -223.25339460 </i>
   </energy>
  </scstep>
  <scstep>
   <time name="diag">    1.57    1.58</time>
   <time name="diis">    3.71    3.73</time>
   <time name="orth">    0.43    0.45</time>
   <time name="total">    6.03    6.07</time>
   <dipole>
    <v name="dipole">      0.00000000       0.00000000       1.17947809 </v>
    <i name="Tr[quadrupol]"> -11334.94939400 </i>
    <i name="Echarged">      0.00000000 </i>
    <i name="Edipol_quadrupol">      0.00000000 </i>
    <i name="Eion">      0.00000000 </i>
   </dipole>
   <energy>
    <i name="e_fr_energy">   -223.41611125 </i>
    <i name="e_wo_entrp">   -223.09062815 </i>
    <i name="e_0_energy">   -223.25336970 </i>
   </energy>
  </scstep>
  <scstep>
   <time name="diag">    1.56    1.57</time>
   <time name="diis">    3.10    3.11</time>
   <time name="orth">    0.44    0.44</time>
   <time name="total">    5.42    5.45</time>
   <dipole>
    <v name="dipole">      0.00000000       0.00000000       1.17896301 </v>
    <i name="Tr[quadrupol]"> -11334.95490279 </i>
    <i name="Echarged">      0.00000000 </i>
    <i name="Edipol_quadrupol">      0.00000000 </i>
    <i name="Eion">      0.00000000 </i>
   </dipole>
   <energy>
    <i name="e_fr_energy">   -223.41617440 </i>
    <i name="e_wo_entrp">   -223.09078813 </i>
    <i name="e_0_energy">   -223.25348126 </i>
   </energy>
  </scstep>
  <scstep>
   <time name="diag">    1.57    1.58</time>
   <time name="diis">    2.66    2.67</time>
   <time name="orth">    0.44    0.44</time>
   <time name="total">    4.99    5.01</time>
   <dipole>
    <v name="dipole">      0.00000000       0.00000000       1.17852866 </v>
    <i name="Tr[quadrupol]"> -11334.96085706 </i>
    <i name="Echarged">      0.00000000 </i>
    <i name="Edipol_quadrupol">      0.00000000 </i>
    <i name="Eion">      0.00000000 </i>
   </dipole>
[...]
       <r>   -19.1163     4.6937    14.1958 </r>
       <r>   -19.0236     9.1577    15.0444 </r>
       <r>   -18.9310     8.4584    15.8281 </r>
       <r>   -18.8383     1.7744    15.9926 </r>
       <r>   -18.7457     0.0795    15.9999 </r>
       <r>   -18.6530     0.0007    16.0000 </r>
       <r>   -18.5603     0.0000    16.0000 </r>
       <r>   -18.4677     0.0000    16.0000 </r>
       <r>   -18.3750     0.0000    16.0000 </r>
       <r>   -18.2824     0.0000    16.0000 </r>
       <r>   -18.1897     0.0000    16.0000 </r>
       <r>   -18.0971     0.0000    16.0000 </r>
       <r>   -18.0044     0.0000    16.0000 </r>
       <r>   -17.9117     0.0000    16.0000 </r>
       <r>   -17.8191     0.0000    16.0000 </r>
       <r>   -17.7264     0.0000    16.0000 </r>
       <r>   -17.6338     0.0000    16.0000 </r>
       <r>   -17.5411     0.0000    16.0000 </r>
       <r>   -17.4484     0.0000    16.0000 </r>
       <r>   -17.3558     0.0000    16.0000 </r>
       <r>   -17.2631     0.0000    16.0000 </r>
       <r>   -17.1705     0.0000    16.0000 </r>
       <r>   -17.0778     0.0000    16.0000 </r>
       <r>   -16.9851     0.0000    16.0000 </r>
       <r>   -16.8925     0.0000    16.0000 </r>
       <r>   -16.7998     0.0000    16.0000 </r>
       <r>   -16.7072     0.0000    16.0000 </r>
       <r>   -16.6145     0.0000    16.0000 </r>
       <r>   -16.5218     0.0000    16.0000 </r>
       <r>   -16.4292     0.0000    16.0000 </r>
       <r>   -16.3365     0.0000    16.0000 </r>
       <r>   -16.2439     0.0000    16.0000 </r>
       <r>   -16.1512     0.0000    16.0000 </r>
       <r>   -16.0586     0.0000    16.0000 </r>
       <r>   -15.9659     0.0000    16.0000 </r>
       <r>   -15.8732     0.0000    16.0000 </r>
       <r>   -15.7806     0.0000    16.0000 </r>
       <r>   -15.6879     0.0000    16.0000 </r>
       <r>   -15.5953     0.0000    16.0000 </r>
       <r>   -15.5026     0.0000    16.0000 </r>
       <r>   -15.4099     0.0000    16.0000 </r>
       <r>   -15.3173     0.0000    16.0000 </r>
       <r>   -15.2246     0.0000    16.0000 </r>
       <r>   -15.1320     0.0000    16.0000 </r>
       <r>   -15.0393     0.0000    16.0000 </r>
       <r>   -14.9466     0.0000    16.0000 </r>
       <r>   -14.8540     0.0000    16.0000 </r>
       <r>   -14.7613     0.0000    16.0000 </r>
       <r>   -14.6687     0.0000    16.0000 </r>
       <r>   -14.5760     0.0000    16.0000 </r>
       <r>   -14.4833     0.0000    16.0000 </r>
       <r>   -14.3907     0.0000    16.0000 </r>
       <r>   -14.2980     0.0000    16.0000 </r>
       <r>   -14.2054     0.0000    16.0000 </r>
       <r>   -14.1127     0.0000    16.0000 </r>
       <r>   -14.0200     0.0000    16.0000 </r>
       <r>   -13.9274     0.0000    16.0000 </r>
       <r>   -13.8347     0.0000    16.0000 </r>
       <r>   -13.7421     0.0000    16.0000 </r>
       <r>   -13.6494     0.0000    16.0000 </r>
       <r>   -13.5568     0.0000    16.0000 </r>
       <r>   -13.4641     0.0000    16.0000 </r>
       <r>   -13.3714     0.0000    16.0000 </r>
       <r>   -13.2788     0.0000    16.0000 </r>
       <r>   -13.1861     0.0000    16.0000 </r>
       <r>   -13.0935     0.0000    16.0000 </r>
       <r>   -13.0008     0.0000    16.0000 </r>
       <r>   -12.9081     0.0000    16.0000 </r>
       <r>   -12.8155     0.0000    16.0000 </r>
       <r>   -12.7228     0.0000    16.0000 </r>
       <r>   -12.6302     0.0000    16.0000 </r>
       <r>   -12.5375     0.0000    16.0000 </r>
       <r>   -12.4448     0.0000    16.0000 </r>
       <r>   -12.3522     0.0000    16.0000 </r>
       <r>   -12.2595     0.0000    16.0000 </r>
       <r>   -12.1669     0.0000    16.0000 </r>
       <r>   -12.0742     0.0000    16.0000 </r>
       <r>   -11.9815     0.0000    16.0000 </r>
       <r>   -11.8889     0.0000    16.0000 </r>
       <r>   -11.7962     0.0000    16.0000 </r>
       <r>   -11.7036     0.0000    16.0000 </r>
       <r>   -11.6109     0.0000    16.0000 </r>
       <r>   -11.5183     0.0000    16.0000 </r>
       <r>   -11.4256     0.0000    16.0000 </r>
       <r>   -11.3329     0.0000    16.0000 </r>
       <r>   -11.2403     0.0000    16.0000 </r>
       <r>   -11.1476     0.0000    16.0000 </r>
       <r>   -11.0550     0.0000    16.0000 </r>
       <r>   -10.9623     0.0000    16.0000 </r>
       <r>   -10.8696     0.0000    16.0000 </r>
       <r>   -10.7770     0.0000    16.0000 </r>
       <r>   -10.6843     0.0000    16.0000 </r>
       <r>   -10.5917     0.0000    16.0000 </r>
       <r>   -10.4990     0.0000    16.0000 </r>
       <r>   -10.4063     0.0000    16.0000 </r>
       <r>   -10.3137     0.0000    16.0000 </r>
       <r>   -10.2210     0.0000    16.0000 </r>
       <r>   -10.1284     0.0000    16.0000 </r>
       <r>   -10.0357     0.0000    16.0000 </r>
       <r>    -9.9430     0.0000    16.0000 </r>
       <r>    -9.8504     0.0000    16.0000 </r>
       <r>    -9.7577     0.0000    16.0000 </r>
       <r>    -9.6651     0.0000    16.0000 </r>
       <r>    -9.5724     0.0000    16.0000 </r>
       <r>    -9.4798     0.0000    16.0000 </r>
       <r>    -9.3871     0.0000    16.0000 </r>
       <r>    -9.2944     0.0000    16.0000 </r>
       <r>    -9.2018     0.0000    16.0000 </r>
       <r>    -9.1091     0.0017    16.0002 </r>
       <r>    -9.0165     0.1153    16.0108 </r>
       <r>    -8.9238     1.6486    16.1636 </r>
       <r>    -8.8311     5.5859    16.6812 </r>
       <r>    -8.7385     6.9957    17.3294 </r>
       <r>    -8.6458     5.5718    17.8457 </r>
       <r>    -8.5532     3.1565    18.1382 </r>
       <r>    -8.4605     7.0553    18.7919 </r>
       <r>    -8.3678    10.8691    19.7990 </r>
       <r>    -8.2752    11.7580    20.8885 </r>
       <r>    -8.1825    15.1674    22.2939 </r>
       <r>    -8.0899    21.8136    24.3151 </r>
       <r>    -7.9972    24.1959    26.5571 </r>
       <r>    -7.9045    19.0675    28.3239 </r>
       <r>    -7.8119    20.1048    30.1868 </r>
       <r>    -7.7192    22.4006    32.2624 </r>
       <r>    -7.6266    23.7667    34.4646 </r>
       <r>    -7.5339    25.0476    36.7855 </r>
       <r>    -7.4412    29.7711    39.5440 </r>
       <r>    -7.3486    36.5913    42.9346 </r>
       <r>    -7.2559    40.7307    46.7086 </r>
       <r>    -7.1633    46.3630    51.0046 </r>
       <r>    -7.0706    50.7080    55.7032 </r>
       <r>    -6.9780    56.9062    60.9760 </r>
       <r>    -6.8853    66.0584    67.0969 </r>
       <r>    -6.7926    73.1892    73.8786 </r>
       <r>    -6.7000    70.7774    80.4368 </r>
       <r>    -6.6073    72.4746    87.1522 </r>
       <r>    -6.5147    78.6743    94.4421 </r>
       <r>    -6.4220    81.4397   101.9882 </r>
       <r>    -6.3293    82.7164   109.6527 </r>
       <r>    -6.2367    80.3673   117.0994 </r>
       <r>    -6.1440    81.0783   124.6121 </r>
       <r>    -6.0514    88.2223   132.7867 </r>
       <r>    -5.9587    89.9844   141.1246 </r>
       <r>    -5.8660    88.2516   149.3019 </r>
       <r>    -5.7734    84.3982   157.1221 </r>
       <r>    -5.6807    82.5111   164.7676 </r>
       <r>    -5.5881    84.1325   172.5632 </r>
       <r>    -5.4954    88.0168   180.7188 </r>
       <r>    -5.4027    93.1444   189.3494 </r>
       <r>    -5.3101    91.3946   197.8180 </r>
       <r>    -5.2174    87.5007   205.9257 </r>
       <r>    -5.1248    86.5070   213.9414 </r>
       <r>    -5.0321    86.5284   221.9590 </r>
       <r>    -4.9395    87.8648   230.1005 </r>
       <r>    -4.8468    89.3861   238.3829 </r>
       <r>    -4.7541    89.0942   246.6383 </r>
       <r>    -4.6615    89.9190   254.9702 </r>
       <r>    -4.5688    92.5719   263.5478 </r>
       <r>    -4.4762    94.2961   272.2852 </r>
       <r>    -4.3835    97.1123   281.2835 </r>
       <r>    -4.2908   101.2021   290.6608 </r>
       <r>    -4.1982   103.5220   300.2531 </r>
       <r>    -4.1055    99.9050   309.5102 </r>
       <r>    -4.0129    98.5420   318.6410 </r>
       <r>    -3.9202    98.9790   327.8123 </r>
       <r>    -3.8275    97.5731   336.8534 </r>
       <r>    -3.7349    96.9939   345.8407 </r>
       <r>    -3.6422    95.8415   354.7213 </r>
       <r>    -3.5496    96.3034   363.6447 </r>
       <r>    -3.4569    92.5996   372.2249 </r>
       <r>    -3.3642    90.8431   380.6424 </r>
       <r>    -3.2716    92.3440   389.1989 </r>
       <r>    -3.1789    92.2252   397.7444 </r>
       <r>    -3.0863    93.9874   406.4532 </r>
       <r>    -2.9936    94.2684   415.1880 </r>
       <r>    -2.9010    93.3146   423.8345 </r>
       <r>    -2.8083    94.3184   432.5739 </r>
       <r>    -2.7156    93.4737   441.2351 </r>
       <r>    -2.6230    88.1839   449.4062 </r>
       <r>    -2.5303    92.8516   458.0097 </r>
       <r>    -2.4377    96.5632   466.9572 </r>
       <r>    -2.3450    98.5267   476.0866 </r>
       <r>    -2.2523   104.4402   485.7639 </r>
       <r>    -2.1597   104.3836   495.4360 </r>
       <r>    -2.0670   101.3971   504.8314 </r>
       <r>    -1.9744    98.5704   513.9648 </r>
       <r>    -1.8817    91.8765   522.4780 </r>
       <r>    -1.7890    82.0146   530.0774 </r>
       <r>    -1.6964    73.1852   536.8587 </r>
       <r>    -1.6037    67.3209   543.0966 </r>
       <r>    -1.5111    60.7841   548.7288 </r>
       <r>    -1.4184    47.9776   553.1744 </r>
       <r>    -1.3257    37.0236   556.6050 </r>
       <r>    -1.2331    28.3863   559.2352 </r>
       <r>    -1.1404    23.8341   561.4436 </r>
       <r>    -1.0478    21.4857   563.4345 </r>
       <r>    -0.9551    19.7340   565.2630 </r>
       <r>    -0.8624    21.7063   567.2743 </r>
       <r>    -0.7698    22.2409   569.3351 </r>
       <r>    -0.6771    24.0182   571.5607 </r>
       <r>    -0.5845    29.7473   574.3170 </r>
       <r>    -0.4918    28.6581   576.9725 </r>
       <r>    -0.3992    25.4360   579.3293 </r>
       <r>    -0.3065    17.7535   580.9744 </r>
       <r>    -0.2138    14.1595   582.2864 </r>
       <r>    -0.1212    12.9705   583.4882 </r>
       <r>    -0.0285    13.0381   584.6963 </r>
       <r>     0.0641    11.5118   585.7630 </r>
       <r>     0.1568    10.8177   586.7653 </r>
       <r>     0.2495     9.6449   587.6590 </r>
       <r>     0.3421    14.0698   588.9627 </r>
       <r>     0.4348    19.3622   590.7568 </r>
       <r>     0.5274    20.2359   592.6319 </r>
       <r>     0.6201    21.1178   594.5886 </r>
       <r>     0.7128    23.0485   596.7243 </r>
       <r>     0.8054    20.5922   598.6323 </r>
       <r>     0.8981    14.3686   599.9637 </r>
       <r>     0.9907    10.1439   600.9036 </r>
       <r>     1.0834    10.7411   601.8989 </r>
       <r>     1.1761     9.9715   602.8229 </r>
       <r>     1.2687    10.6421   603.8089 </r>
       <r>     1.3614    11.3894   604.8643 </r>
       <r>     1.4540    12.3507   606.0087 </r>
       <r>     1.5467    16.4179   607.5300 </r>
       <r>     1.6393    18.3052   609.2261 </r>
       <r>     1.7320    18.1190   610.9050 </r>
       <r>     1.8247    16.8433   612.4657 </r>
       <r>     1.9173    17.3186   614.0704 </r>
       <r>     2.0100    18.2185   615.7585 </r>
       <r>     2.1026    17.5132   617.3813 </r>
       <r>     2.1953    14.3080   618.7071 </r>
       <r>     2.2880    13.7544   619.9815 </r>
       <r>     2.3806    13.7772   621.2581 </r>
       <r>     2.4733    12.5993   622.4256 </r>
       <r>     2.5659    13.1942   623.6481 </r>
       <r>     2.6586    12.8922   624.8427 </r>
       <r>     2.7513    11.7310   625.9297 </r>
       <r>     2.8439    12.6721   627.1039 </r>
       <r>     2.9366    14.0496   628.4057 </r>
       <r>     3.0292    15.9268   629.8814 </r>
       <r>     3.1219    18.0472   631.5537 </r>
       <r>     3.2146    17.4902   633.1743 </r>
       <r>     3.3072    16.7478   634.7261 </r>
       <r>     3.3999    16.7124   636.2747 </r>
       <r>     3.4925    18.6322   638.0011 </r>
       <r>     3.5852    16.4252   639.5231 </r>
       <r>     3.6778    13.3160   640.7569 </r>
       <r>     3.7705    15.0790   642.1541 </r>
       <r>     3.8632    15.1384   643.5568 </r>
       <r>     3.9558    18.6776   645.2875 </r>
       <r>     4.0485    20.0474   647.1451 </r>
       <r>     4.1411    19.0456   648.9098 </r>
       <r>     4.2338    17.3859   650.5208 </r>
       <r>     4.3265    16.0096   652.0042 </r>
       <r>     4.4191    17.3222   653.6093 </r>
       <r>     4.5118    20.7743   655.5342 </r>
       <r>     4.6044    26.8618   658.0232 </r>
       <r>     4.6971    29.0102   660.7113 </r>
       <r>     4.7898    27.4287   663.2528 </r>
       <r>     4.8824    28.5309   665.8964 </r>
       <r>     4.9751    26.9919   668.3975 </r>
       <r>     5.0677    22.5128   670.4835 </r>
       <r>     5.1604    13.1275   671.6999 </r>
       <r>     5.2531     3.0448   671.9820 </r>
       <r>     5.3457     0.1913   671.9997 </r>
       <r>     5.4384     0.0027   672.0000 </r>
       <r>     5.5310     0.0000   672.0000 </r>
       <r>     5.6237     0.0000   672.0000 </r>
       <r>     5.7164     0.0000   672.0000 </r>
       <r>     5.8090     0.0000   672.0000 </r>
       <r>     5.9017     0.0000   672.0000 </r>
       <r>     5.9943     0.0000   672.0000 </r>
       <r>     6.0870     0.0000   672.0000 </r>
       <r>     6.1796     0.0000   672.0000 </r>
       <r>     6.2723     0.0000   672.0000 </r>
       <r>     6.3650     0.0000   672.0000 </r>
      </set>
     </set>
    </array>
   </total>
  </dos>
 </calculation>
 <structure name="finalpos" >
  <crystal>
   <varray name="basis" >
    <v>      11.00258152       0.00000000       0.00000000 </v>
    <v>       5.50129076       9.52851510       0.00000000 </v>
    <v>       0.00000000       0.00000000      26.19178509 </v>
   </varray>
   <i name="volume">   2745.90128299 </i>
   <varray name="rec_basis" >
    <v>       0.09088776      -0.05247407       0.00000000 </v>
    <v>       0.00000000       0.10494815       0.00000000 </v>
    <v>       0.00000000       0.00000000       0.03817991 </v>
   </varray>
  </crystal>
  <varray name="positions" >
   <v>       0.58333333       0.83333333       0.38179910 </v>
   <v>       0.08333333       0.83333333       0.38179910 </v>
   <v>       0.91299075       0.17263764       0.47289304 </v>
   <v>      -0.00647741       0.01643114       0.55824641 </v>
   <v>       0.79110107       0.45832206       0.61416863 </v>
   <v>       0.91150554       0.42226545       0.47291161 </v>
   <v>       0.65610213       0.66115448       0.48519079 </v>
   <v>       0.66857090       0.41339134       0.52222991 </v>
   <v>       0.83333333       0.33333333       0.38179910 </v>
   <v>       0.91452915       0.67353964       0.47182705 </v>
   <v>       0.02201352       0.50780205       0.56287489 </v>
   <v>       0.33333333       0.83333333       0.38179910 </v>
   <v>       0.73958926       0.02391243       0.55736976 </v>
   <v>       0.48510233       0.52124910       0.64242151 </v>
   <v>       0.33333333       0.08333333       0.38179910 </v>
   <v>       0.40105525       0.68422532       0.51997333 </v>
   <v>       0.24870952       0.00144729       0.56338032 </v>
   <v>       0.58333333       0.58333333       0.38179910 </v>
   <v>       0.17468379       0.42091590       0.47284643 </v>
   <v>       0.25631811       0.25979647       0.56747251 </v>
   <v>       0.51504074       0.28680076       0.56405972 </v>
   <v>       0.42528825       0.44022032       0.47249150 </v>
   <v>       0.58333333       0.33333333       0.38179910 </v>
   <v>       0.25323927       0.74798302       0.62314138 </v>
   <v>       0.36954506       0.43308428       0.62661059 </v>
   <v>       0.03786289       0.89886313       0.62469110 </v>
   <v>       0.44843685       0.14409942       0.60897421 </v>
   <v>       0.80446128       0.86300026       0.61178041 </v>
   <v>       0.33120955       0.88348083       0.63577808 </v>
   <v>       0.85832113       0.60230388       0.61598149 </v>
   <v>       0.65875314       0.33160146       0.66513496 </v>
   <v>       0.59854577       0.61589280       0.65200213 </v>
   <v>       0.33333333       0.58333333       0.38179910 </v>
   <v>       0.08333333       0.08333333       0.38179910 </v>
   <v>       0.00946327       0.74392901       0.60057387 </v>
   <v>       0.49574381       0.00373674       0.55584570 </v>
   <v>       0.42196323       0.17136052       0.47062598 </v>
   <v>       0.58333333       0.08333333       0.38179910 </v>
   <v>       0.74340332       0.76118833       0.56427409 </v>
   <v>       0.25990553       0.54211655       0.56533330 </v>
   <v>       0.17163552       0.16690288       0.47504619 </v>
   <v>       0.51678090       0.77694038       0.60196050 </v>
   <v>       0.91569962       0.91965747       0.47048567 </v>
   <v>       0.41968444       0.91083010       0.47443218 </v>
   <v>       0.83333333       0.08333333       0.38179910 </v>
   <v>       0.66478559       0.17676830       0.47252181 </v>
   <v>       0.08333333       0.58333333       0.38179910 </v>
   <v>       0.77434381       0.23177520       0.60953325 </v>
   <v>       0.83333333       0.58333333       0.38179910 </v>
   <v>      -0.00438687       0.26646439       0.56117318 </v>
   <v>       0.08333333       0.33333333       0.38179910 </v>
   <v>       0.83333333       0.83333333       0.38179910 </v>
   <v>       0.66625895       0.91692377       0.47054442 </v>
   <v>       0.17132690       0.91500855       0.47176397 </v>
   <v>       0.33333333       0.33333333       0.38179910 </v>
   <v>       0.16540402       0.67769979       0.47715000 </v>
  </varray>
  <varray name="selective"  type="logical" >
   <v type="logical" >  F  F  F </v>
   <v type="logical" >  F  F  F </v>
   <v type="logical" >  T  T  T </v>
   <v type="logical" >  T  T  T </v>
   <v type="logical" >  T  T  T </v>
   <v type="logical" >  T  T  T </v>
   <v type="logical" >  T  T  T </v>
   <v type="logical" >  T  T  T </v>
   <v type="logical" >  F  F  F </v>
   <v type="logical" >  T  T  T </v>
   <v type="logical" >  T  T  T </v>
   <v type="logical" >  F  F  F </v>
   <v type="logical" >  T  T  T </v>
   <v type="logical" >  T  T  T </v>
   <v type="logical" >  F  F  F </v>
   <v type="logical" >  T  T  T </v>
   <v type="logical" >  T  T  T </v>
   <v type="logical" >  F  F  F </v>
   <v type="logical" >  T  T  T </v>
   <v type="logical" >  T  T  T </v>
   <v type="logical" >  T  T  T </v>
   <v type="logical" >  T  T  T </v>
   <v type="logical" >  F  F  F </v>
   <v type="logical" >  T  T  T </v>
   <v type="logical" >  T  T  T </v>
   <v type="logical" >  T  T  T </v>
   <v type="logical" >  T  T  T </v>
   <v type="logical" >  T  T  T </v>
   <v type="logical" >  T  T  T </v>
   <v type="logical" >  T  T  T </v>
   <v type="logical" >  T  T  T </v>
   <v type="logical" >  T  T  T </v>
   <v type="logical" >  F  F  F </v>
   <v type="logical" >  F  F  F </v>
   <v type="logical" >  T  T  T </v>
   <v type="logical" >  T  T  T </v>
   <v type="logical" >  T  T  T </v>
   <v type="logical" >  F  F  F </v>
   <v type="logical" >  T  T  T </v>
   <v type="logical" >  T  T  T </v>
   <v type="logical" >  T  T  T </v>
   <v type="logical" >  T  T  T </v>
   <v type="logical" >  T  T  T </v>
   <v type="logical" >  T  T  T </v>
   <v type="logical" >  F  F  F </v>
   <v type="logical" >  T  T  T </v>
   <v type="logical" >  F  F  F </v>
   <v type="logical" >  T  T  T </v>
   <v type="logical" >  F  F  F </v>
   <v type="logical" >  T  T  T </v>
   <v type="logical" >  F  F  F </v>
   <v type="logical" >  F  F  F </v>
   <v type="logical" >  T  T  T </v>
   <v type="logical" >  T  T  T </v>
   <v type="logical" >  F  F  F </v>
   <v type="logical" >  T  T  T </v>
  </varray>
  <nose>
   <v>      -3.00000000       0.00000000       0.00010000       0.00010000 </v>
  </nose>
 </structure>
</modeling>
