  48  48   0   0
  0.5349325E+02  0.1100258E-08  0.1100258E-08  0.2449179E-08  0.3500000E-15
  1.000000000000000E-004
  CAR 
 unknown system                          
      6.40427440     -9.75785011  301     -1.09421357      1.00000000
     -9.758  0.0000E+00  0.0000E+00
     -9.704  0.0000E+00  0.0000E+00
     -9.650  0.0000E+00  0.0000E+00
     -9.596  0.0000E+00  0.0000E+00
     -9.542  0.0000E+00  0.0000E+00
     -9.488  0.0000E+00  0.0000E+00
     -9.435  0.0000E+00  0.0000E+00
     -9.381  0.0000E+00  0.0000E+00
     -9.327  0.8243E-17  0.4441E-18
     -9.273  0.3055E-14  0.1651E-15
     -9.219  0.6847E-12  0.3705E-13
     -9.165  0.8711E-10  0.4730E-11
     -9.111  0.6304E-08  0.3444E-09
     -9.057  0.2600E-06  0.1435E-07
     -9.004  0.6126E-05  0.3444E-06
     -8.950  0.8265E-04  0.4797E-05
     -8.896  0.6400E-03  0.3927E-04
     -8.842  0.2851E-02  0.1929E-03
     -8.788  0.7327E-02  0.5876E-03
     -8.734  0.1095E-01  0.1178E-02
     -8.680  0.1004E-01  0.1718E-02
     -8.627  0.7667E-02  0.2131E-02
     -8.573  0.8671E-02  0.2599E-02
     -8.519  0.1068E-01  0.3174E-02
     -8.465  0.8962E-02  0.3657E-02
     -8.411  0.4637E-02  0.3907E-02
     -8.357  0.1588E-02  0.3992E-02
     -8.303  0.9993E-03  0.4046E-02
     -8.249  0.2210E-02  0.4165E-02
     -8.196  0.4111E-02  0.4387E-02
     -8.142  0.5868E-02  0.4703E-02
     -8.088  0.8136E-02  0.5141E-02
     -8.034  0.1136E-01  0.5753E-02
     -7.980  0.1524E-01  0.6574E-02
     -7.926  0.1890E-01  0.7593E-02
     -7.872  0.1924E-01  0.8629E-02
     -7.818  0.1493E-01  0.9433E-02
     -7.765  0.9909E-02  0.9967E-02
     -7.711  0.9290E-02  0.1047E-01
     -7.657  0.1271E-01  0.1115E-01
     -7.603  0.1537E-01  0.1198E-01
     -7.549  0.1603E-01  0.1284E-01
     -7.495  0.1764E-01  0.1379E-01
     -7.441  0.2178E-01  0.1497E-01
     -7.387  0.2543E-01  0.1634E-01
     -7.334  0.2522E-01  0.1770E-01
     -7.280  0.2400E-01  0.1899E-01
     -7.226  0.2533E-01  0.2035E-01
     -7.172  0.2833E-01  0.2188E-01
     -7.118  0.3223E-01  0.2362E-01
     -7.064  0.3658E-01  0.2559E-01
     -7.010  0.4166E-01  0.2783E-01
     -6.956  0.5144E-01  0.3060E-01
     -6.903  0.6583E-01  0.3415E-01
     -6.849  0.7601E-01  0.3824E-01
     -6.795  0.7698E-01  0.4239E-01
     -6.741  0.7421E-01  0.4639E-01
     -6.687  0.7274E-01  0.5031E-01
     -6.633  0.7448E-01  0.5432E-01
     -6.579  0.8095E-01  0.5868E-01
     -6.525  0.8974E-01  0.6352E-01
     -6.472  0.9786E-01  0.6879E-01
     -6.418  0.1069E+00  0.7455E-01
     -6.364  0.1197E+00  0.8099E-01
     -6.310  0.1365E+00  0.8835E-01
     -6.256  0.1532E+00  0.9660E-01
     -6.202  0.1627E+00  0.1054E+00
     -6.148  0.1648E+00  0.1142E+00
     -6.094  0.1640E+00  0.1231E+00
     -6.041  0.1620E+00  0.1318E+00
     -5.987  0.1597E+00  0.1404E+00
     -5.933  0.1580E+00  0.1489E+00
     -5.879  0.1586E+00  0.1575E+00
     -5.825  0.1611E+00  0.1661E+00
     -5.771  0.1618E+00  0.1749E+00
     -5.717  0.1586E+00  0.1834E+00
     -5.663  0.1524E+00  0.1916E+00
     -5.610  0.1450E+00  0.1994E+00
     -5.556  0.1379E+00  0.2069E+00
     -5.502  0.1312E+00  0.2139E+00
     -5.448  0.1275E+00  0.2208E+00
     -5.394  0.1306E+00  0.2278E+00
     -5.340  0.1368E+00  0.2352E+00
     -5.286  0.1402E+00  0.2428E+00
     -5.232  0.1410E+00  0.2503E+00
     -5.179  0.1433E+00  0.2581E+00
     -5.125  0.1484E+00  0.2661E+00
     -5.071  0.1540E+00  0.2744E+00
     -5.017  0.1609E+00  0.2830E+00
     -4.963  0.1701E+00  0.2922E+00
     -4.909  0.1772E+00  0.3017E+00
     -4.855  0.1772E+00  0.3113E+00
     -4.801  0.1724E+00  0.3206E+00
     -4.748  0.1691E+00  0.3297E+00
     -4.694  0.1694E+00  0.3388E+00
     -4.640  0.1708E+00  0.3480E+00
     -4.586  0.1734E+00  0.3574E+00
     -4.532  0.1778E+00  0.3669E+00
     -4.478  0.1801E+00  0.3766E+00
     -4.424  0.1770E+00  0.3862E+00
     -4.370  0.1711E+00  0.3954E+00
     -4.317  0.1690E+00  0.4045E+00
     -4.263  0.1735E+00  0.4138E+00
     -4.209  0.1809E+00  0.4236E+00
     -4.155  0.1882E+00  0.4337E+00
     -4.101  0.1932E+00  0.4441E+00
     -4.047  0.1936E+00  0.4546E+00
     -3.993  0.1911E+00  0.4649E+00
     -3.939  0.1882E+00  0.4750E+00
     -3.886  0.1860E+00  0.4850E+00
     -3.832  0.1851E+00  0.4950E+00
     -3.778  0.1858E+00  0.5050E+00
     -3.724  0.1853E+00  0.5150E+00
     -3.670  0.1820E+00  0.5248E+00
     -3.616  0.1799E+00  0.5345E+00
     -3.562  0.1819E+00  0.5443E+00
     -3.508  0.1855E+00  0.5543E+00
     -3.455  0.1894E+00  0.5645E+00
     -3.401  0.1944E+00  0.5749E+00
     -3.347  0.2007E+00  0.5858E+00
     -3.293  0.2059E+00  0.5968E+00
     -3.239  0.2072E+00  0.6080E+00
     -3.185  0.2036E+00  0.6190E+00
     -3.131  0.1956E+00  0.6295E+00
     -3.078  0.1864E+00  0.6396E+00
     -3.024  0.1804E+00  0.6493E+00
     -2.970  0.1795E+00  0.6589E+00
     -2.916  0.1815E+00  0.6687E+00
     -2.862  0.1842E+00  0.6786E+00
     -2.808  0.1850E+00  0.6886E+00
     -2.754  0.1835E+00  0.6985E+00
     -2.700  0.1850E+00  0.7085E+00
     -2.647  0.1929E+00  0.7189E+00
     -2.593  0.2010E+00  0.7297E+00
     -2.539  0.2015E+00  0.7405E+00
     -2.485  0.1958E+00  0.7511E+00
     -2.431  0.1896E+00  0.7613E+00
     -2.377  0.1850E+00  0.7713E+00
     -2.323  0.1818E+00  0.7811E+00
     -2.269  0.1791E+00  0.7907E+00
     -2.216  0.1774E+00  0.8003E+00
     -2.162  0.1787E+00  0.8099E+00
     -2.108  0.1827E+00  0.8197E+00
     -2.054  0.1870E+00  0.8298E+00
     -2.000  0.1922E+00  0.8402E+00
     -1.946  0.2007E+00  0.8510E+00
     -1.892  0.2084E+00  0.8622E+00
     -1.838  0.2086E+00  0.8734E+00
     -1.785  0.2012E+00  0.8843E+00
     -1.731  0.1929E+00  0.8947E+00
     -1.677  0.1890E+00  0.9049E+00
     -1.623  0.1911E+00  0.9152E+00
     -1.569  0.1961E+00  0.9257E+00
     -1.515  0.1994E+00  0.9365E+00
     -1.461  0.1997E+00  0.9472E+00
     -1.407  0.1988E+00  0.9579E+00
     -1.354  0.1968E+00  0.9685E+00
     -1.300  0.1902E+00  0.9788E+00
     -1.246  0.1763E+00  0.9883E+00
     -1.192  0.1550E+00  0.9966E+00
     -1.138  0.1275E+00  0.1003E+01
     -1.084  0.1007E+00  0.1009E+01
     -1.030  0.7896E-01  0.1013E+01
     -0.976  0.5718E-01  0.1016E+01
     -0.923  0.3529E-01  0.1018E+01
     -0.869  0.2060E-01  0.1019E+01
     -0.815  0.1541E-01  0.1020E+01
     -0.761  0.1578E-01  0.1021E+01
     -0.707  0.1708E-01  0.1022E+01
     -0.653  0.1940E-01  0.1023E+01
     -0.599  0.2520E-01  0.1024E+01
     -0.545  0.3293E-01  0.1026E+01
     -0.492  0.3945E-01  0.1028E+01
     -0.438  0.4337E-01  0.1031E+01
     -0.384  0.4336E-01  0.1033E+01
     -0.330  0.4101E-01  0.1035E+01
     -0.276  0.4167E-01  0.1037E+01
     -0.222  0.4528E-01  0.1040E+01
     -0.168  0.4434E-01  0.1042E+01
     -0.114  0.3608E-01  0.1044E+01
     -0.061  0.2644E-01  0.1045E+01
     -0.007  0.2117E-01  0.1047E+01
      0.047  0.2216E-01  0.1048E+01
      0.101  0.2766E-01  0.1049E+01
      0.155  0.3074E-01  0.1051E+01
      0.209  0.2700E-01  0.1052E+01
      0.263  0.2246E-01  0.1054E+01
      0.317  0.2467E-01  0.1055E+01
      0.370  0.3286E-01  0.1057E+01
      0.424  0.4093E-01  0.1059E+01
      0.478  0.4583E-01  0.1061E+01
      0.532  0.4770E-01  0.1064E+01
      0.586  0.4640E-01  0.1066E+01
      0.640  0.4434E-01  0.1069E+01
      0.694  0.4467E-01  0.1071E+01
      0.748  0.4531E-01  0.1074E+01
      0.801  0.4050E-01  0.1076E+01
      0.855  0.3043E-01  0.1078E+01
      0.909  0.2380E-01  0.1079E+01
      0.963  0.2419E-01  0.1080E+01
      1.017  0.2543E-01  0.1081E+01
      1.071  0.2416E-01  0.1083E+01
      1.125  0.2191E-01  0.1084E+01
      1.179  0.1863E-01  0.1085E+01
      1.232  0.1435E-01  0.1086E+01
      1.286  0.1173E-01  0.1086E+01
      1.340  0.1186E-01  0.1087E+01
      1.394  0.1355E-01  0.1088E+01
      1.448  0.1857E-01  0.1089E+01
      1.502  0.2798E-01  0.1090E+01
      1.556  0.3572E-01  0.1092E+01
      1.610  0.3542E-01  0.1094E+01
      1.663  0.2923E-01  0.1096E+01
      1.717  0.2475E-01  0.1097E+01
      1.771  0.2574E-01  0.1098E+01
      1.825  0.3018E-01  0.1100E+01
      1.879  0.3329E-01  0.1102E+01
      1.933  0.3119E-01  0.1103E+01
      1.987  0.2491E-01  0.1105E+01
      2.041  0.1904E-01  0.1106E+01
      2.094  0.1960E-01  0.1107E+01
      2.148  0.2747E-01  0.1108E+01
      2.202  0.3530E-01  0.1110E+01
      2.256  0.3972E-01  0.1112E+01
      2.310  0.4433E-01  0.1115E+01
      2.364  0.4837E-01  0.1117E+01
      2.418  0.4784E-01  0.1120E+01
      2.471  0.4484E-01  0.1122E+01
      2.525  0.4341E-01  0.1125E+01
      2.579  0.4461E-01  0.1127E+01
      2.633  0.4727E-01  0.1130E+01
      2.687  0.4697E-01  0.1132E+01
      2.741  0.4033E-01  0.1134E+01
      2.795  0.2999E-01  0.1136E+01
      2.849  0.2075E-01  0.1137E+01
      2.902  0.1497E-01  0.1138E+01
      2.956  0.1298E-01  0.1139E+01
      3.010  0.1227E-01  0.1139E+01
      3.064  0.1041E-01  0.1140E+01
      3.118  0.9987E-02  0.1140E+01
      3.172  0.1301E-01  0.1141E+01
      3.226  0.1730E-01  0.1142E+01
      3.280  0.2173E-01  0.1143E+01
      3.333  0.2543E-01  0.1145E+01
      3.387  0.2624E-01  0.1146E+01
      3.441  0.2537E-01  0.1147E+01
      3.495  0.2679E-01  0.1149E+01
      3.549  0.3140E-01  0.1150E+01
      3.603  0.3525E-01  0.1152E+01
      3.657  0.3517E-01  0.1154E+01
      3.711  0.3355E-01  0.1156E+01
      3.764  0.3298E-01  0.1158E+01
      3.818  0.3106E-01  0.1160E+01
      3.872  0.2613E-01  0.1161E+01
      3.926  0.2193E-01  0.1162E+01
      3.980  0.2297E-01  0.1163E+01
      4.034  0.2762E-01  0.1165E+01
      4.088  0.2936E-01  0.1166E+01
      4.142  0.2742E-01  0.1168E+01
      4.195  0.2642E-01  0.1169E+01
      4.249  0.2445E-01  0.1171E+01
      4.303  0.1830E-01  0.1172E+01
      4.357  0.1469E-01  0.1172E+01
      4.411  0.1967E-01  0.1173E+01
      4.465  0.2777E-01  0.1175E+01
      4.519  0.3205E-01  0.1177E+01
      4.573  0.3575E-01  0.1179E+01
      4.626  0.4460E-01  0.1181E+01
      4.680  0.5437E-01  0.1184E+01
      4.734  0.5764E-01  0.1187E+01
      4.788  0.5533E-01  0.1190E+01
      4.842  0.5283E-01  0.1193E+01
      4.896  0.5339E-01  0.1196E+01
      4.950  0.5849E-01  0.1199E+01
      5.004  0.6715E-01  0.1203E+01
      5.057  0.7311E-01  0.1206E+01
      5.111  0.6970E-01  0.1210E+01
      5.165  0.6101E-01  0.1214E+01
      5.219  0.5579E-01  0.1217E+01
      5.273  0.5109E-01  0.1219E+01
      5.327  0.4014E-01  0.1221E+01
      5.381  0.2562E-01  0.1223E+01
      5.435  0.1357E-01  0.1224E+01
      5.488  0.5796E-02  0.1224E+01
      5.542  0.1800E-02  0.1224E+01
      5.596  0.3661E-03  0.1224E+01
      5.650  0.4578E-04  0.1224E+01
      5.704  0.3403E-05  0.1224E+01
      5.758  0.1476E-06  0.1224E+01
      5.812  0.3697E-08  0.1224E+01
      5.866  0.5304E-10  0.1224E+01
      5.919  0.4338E-12  0.1224E+01
      5.973  0.2014E-14  0.1224E+01
      6.027  0.5495E-17  0.1224E+01
      6.081  0.0000E+00  0.1224E+01
      6.135  0.0000E+00  0.1224E+01
      6.189  0.0000E+00  0.1224E+01
      6.243  0.0000E+00  0.1224E+01
      6.297  0.0000E+00  0.1224E+01
      6.350  0.0000E+00  0.1224E+01
      6.404  0.0000E+00  0.1224E+01
