       N       E                     dE             d eps       ncg     rms          rms(c)
DAV:   1     0.320120982605E+04    0.32012E+04   -0.18981E+05  3672   0.112E+03
DAV:   2     0.153010263948E+02   -0.31859E+04   -0.29315E+04  4380   0.263E+02
DAV:   3    -0.200080470574E+03   -0.21538E+03   -0.20025E+03  4140   0.651E+01
DAV:   4    -0.205821505647E+03   -0.57410E+01   -0.56722E+01  4236   0.107E+01
DAV:   5    -0.206003387810E+03   -0.18188E+00   -0.18133E+00  4464   0.195E+00    0.625E+01
RMM:   6    -0.197852894391E+03    0.81505E+01   -0.91254E+01  3679   0.151E+01    0.528E+01
RMM:   7    -0.198151911591E+03   -0.29902E+00   -0.48790E+01  3685   0.120E+01    0.341E+01
RMM:   8    -0.210301192580E+03   -0.12149E+02   -0.54795E+01  3678   0.121E+01    0.346E+01
RMM:   9    -0.206382188350E+03    0.39190E+01   -0.31306E+01  3678   0.836E+00    0.366E+01
RMM:  10    -0.193431155362E+03    0.12951E+02   -0.19377E+01  3683   0.695E+00    0.159E+01
RMM:  11    -0.189975721968E+03    0.34554E+01   -0.55340E+00  3683   0.376E+00    0.912E+00
RMM:  12    -0.188948991112E+03    0.10267E+01   -0.20797E+00  3683   0.229E+00    0.650E+00
RMM:  13    -0.188709099463E+03    0.23989E+00   -0.73485E-01  3681   0.134E+00    0.550E+00
RMM:  14    -0.188459935853E+03    0.24916E+00   -0.37520E-01  3679   0.928E-01    0.335E+00
RMM:  15    -0.188395445085E+03    0.64491E-01   -0.11069E-01  3679   0.489E-01    0.266E+00
RMM:  16    -0.188403764781E+03   -0.83197E-02   -0.14393E-01  3681   0.568E-01    0.233E+00
RMM:  17    -0.188387362474E+03    0.16402E-01   -0.10752E-01  3682   0.509E-01    0.194E+00
RMM:  18    -0.188360340266E+03    0.27022E-01   -0.57654E-02  3681   0.387E-01    0.111E+00
RMM:  19    -0.188350660192E+03    0.96801E-02   -0.74900E-03  3679   0.136E-01    0.593E-01
RMM:  20    -0.188348761855E+03    0.18983E-02   -0.27857E-03  3679   0.816E-02    0.449E-01
RMM:  21    -0.188347524202E+03    0.12377E-02   -0.15736E-03  3682   0.601E-02    0.338E-01
RMM:  22    -0.188346653453E+03    0.87075E-03   -0.79109E-04  3682   0.411E-02    0.217E-01
RMM:  23    -0.188346571131E+03    0.82322E-04   -0.50690E-04  3682   0.347E-02    0.160E-01
RMM:  24    -0.188346525288E+03    0.45842E-04   -0.40356E-04  3680   0.289E-02    0.716E-02
RMM:  25    -0.188346806242E+03   -0.28095E-03   -0.11553E-04  3679   0.153E-02    0.495E-02
RMM:  26    -0.188347237412E+03   -0.43117E-03   -0.63072E-05  3676   0.112E-02    0.378E-02
RMM:  27    -0.188347952948E+03   -0.71554E-03   -0.72367E-05  3678   0.116E-02    0.371E-02
RMM:  28    -0.188348406458E+03   -0.45351E-03   -0.36446E-05  3671   0.826E-03    0.296E-02
RMM:  29    -0.188348975405E+03   -0.56895E-03   -0.24286E-05  3604   0.703E-03    0.292E-02
RMM:  30    -0.188349527939E+03   -0.55253E-03   -0.31356E-05  3597   0.764E-03    0.240E-02
RMM:  31    -0.188349889749E+03   -0.36181E-03   -0.30965E-05  3427   0.714E-03    0.759E-03
RMM:  32    -0.188349978380E+03   -0.88631E-04   -0.56456E-06  2700   0.284E-03    0.507E-03
RMM:  33    -0.188350099486E+03   -0.12111E-03   -0.33371E-06  2540   0.247E-03    0.592E-03
RMM:  34    -0.188350148131E+03   -0.48645E-04   -0.11473E-06  2188   0.152E-03    0.406E-03
RMM:  35    -0.188350176777E+03   -0.28646E-04   -0.60480E-07  2145   0.108E-03    0.124E-03
RMM:  36    -0.188350197995E+03   -0.21218E-04   -0.32705E-07  2007   0.795E-04    0.138E-03
RMM:  37    -0.188350215105E+03   -0.17110E-04   -0.29384E-07  2117   0.868E-04    0.907E-04
RMM:  38    -0.188350222913E+03   -0.78081E-05   -0.22860E-07  1706   0.638E-04    0.587E-04
RMM:  39    -0.188350223492E+03   -0.57926E-06   -0.43511E-08   859   0.363E-04
   1 F= -.18835022E+03 E0= -.18822199E+03  d E =-.188350E+03
       N       E                     dE             d eps       ncg     rms          rms(c)
DAV:   1    -0.189454990619E+03   -0.11048E+01   -0.38073E+02  3672   0.300E+01    0.377E+00
RMM:   2    -0.189845182040E+03   -0.39019E+00   -0.40298E+00  3680   0.434E+00    0.224E+00
RMM:   3    -0.189956427925E+03   -0.11125E+00   -0.34807E-01  3705   0.103E+00    0.397E+00
RMM:   4    -0.189856123360E+03    0.10030E+00   -0.14921E-01  3687   0.638E-01    0.206E+00
RMM:   5    -0.189919348431E+03   -0.63225E-01   -0.94236E-02  3687   0.457E-01    0.317E+00
RMM:   6    -0.189825607187E+03    0.93741E-01   -0.59580E-02  3686   0.385E-01    0.833E-01
RMM:   7    -0.189818228183E+03    0.73790E-02   -0.16582E-02  3682   0.209E-01    0.345E-01
RMM:   8    -0.189817031118E+03    0.11971E-02   -0.43739E-03  3682   0.104E-01    0.270E-01
RMM:   9    -0.189816490885E+03    0.54023E-03   -0.15596E-03  3688   0.622E-02    0.174E-01
RMM:  10    -0.189816267578E+03    0.22331E-03   -0.58490E-04  3687   0.381E-02    0.100E-01
RMM:  11    -0.189816196915E+03    0.70663E-04   -0.18213E-04  3686   0.215E-02    0.599E-02
RMM:  12    -0.189816185378E+03    0.11536E-04   -0.49712E-05  3681   0.115E-02    0.387E-02
RMM:  13    -0.189816177382E+03    0.79959E-05   -0.26589E-05  3674   0.840E-03    0.238E-02
RMM:  14    -0.189816174246E+03    0.31366E-05   -0.10297E-05  3518   0.532E-03    0.109E-02
RMM:  15    -0.189816174044E+03    0.20172E-06   -0.28993E-06  2513   0.280E-03
   2 F= -.18981617E+03 E0= -.18969022E+03  d E =-.146595E+01
       N       E                     dE             d eps       ncg     rms          rms(c)
DAV:   1    -0.188371953942E+03    0.14442E+01   -0.35725E+03  3672   0.942E+01    0.902E+00
RMM:   2    -0.191810098816E+03   -0.34381E+01   -0.35559E+01  3681   0.130E+01    0.533E+00
RMM:   3    -0.192381648061E+03   -0.57155E+00   -0.22815E+00  3709   0.262E+00    0.920E+00
RMM:   4    -0.191716721106E+03    0.66493E+00   -0.73359E-01  3686   0.143E+00    0.455E+00
RMM:   5    -0.192190796177E+03   -0.47408E+00   -0.51899E-01  3687   0.109E+00    0.777E+00
RMM:   6    -0.191684245842E+03    0.50655E+00   -0.54986E-01  3684   0.115E+00    0.326E+00
RMM:   7    -0.191586311764E+03    0.97934E-01   -0.20830E-01  3683   0.721E-01    0.173E+00
RMM:   8    -0.191558722834E+03    0.27589E-01   -0.61426E-02  3684   0.390E-01    0.118E+00
RMM:   9    -0.191543418988E+03    0.15304E-01   -0.23693E-02  3685   0.245E-01    0.407E-01
RMM:  10    -0.191542193607E+03    0.12254E-02   -0.55910E-03  3684   0.115E-01    0.264E-01
RMM:  11    -0.191541759407E+03    0.43420E-03   -0.20489E-03  3687   0.717E-02    0.169E-01
RMM:  12    -0.191541655906E+03    0.10350E-03   -0.64027E-04  3685   0.413E-02    0.119E-01
RMM:  13    -0.191541580612E+03    0.75294E-04   -0.29720E-04  3679   0.280E-02    0.701E-02
RMM:  14    -0.191541536577E+03    0.44036E-04   -0.79088E-05  3682   0.144E-02    0.264E-02
RMM:  15    -0.191541541990E+03   -0.54136E-05   -0.20320E-05  3678   0.703E-03    0.196E-02
RMM:  16    -0.191541543723E+03   -0.17324E-05   -0.68683E-06  3097   0.418E-03    0.101E-02
RMM:  17    -0.191541549608E+03   -0.58849E-05   -0.16741E-06  2159   0.218E-03    0.811E-03
RMM:  18    -0.191541554662E+03   -0.50545E-05   -0.96052E-07  2092   0.181E-03    0.337E-03
RMM:  19    -0.191541558605E+03   -0.39428E-05   -0.36291E-07  2040   0.996E-04    0.224E-03
RMM:  20    -0.191541562165E+03   -0.35602E-05   -0.16508E-07  1586   0.668E-04    0.108E-03
RMM:  21    -0.191541566611E+03   -0.44452E-05   -0.11087E-07  1256   0.507E-04    0.103E-03
RMM:  22    -0.191541570634E+03   -0.40231E-05   -0.12714E-07  1402   0.511E-04    0.701E-04
RMM:  23    -0.191541577614E+03   -0.69802E-05   -0.39750E-07  1993   0.716E-04    0.849E-04
RMM:  24    -0.191541579278E+03   -0.16636E-05   -0.10614E-07   986   0.406E-04    0.557E-04
RMM:  25    -0.191541580975E+03   -0.16978E-05   -0.11878E-07  1170   0.457E-04    0.338E-04
RMM:  26    -0.191541581601E+03   -0.62524E-06   -0.61946E-08   961   0.407E-04
   3 F= -.19154158E+03 E0= -.19142207E+03  d E =-.319136E+01
       N       E                     dE             d eps       ncg     rms          rms(c)
DAV:   1    -0.191688897268E+03   -0.14732E+00   -0.27842E+02  3672   0.258E+01    0.234E+00
RMM:   2    -0.191986939255E+03   -0.29804E+00   -0.31767E+00  3686   0.379E+00    0.140E+00
RMM:   3    -0.192028755310E+03   -0.41816E-01   -0.20196E-01  3712   0.783E-01    0.243E+00
RMM:   4    -0.191989765023E+03    0.38990E-01   -0.53331E-02  3686   0.388E-01    0.138E+00
RMM:   5    -0.192004659506E+03   -0.14894E-01   -0.32354E-02  3686   0.269E-01    0.183E+00
RMM:   6    -0.191979043995E+03    0.25616E-01   -0.37663E-02  3684   0.306E-01    0.834E-01
RMM:   7    -0.191972564909E+03    0.64791E-02   -0.15334E-02  3683   0.197E-01    0.332E-01
RMM:   8    -0.191971520543E+03    0.10444E-02   -0.30962E-03  3685   0.901E-02    0.242E-01
RMM:   9    -0.191970864892E+03    0.65565E-03   -0.10752E-03  3685   0.520E-02    0.110E-01
RMM:  10    -0.191970765694E+03    0.99199E-04   -0.32702E-04  3683   0.279E-02    0.644E-02
RMM:  11    -0.191970721106E+03    0.44588E-04   -0.11253E-04  3685   0.164E-02    0.278E-02
RMM:  12    -0.191970722618E+03   -0.15120E-05   -0.40850E-05  3685   0.101E-02    0.235E-02
RMM:  13    -0.191970720527E+03    0.20913E-05   -0.13513E-05  3675   0.596E-03    0.123E-02
RMM:  14    -0.191970720521E+03    0.60681E-08   -0.28656E-06  2449   0.295E-03
   4 F= -.19197072E+03 E0= -.19185535E+03  d E =-.429139E+00
       N       E                     dE             d eps       ncg     rms          rms(c)
DAV:   1    -0.191960947257E+03    0.97733E-02   -0.45823E+01  3720   0.105E+01    0.865E-01
RMM:   2    -0.192010670693E+03   -0.49723E-01   -0.53030E-01  3686   0.154E+00    0.557E-01
RMM:   3    -0.192016652617E+03   -0.59819E-02   -0.35036E-02  3712   0.326E-01    0.941E-01
RMM:   4    -0.192009734885E+03    0.69177E-02   -0.81173E-03  3686   0.155E-01    0.436E-01
RMM:   5    -0.192014209237E+03   -0.44744E-02   -0.47517E-03  3687   0.103E-01    0.790E-01
RMM:   6    -0.192009587564E+03    0.46217E-02   -0.60480E-03  3684   0.120E-01    0.409E-01
RMM:   7    -0.192008158333E+03    0.14292E-02   -0.31273E-03  3684   0.891E-02    0.136E-01
RMM:   8    -0.192008050812E+03    0.10752E-03   -0.58393E-04  3683   0.389E-02    0.121E-01
RMM:   9    -0.192007872635E+03    0.17818E-03   -0.23356E-04  3685   0.244E-02    0.449E-02
RMM:  10    -0.192007854557E+03    0.18077E-04   -0.65672E-05  3683   0.124E-02    0.258E-02
RMM:  11    -0.192007847447E+03    0.71100E-05   -0.22687E-05  3680   0.724E-03    0.114E-02
RMM:  12    -0.192007848720E+03   -0.12723E-05   -0.85562E-06  3672   0.454E-03    0.903E-03
RMM:  13    -0.192007849589E+03   -0.86924E-06   -0.23806E-06  2259   0.262E-03
   5 F= -.19200785E+03 E0= -.19189409E+03  d E =-.466268E+00
       N       E                     dE             d eps       ncg     rms          rms(c)
DAV:   1    -0.192017885945E+03   -0.10037E-01   -0.43635E+01  3684   0.102E+01    0.799E-01
RMM:   2    -0.192063443637E+03   -0.45558E-01   -0.48450E-01  3686   0.149E+00    0.498E-01
RMM:   3    -0.192069020927E+03   -0.55773E-02   -0.28652E-02  3711   0.299E-01    0.875E-01
RMM:   4    -0.192064256776E+03    0.47642E-02   -0.65269E-03  3684   0.134E-01    0.569E-01
RMM:   5    -0.192063350766E+03    0.90601E-03   -0.39400E-03  3686   0.969E-02    0.502E-01
RMM:   6    -0.192062152534E+03    0.11982E-02   -0.56028E-03  3684   0.119E-01    0.330E-01
RMM:   7    -0.192061252177E+03    0.90036E-03   -0.25002E-03  3683   0.796E-02    0.137E-01
RMM:   8    -0.192061100594E+03    0.15158E-03   -0.49556E-04  3685   0.364E-02    0.103E-01
RMM:   9    -0.192060971893E+03    0.12870E-03   -0.21121E-04  3681   0.230E-02    0.484E-02
RMM:  10    -0.192060944847E+03    0.27045E-04   -0.70386E-05  3681   0.129E-02    0.238E-02
RMM:  11    -0.192060938882E+03    0.59652E-05   -0.20546E-05  3679   0.699E-03    0.116E-02
RMM:  12    -0.192060939020E+03   -0.13833E-06   -0.77619E-06  3672   0.430E-03
   6 F= -.19206094E+03 E0= -.19194803E+03  d E =-.530894E-01
       N       E                     dE             d eps       ncg     rms          rms(c)
DAV:   1    -0.192060584048E+03    0.35483E-03   -0.22075E+00  3744   0.229E+00    0.173E-01
RMM:   2    -0.192062884633E+03   -0.23006E-02   -0.24584E-02  3686   0.336E-01    0.113E-01
RMM:   3    -0.192063091327E+03   -0.20669E-03   -0.14783E-03  3710   0.681E-02    0.180E-01
RMM:   4    -0.192062882172E+03    0.20916E-03   -0.32249E-04  3684   0.305E-02    0.114E-01
RMM:   5    -0.192062917467E+03   -0.35295E-04   -0.18111E-04  3686   0.204E-02    0.131E-01
RMM:   6    -0.192062815229E+03    0.10224E-03   -0.28140E-04  3684   0.264E-02    0.773E-02
RMM:   7    -0.192062768618E+03    0.46611E-04   -0.14073E-04  3683   0.190E-02    0.310E-02
RMM:   8    -0.192062762016E+03    0.66021E-05   -0.24895E-05  3676   0.821E-03    0.235E-02
RMM:   9    -0.192062755609E+03    0.64073E-05   -0.11000E-05  3666   0.527E-03    0.117E-02
RMM:  10    -0.192062753739E+03    0.18701E-05   -0.39839E-06  2654   0.315E-03    0.498E-03
RMM:  11    -0.192062753587E+03    0.15162E-06   -0.12947E-06  1958   0.204E-03
   7 F= -.19206275E+03 E0= -.19195003E+03  d E =-.549040E-01
       N       E                     dE             d eps       ncg     rms          rms(c)
DAV:   1    -0.192067875702E+03   -0.51220E-02   -0.91162E+00  3684   0.459E+00    0.288E-01
RMM:   2    -0.192077186202E+03   -0.93105E-02   -0.97367E-02  3684   0.673E-01    0.235E-01
RMM:   3    -0.192077203526E+03   -0.17324E-04   -0.54179E-03  3734   0.135E-01    0.192E-01
RMM:   4    -0.192077087184E+03    0.11634E-03   -0.11633E-03  3674   0.576E-02    0.212E-01
RMM:   5    -0.192077947595E+03   -0.86041E-03   -0.97847E-04  3687   0.469E-02    0.366E-01
RMM:   6    -0.192076662385E+03    0.12852E-02   -0.11553E-03  3684   0.528E-02    0.109E-01
RMM:   7    -0.192076663414E+03   -0.10287E-05   -0.39830E-04  3686   0.321E-02    0.724E-02
RMM:   8    -0.192076617454E+03    0.45960E-04   -0.88405E-05  3683   0.151E-02    0.442E-02
RMM:   9    -0.192076595635E+03    0.21819E-04   -0.44683E-05  3683   0.105E-02    0.320E-02
RMM:  10    -0.192076580911E+03    0.14724E-04   -0.29007E-05  3678   0.819E-03    0.123E-02
RMM:  11    -0.192076579714E+03    0.11969E-05   -0.90594E-06  3666   0.455E-03    0.905E-03
RMM:  12    -0.192076579076E+03    0.63794E-06   -0.30614E-06  2164   0.285E-03
   8 F= -.19207658E+03 E0= -.19196376E+03  d E =-.138255E-01
       N       E                     dE             d eps       ncg     rms          rms(c)
DAV:   1    -0.192072123376E+03    0.44563E-02   -0.10834E+01  3672   0.501E+00    0.309E-01
RMM:   2    -0.192083189971E+03   -0.11067E-01   -0.11563E-01  3684   0.733E-01    0.254E-01
RMM:   3    -0.192083211440E+03   -0.21469E-04   -0.64259E-03  3734   0.146E-01    0.210E-01
RMM:   4    -0.192083051000E+03    0.16044E-03   -0.13055E-03  3674   0.613E-02    0.227E-01
RMM:   5    -0.192084042027E+03   -0.99103E-03   -0.11192E-03  3687   0.501E-02    0.394E-01
RMM:   6    -0.192082560308E+03    0.14817E-02   -0.13858E-03  3684   0.579E-02    0.120E-01
RMM:   7    -0.192082568638E+03   -0.83296E-05   -0.48964E-04  3685   0.355E-02    0.817E-02
RMM:   8    -0.192082500361E+03    0.68276E-04   -0.10366E-04  3686   0.165E-02    0.425E-02
RMM:   9    -0.192082475776E+03    0.24586E-04   -0.58223E-05  3680   0.119E-02    0.305E-02
RMM:  10    -0.192082460646E+03    0.15129E-04   -0.30888E-05  3682   0.844E-03    0.119E-02
RMM:  11    -0.192082459796E+03    0.84973E-06   -0.10201E-05  3672   0.478E-03    0.852E-03
RMM:  12    -0.192082459242E+03    0.55470E-06   -0.33383E-06  2260   0.298E-03
   9 F= -.19208246E+03 E0= -.19196952E+03  d E =-.197057E-01
       N       E                     dE             d eps       ncg     rms          rms(c)
DAV:   1    -0.192082511517E+03   -0.51721E-04   -0.12153E+01  3672   0.532E+00    0.289E-01
RMM:   2    -0.192095749143E+03   -0.13238E-01   -0.13192E-01  3684   0.785E-01    0.366E-01
RMM:   3    -0.192096149499E+03   -0.40036E-03   -0.87135E-03  3793   0.166E-01    0.370E-01
RMM:   4    -0.192095349415E+03    0.80008E-03   -0.11664E-03  3674   0.562E-02    0.282E-01
RMM:   5    -0.192094877163E+03    0.47225E-03   -0.69222E-04  3690   0.421E-02    0.229E-01
RMM:   6    -0.192094710365E+03    0.16680E-03   -0.14447E-03  3683   0.588E-02    0.221E-01
RMM:   7    -0.192094389813E+03    0.32055E-03   -0.18194E-03  3685   0.666E-02    0.953E-02
RMM:   8    -0.192094363838E+03    0.25975E-04   -0.29386E-04  3685   0.275E-02    0.594E-02
RMM:   9    -0.192094327546E+03    0.36292E-04   -0.52600E-05  3682   0.117E-02    0.493E-02
RMM:  10    -0.192094289387E+03    0.38159E-04   -0.61747E-05  3684   0.120E-02    0.279E-02
RMM:  11    -0.192094279835E+03    0.95521E-05   -0.27100E-05  3677   0.783E-03    0.154E-02
RMM:  12    -0.192094277049E+03    0.27863E-05   -0.24497E-05  3684   0.728E-03    0.703E-03
RMM:  13    -0.192094276940E+03    0.10901E-06   -0.27477E-06  2168   0.281E-03
  10 F= -.19209428E+03 E0= -.19198090E+03  d E =-.118177E-01
       N       E                     dE             d eps       ncg     rms          rms(c)
DAV:   1    -0.192084679745E+03    0.95973E-02   -0.15071E+01  3672   0.593E+00    0.318E-01
RMM:   2    -0.192101025521E+03   -0.16346E-01   -0.16339E-01  3684   0.874E-01    0.395E-01
RMM:   3    -0.192101578315E+03   -0.55279E-03   -0.10675E-02  3793   0.184E-01    0.409E-01
RMM:   4    -0.192100581323E+03    0.99699E-03   -0.14115E-03  3674   0.619E-02    0.308E-01
RMM:   5    -0.192100017581E+03    0.56374E-03   -0.83385E-04  3690   0.462E-02    0.252E-01
RMM:   6    -0.192099805626E+03    0.21195E-03   -0.17369E-03  3683   0.645E-02    0.246E-01
RMM:   7    -0.192099409287E+03    0.39634E-03   -0.22590E-03  3683   0.741E-02    0.108E-01
RMM:   8    -0.192099379425E+03    0.29862E-04   -0.37827E-04  3683   0.312E-02    0.677E-02
RMM:   9    -0.192099334001E+03    0.45424E-04   -0.65189E-05  3684   0.130E-02    0.560E-02
RMM:  10    -0.192099284681E+03    0.49320E-04   -0.77459E-05  3684   0.134E-02    0.323E-02
RMM:  11    -0.192099271638E+03    0.13043E-04   -0.35297E-05  3679   0.894E-03    0.175E-02
RMM:  12    -0.192099268089E+03    0.35498E-05   -0.32699E-05  3685   0.842E-03    0.810E-03
RMM:  13    -0.192099267958E+03    0.13057E-06   -0.40165E-06  2751   0.325E-03
  11 F= -.19209927E+03 E0= -.19198536E+03  d E =-.168087E-01
       N       E                     dE             d eps       ncg     rms          rms(c)
DAV:   1    -0.192092535456E+03    0.67326E-02   -0.16152E+01  3672   0.619E+00    0.293E-01
RMM:   2    -0.192110904679E+03   -0.18369E-01   -0.17898E-01  3681   0.913E-01    0.461E-01
RMM:   3    -0.192110782551E+03    0.12213E-03   -0.12140E-02  3767   0.194E-01    0.407E-01
RMM:   4    -0.192109685519E+03    0.10970E-02   -0.13816E-03  3676   0.621E-02    0.289E-01
RMM:   5    -0.192109119651E+03    0.56587E-03   -0.43906E-04  3688   0.349E-02    0.215E-01
RMM:   6    -0.192108890720E+03    0.22893E-03   -0.99143E-04  3683   0.489E-02    0.220E-01
RMM:   7    -0.192108458916E+03    0.43180E-03   -0.27823E-03  3679   0.810E-02    0.100E-01
RMM:   8    -0.192108493964E+03   -0.35047E-04   -0.54135E-04  3678   0.363E-02    0.723E-02
RMM:   9    -0.192108461952E+03    0.32011E-04   -0.60181E-05  3688   0.128E-02    0.595E-02
RMM:  10    -0.192108414107E+03    0.47846E-04   -0.60683E-05  3684   0.121E-02    0.381E-02
RMM:  11    -0.192108396169E+03    0.17938E-04   -0.40602E-05  3672   0.957E-03    0.207E-02
RMM:  12    -0.192108391597E+03    0.45720E-05   -0.46900E-05  3685   0.101E-02    0.974E-03
RMM:  13    -0.192108391575E+03    0.21188E-07   -0.62662E-06  3269   0.391E-03
  12 F= -.19210839E+03 E0= -.19199386E+03  d E =-.912362E-02
       N       E                     dE             d eps       ncg     rms          rms(c)
DAV:   1    -0.192097256028E+03    0.11136E-01   -0.13956E+01  3672   0.575E+00    0.271E-01
RMM:   2    -0.192113113171E+03   -0.15857E-01   -0.15461E-01  3681   0.849E-01    0.426E-01
RMM:   3    -0.192113038504E+03    0.74668E-04   -0.10489E-02  3768   0.180E-01    0.382E-01
RMM:   4    -0.192112050282E+03    0.98822E-03   -0.11892E-03  3676   0.576E-02    0.266E-01
RMM:   5    -0.192111576337E+03    0.47395E-03   -0.36985E-04  3687   0.321E-02    0.199E-01
RMM:   6    -0.192111384826E+03    0.19151E-03   -0.84327E-04  3683   0.451E-02    0.205E-01
RMM:   7    -0.192111011942E+03    0.37288E-03   -0.24071E-03  3680   0.753E-02    0.930E-02
RMM:   8    -0.192111045566E+03   -0.33624E-04   -0.47348E-04  3678   0.339E-02    0.674E-02
RMM:   9    -0.192111018043E+03    0.27523E-04   -0.52144E-05  3688   0.119E-02    0.554E-02
RMM:  10    -0.192110977268E+03    0.40774E-04   -0.51877E-05  3682   0.112E-02    0.356E-02
RMM:  11    -0.192110961796E+03    0.15472E-04   -0.34829E-05  3674   0.887E-03    0.194E-02
RMM:  12    -0.192110957664E+03    0.41325E-05   -0.41218E-05  3683   0.950E-03    0.911E-03
RMM:  13    -0.192110957657E+03    0.63956E-08   -0.54803E-06  3137   0.368E-03
  13 F= -.19211096E+03 E0= -.19199583E+03  d E =-.116897E-01
       N       E                     dE             d eps       ncg     rms          rms(c)
DAV:   1    -0.192103812234E+03    0.71454E-02   -0.13401E+01  3672   0.565E+00    0.270E-01
RMM:   2    -0.192119312744E+03   -0.15501E-01   -0.15095E-01  3684   0.834E-01    0.421E-01
RMM:   3    -0.192118962903E+03    0.34984E-03   -0.10262E-02  3744   0.177E-01    0.347E-01
RMM:   4    -0.192118302917E+03    0.65999E-03   -0.11901E-03  3674   0.575E-02    0.277E-01
RMM:   5    -0.192117718720E+03    0.58420E-03   -0.31808E-04  3691   0.296E-02    0.183E-01
RMM:   6    -0.192117558799E+03    0.15992E-03   -0.52151E-04  3684   0.356E-02    0.183E-01
RMM:   7    -0.192117215014E+03    0.34378E-03   -0.24742E-03  3679   0.760E-02    0.835E-02
RMM:   8    -0.192117261995E+03   -0.46981E-04   -0.43902E-04  3678   0.324E-02    0.668E-02
RMM:   9    -0.192117232633E+03    0.29362E-04   -0.49002E-05  3689   0.115E-02    0.504E-02
RMM:  10    -0.192117204125E+03    0.28508E-04   -0.33927E-05  3685   0.908E-03    0.348E-02
RMM:  11    -0.192117189489E+03    0.14636E-04   -0.31314E-05  3676   0.845E-03    0.193E-02
RMM:  12    -0.192117186228E+03    0.32606E-05   -0.38524E-05  3685   0.919E-03    0.914E-03
RMM:  13    -0.192117186301E+03   -0.72956E-07   -0.54163E-06  3024   0.365E-03
  14 F= -.19211719E+03 E0= -.19200158E+03  d E =-.622864E-02
       N       E                     dE             d eps       ncg     rms          rms(c)
DAV:   1    -0.192111927810E+03    0.52584E-02   -0.70004E+00  3684   0.408E+00    0.195E-01
RMM:   2    -0.192119975875E+03   -0.80481E-02   -0.78816E-02  3684   0.603E-01    0.301E-01
RMM:   3    -0.192119799902E+03    0.17597E-03   -0.53536E-03  3747   0.128E-01    0.251E-01
RMM:   4    -0.192119454810E+03    0.34509E-03   -0.61640E-04  3674   0.414E-02    0.199E-01
RMM:   5    -0.192119161587E+03    0.29322E-03   -0.16383E-04  3690   0.213E-02    0.132E-01
RMM:   6    -0.192119089174E+03    0.72413E-04   -0.27547E-04  3684   0.259E-02    0.133E-01
RMM:   7    -0.192118925970E+03    0.16320E-03   -0.12858E-03  3679   0.548E-02    0.605E-02
RMM:   8    -0.192118954090E+03   -0.28119E-04   -0.23230E-04  3677   0.236E-02    0.488E-02
RMM:   9    -0.192118938376E+03    0.15714E-04   -0.25874E-05  3681   0.840E-03    0.366E-02
RMM:  10    -0.192118923377E+03    0.14999E-04   -0.17647E-05  3672   0.655E-03    0.253E-02
RMM:  11    -0.192118915645E+03    0.77321E-05   -0.16434E-05  3675   0.613E-03    0.141E-02
RMM:  12    -0.192118913908E+03    0.17371E-05   -0.20540E-05  3678   0.671E-03    0.664E-03
RMM:  13    -0.192118913966E+03   -0.58048E-07   -0.26344E-06  2217   0.267E-03
  15 F= -.19211891E+03 E0= -.19200296E+03  d E =-.795631E-02
       N       E                     dE             d eps       ncg     rms          rms(c)
DAV:   1    -0.192119328424E+03   -0.41452E-03   -0.32054E+00  3696   0.276E+00    0.160E-01
RMM:   2    -0.192123118488E+03   -0.37901E-02   -0.37962E-02  3682   0.408E-01    0.208E-01
RMM:   3    -0.192122983273E+03    0.13522E-03   -0.26750E-03  3710   0.881E-02    0.156E-01
RMM:   4    -0.192122813009E+03    0.17026E-03   -0.31464E-04  3684   0.306E-02    0.113E-01
RMM:   5    -0.192122780472E+03    0.32537E-04   -0.96343E-05  3687   0.156E-02    0.106E-01
RMM:   6    -0.192122766642E+03    0.13830E-04   -0.16266E-04  3678   0.195E-02    0.108E-01
RMM:   7    -0.192122691122E+03    0.75519E-04   -0.58783E-04  3680   0.370E-02    0.338E-02
RMM:   8    -0.192122692658E+03   -0.15357E-05   -0.51592E-05  3674   0.115E-02    0.306E-02
RMM:   9    -0.192122680248E+03    0.12410E-04   -0.10600E-05  3671   0.534E-03    0.175E-02
RMM:  10    -0.192122677160E+03    0.30880E-05   -0.44135E-06  2802   0.327E-03    0.131E-02
RMM:  11    -0.192122674396E+03    0.27635E-05   -0.88526E-06  3662   0.455E-03    0.672E-03
RMM:  12    -0.192122674086E+03    0.30972E-06   -0.24289E-06  2136   0.249E-03
  16 F= -.19212267E+03 E0= -.19200662E+03  d E =-.376012E-02
       N       E                     dE             d eps       ncg     rms          rms(c)
DAV:   1    -0.192121957552E+03    0.71684E-03   -0.18612E+00  3684   0.210E+00    0.122E-01
RMM:   2    -0.192124154849E+03   -0.21973E-02   -0.22029E-02  3682   0.311E-01    0.159E-01
RMM:   3    -0.192124070290E+03    0.84558E-04   -0.15484E-03  3711   0.671E-02    0.118E-01
RMM:   4    -0.192123971142E+03    0.99149E-04   -0.18015E-04  3684   0.233E-02    0.839E-02
RMM:   5    -0.192123959344E+03    0.11797E-04   -0.57221E-05  3687   0.120E-02    0.826E-02
RMM:   6    -0.192123954719E+03    0.46254E-05   -0.95745E-05  3678   0.149E-02    0.850E-02
RMM:   7    -0.192123911109E+03    0.43610E-04   -0.34345E-04  3681   0.283E-02    0.259E-02
RMM:   8    -0.192123912283E+03   -0.11732E-05   -0.30164E-05  3672   0.879E-03    0.234E-02
RMM:   9    -0.192123905038E+03    0.72448E-05   -0.61988E-06  3124   0.411E-03    0.136E-02
RMM:  10    -0.192123903162E+03    0.18760E-05   -0.25400E-06  2243   0.262E-03    0.102E-02
RMM:  11    -0.192123901502E+03    0.16597E-05   -0.55061E-06  3139   0.370E-03    0.522E-03
RMM:  12    -0.192123901314E+03    0.18808E-06   -0.16773E-06  1949   0.221E-03
  17 F= -.19212390E+03 E0= -.19200777E+03  d E =-.498735E-02
       N       E                     dE             d eps       ncg     rms          rms(c)
DAV:   1    -0.192123769898E+03    0.13160E-03   -0.21707E-01  3732   0.718E-01    0.414E-02
RMM:   2    -0.192124024962E+03   -0.25506E-03   -0.25662E-03  3682   0.106E-01    0.548E-02
RMM:   3    -0.192124012649E+03    0.12313E-04   -0.18001E-04  3711   0.229E-02    0.401E-02
RMM:   4    -0.192124001963E+03    0.10686E-04   -0.20641E-05  3684   0.789E-03    0.286E-02
RMM:   5    -0.192124001358E+03    0.60576E-06   -0.65660E-06  3084   0.413E-03
  18 F= -.19212400E+03 E0= -.19200779E+03  d E =-.508739E-02
       N       E                     dE             d eps       ncg     rms          rms(c)
DAV:   1    -0.192123597512E+03    0.40445E-03   -0.31879E+00  3672   0.275E+00    0.149E-01
RMM:   2    -0.192127500460E+03   -0.39029E-02   -0.36356E-02  3683   0.406E-01    0.257E-01
RMM:   3    -0.192127232940E+03    0.26752E-03   -0.26028E-03  3714   0.875E-02    0.184E-01
RMM:   4    -0.192127083791E+03    0.14915E-03   -0.31315E-04  3683   0.295E-02    0.151E-01
RMM:   5    -0.192126910369E+03    0.17342E-03   -0.11021E-04  3687   0.172E-02    0.953E-02
RMM:   6    -0.192126913351E+03   -0.29812E-05   -0.27607E-04  3682   0.256E-02    0.108E-01
RMM:   7    -0.192126837675E+03    0.75675E-04   -0.66646E-04  3685   0.395E-02    0.349E-02
RMM:   8    -0.192126842144E+03   -0.44683E-05   -0.54561E-05  3678   0.117E-02    0.323E-02
RMM:   9    -0.192126831275E+03    0.10869E-04   -0.84206E-06  3402   0.487E-03    0.217E-02
RMM:  10    -0.192126826573E+03    0.47017E-05   -0.57771E-06  3056   0.379E-03    0.165E-02
RMM:  11    -0.192126821969E+03    0.46038E-05   -0.14013E-05  3672   0.567E-03    0.706E-03
RMM:  12    -0.192126821648E+03    0.32111E-06   -0.40681E-06  2655   0.312E-03
  19 F= -.19212682E+03 E0= -.19201057E+03  d E =-.282029E-02
       N       E                     dE             d eps       ncg     rms          rms(c)
DAV:   1    -0.192118603753E+03    0.82182E-02   -0.10031E+01  3672   0.488E+00    0.259E-01
RMM:   2    -0.192130705259E+03   -0.12102E-01   -0.11594E-01  3683   0.722E-01    0.392E-01
RMM:   3    -0.192129975710E+03    0.72955E-03   -0.80886E-03  3717   0.155E-01    0.263E-01
RMM:   4    -0.192129687472E+03    0.28824E-03   -0.87951E-04  3683   0.504E-02    0.238E-01
RMM:   5    -0.192129319413E+03    0.36806E-03   -0.27017E-04  3688   0.265E-02    0.176E-01
RMM:   6    -0.192129251032E+03    0.68381E-04   -0.51639E-04  3682   0.352E-02    0.185E-01
RMM:   7    -0.192128970943E+03    0.28009E-03   -0.21111E-03  3683   0.700E-02    0.666E-02
RMM:   8    -0.192128985342E+03   -0.14399E-04   -0.22576E-04  3677   0.235E-02    0.574E-02
RMM:   9    -0.192128954338E+03    0.31004E-04   -0.26831E-05  3682   0.870E-03    0.395E-02
RMM:  10    -0.192128939228E+03    0.15109E-04   -0.16284E-05  3672   0.629E-03    0.301E-02
RMM:  11    -0.192128924467E+03    0.14762E-04   -0.39956E-05  3673   0.940E-03    0.145E-02
RMM:  12    -0.192128922721E+03    0.17459E-05   -0.15965E-05  3672   0.591E-03    0.587E-03
RMM:  13    -0.192128922920E+03   -0.19875E-06   -0.29566E-06  2317   0.277E-03
  20 F= -.19212892E+03 E0= -.19201251E+03  d E =-.492156E-02
       N       E                     dE             d eps       ncg     rms          rms(c)
DAV:   1    -0.192127123094E+03    0.17996E-02   -0.39589E+00  3672   0.307E+00    0.166E-01
RMM:   2    -0.192131821923E+03   -0.46988E-02   -0.45734E-02  3683   0.454E-01    0.235E-01
RMM:   3    -0.192131782886E+03    0.39037E-04   -0.31940E-03  3719   0.967E-02    0.220E-01
RMM:   4    -0.192131504553E+03    0.27833E-03   -0.42244E-04  3687   0.337E-02    0.161E-01
RMM:   5    -0.192131303273E+03    0.20128E-03   -0.14185E-04  3687   0.196E-02    0.102E-01
RMM:   6    -0.192131299875E+03    0.33975E-05   -0.23790E-04  3681   0.240E-02    0.115E-01
RMM:   7    -0.192131200818E+03    0.99058E-04   -0.72577E-04  3682   0.412E-02    0.399E-02
RMM:   8    -0.192131209118E+03   -0.83009E-05   -0.83967E-05  3677   0.143E-02    0.350E-02
RMM:   9    -0.192131197471E+03    0.11648E-04   -0.11463E-05  3671   0.562E-03    0.235E-02
RMM:  10    -0.192131191466E+03    0.60048E-05   -0.71784E-06  3298   0.424E-03    0.172E-02
RMM:  11    -0.192131186841E+03    0.46243E-05   -0.12268E-05  3672   0.526E-03    0.807E-03
RMM:  12    -0.192131186315E+03    0.52676E-06   -0.52676E-06  3013   0.348E-03
  21 F= -.19213119E+03 E0= -.19201470E+03  d E =-.226340E-02
       N       E                     dE             d eps       ncg     rms          rms(c)
DAV:   1    -0.192130772008E+03    0.41483E-03   -0.69890E-01  3684   0.129E+00    0.697E-02
RMM:   2    -0.192131596700E+03   -0.82469E-03   -0.80664E-03  3683   0.191E-01    0.995E-02
RMM:   3    -0.192131584017E+03    0.12683E-04   -0.56265E-04  3720   0.406E-02    0.926E-02
RMM:   4    -0.192131534235E+03    0.49782E-04   -0.73666E-05  3688   0.141E-02    0.671E-02
RMM:   5    -0.192131502033E+03    0.32202E-04   -0.24308E-05  3681   0.817E-03    0.432E-02
RMM:   6    -0.192131504985E+03   -0.29524E-05   -0.43232E-05  3683   0.102E-02    0.490E-02
RMM:   7    -0.192131492279E+03    0.12706E-04   -0.13180E-04  3679   0.176E-02    0.165E-02
RMM:   8    -0.192131494077E+03   -0.17982E-05   -0.14659E-05  3672   0.600E-03    0.147E-02
RMM:   9    -0.192131491919E+03    0.21581E-05   -0.18898E-06  2157   0.238E-03    0.100E-02
RMM:  10    -0.192131490828E+03    0.10915E-05   -0.13194E-06  1949   0.202E-03    0.740E-03
RMM:  11    -0.192131490011E+03    0.81673E-06   -0.22030E-06  1966   0.249E-03
  22 F= -.19213149E+03 E0= -.19201497E+03  d E =-.256709E-02
       N       E                     dE             d eps       ncg     rms          rms(c)
DAV:   1    -0.192130921346E+03    0.56948E-03   -0.14659E+00  3672   0.187E+00    0.105E-01
RMM:   2    -0.192132611044E+03   -0.16897E-02   -0.16921E-02  3683   0.276E-01    0.127E-01
RMM:   3    -0.192132717164E+03   -0.10612E-03   -0.11694E-03  3718   0.584E-02    0.157E-01
RMM:   4    -0.192132541009E+03    0.17616E-03   -0.17907E-04  3676   0.217E-02    0.985E-02
RMM:   5    -0.192132467098E+03    0.73910E-04   -0.63672E-05  3683   0.132E-02    0.587E-02
RMM:   6    -0.192132475217E+03   -0.81187E-05   -0.10277E-04  3680   0.158E-02    0.704E-02
RMM:   7    -0.192132439735E+03    0.35482E-04   -0.22162E-04  3682   0.229E-02    0.227E-02
RMM:   8    -0.192132442458E+03   -0.27233E-05   -0.25911E-05  3672   0.805E-03    0.207E-02
RMM:   9    -0.192132437098E+03    0.53603E-05   -0.47586E-06  2875   0.366E-03    0.121E-02
RMM:  10    -0.192132435524E+03    0.15742E-05   -0.22065E-06  2061   0.251E-03    0.924E-03
RMM:  11    -0.192132434096E+03    0.14280E-05   -0.47768E-06  2962   0.347E-03    0.387E-03
RMM:  12    -0.192132434001E+03    0.94798E-07   -0.12509E-06  1942   0.197E-03
  23 F= -.19213243E+03 E0= -.19201589E+03  d E =-.943990E-03
