<?xml version="1.0" encoding="ISO-8859-1"?>
<modeling>
 <generator>
  <i name="program" type="string">vasp </i>
  <i name="version" type="string">5.4.1  </i>
  <i name="subversion" type="string">24Jun15 (build Mar 14 2019 10:18:33) complex                          parallel </i>
  <i name="platform" type="string">INTEL-19.0.2+OPENMPI-3.1.3 </i>
  <i name="date" type="string">2022 07 15 </i>
  <i name="time" type="string">21:16:06 </i>
 </generator>
 <incar>
  <i type="int" name="ISTART">     0</i>
  <i type="string" name="PREC">normal</i>
  <i type="string" name="ALGO"> Fast</i>
  <i type="int" name="NELM">   500</i>
  <i type="int" name="IBRION">     2</i>
  <i type="int" name="NFREE">     2</i>
  <i name="EDIFF">      0.00000100</i>
  <i name="EDIFFG">     -0.02000000</i>
  <i type="int" name="NSW">   500</i>
  <i type="int" name="ISIF">     0</i>
  <i type="int" name="ISYM">     2</i>
  <i name="ENCUT">    400.00000000</i>
  <i name="POTIM">      0.35000000</i>
  <i type="string" name="LREAL"> Auto</i>
  <i type="logical" name="LPLANE"> T  </i>
  <i type="int" name="ISMEAR">     0</i>
  <i name="SIGMA">      0.10000000</i>
  <i type="int" name="NWRITE">     1</i>
  <i type="logical" name="LWAVE"> F  </i>
  <i type="logical" name="LCHARG"> F  </i>
  <i type="logical" name="LVTOT"> F  </i>
  <i type="logical" name="LORBIT"> F  </i>
  <i type="logical" name="LAECHG"> F  </i>
  <v type="int" name="KPOINT_BSE">    -1     0     0     0</v>
  <i type="int" name="NELM">   500</i>
  <i type="string" name="GGA"> PE          ! optPBE-vdW XC-functional</i>
  <i type="int" name="VOSKOWN">     1</i>
  <i type="logical" name="LDIPOL"> T  </i>
  <i type="logical" name="LMONO"> F  </i>
  <i type="int" name="IDIPOL">     3</i>
  <v name="DIPOL">      0.00000000      0.00000000      0.50000000</v>
 </incar>
 <kpoints>
  <generation param="Monkhorst-Pack">
   <v type="int" name="divisions">       2        2        1 </v>
   <v name="usershift">      0.00000000       0.00000000       0.00000000 </v>
   <v name="genvec1">      0.50000000      -0.00000000       0.00000000 </v>
   <v name="genvec2">      0.00000000       0.50000000       0.00000000 </v>
   <v name="genvec3">      0.00000000       0.00000000       1.00000000 </v>
   <v name="shift">      0.50000000       0.50000000       0.00000000 </v>
  </generation>
  <varray name="kpointlist" >
   <v>       0.25000000       0.25000000       0.00000000 </v>
   <v>       0.00000000       0.25000000       0.00000000 </v>
   <v>      -0.25000000       0.00000000       0.00000000 </v>
   <v>      -0.25000000       0.25000000       0.00000000 </v>
   <v>       0.50000000      -0.25000000       0.00000000 </v>
   <v>      -0.25000000       0.50000000       0.00000000 </v>
  </varray>
  <varray name="weights" >
   <v>       0.16666667 </v>
   <v>       0.16666667 </v>
   <v>       0.16666667 </v>
   <v>       0.16666667 </v>
   <v>       0.16666667 </v>
   <v>       0.16666667 </v>
  </varray>
 </kpoints>
 <parameters>
  <separator name="general" >
   <i type="string" name="SYSTEM">unknown system</i>
   <i type="logical" name="LCOMPAT"> F  </i>
  </separator>
  <separator name="electronic" >
   <i type="string" name="PREC">normal</i>
   <i name="ENMAX">    400.00000000</i>
   <i name="ENAUG">    416.23000000</i>
   <i name="EDIFF">      0.00000100</i>
   <i type="int" name="IALGO">    68</i>
   <i type="int" name="IWAVPR">    11</i>
   <i type="int" name="NBANDS">   306</i>
   <i name="NELECT">    504.00000000</i>
   <i type="int" name="TURBO">     0</i>
   <i type="int" name="IRESTART">     0</i>
   <i type="int" name="NREBOOT">     0</i>
   <i type="int" name="NMIN">     0</i>
   <i name="EREF">      0.00000000</i>
   <separator name="electronic smearing" >
    <i type="int" name="ISMEAR">     0</i>
    <i name="SIGMA">      0.10000000</i>
    <i name="KSPACING">      0.50000000</i>
    <i type="logical" name="KGAMMA"> T  </i>
   </separator>
   <separator name="electronic projectors" >
    <i type="logical" name="LREAL"> T  </i>
    <v name="ROPT">     -0.00050000     -0.00050000</v>
    <i type="int" name="LMAXPAW">  -100</i>
    <i type="int" name="LMAXMIX">     2</i>
    <i type="logical" name="NLSPLINE"> F  </i>
   </separator>
   <separator name="electronic startup" >
    <i type="int" name="ISTART">     0</i>
    <i type="int" name="ICHARG">     2</i>
    <i type="int" name="INIWAV">     1</i>
   </separator>
   <separator name="electronic spin" >
    <i type="int" name="ISPIN">     1</i>
    <i type="logical" name="LNONCOLLINEAR"> F  </i>
    <v name="MAGMOM">      1.00000000      1.00000000      1.00000000      1.00000000      1.00000000      1.00000000      1.00000000      1.00000000      1.00000000      1.00000000      1.00000000      1.00000000      1.00000000      1.00000000      1.00000000      1.00000000      1.00000000      1.00000000      1.00000000      1.00000000
      1.00000000      1.00000000      1.00000000      1.00000000      1.00000000      1.00000000      1.00000000      1.00000000      1.00000000      1.00000000      1.00000000      1.00000000      1.00000000      1.00000000      1.00000000      1.00000000      1.00000000      1.00000000      1.00000000      1.00000000
      1.00000000      1.00000000      1.00000000      1.00000000      1.00000000      1.00000000      1.00000000      1.00000000</v>
    <i name="NUPDOWN">     -1.00000000</i>
    <i type="logical" name="LSORBIT"> F  </i>
    <v name="SAXIS">      0.00000000      0.00000000      1.00000000</v>
    <i type="logical" name="LSPIRAL"> F  </i>
    <v name="QSPIRAL">      0.00000000      0.00000000      0.00000000</v>
    <i type="logical" name="LZEROZ"> F  </i>
   </separator>
   <separator name="electronic exchange-correlation" >
    <i type="logical" name="LASPH"> F  </i>
    <i type="logical" name="LMETAGGA"> F  </i>
   </separator>
   <separator name="electronic convergence" >
    <i type="int" name="NELM">   500</i>
    <i type="int" name="NELMDL">    -5</i>
    <i type="int" name="NELMIN">     2</i>
    <i name="ENINI">    400.00000000</i>
    <separator name="electronic convergence detail" >
     <i type="logical" name="LDIAG"> T  </i>
     <i type="logical" name="LSUBROT"> F  </i>
     <i name="WEIMIN">      0.00100000</i>
     <i name="EBREAK">      0.00000000</i>
     <i name="DEPER">      0.30000000</i>
     <i type="int" name="NRMM">     4</i>
     <i name="TIME">      0.40000000</i>
    </separator>
   </separator>
   <separator name="electronic mixer" >
    <i name="AMIX">      0.40000000</i>
    <i name="BMIX">      1.00000000</i>
    <i name="AMIN">      0.10000000</i>
    <i name="AMIX_MAG">      1.60000000</i>
    <i name="BMIX_MAG">      1.00000000</i>
    <separator name="electronic mixer details" >
     <i type="int" name="IMIX">     4</i>
     <i type="logical" name="MIXFIRST"> F  </i>
     <i type="int" name="MAXMIX">   -45</i>
     <i name="WC">    100.00000000</i>
     <i type="int" name="INIMIX">     1</i>
     <i type="int" name="MIXPRE">     1</i>
     <i type="int" name="MREMOVE">     5</i>
    </separator>
   </separator>
   <separator name="electronic dipolcorrection" >
    <i type="logical" name="LDIPOL"> T  </i>
    <i type="logical" name="LMONO"> F  </i>
    <i type="int" name="IDIPOL">     3</i>
    <i name="EPSILON">      1.00000000</i>
    <v name="DIPOL">      0.00000000      0.00000000      0.50000000</v>
    <i name="EFIELD">      0.00000000</i>
   </separator>
  </separator>
  <separator name="grids" >
   <i type="int" name="NGX">    54</i>
   <i type="int" name="NGY">    54</i>
   <i type="int" name="NGZ">   120</i>
   <i type="int" name="NGXF">   108</i>
   <i type="int" name="NGYF">   108</i>
   <i type="int" name="NGZF">   240</i>
   <i type="logical" name="ADDGRID"> F  </i>
  </separator>
  <separator name="ionic" >
   <i type="int" name="NSW">   500</i>
   <i type="int" name="IBRION">     2</i>
   <i type="int" name="ISIF">     0</i>
   <i name="PSTRESS">      0.00000000</i>
   <i name="EDIFFG">     -0.02000000</i>
   <i type="int" name="NFREE">     2</i>
   <i name="POTIM">      0.35000000</i>
   <i name="SMASS">     -3.00000000</i>
   <i name="SCALEE">      1.00000000</i>
  </separator>
  <separator name="ionic md" >
   <i name="TEBEG">      0.00010000</i>
   <i name="TEEND">      0.00010000</i>
   <i type="int" name="NBLOCK">     1</i>
   <i type="int" name="KBLOCK">   500</i>
   <i type="int" name="NPACO">   256</i>
   <i name="APACO">     16.00000000</i>
  </separator>
  <separator name="symmetry" >
   <i type="int" name="ISYM">     2</i>
   <i name="SYMPREC">      0.00001000</i>
  </separator>
  <separator name="dos" >
   <i type="logical" name="LORBIT"> F  </i>
   <v name="RWIGS">     -1.00000000     -1.00000000</v>
   <i type="int" name="NEDOS">   301</i>
   <i name="EMIN">     10.00000000</i>
   <i name="EMAX">    -10.00000000</i>
   <i name="EFERMI">      0.00000000</i>
  </separator>
  <separator name="writing" >
   <i type="int" name="NWRITE">     1</i>
   <i type="logical" name="LWAVE"> F  </i>
   <i type="logical" name="LCHARG"> F  </i>
   <i type="logical" name="LPARD"> F  </i>
   <i type="logical" name="LVTOT"> F  </i>
   <i type="logical" name="LVHAR"> F  </i>
   <i type="logical" name="LELF"> F  </i>
   <i type="logical" name="LOPTICS"> F  </i>
   <v name="STM">      0.00000000      0.00000000      0.00000000      0.00000000      0.00000000      0.00000000      0.00000000</v>
  </separator>
  <separator name="performance" >
   <i type="int" name="NPAR">     6</i>
   <i type="int" name="NSIM">     4</i>
   <i type="int" name="NBLK">    -1</i>
   <i type="logical" name="LPLANE"> T  </i>
   <i type="logical" name="LSCALAPACK"> T  </i>
   <i type="logical" name="LSCAAWARE"> F  </i>
   <i type="logical" name="LSCALU"> F  </i>
   <i type="logical" name="LASYNC"> F  </i>
   <i type="logical" name="LORBITALREAL"> F  </i>
  </separator>
  <separator name="miscellaneous" >
   <i type="int" name="IDIOT">     3</i>
   <i type="logical" name="LMUSIC"> F  </i>
   <v name="POMASS">    196.96600000    106.42000000</v>
   <v name="DARWINR">      0.00000000      0.00000000</v>
   <v name="DARWINV">      1.00000000      1.00000000</v>
   <i type="logical" name="LCORR"> T  </i>
  </separator>
  <i type="logical" name="GGA_COMPAT"> T  </i>
  <i type="logical" name="LBERRY"> F  </i>
  <i type="int" name="ICORELEVEL">     0</i>
  <i type="logical" name="LDAU"> F  </i>
  <i type="int" name="I_CONSTRAINED_M">     0</i>
  <separator name="electronic exchange-correlation" >
   <i type="string" name="GGA">PE</i>
   <i type="int" name="VOSKOWN">     1</i>
   <i type="logical" name="LHFCALC"> F  </i>
   <i type="string" name="PRECFOCK"></i>
   <i type="logical" name="LSYMGRAD"> F  </i>
   <i type="logical" name="LHFONE"> F  </i>
   <i type="logical" name="LRHFCALC"> F  </i>
   <i type="logical" name="LTHOMAS"> F  </i>
   <i type="logical" name="LMODELHF"> F  </i>
   <i name="ENCUT4O">     -1.00000000</i>
   <i type="int" name="EXXOEP">     0</i>
   <i type="int" name="FOURORBIT">     0</i>
   <i name="AEXX">      0.00000000</i>
   <i name="HFALPHA">      0.00000000</i>
   <i name="MCALPHA">      0.00000000</i>
   <i name="ALDAX">      1.00000000</i>
   <i name="AGGAX">      1.00000000</i>
   <i name="ALDAC">      1.00000000</i>
   <i name="AGGAC">      1.00000000</i>
   <i type="int" name="NKREDX">     1</i>
   <i type="int" name="NKREDY">     1</i>
   <i type="int" name="NKREDZ">     1</i>
   <i type="logical" name="SHIFTRED"> F  </i>
   <i type="logical" name="ODDONLY"> F  </i>
   <i type="logical" name="EVENONLY"> F  </i>
   <i type="int" name="LMAXFOCK">     0</i>
   <i type="int" name="NMAXFOCKAE">     0</i>
   <i type="logical" name="LFOCKAEDFT"> F  </i>
   <i name="HFSCREEN">      0.00000000</i>
   <i name="HFSCREENC">      0.00000000</i>
   <i type="int" name="NBANDSGWLOW">     0</i>
  </separator>
  <separator name="vdW DFT" >
   <i type="logical" name="LUSE_VDW"> F  </i>
   <i name="Zab_VDW">     -0.84910000</i>
   <i name="PARAM1">      0.12340000</i>
   <i name="PARAM2">      1.00000000</i>
   <i name="PARAM3">      0.00000000</i>
  </separator>
  <separator name="model GW" >
   <i type="int" name="MODEL_GW">     0</i>
   <i name="MODEL_EPS0">     32.09595293</i>
   <i name="MODEL_ALPHA">      1.00000000</i>
  </separator>
  <separator name="linear response parameters" >
   <i type="logical" name="LEPSILON"> F  </i>
   <i type="logical" name="LRPA"> F  </i>
   <i type="logical" name="LNABLA"> F  </i>
   <i type="logical" name="LVEL"> F  </i>
   <i type="int" name="KINTER">     0</i>
   <i name="CSHIFT">      0.10000000</i>
   <i name="OMEGAMAX">     -1.00000000</i>
   <i name="DEG_THRESHOLD">      0.00200000</i>
  </separator>
  <separator name="orbital magnetization" >
   <i type="logical" name="NUCIND"> F  </i>
   <v name="MAGPOS">      0.00000000      0.00000000      0.00000000</v>
   <i type="logical" name="LNICSALL"> T  </i>
   <i type="logical" name="ORBITALMAG"> F  </i>
   <i type="logical" name="LMAGBLOCH"> F  </i>
   <i type="logical" name="LCHIMAG"> F  </i>
   <i type="logical" name="LGAUGE"> T  </i>
   <i type="int" name="MAGATOM">     0</i>
   <v name="MAGDIPOL">      0.00000000      0.00000000      0.00000000</v>
   <v name="AVECCONST">      0.00000000      0.00000000      0.00000000</v>
  </separator>
  <separator name="response functions" >
   <i type="logical" name="LADDER"> F  </i>
   <i type="logical" name="LFXC"> F  </i>
   <i type="logical" name="LHARTREE"> T  </i>
   <i type="int" name="IBSE">     0</i>
   <v type="int" name="KPOINT">    -1     0     0     0</v>
   <i type="logical" name="LTCTE"> F  </i>
   <i type="logical" name="LTETE"> F  </i>
   <i type="logical" name="LTRIPLET"> F  </i>
   <i type="logical" name="LFXCEPS"> F  </i>
   <i type="logical" name="LFXHEG"> F  </i>
   <i type="int" name="NATURALO">     0</i>
   <i type="logical" name="L2ORDER"> F  </i>
   <i type="logical" name="LUSEW"> F  </i>
   <i name="ENCUTGW">     -2.00000000</i>
   <i name="ENCUTGWSOFT">     -2.00000000</i>
   <i name="ENCUTLF">     -1.00000000</i>
   <i type="int" name="LMAXMP2">    -1</i>
   <i name="SCISSOR">      0.00000000</i>
   <i type="int" name="NOMEGA">     0</i>
   <i type="int" name="NOMEGAR">     0</i>
   <i type="int" name="NBANDSGW">    -1</i>
   <i type="int" name="NBANDSO">    -1</i>
   <i type="int" name="NBANDSV">    -1</i>
   <i type="int" name="NELM">   500</i>
   <i type="int" name="NELMHF">     1</i>
   <i type="int" name="DIM">     3</i>
   <i type="int" name="ANTIRES">     0</i>
   <i name="OMEGAMAX">    -30.00000000</i>
   <i name="OMEGAMIN">    -30.00000000</i>
   <i name="OMEGATL">   -200.00000000</i>
   <i type="int" name="OMEGAGRID">     0</i>
   <i name="CSHIFT">     -0.10000000</i>
   <i type="logical" name="SELFENERGY"> F  </i>
   <i type="logical" name="LSPECTRAL"> F  </i>
   <i type="logical" name="LSPECTRALGW"> F  </i>
   <i type="logical" name="LSINGLES"> F  </i>
   <i type="logical" name="LFERMIGW"> F  </i>
   <i type="logical" name="ODDONLYGW"> F  </i>
   <i type="logical" name="EVENONLYGW"> F  </i>
   <i type="int" name="NKREDLFX">     1</i>
   <i type="int" name="NKREDLFY">     1</i>
   <i type="int" name="NKREDLFZ">     1</i>
   <i type="int" name="MAXMEM">  1800</i>
   <i type="int" name="TELESCOPE">     0</i>
   <i type="int" name="TAUPAR">     1</i>
   <i type="int" name="OMEGAPAR">    -1</i>
   <i name="LAMBDA">      1.00000000</i>
  </separator>
  <separator name="External order field" >
   <i name="OFIELD_KAPPA">      0.00000000</i>
   <v name="OFIELD_K">      0.00000000      0.00000000      0.00000000</v>
   <i name="OFIELD_Q6_NEAR">      0.00000000</i>
   <i name="OFIELD_Q6_FAR">      0.00000000</i>
   <i name="OFIELD_A">      0.00000000</i>
  </separator>
 </parameters>
 <atominfo>
  <atoms>      48 </atoms>
  <types>       2 </types>
  <array name="atoms" >
   <dimension dim="1">ion</dimension>
   <field type="string">element</field>
   <field type="int">atomtype</field>
   <set>
    <rc><c>Au</c><c>   1</c></rc>
    <rc><c>Au</c><c>   1</c></rc>
    <rc><c>Au</c><c>   1</c></rc>
    <rc><c>Au</c><c>   1</c></rc>
    <rc><c>Au</c><c>   1</c></rc>
    <rc><c>Au</c><c>   1</c></rc>
    <rc><c>Au</c><c>   1</c></rc>
    <rc><c>Au</c><c>   1</c></rc>
    <rc><c>Au</c><c>   1</c></rc>
    <rc><c>Au</c><c>   1</c></rc>
    <rc><c>Au</c><c>   1</c></rc>
    <rc><c>Au</c><c>   1</c></rc>
    <rc><c>Au</c><c>   1</c></rc>
    <rc><c>Au</c><c>   1</c></rc>
    <rc><c>Au</c><c>   1</c></rc>
    <rc><c>Au</c><c>   1</c></rc>
    <rc><c>Au</c><c>   1</c></rc>
    <rc><c>Au</c><c>   1</c></rc>
    <rc><c>Au</c><c>   1</c></rc>
    <rc><c>Au</c><c>   1</c></rc>
    <rc><c>Au</c><c>   1</c></rc>
    <rc><c>Au</c><c>   1</c></rc>
    <rc><c>Au</c><c>   1</c></rc>
    <rc><c>Au</c><c>   1</c></rc>
    <rc><c>Pd</c><c>   2</c></rc>
    <rc><c>Pd</c><c>   2</c></rc>
    <rc><c>Pd</c><c>   2</c></rc>
    <rc><c>Pd</c><c>   2</c></rc>
    <rc><c>Pd</c><c>   2</c></rc>
    <rc><c>Pd</c><c>   2</c></rc>
    <rc><c>Pd</c><c>   2</c></rc>
    <rc><c>Pd</c><c>   2</c></rc>
    <rc><c>Pd</c><c>   2</c></rc>
    <rc><c>Pd</c><c>   2</c></rc>
    <rc><c>Pd</c><c>   2</c></rc>
    <rc><c>Pd</c><c>   2</c></rc>
    <rc><c>Pd</c><c>   2</c></rc>
    <rc><c>Pd</c><c>   2</c></rc>
    <rc><c>Pd</c><c>   2</c></rc>
    <rc><c>Pd</c><c>   2</c></rc>
    <rc><c>Pd</c><c>   2</c></rc>
    <rc><c>Pd</c><c>   2</c></rc>
    <rc><c>Pd</c><c>   2</c></rc>
    <rc><c>Pd</c><c>   2</c></rc>
    <rc><c>Pd</c><c>   2</c></rc>
    <rc><c>Pd</c><c>   2</c></rc>
    <rc><c>Pd</c><c>   2</c></rc>
    <rc><c>Pd</c><c>   2</c></rc>
   </set>
  </array>
  <array name="atomtypes" >
   <dimension dim="1">type</dimension>
   <field type="int">atomspertype</field>
   <field type="string">element</field>
   <field>mass</field>
   <field>valence</field>
   <field type="string">pseudopotential</field>
   <set>
    <rc><c>  24</c><c>Au</c><c>    196.96600000</c><c>     11.00000000</c><c>  PAW_PBE Au 04Oct2007                  </c></rc>
    <rc><c>  24</c><c>Pd</c><c>    106.42000000</c><c>     10.00000000</c><c>  PAW_PBE Pd 04Jan2005                  </c></rc>
   </set>
  </array>
 </atominfo>
 <structure name="initialpos" >
  <crystal>
   <varray name="basis" >
    <v>      11.00258152       0.00000000       0.00000000 </v>
    <v>       5.50129076       9.52851510       0.00000000 </v>
    <v>       0.00000000       0.00000000      24.49178509 </v>
   </varray>
   <i name="volume">   2567.67623402 </i>
   <varray name="rec_basis" >
    <v>       0.09088776      -0.05247407       0.00000000 </v>
    <v>       0.00000000       0.10494815       0.00000000 </v>
    <v>       0.00000000       0.00000000       0.04083002 </v>
   </varray>
  </crystal>
  <varray name="positions" >
   <v>       0.25000000       0.75000000       0.59169983 </v>
   <v>       0.58333333       0.83333333       0.40830017 </v>
   <v>       0.41666667       0.91666667       0.50000000 </v>
   <v>       0.41666667       0.16666667       0.50000000 </v>
   <v>       0.58333333       0.08333333       0.40830017 </v>
   <v>       0.66666667       0.91666667       0.50000000 </v>
   <v>       0.33333333       0.83333333       0.40830017 </v>
   <v>       0.66666667       0.16666667       0.50000000 </v>
   <v>       0.16666667       0.66666667       0.50000000 </v>
   <v>       0.33333333       0.58333333       0.40830017 </v>
   <v>       0.25000000       0.25000000       0.59169983 </v>
   <v>       0.16666667       0.41666667       0.50000000 </v>
   <v>       0.50000000       0.50000000       0.59169983 </v>
   <v>       0.25000000       0.00000000       0.59169983 </v>
   <v>       0.33333333       0.33333333       0.40830017 </v>
   <v>       0.66666667       0.41666667       0.50000000 </v>
   <v>       0.91666667       0.91666667       0.50000000 </v>
   <v>       0.00000000       0.50000000       0.59169983 </v>
   <v>       0.83333333       0.58333333       0.40830017 </v>
   <v>       0.08333333       0.58333333       0.40830017 </v>
   <v>       0.91666667       0.41666667       0.50000000 </v>
   <v>       0.75000000       0.50000000       0.59169983 </v>
   <v>       0.00000000       0.00000000       0.59169983 </v>
   <v>       0.83333333       0.83333333       0.40830017 </v>
   <v>       0.83333333       0.33333333       0.40830017 </v>
   <v>       0.75000000       0.25000000       0.59169983 </v>
   <v>       0.83333333       0.08333333       0.40830017 </v>
   <v>       0.66666667       0.66666667       0.50000000 </v>
   <v>       0.50000000       0.75000000       0.59169983 </v>
   <v>       0.75000000       0.00000000       0.59169983 </v>
   <v>       0.41666667       0.66666667       0.50000000 </v>
   <v>       0.08333333       0.08333333       0.40830017 </v>
   <v>       0.50000000       0.25000000       0.59169983 </v>
   <v>       0.41666667       0.41666667       0.50000000 </v>
   <v>       0.58333333       0.33333333       0.40830017 </v>
   <v>       0.50000000       0.00000000       0.59169983 </v>
   <v>       0.16666667       0.91666667       0.50000000 </v>
   <v>       0.25000000       0.50000000       0.59169983 </v>
   <v>       0.16666667       0.16666667       0.50000000 </v>
   <v>       0.33333333       0.08333333       0.40830017 </v>
   <v>       0.00000000       0.75000000       0.59169983 </v>
   <v>       0.08333333       0.83333333       0.40830017 </v>
   <v>       0.91666667       0.66666667       0.50000000 </v>
   <v>       0.00000000       0.25000000       0.59169983 </v>
   <v>       0.08333333       0.33333333       0.40830017 </v>
   <v>       0.91666667       0.16666667       0.50000000 </v>
   <v>       0.58333333       0.58333333       0.40830017 </v>
   <v>       0.75000000       0.75000000       0.59169983 </v>
  </varray>
 </structure>
 <calculation>
  <scstep>
   <time name="dav">    8.85    8.90</time>
   <time name="total">    8.91    8.96</time>
   <dipole>
    <v name="dipole">      0.00000000       0.00000000       0.00000074 </v>
    <i name="Tr[quadrupol]"> -10300.86093443 </i>
    <i name="Echarged">      0.00000000 </i>
    <i name="Edipol_quadrupol">      0.00000000 </i>
    <i name="Eion">      0.00000000 </i>
   </dipole>
   <energy>
    <i name="alphaZ">    805.86936440 </i>
    <i name="ewald"> 200397.17698802 </i>
    <i name="hartreedc">-242812.33123263 </i>
    <i name="XCdc">   -327.56214175 </i>
    <i name="pawpsdc">  40340.05962942 </i>
    <i name="pawaedc"> -38292.62782345 </i>
    <i name="eentropy">     -0.13512203 </i>
    <i name="bandstr">   1430.97429175 </i>
    <i name="atom">  41659.78587232 </i>
    <i name="e_fr_energy">   3201.20982605 </i>
    <i name="e_wo_entrp">   3201.34494809 </i>
    <i name="e_0_energy">   3201.27738707 </i>
   </energy>
  </scstep>
  <scstep>
   <time name="dav">   10.39   10.45</time>
   <time name="total">   10.39   10.46</time>
   <dipole>
    <v name="dipole">      0.00000000       0.00000000       0.00000074 </v>
    <i name="Tr[quadrupol]"> -10300.86093443 </i>
    <i name="Echarged">      0.00000000 </i>
    <i name="Edipol_quadrupol">      0.00000000 </i>
    <i name="Eion">      0.00000000 </i>
   </dipole>
   <energy>
    <i name="e_fr_energy">     15.30102639 </i>
    <i name="e_wo_entrp">     15.42131554 </i>
    <i name="e_0_energy">     15.36117097 </i>
   </energy>
  </scstep>
  <scstep>
   <time name="dav">    9.94    9.99</time>
   <time name="total">    9.94   10.00</time>
   <dipole>
    <v name="dipole">      0.00000000       0.00000000       0.00000074 </v>
    <i name="Tr[quadrupol]"> -10300.86093443 </i>
    <i name="Echarged">      0.00000000 </i>
    <i name="Edipol_quadrupol">      0.00000000 </i>
    <i name="Eion">      0.00000000 </i>
   </dipole>
   <energy>
    <i name="e_fr_energy">   -200.08047057 </i>
    <i name="e_wo_entrp">   -199.87109515 </i>
    <i name="e_0_energy">   -199.97578286 </i>
   </energy>
  </scstep>
  <scstep>
   <time name="dav">   10.04   10.17</time>
   <time name="total">   10.05   10.18</time>
   <dipole>
    <v name="dipole">      0.00000000       0.00000000       0.00000074 </v>
    <i name="Tr[quadrupol]"> -10300.86093443 </i>
    <i name="Echarged">      0.00000000 </i>
    <i name="Edipol_quadrupol">      0.00000000 </i>
    <i name="Eion">      0.00000000 </i>
   </dipole>
   <energy>
    <i name="e_fr_energy">   -205.82150565 </i>
    <i name="e_wo_entrp">   -205.60213596 </i>
    <i name="e_0_energy">   -205.71182081 </i>
   </energy>
  </scstep>
  <scstep>
   <time name="dav">   10.49   10.56</time>
   <time name="total">   10.72   10.80</time>
   <dipole>
    <v name="dipole">      0.00000000       0.00000000       0.00000074 </v>
    <i name="Tr[quadrupol]"> -10300.86093443 </i>
    <i name="Echarged">      0.00000000 </i>
    <i name="Edipol_quadrupol">      0.00000000 </i>
    <i name="Eion">      0.00000000 </i>
   </dipole>
   <energy>
    <i name="e_fr_energy">   -206.00338781 </i>
    <i name="e_wo_entrp">   -205.78382061 </i>
    <i name="e_0_energy">   -205.89360421 </i>
   </energy>
  </scstep>
  <scstep>
   <time name="diag">    1.52    1.53</time>
   <time name="diis">    4.59    4.61</time>
   <time name="orth">    0.38    0.38</time>
   <time name="total">    6.77    6.81</time>
   <dipole>
    <v name="dipole">      0.00000000       0.00000000       0.34404661 </v>
    <i name="Tr[quadrupol]"> -10301.57644616 </i>
    <i name="Echarged">      0.00000000 </i>
    <i name="Edipol_quadrupol">      0.00000000 </i>
    <i name="Eion">      0.00000000 </i>
   </dipole>
   <energy>
    <i name="e_fr_energy">   -197.85289439 </i>
    <i name="e_wo_entrp">   -197.61493411 </i>
    <i name="e_0_energy">   -197.73391425 </i>
   </energy>
  </scstep>
  <scstep>
   <time name="diag">    1.50    1.50</time>
   <time name="diis">    4.61    4.64</time>
   <time name="orth">    0.38    0.38</time>
   <time name="total">    6.77    6.81</time>
   <dipole>
    <v name="dipole">      0.00000000       0.00000000      -0.33495583 </v>
    <i name="Tr[quadrupol]"> -10301.23004965 </i>
    <i name="Echarged">      0.00000000 </i>
    <i name="Edipol_quadrupol">      0.00000000 </i>
    <i name="Eion">      0.00000000 </i>
   </dipole>
   <energy>
    <i name="e_fr_energy">   -198.15191159 </i>
    <i name="e_wo_entrp">   -197.99314914 </i>
    <i name="e_0_energy">   -198.07253036 </i>
   </energy>
  </scstep>
  <scstep>
   <time name="diag">    1.52    1.53</time>
   <time name="diis">    4.61    4.63</time>
   <time name="orth">    0.38    0.38</time>
   <time name="total">    6.79    6.83</time>
   <dipole>
    <v name="dipole">      0.00000000       0.00000000       1.37231783 </v>
    <i name="Tr[quadrupol]"> -10302.99047143 </i>
    <i name="Echarged">      0.00000000 </i>
    <i name="Edipol_quadrupol">      0.00000000 </i>
    <i name="Eion">      0.00000000 </i>
   </dipole>
   <energy>
    <i name="e_fr_energy">   -210.30119258 </i>
    <i name="e_wo_entrp">   -210.03743968 </i>
    <i name="e_0_energy">   -210.16931613 </i>
   </energy>
  </scstep>
  <scstep>
   <time name="diag">    1.49    1.49</time>
   <time name="diis">    4.58    4.60</time>
   <time name="orth">    0.37    0.38</time>
   <time name="total">    6.73    6.77</time>
   <dipole>
    <v name="dipole">      0.00000000       0.00000000      -1.04117564 </v>
    <i name="Tr[quadrupol]"> -10303.89103179 </i>
    <i name="Echarged">      0.00000000 </i>
    <i name="Edipol_quadrupol">      0.00000000 </i>
    <i name="Eion">      0.00000000 </i>
   </dipole>
   <energy>
    <i name="e_fr_energy">   -206.38218835 </i>
    <i name="e_wo_entrp">   -206.19963769 </i>
    <i name="e_0_energy">   -206.29091302 </i>
   </energy>
  </scstep>
  <scstep>
   <time name="diag">    1.45    1.53</time>
   <time name="diis">    4.56    4.59</time>
   <time name="orth">    0.37    0.38</time>
   <time name="total">    6.67    6.79</time>
   <dipole>
    <v name="dipole">      0.00000000       0.00000000       0.17127887 </v>
    <i name="Tr[quadrupol]"> -10303.83073169 </i>
    <i name="Echarged">      0.00000000 </i>
    <i name="Edipol_quadrupol">      0.00000000 </i>
    <i name="Eion">      0.00000000 </i>
   </dipole>
   <energy>
    <i name="e_fr_energy">   -193.43115536 </i>
    <i name="e_wo_entrp">   -193.23320107 </i>
    <i name="e_0_energy">   -193.33217822 </i>
   </energy>
  </scstep>
  <scstep>
   <time name="diag">    1.50    1.51</time>
   <time name="diis">    4.56    4.58</time>
   <time name="orth">    0.37    0.37</time>
   <time name="total">    6.71    6.75</time>
   <dipole>
    <v name="dipole">      0.00000000       0.00000000       0.04999118 </v>
    <i name="Tr[quadrupol]"> -10303.21730849 </i>
    <i name="Echarged">      0.00000000 </i>
    <i name="Edipol_quadrupol">      0.00000000 </i>
    <i name="Eion">      0.00000000 </i>
   </dipole>
   <energy>
    <i name="e_fr_energy">   -189.97572197 </i>
    <i name="e_wo_entrp">   -189.77962591 </i>
    <i name="e_0_energy">   -189.87767394 </i>
   </energy>
  </scstep>
  <scstep>
   <time name="diag">    1.53    1.53</time>
   <time name="diis">    4.63    4.66</time>
   <time name="orth">    0.37    0.37</time>
   <time name="total">    6.81    6.85</time>
   <dipole>
    <v name="dipole">      0.00000000       0.00000000       0.06800315 </v>
    <i name="Tr[quadrupol]"> -10304.01233319 </i>
    <i name="Echarged">      0.00000000 </i>
    <i name="Edipol_quadrupol">      0.00000000 </i>
    <i name="Eion">      0.00000000 </i>
   </dipole>
   <energy>
    <i name="e_fr_energy">   -188.94899111 </i>
    <i name="e_wo_entrp">   -188.70943198 </i>
    <i name="e_0_energy">   -188.82921154 </i>
   </energy>
  </scstep>
  <scstep>
   <time name="diag">    1.49    1.50</time>
   <time name="diis">    4.64    4.67</time>
   <time name="orth">    0.37    0.37</time>
   <time name="total">    6.80    6.85</time>
   <dipole>
    <v name="dipole">      0.00000000       0.00000000       0.06038515 </v>
    <i name="Tr[quadrupol]"> -10304.17219651 </i>
    <i name="Echarged">      0.00000000 </i>
    <i name="Edipol_quadrupol">      0.00000000 </i>
    <i name="Eion">      0.00000000 </i>
   </dipole>
   <energy>
    <i name="e_fr_energy">   -188.70909946 </i>
    <i name="e_wo_entrp">   -188.46147278 </i>
    <i name="e_0_energy">   -188.58528612 </i>
   </energy>
  </scstep>
  <scstep>
   <time name="diag">    1.51    1.51</time>
   <time name="diis">    4.64    4.67</time>
   <time name="orth">    0.37    0.37</time>
   <time name="total">    6.81    6.85</time>
   <dipole>
    <v name="dipole">      0.00000000       0.00000000       0.03172917 </v>
    <i name="Tr[quadrupol]"> -10304.28528135 </i>
    <i name="Echarged">      0.00000000 </i>
    <i name="Edipol_quadrupol">      0.00000000 </i>
    <i name="Eion">      0.00000000 </i>
   </dipole>
   <energy>
    <i name="e_fr_energy">   -188.45993585 </i>
    <i name="e_wo_entrp">   -188.21541505 </i>
    <i name="e_0_energy">   -188.33767545 </i>
   </energy>
  </scstep>
  <scstep>
   <time name="diag">    1.50    1.51</time>
   <time name="diis">    4.55    4.60</time>
   <time name="orth">    0.36    0.39</time>
   <time name="total">    6.70    6.81</time>
   <dipole>
    <v name="dipole">      0.00000000       0.00000000       0.01980226 </v>
    <i name="Tr[quadrupol]"> -10304.49094956 </i>
    <i name="Echarged">      0.00000000 </i>
    <i name="Edipol_quadrupol">      0.00000000 </i>
    <i name="Eion">      0.00000000 </i>
   </dipole>
   <energy>
    <i name="e_fr_energy">   -188.39544509 </i>
    <i name="e_wo_entrp">   -188.13950704 </i>
    <i name="e_0_energy">   -188.26747606 </i>
   </energy>
  </scstep>
  <scstep>
   <time name="diag">    1.52    1.53</time>
   <time name="diis">    4.59    4.61</time>
   <time name="orth">    0.37    0.37</time>
   <time name="total">    6.77    6.81</time>
   <dipole>
    <v name="dipole">      0.00000000       0.00000000       0.01592465 </v>
    <i name="Tr[quadrupol]"> -10304.89727849 </i>
    <i name="Echarged">      0.00000000 </i>
    <i name="Edipol_quadrupol">      0.00000000 </i>
    <i name="Eion">      0.00000000 </i>
   </dipole>
   <energy>
    <i name="e_fr_energy">   -188.40376478 </i>
    <i name="e_wo_entrp">   -188.15975630 </i>
    <i name="e_0_energy">   -188.28176054 </i>
   </energy>
  </scstep>
  <scstep>
   <time name="diag">    1.49    1.50</time>
   <time name="diis">    4.64    4.66</time>
   <time name="orth">    0.37    0.37</time>
   <time name="total">    6.80    6.83</time>
   <dipole>
    <v name="dipole">      0.00000000       0.00000000      -0.00244220 </v>
    <i name="Tr[quadrupol]"> -10305.12397256 </i>
    <i name="Echarged">      0.00000000 </i>
    <i name="Edipol_quadrupol">      0.00000000 </i>
    <i name="Eion">      0.00000000 </i>
   </dipole>
   <energy>
    <i name="e_fr_energy">   -188.38736247 </i>
    <i name="e_wo_entrp">   -188.13520748 </i>
    <i name="e_0_energy">   -188.26128497 </i>
   </energy>
  </scstep>
  <scstep>
   <time name="diag">    1.51    1.52</time>
   <time name="diis">    4.61    4.64</time>
   <time name="orth">    0.37    0.37</time>
   <time name="total">    6.78    6.82</time>
   <dipole>
    <v name="dipole">      0.00000000       0.00000000       0.02114275 </v>
    <i name="Tr[quadrupol]"> -10305.30653768 </i>
    <i name="Echarged">      0.00000000 </i>
    <i name="Edipol_quadrupol">      0.00000000 </i>
    <i name="Eion">      0.00000000 </i>
   </dipole>
   <energy>
    <i name="e_fr_energy">   -188.36034027 </i>
    <i name="e_wo_entrp">   -188.10947423 </i>
    <i name="e_0_energy">   -188.23490725 </i>
   </energy>
  </scstep>
  <scstep>
   <time name="diag">    1.50    1.51</time>
   <time name="diis">    4.64    4.66</time>
   <time name="orth">    0.37    0.37</time>
   <time name="total">    6.79    6.84</time>
   <dipole>
    <v name="dipole">      0.00000000       0.00000000       0.01916269 </v>
    <i name="Tr[quadrupol]"> -10305.36567972 </i>
    <i name="Echarged">      0.00000000 </i>
    <i name="Edipol_quadrupol">      0.00000000 </i>
    <i name="Eion">      0.00000000 </i>
   </dipole>
   <energy>
    <i name="e_fr_energy">   -188.35066019 </i>
    <i name="e_wo_entrp">   -188.09756176 </i>
    <i name="e_0_energy">   -188.22411098 </i>
   </energy>
  </scstep>
  <scstep>
   <time name="diag">    1.52    1.53</time>
   <time name="diis">    4.63    4.65</time>
   <time name="orth">    0.37    0.37</time>
   <time name="total">    6.81    6.84</time>
   <dipole>
    <v name="dipole">      0.00000000       0.00000000       0.01301584 </v>
    <i name="Tr[quadrupol]"> -10305.48488103 </i>
    <i name="Echarged">      0.00000000 </i>
    <i name="Edipol_quadrupol">      0.00000000 </i>
    <i name="Eion">      0.00000000 </i>
   </dipole>
   <energy>
    <i name="e_fr_energy">   -188.34876186 </i>
    <i name="e_wo_entrp">   -188.09249321 </i>
    <i name="e_0_energy">   -188.22062753 </i>
   </energy>
  </scstep>
  <scstep>
   <time name="diag">    1.49    1.50</time>
   <time name="diis">    4.54    4.65</time>
   <time name="orth">    0.37    0.37</time>
   <time name="total">    6.70    6.82</time>
   <dipole>
    <v name="dipole">      0.00000000       0.00000000       0.01200472 </v>
    <i name="Tr[quadrupol]"> -10305.59294916 </i>
    <i name="Echarged">      0.00000000 </i>
    <i name="Edipol_quadrupol">      0.00000000 </i>
    <i name="Eion">      0.00000000 </i>
   </dipole>
   <energy>
    <i name="e_fr_energy">   -188.34752420 </i>
    <i name="e_wo_entrp">   -188.09098313 </i>
    <i name="e_0_energy">   -188.21925367 </i>
   </energy>
  </scstep>
  <scstep>
   <time name="diag">    1.51    1.52</time>
   <time name="diis">    4.58    4.61</time>
   <time name="orth">    0.37    0.37</time>
   <time name="total">    6.75    6.80</time>
   <dipole>
    <v name="dipole">      0.00000000       0.00000000       0.01127563 </v>
    <i name="Tr[quadrupol]"> -10305.69134662 </i>
    <i name="Echarged">      0.00000000 </i>
    <i name="Edipol_quadrupol">      0.00000000 </i>
    <i name="Eion">      0.00000000 </i>
   </dipole>
   <energy>
    <i name="e_fr_energy">   -188.34665345 </i>
    <i name="e_wo_entrp">   -188.09015641 </i>
    <i name="e_0_energy">   -188.21840493 </i>
   </energy>
  </scstep>
  <scstep>
   <time name="diag">    1.50    1.51</time>
   <time name="diis">    4.64    4.66</time>
   <time name="orth">    0.37    0.37</time>
   <time name="total">    6.79    6.83</time>
   <dipole>
    <v name="dipole">      0.00000000       0.00000000       0.01280185 </v>
    <i name="Tr[quadrupol]"> -10305.77213257 </i>
    <i name="Echarged">      0.00000000 </i>
    <i name="Edipol_quadrupol">      0.00000000 </i>
    <i name="Eion">      0.00000000 </i>
   </dipole>
   <energy>
    <i name="e_fr_energy">   -188.34657113 </i>
    <i name="e_wo_entrp">   -188.09023539 </i>
    <i name="e_0_energy">   -188.21840326 </i>
   </energy>
  </scstep>
  <scstep>
   <time name="diag">    1.53    1.53</time>
   <time name="diis">    4.60    4.62</time>
   <time name="orth">    0.37    0.37</time>
   <time name="total">    6.78    6.82</time>
   <dipole>
    <v name="dipole">      0.00000000       0.00000000       0.01318253 </v>
    <i name="Tr[quadrupol]"> -10305.86511110 </i>
    <i name="Echarged">      0.00000000 </i>
    <i name="Edipol_quadrupol">      0.00000000 </i>
    <i name="Eion">      0.00000000 </i>
   </dipole>
   <energy>
    <i name="e_fr_energy">   -188.34652529 </i>
    <i name="e_wo_entrp">   -188.09016767 </i>
    <i name="e_0_energy">   -188.21834648 </i>
   </energy>
  </scstep>
  <scstep>
   <time name="diag">    1.51    1.51</time>
   <time name="diis">    4.60    4.63</time>
   <time name="orth">    0.37    0.37</time>
   <time name="total">    6.78    6.82</time>
   <dipole>
    <v name="dipole">      0.00000000       0.00000000       0.01261835 </v>
    <i name="Tr[quadrupol]"> -10305.92592137 </i>
    <i name="Echarged">      0.00000000 </i>
    <i name="Edipol_quadrupol">      0.00000000 </i>
    <i name="Eion">      0.00000000 </i>
   </dipole>
   <energy>
    <i name="e_fr_energy">   -188.34680624 </i>
    <i name="e_wo_entrp">   -188.09045028 </i>
    <i name="e_0_energy">   -188.21862826 </i>
   </energy>
  </scstep>
  <scstep>
   <time name="diag">    1.51    1.52</time>
   <time name="diis">    4.71    4.73</time>
   <time name="orth">    0.37    0.37</time>
   <time name="total">    6.89    6.92</time>
   <dipole>
    <v name="dipole">      0.00000000       0.00000000       0.01119405 </v>
    <i name="Tr[quadrupol]"> -10305.99970227 </i>
    <i name="Echarged">      0.00000000 </i>
    <i name="Edipol_quadrupol">      0.00000000 </i>
    <i name="Eion">      0.00000000 </i>
   </dipole>
   <energy>
    <i name="e_fr_energy">   -188.34723741 </i>
    <i name="e_wo_entrp">   -188.09076346 </i>
    <i name="e_0_energy">   -188.21900044 </i>
   </energy>
  </scstep>
  <scstep>
   <time name="diag">    1.51    1.51</time>
   <time name="diis">    4.56    4.68</time>
   <time name="orth">    0.37    0.37</time>
   <time name="total">    6.72    6.86</time>
   <dipole>
    <v name="dipole">      0.00000000       0.00000000       0.01090902 </v>
    <i name="Tr[quadrupol]"> -10306.09827943 </i>
    <i name="Echarged">      0.00000000 </i>
    <i name="Edipol_quadrupol">      0.00000000 </i>
    <i name="Eion">      0.00000000 </i>
   </dipole>
   <energy>
    <i name="e_fr_energy">   -188.34795295 </i>
    <i name="e_wo_entrp">   -188.09152442 </i>
    <i name="e_0_energy">   -188.21973868 </i>
   </energy>
  </scstep>
  <scstep>
   <time name="diag">    1.53    1.54</time>
   <time name="diis">    4.78    4.80</time>
   <time name="orth">    0.37    0.37</time>
   <time name="total">    6.97    7.01</time>
   <dipole>
    <v name="dipole">      0.00000000       0.00000000       0.01048444 </v>
    <i name="Tr[quadrupol]"> -10306.15320177 </i>
    <i name="Echarged">      0.00000000 </i>
    <i name="Edipol_quadrupol">      0.00000000 </i>
    <i name="Eion">      0.00000000 </i>
   </dipole>
   <energy>
    <i name="e_fr_energy">   -188.34840646 </i>
    <i name="e_wo_entrp">   -188.09200515 </i>
    <i name="e_0_energy">   -188.22020580 </i>
   </energy>
  </scstep>
  <scstep>
   <time name="diag">    1.50    1.51</time>
   <time name="diis">    4.48    4.51</time>
   <time name="orth">    0.37    0.37</time>
   <time name="total">    6.65    6.68</time>
   <dipole>
    <v name="dipole">      0.00000000       0.00000000       0.00981074 </v>
    <i name="Tr[quadrupol]"> -10306.20067066 </i>
    <i name="Echarged">      0.00000000 </i>
    <i name="Edipol_quadrupol">      0.00000000 </i>
    <i name="Eion">      0.00000000 </i>
   </dipole>
   <energy>
    <i name="e_fr_energy">   -188.34897541 </i>
    <i name="e_wo_entrp">   -188.09264748 </i>
    <i name="e_0_energy">   -188.22081144 </i>
   </energy>
  </scstep>
  <scstep>
   <time name="diag">    1.52    1.52</time>
   <time name="diis">    4.46    4.48</time>
   <time name="orth">    0.37    0.37</time>
   <time name="total">    6.65    6.68</time>
   <dipole>
    <v name="dipole">      0.00000000       0.00000000       0.00902246 </v>
    <i name="Tr[quadrupol]"> -10306.25774582 </i>
    <i name="Echarged">      0.00000000 </i>
    <i name="Edipol_quadrupol">      0.00000000 </i>
    <i name="Eion">      0.00000000 </i>
   </dipole>
   <energy>
    <i name="e_fr_energy">   -188.34952794 </i>
    <i name="e_wo_entrp">   -188.09315858 </i>
    <i name="e_0_energy">   -188.22134326 </i>
   </energy>
  </scstep>
  <scstep>
   <time name="diag">    1.48    1.52</time>
   <time name="diis">    4.25    4.29</time>
   <time name="orth">    0.37    0.37</time>
   <time name="total">    6.38    6.47</time>
   <dipole>
    <v name="dipole">      0.00000000       0.00000000       0.00827648 </v>
    <i name="Tr[quadrupol]"> -10306.30340600 </i>
    <i name="Echarged">      0.00000000 </i>
    <i name="Edipol_quadrupol">      0.00000000 </i>
    <i name="Eion">      0.00000000 </i>
   </dipole>
   <energy>
    <i name="e_fr_energy">   -188.34988975 </i>
    <i name="e_wo_entrp">   -188.09341810 </i>
    <i name="e_0_energy">   -188.22165392 </i>
   </energy>
  </scstep>
  <scstep>
   <time name="diag">    1.52    1.54</time>
   <time name="diis">    3.49    3.50</time>
   <time name="orth">    0.37    0.37</time>
   <time name="total">    5.67    5.71</time>
   <dipole>
    <v name="dipole">      0.00000000       0.00000000       0.00808923 </v>
    <i name="Tr[quadrupol]"> -10306.31706446 </i>
    <i name="Echarged">      0.00000000 </i>
    <i name="Edipol_quadrupol">      0.00000000 </i>
    <i name="Eion">      0.00000000 </i>
   </dipole>
   <energy>
    <i name="e_fr_energy">   -188.34997838 </i>
    <i name="e_wo_entrp">   -188.09349309 </i>
    <i name="e_0_energy">   -188.22173573 </i>
   </energy>
  </scstep>
  <scstep>
   <time name="diag">    1.50    1.50</time>
   <time name="diis">    3.23    3.28</time>
   <time name="orth">    0.36    0.39</time>
   <time name="total">    5.38    5.49</time>
   <dipole>
    <v name="dipole">      0.00000000       0.00000000       0.00776671 </v>
    <i name="Tr[quadrupol]"> -10306.33171794 </i>
    <i name="Echarged">      0.00000000 </i>
    <i name="Edipol_quadrupol">      0.00000000 </i>
    <i name="Eion">      0.00000000 </i>
   </dipole>
   <energy>
    <i name="e_fr_energy">   -188.35009949 </i>
    <i name="e_wo_entrp">   -188.09362705 </i>
    <i name="e_0_energy">   -188.22186327 </i>
   </energy>
  </scstep>
  <scstep>
   <time name="diag">    1.51    1.52</time>
   <time name="diis">    2.86    2.88</time>
   <time name="orth">    0.37    0.37</time>
   <time name="total">    5.03    5.06</time>
   <dipole>
    <v name="dipole">      0.00000000       0.00000000       0.00757867 </v>
    <i name="Tr[quadrupol]"> -10306.33906641 </i>
    <i name="Echarged">      0.00000000 </i>
    <i name="Edipol_quadrupol">      0.00000000 </i>
    <i name="Eion">      0.00000000 </i>
   </dipole>
   <energy>
    <i name="e_fr_energy">   -188.35014813 </i>
    <i name="e_wo_entrp">   -188.09367874 </i>
    <i name="e_0_energy">   -188.22191344 </i>
   </energy>
  </scstep>
  <scstep>
   <time name="diag">    1.50    1.51</time>
   <time name="diis">    2.81    2.82</time>
   <time name="orth">    0.37    0.37</time>
   <time name="total">    4.97    5.00</time>
   <dipole>
    <v name="dipole">      0.00000000       0.00000000       0.00750347 </v>
    <i name="Tr[quadrupol]"> -10306.34450650 </i>
    <i name="Echarged">      0.00000000 </i>
    <i name="Edipol_quadrupol">      0.00000000 </i>
    <i name="Eion">      0.00000000 </i>
   </dipole>
   <energy>
    <i name="e_fr_energy">   -188.35017678 </i>
    <i name="e_wo_entrp">   -188.09370854 </i>
    <i name="e_0_energy">   -188.22194266 </i>
   </energy>
  </scstep>
  <scstep>
   <time name="diag">    1.52    1.54</time>
   <time name="diis">    2.74    2.75</time>
   <time name="orth">    0.37    0.37</time>
   <time name="total">    4.93    4.96</time>
   <dipole>
    <v name="dipole">      0.00000000       0.00000000       0.00740262 </v>
    <i name="Tr[quadrupol]"> -10306.34902455 </i>
    <i name="Echarged">      0.00000000 </i>
    <i name="Edipol_quadrupol">      0.00000000 </i>
    <i name="Eion">      0.00000000 </i>
   </dipole>
   <energy>
    <i name="e_fr_energy">   -188.35019799 </i>
    <i name="e_wo_entrp">   -188.09372505 </i>
    <i name="e_0_energy">   -188.22196152 </i>
   </energy>
  </scstep>
  <scstep>
   <time name="diag">    1.50    1.51</time>
   <time name="diis">    2.79    2.81</time>
   <time name="orth">    0.37    0.37</time>
   <time name="total">    4.96    4.98</time>
   <dipole>
    <v name="dipole">      0.00000000       0.00000000       0.00728832 </v>
    <i name="Tr[quadrupol]"> -10306.35393533 </i>
    <i name="Echarged">      0.00000000 </i>
    <i name="Edipol_quadrupol">      0.00000000 </i>
    <i name="Eion">      0.00000000 </i>
   </dipole>
   <energy>
    <i name="e_fr_energy">   -188.35021511 </i>
    <i name="e_wo_entrp">   -188.09374272 </i>
    <i name="e_0_energy">   -188.22197891 </i>
   </energy>
  </scstep>
  <scstep>
   <time name="diag">    1.51    1.52</time>
   <time name="diis">    2.54    2.56</time>
   <time name="orth">    0.37    0.37</time>
   <time name="total">    4.72    4.74</time>
   <dipole>
    <v name="dipole">      0.00000000       0.00000000       0.00717634 </v>
    <i name="Tr[quadrupol]"> -10306.35898889 </i>
    <i name="Echarged">      0.00000000 </i>
    <i name="Edipol_quadrupol">      0.00000000 </i>
    <i name="Eion">      0.00000000 </i>
   </dipole>
   <energy>
    <i name="e_fr_energy">   -188.35022291 </i>
    <i name="e_wo_entrp">   -188.09375405 </i>
    <i name="e_0_energy">   -188.22198848 </i>
   </energy>
  </scstep>
  <scstep>
   <time name="diag">    1.50    1.51</time>
   <time name="diis">    2.03    2.04</time>
   <time name="orth">    0.37    0.37</time>
   <time name="total">    3.95    3.97</time>
   <dipole>
    <v name="dipole">      0.00000000       0.00000000       0.00714889 </v>
    <i name="Tr[quadrupol]"> -10306.36034706 </i>
    <i name="Echarged">      0.00000000 </i>
    <i name="Edipol_quadrupol">      0.00000000 </i>
    <i name="Eion">      0.00000000 </i>
   </dipole>
   <energy>
    <i name="alphaZ">    805.87049400 </i>
    <i name="ewald"> 200397.17698802 </i>
    <i name="hartreedc">-242593.12464697 </i>
    <i name="XCdc">   -343.18286433 </i>
    <i name="pawpsdc">  49413.35152280 </i>
    <i name="pawaedc"> -47490.88885775 </i>
    <i name="eentropy">     -0.25646785 </i>
    <i name="bandstr">  -2037.08226373 </i>
    <i name="atom">  41659.78587232 </i>
    <i name="e_fr_energy">   -188.35022349 </i>
    <i name="e_wo_entrp">   -188.09375564 </i>
    <i name="e_0_energy">   -188.22198957 </i>
   </energy>
  </scstep>
  <structure>
   <crystal>
    <varray name="basis" >
     <v>      11.00258152       0.00000000       0.00000000 </v>
     <v>       5.50129076       9.52851510       0.00000000 </v>
     <v>       0.00000000       0.00000000      24.49178509 </v>
    </varray>
    <i name="volume">   2567.67623402 </i>
    <varray name="rec_basis" >
     <v>       0.09088776      -0.05247407       0.00000000 </v>
     <v>       0.00000000       0.10494815       0.00000000 </v>
     <v>       0.00000000       0.00000000       0.04083002 </v>
    </varray>
   </crystal>
   <varray name="positions" >
    <v>       0.25000000       0.75000000       0.59169983 </v>
    <v>       0.58333333       0.83333333       0.40830017 </v>
    <v>       0.41666667       0.91666667       0.50000000 </v>
    <v>       0.41666667       0.16666667       0.50000000 </v>
    <v>       0.58333333       0.08333333       0.40830017 </v>
    <v>       0.66666667       0.91666667       0.50000000 </v>
    <v>       0.33333333       0.83333333       0.40830017 </v>
    <v>       0.66666667       0.16666667       0.50000000 </v>
    <v>       0.16666667       0.66666667       0.50000000 </v>
    <v>       0.33333333       0.58333333       0.40830017 </v>
    <v>       0.25000000       0.25000000       0.59169983 </v>
    <v>       0.16666667       0.41666667       0.50000000 </v>
    <v>       0.50000000       0.50000000       0.59169983 </v>
    <v>       0.25000000       0.00000000       0.59169983 </v>
    <v>       0.33333333       0.33333333       0.40830017 </v>
    <v>       0.66666667       0.41666667       0.50000000 </v>
    <v>       0.91666667       0.91666667       0.50000000 </v>
    <v>       0.00000000       0.50000000       0.59169983 </v>
    <v>       0.83333333       0.58333333       0.40830017 </v>
    <v>       0.08333333       0.58333333       0.40830017 </v>
    <v>       0.91666667       0.41666667       0.50000000 </v>
    <v>       0.75000000       0.50000000       0.59169983 </v>
    <v>       0.00000000       0.00000000       0.59169983 </v>
    <v>       0.83333333       0.83333333       0.40830017 </v>
    <v>       0.83333333       0.33333333       0.40830017 </v>
    <v>       0.75000000       0.25000000       0.59169983 </v>
    <v>       0.83333333       0.08333333       0.40830017 </v>
    <v>       0.66666667       0.66666667       0.50000000 </v>
    <v>       0.50000000       0.75000000       0.59169983 </v>
    <v>       0.75000000       0.00000000       0.59169983 </v>
    <v>       0.41666667       0.66666667       0.50000000 </v>
    <v>       0.08333333       0.08333333       0.40830017 </v>
    <v>       0.50000000       0.25000000       0.59169983 </v>
    <v>       0.41666667       0.41666667       0.50000000 </v>
    <v>       0.58333333       0.33333333       0.40830017 </v>
    <v>       0.50000000       0.00000000       0.59169983 </v>
    <v>       0.16666667       0.91666667       0.50000000 </v>
    <v>       0.25000000       0.50000000       0.59169983 </v>
    <v>       0.16666667       0.16666667       0.50000000 </v>
    <v>       0.33333333       0.08333333       0.40830017 </v>
    <v>       0.00000000       0.75000000       0.59169983 </v>
    <v>       0.08333333       0.83333333       0.40830017 </v>
    <v>       0.91666667       0.66666667       0.50000000 </v>
    <v>       0.00000000       0.25000000       0.59169983 </v>
    <v>       0.08333333       0.33333333       0.40830017 </v>
    <v>       0.91666667       0.16666667       0.50000000 </v>
    <v>       0.58333333       0.58333333       0.40830017 </v>
    <v>       0.75000000       0.75000000       0.59169983 </v>
   </varray>
  </structure>
  <varray name="forces" >
   <v>       0.03194511      -0.17491499       1.32391863 </v>
   <v>      -0.26188357      -0.17993546      -1.64231528 </v>
   <v>      -0.26224452      -0.18108703       0.26556515 </v>
   <v>      -0.14139698       0.08056524       0.32003078 </v>
   <v>       0.14790093       0.24279997      -1.88467324 </v>
   <v>      -0.00298638      -0.50029275       0.91145686 </v>
   <v>      -0.24462356       0.13365882      -1.31030991 </v>
   <v>       0.33849697       0.37294049       0.28619814 </v>
   <v>       0.10157460       0.13317981       0.29245009 </v>
   <v>       0.38857909      -0.05637119      -1.36260684 </v>
   <v>       0.14245703      -0.09031446       1.58489295 </v>
   <v>      -0.03251793      -0.03028367       0.05024856 </v>
   <v>      -0.23851129      -0.10590361       1.34455615 </v>
   <v>       0.09886012       0.06533782       1.34459246 </v>
   <v>      -0.00037987      -0.13033913      -1.64454585 </v>
   <v>      -0.15255926       0.01705181      -0.52586272 </v>
   <v>       0.28371292       0.02660245       0.03677025 </v>
   <v>       0.08733442       0.40202979       1.54903000 </v>
   <v>      -0.23296008      -0.28418209      -1.37012419 </v>
   <v>      -0.13909013       0.06201793      -1.62672589 </v>
   <v>      -0.06029385      -0.43723479      -0.31619825 </v>
   <v>      -0.00428353       0.19247918       1.57041289 </v>
   <v>      -0.22541399       0.29465810       1.35708777 </v>
   <v>       0.35682590       0.05657545      -1.64600601 </v>
   <v>      -0.06281716      -0.16583530      -0.76855445 </v>
   <v>      -0.01189150      -0.21651831       0.84409204 </v>
   <v>       0.36288395       0.15648573      -0.83943995 </v>
   <v>      -0.10894646       0.05675381       0.18140446 </v>
   <v>       0.23851182       0.08243831       0.72923600 </v>
   <v>      -0.12733747       0.01444360       0.97870974 </v>
   <v>       0.21939064       0.00842411      -0.02598193 </v>
   <v>      -0.08842244       0.19152177      -0.48525532 </v>
   <v>       0.09676816      -0.09281728       0.89191310 </v>
   <v>       0.15732533       0.01905219       0.17972182 </v>
   <v>       0.25385747       0.06771179      -0.85476544 </v>
   <v>       0.19715381      -0.13509984       0.96549346 </v>
   <v>      -0.02805439       0.27817037      -0.34056850 </v>
   <v>       0.09345685      -0.05438829       0.91061995 </v>
   <v>      -0.43007640      -0.10594916      -0.38598827 </v>
   <v>      -0.34580600       0.18208878      -0.91536190 </v>
   <v>      -0.27382402      -0.02470480       0.88593661 </v>
   <v>       0.09043126       0.35645400      -0.86429766 </v>
   <v>      -0.17635446       0.13454960       0.36842055 </v>
   <v>      -0.19259974      -0.13833434       0.74746871 </v>
   <v>      -0.17619048      -0.37039112      -0.85352582 </v>
   <v>       0.32457033      -0.09855349      -0.26609759 </v>
   <v>       0.01737122      -0.20694685      -0.69632715 </v>
   <v>      -0.00794248       0.15240704       0.70530508 </v>
  </varray>
  <energy>
   <i name="e_fr_energy">   -188.35022349 </i>
   <i name="e_wo_entrp">   -188.22198957 </i>
   <i name="e_0_energy">     -0.25646785 </i>
  </energy>
  <time name="totalsc">  268.36  270.47</time>
 </calculation>
 <calculation>
  <scstep>
   <time name="dav">    8.85    8.98</time>
   <time name="total">    9.13    9.26</time>
   <dipole>
    <v name="dipole">      0.00000000       0.00000000       0.00709597 </v>
    <i name="Tr[quadrupol]"> -10294.62187950 </i>
    <i name="Echarged">      0.00000000 </i>
    <i name="Edipol_quadrupol">      0.00000000 </i>
    <i name="Eion">      0.00000000 </i>
   </dipole>
   <energy>
    <i name="alphaZ">    805.87050410 </i>
    <i name="ewald"> 197651.76004761 </i>
    <i name="hartreedc">-239864.21345056 </i>
    <i name="XCdc">   -345.44255834 </i>
    <i name="pawpsdc">  49413.35312142 </i>
    <i name="pawaedc"> -47490.89054846 </i>
    <i name="eentropy">     -0.25073242 </i>
    <i name="bandstr">  -2019.42724629 </i>
    <i name="atom">  41659.78587232 </i>
    <i name="e_fr_energy">   -189.45499062 </i>
    <i name="e_wo_entrp">   -189.20425820 </i>
    <i name="e_0_energy">   -189.32962441 </i>
   </energy>
  </scstep>
  <scstep>
   <time name="diag">    1.52    1.53</time>
   <time name="diis">    4.61    4.65</time>
   <time name="orth">    0.37    0.37</time>
   <time name="total">    6.79    6.84</time>
   <dipole>
    <v name="dipole">      0.00000000       0.00000000       0.00936717 </v>
    <i name="Tr[quadrupol]"> -10294.36282776 </i>
    <i name="Echarged">      0.00000000 </i>
    <i name="Edipol_quadrupol">      0.00000000 </i>
    <i name="Eion">      0.00000000 </i>
   </dipole>
   <energy>
    <i name="e_fr_energy">   -189.84518204 </i>
    <i name="e_wo_entrp">   -189.60038546 </i>
    <i name="e_0_energy">   -189.72278375 </i>
   </energy>
  </scstep>
  <scstep>
   <time name="diag">    1.52    1.52</time>
   <time name="diis">    4.84    4.86</time>
   <time name="orth">    0.37    0.37</time>
   <time name="total">    7.01    7.04</time>
   <dipole>
    <v name="dipole">      0.00000000       0.00000000      -0.03114752 </v>
    <i name="Tr[quadrupol]"> -10294.82926083 </i>
    <i name="Echarged">      0.00000000 </i>
    <i name="Edipol_quadrupol">      0.00000000 </i>
    <i name="Eion">      0.00000000 </i>
   </dipole>
   <energy>
    <i name="e_fr_energy">   -189.95642792 </i>
    <i name="e_wo_entrp">   -189.69769705 </i>
    <i name="e_0_energy">   -189.82706249 </i>
   </energy>
  </scstep>
  <scstep>
   <time name="diag">    1.50    1.51</time>
   <time name="diis">    4.69    4.71</time>
   <time name="orth">    0.37    0.37</time>
   <time name="total">    6.84    6.88</time>
   <dipole>
    <v name="dipole">      0.00000000       0.00000000       0.04950028 </v>
    <i name="Tr[quadrupol]"> -10294.72354706 </i>
    <i name="Echarged">      0.00000000 </i>
    <i name="Edipol_quadrupol">      0.00000000 </i>
    <i name="Eion">      0.00000000 </i>
   </dipole>
   <energy>
    <i name="e_fr_energy">   -189.85612336 </i>
    <i name="e_wo_entrp">   -189.61754307 </i>
    <i name="e_0_energy">   -189.73683321 </i>
   </energy>
  </scstep>
  <scstep>
   <time name="diag">    1.50    1.51</time>
   <time name="diis">    4.71    4.73</time>
   <time name="orth">    0.37    0.37</time>
   <time name="total">    6.85    6.89</time>
   <dipole>
    <v name="dipole">      0.00000000       0.00000000      -0.06328498 </v>
    <i name="Tr[quadrupol]"> -10294.69220485 </i>
    <i name="Echarged">      0.00000000 </i>
    <i name="Edipol_quadrupol">      0.00000000 </i>
    <i name="Eion">      0.00000000 </i>
   </dipole>
   <energy>
    <i name="e_fr_energy">   -189.91934843 </i>
    <i name="e_wo_entrp">   -189.67108842 </i>
    <i name="e_0_energy">   -189.79521842 </i>
   </energy>
  </scstep>
  <scstep>
   <time name="diag">    1.52    1.53</time>
   <time name="diis">    4.70    4.72</time>
   <time name="orth">    0.37    0.37</time>
   <time name="total">    6.88    6.92</time>
   <dipole>
    <v name="dipole">      0.00000000       0.00000000       0.01237755 </v>
    <i name="Tr[quadrupol]"> -10294.68892018 </i>
    <i name="Echarged">      0.00000000 </i>
    <i name="Edipol_quadrupol">      0.00000000 </i>
    <i name="Eion">      0.00000000 </i>
   </dipole>
   <energy>
    <i name="e_fr_energy">   -189.82560719 </i>
    <i name="e_wo_entrp">   -189.57793239 </i>
    <i name="e_0_energy">   -189.70176979 </i>
   </energy>
  </scstep>
  <scstep>
   <time name="diag">    1.52    1.53</time>
   <time name="diis">    4.53    4.65</time>
   <time name="orth">    0.38    0.38</time>
   <time name="total">    6.73    6.86</time>
   <dipole>
    <v name="dipole">      0.00000000       0.00000000       0.00385218 </v>
    <i name="Tr[quadrupol]"> -10294.67489086 </i>
    <i name="Echarged">      0.00000000 </i>
    <i name="Edipol_quadrupol">      0.00000000 </i>
    <i name="Eion">      0.00000000 </i>
   </dipole>
   <energy>
    <i name="e_fr_energy">   -189.81822818 </i>
    <i name="e_wo_entrp">   -189.56499852 </i>
    <i name="e_0_energy">   -189.69161335 </i>
   </energy>
  </scstep>
  <scstep>
   <time name="diag">    1.50    1.51</time>
   <time name="diis">    4.64    4.66</time>
   <time name="orth">    0.37    0.37</time>
   <time name="total">    6.80    6.84</time>
   <dipole>
    <v name="dipole">      0.00000000       0.00000000       0.00481625 </v>
    <i name="Tr[quadrupol]"> -10294.64604490 </i>
    <i name="Echarged">      0.00000000 </i>
    <i name="Edipol_quadrupol">      0.00000000 </i>
    <i name="Eion">      0.00000000 </i>
   </dipole>
   <energy>
    <i name="e_fr_energy">   -189.81703112 </i>
    <i name="e_wo_entrp">   -189.56618641 </i>
    <i name="e_0_energy">   -189.69160876 </i>
   </energy>
  </scstep>
  <scstep>
   <time name="diag">    1.50    1.50</time>
   <time name="diis">    4.73    4.75</time>
   <time name="orth">    0.37    0.37</time>
   <time name="total">    6.88    6.91</time>
   <dipole>
    <v name="dipole">      0.00000000       0.00000000       0.00750153 </v>
    <i name="Tr[quadrupol]"> -10294.64265035 </i>
    <i name="Echarged">      0.00000000 </i>
    <i name="Edipol_quadrupol">      0.00000000 </i>
    <i name="Eion">      0.00000000 </i>
   </dipole>
   <energy>
    <i name="e_fr_energy">   -189.81649089 </i>
    <i name="e_wo_entrp">   -189.56437759 </i>
    <i name="e_0_energy">   -189.69043424 </i>
   </energy>
  </scstep>
  <scstep>
   <time name="diag">    1.52    1.52</time>
   <time name="diis">    4.65    4.67</time>
   <time name="orth">    0.37    0.37</time>
   <time name="total">    6.82    6.85</time>
   <dipole>
    <v name="dipole">      0.00000000       0.00000000       0.00478751 </v>
    <i name="Tr[quadrupol]"> -10294.63891593 </i>
    <i name="Echarged">      0.00000000 </i>
    <i name="Edipol_quadrupol">      0.00000000 </i>
    <i name="Eion">      0.00000000 </i>
   </dipole>
   <energy>
    <i name="e_fr_energy">   -189.81626758 </i>
    <i name="e_wo_entrp">   -189.56450259 </i>
    <i name="e_0_energy">   -189.69038508 </i>
   </energy>
  </scstep>
  <scstep>
   <time name="diag">    1.50    1.53</time>
   <time name="diis">    4.66    4.71</time>
   <time name="orth">    0.37    0.37</time>
   <time name="total">    6.82    6.89</time>
   <dipole>
    <v name="dipole">      0.00000000       0.00000000       0.00549773 </v>
    <i name="Tr[quadrupol]"> -10294.64105208 </i>
    <i name="Echarged">      0.00000000 </i>
    <i name="Edipol_quadrupol">      0.00000000 </i>
    <i name="Eion">      0.00000000 </i>
   </dipole>
   <energy>
    <i name="e_fr_energy">   -189.81619691 </i>
    <i name="e_wo_entrp">   -189.56416993 </i>
    <i name="e_0_energy">   -189.69018342 </i>
   </energy>
  </scstep>
  <scstep>
   <time name="diag">    1.51    1.51</time>
   <time name="diis">    4.68    4.70</time>
   <time name="orth">    0.37    0.37</time>
   <time name="total">    6.84    6.88</time>
   <dipole>
    <v name="dipole">      0.00000000       0.00000000       0.00554621 </v>
    <i name="Tr[quadrupol]"> -10294.64434172 </i>
    <i name="Echarged">      0.00000000 </i>
    <i name="Edipol_quadrupol">      0.00000000 </i>
    <i name="Eion">      0.00000000 </i>
   </dipole>
   <energy>
    <i name="e_fr_energy">   -189.81618538 </i>
    <i name="e_wo_entrp">   -189.56415621 </i>
    <i name="e_0_energy">   -189.69017080 </i>
   </energy>
  </scstep>
  <scstep>
   <time name="diag">    1.49    1.50</time>
   <time name="diis">    4.60    4.72</time>
   <time name="orth">    0.37    0.37</time>
   <time name="total">    6.75    6.88</time>
   <dipole>
    <v name="dipole">      0.00000000       0.00000000       0.00552021 </v>
    <i name="Tr[quadrupol]"> -10294.64919231 </i>
    <i name="Echarged">      0.00000000 </i>
    <i name="Edipol_quadrupol">      0.00000000 </i>
    <i name="Eion">      0.00000000 </i>
   </dipole>
   <energy>
    <i name="e_fr_energy">   -189.81617738 </i>
    <i name="e_wo_entrp">   -189.56422569 </i>
    <i name="e_0_energy">   -189.69020154 </i>
   </energy>
  </scstep>
  <scstep>
   <time name="diag">    1.52    1.53</time>
   <time name="diis">    4.44    4.46</time>
   <time name="orth">    0.38    0.38</time>
   <time name="total">    6.62    6.66</time>
   <dipole>
    <v name="dipole">      0.00000000       0.00000000       0.00549134 </v>
    <i name="Tr[quadrupol]"> -10294.65302020 </i>
    <i name="Echarged">      0.00000000 </i>
    <i name="Edipol_quadrupol">      0.00000000 </i>
    <i name="Eion">      0.00000000 </i>
   </dipole>
   <energy>
    <i name="e_fr_energy">   -189.81617425 </i>
    <i name="e_wo_entrp">   -189.56425794 </i>
    <i name="e_0_energy">   -189.69021610 </i>
   </energy>
  </scstep>
  <scstep>
   <time name="diag">    1.51    1.52</time>
   <time name="diis">    3.23    3.25</time>
   <time name="orth">    0.37    0.37</time>
   <time name="total">    5.17    5.20</time>
   <dipole>
    <v name="dipole">      0.00000000       0.00000000       0.00543653 </v>
    <i name="Tr[quadrupol]"> -10294.65524256 </i>
    <i name="Echarged">      0.00000000 </i>
    <i name="Edipol_quadrupol">      0.00000000 </i>
    <i name="Eion">      0.00000000 </i>
   </dipole>
   <energy>
    <i name="alphaZ">    805.87023786 </i>
    <i name="ewald"> 197651.76004761 </i>
    <i name="hartreedc">-239865.80737356 </i>
    <i name="XCdc">   -345.38226574 </i>
    <i name="pawpsdc">  48957.26645310 </i>
    <i name="pawaedc"> -47031.60123791 </i>
    <i name="eentropy">     -0.25191524 </i>
    <i name="bandstr">  -2021.45599250 </i>
    <i name="atom">  41659.78587232 </i>
    <i name="e_fr_energy">   -189.81617404 </i>
    <i name="e_wo_entrp">   -189.56425881 </i>
    <i name="e_0_energy">   -189.69021642 </i>
   </energy>
  </scstep>
  <structure>
   <crystal>
    <varray name="basis" >
     <v>      11.00258152       0.00000000       0.00000000 </v>
     <v>       5.50129076       9.52851510       0.00000000 </v>
     <v>       0.00000000       0.00000000      24.49178509 </v>
    </varray>
    <i name="volume">   2567.67623402 </i>
    <varray name="rec_basis" >
     <v>       0.09088776      -0.05247407       0.00000000 </v>
     <v>       0.00000000       0.10494815       0.00000000 </v>
     <v>       0.00000000       0.00000000       0.04083002 </v>
    </varray>
   </crystal>
   <varray name="positions" >
    <v>       0.25040800       0.74938009       0.59352528 </v>
    <v>       0.58284840       0.83269563       0.40603571 </v>
    <v>       0.41618266       0.91602488       0.50036617 </v>
    <v>       0.41608992       0.16695220       0.50044127 </v>
    <v>       0.58335703       0.08419384       0.40570154 </v>
    <v>       0.66754404       0.91489359       0.50125674 </v>
    <v>       0.33234567       0.83380703       0.40649348 </v>
    <v>       0.66704474       0.16798840       0.50039462 </v>
    <v>       0.16674243       0.66713867       0.50040324 </v>
    <v>       0.33462588       0.58313355       0.40642137 </v>
    <v>       0.25059728       0.24967992       0.59388512 </v>
    <v>       0.16662052       0.41655934       0.50006928 </v>
    <v>       0.49945561       0.49962467       0.59355374 </v>
    <v>       0.25018765       0.00023156       0.59355379 </v>
    <v>       0.33356313       0.33287140       0.40603263 </v>
    <v>       0.66616821       0.41672710       0.49927493 </v>
    <v>       0.91749032       0.91676095       0.50005070 </v>
    <v>      -0.00044436       0.50142483       0.59383567 </v>
    <v>       0.83312190       0.58232617       0.40641101 </v>
    <v>       0.08279653       0.58355313       0.40605720 </v>
    <v>       0.91725641       0.41511707       0.49956402 </v>
    <v>       0.74964577       0.50068216       0.59386515 </v>
    <v>      -0.00121400       0.00104429       0.59357102 </v>
    <v>       0.83432827       0.83353384       0.40603062 </v>
    <v>       0.83343440       0.33274560       0.40724047 </v>
    <v>       0.75034718       0.24923264       0.59286368 </v>
    <v>       0.83416982       0.08388793       0.40714273 </v>
    <v>       0.66623171       0.66686781       0.50025012 </v>
    <v>       0.50058597       0.75029217       0.59270532 </v>
    <v>       0.74958357       0.00005119       0.59304930 </v>
    <v>       0.41732511       0.66669652       0.49996418 </v>
    <v>       0.08272256       0.08401210       0.40763109 </v>
    <v>       0.50046148       0.24967105       0.59292962 </v>
    <v>       0.41711578       0.41673419       0.50024780 </v>
    <v>       0.58399250       0.33357331       0.40712160 </v>
    <v>       0.50084452      -0.00047881       0.59303108 </v>
    <v>       0.16608763       0.91765253       0.49953042 </v>
    <v>       0.25038322       0.49980724       0.59295542 </v>
    <v>       0.16553439       0.16629117       0.49946779 </v>
    <v>       0.33194929       0.08397867       0.40703805 </v>
    <v>      -0.00079666       0.74991244       0.59292138 </v>
    <v>       0.08297924       0.83459664       0.40710846 </v>
    <v>       0.91588696       0.66714352       0.50050799 </v>
    <v>      -0.00034601       0.24950973       0.59273046 </v>
    <v>       0.08344891       0.33202064       0.40712331 </v>
    <v>       0.91783750       0.16631738       0.49963310 </v>
    <v>       0.58375337       0.58259990       0.40734006 </v>
    <v>       0.74970555       0.75054014       0.59267232 </v>
   </varray>
  </structure>
  <varray name="forces" >
   <v>       0.01884267      -0.01426089       0.96562355 </v>
   <v>      -0.09402219      -0.01174660      -1.10428986 </v>
   <v>      -0.14487261      -0.05992483       0.04582168 </v>
   <v>      -0.03236585      -0.02485919       0.06146133 </v>
   <v>       0.10487025       0.04455055      -1.17066966 </v>
   <v>       0.01132644      -0.13897633       0.17601584 </v>
   <v>      -0.12363514       0.09591665      -0.98584705 </v>
   <v>       0.08818973       0.04499771       0.05520928 </v>
   <v>       0.09603718       0.02346356       0.05168728 </v>
   <v>       0.15865095      -0.03577727      -0.95962081 </v>
   <v>       0.03267952      -0.02402654       1.16279713 </v>
   <v>      -0.02878396       0.02120177       0.00245466 </v>
   <v>      -0.04934362      -0.09923252       0.97998117 </v>
   <v>       0.02548427       0.03760157       0.99909000 </v>
   <v>      -0.00298409      -0.04611344      -1.13566798 </v>
   <v>      -0.00109006       0.09851176      -0.11076549 </v>
   <v>       0.09754938       0.04914675       0.00655323 </v>
   <v>       0.01810369       0.15724480       1.09628565 </v>
   <v>      -0.12213371      -0.15787465      -0.97212339 </v>
   <v>      -0.04179830       0.01655901      -1.10320569 </v>
   <v>      -0.03522279      -0.10719352      -0.03924113 </v>
   <v>      -0.02680655       0.05582068       1.07413210 </v>
   <v>      -0.11839753       0.10940093       1.00585604 </v>
   <v>       0.10969744       0.09937375      -1.09291813 </v>
   <v>      -0.05022762      -0.11912883      -0.68561942 </v>
   <v>       0.01348927      -0.04071938       0.64172670 </v>
   <v>       0.19460894       0.10718496      -0.63962749 </v>
   <v>      -0.03209292      -0.07166979       0.05062477 </v>
   <v>       0.12881491       0.04329405       0.61874580 </v>
   <v>      -0.06179066       0.03006535       0.78237510 </v>
   <v>       0.06049798       0.01974672       0.00198667 </v>
   <v>      -0.06344910       0.12974078      -0.51539606 </v>
   <v>       0.06209897      -0.09314508       0.72340365 </v>
   <v>       0.01908427       0.06055410       0.02608926 </v>
   <v>       0.14378479      -0.01062734      -0.70981248 </v>
   <v>       0.09708767      -0.05677079       0.79541993 </v>
   <v>       0.01546842       0.11857863      -0.05131178 </v>
   <v>       0.01515501      -0.06033410       0.70275370 </v>
   <v>      -0.15033985      -0.10149458      -0.09630404 </v>
   <v>      -0.15927259       0.07114182      -0.64384512 </v>
   <v>      -0.13858657       0.04346951       0.71475161 </v>
   <v>       0.06212223       0.17792829      -0.66496049 </v>
   <v>      -0.09503455      -0.03064361       0.05101297 </v>
   <v>      -0.08566536      -0.00547212       0.56062695 </v>
   <v>      -0.08391724      -0.20360652      -0.70223485 </v>
   <v>       0.15785661      -0.10348101      -0.09084242 </v>
   <v>       0.02801780      -0.10110734      -0.58697560 </v>
   <v>      -0.01768554       0.06269253       0.70879285 </v>
  </varray>
  <energy>
   <i name="e_fr_energy">   -189.81617404 </i>
   <i name="e_wo_entrp">   -189.69021642 </i>
   <i name="e_0_energy">     -0.25191524 </i>
  </energy>
  <time name="totalsc">  106.08  107.01</time>
 </calculation>
 <calculation>
  <scstep>
   <time name="dav">    8.89    8.94</time>
   <time name="total">    9.17    9.23</time>
   <dipole>
    <v name="dipole">      0.00000000       0.00000000       0.00539841 </v>
    <i name="Tr[quadrupol]"> -10260.10894336 </i>
    <i name="Echarged">      0.00000000 </i>
    <i name="Edipol_quadrupol">      0.00000000 </i>
    <i name="Eion">      0.00000000 </i>
   </dipole>
   <energy>
    <i name="alphaZ">    805.87027384 </i>
    <i name="ewald"> 189533.87902475 </i>
    <i name="hartreedc">-231790.79767611 </i>
    <i name="XCdc">   -351.04127803 </i>
    <i name="pawpsdc">  48957.14736180 </i>
    <i name="pawaedc"> -47031.48208311 </i>
    <i name="eentropy">     -0.23345676 </i>
    <i name="bandstr">  -1971.49999264 </i>
    <i name="atom">  41659.78587232 </i>
    <i name="e_fr_energy">   -188.37195394 </i>
    <i name="e_wo_entrp">   -188.13849718 </i>
    <i name="e_0_energy">   -188.25522556 </i>
   </energy>
  </scstep>
  <scstep>
   <time name="diag">    1.50    1.51</time>
   <time name="diis">    4.65    4.67</time>
   <time name="orth">    0.37    0.37</time>
   <time name="total">    6.80    6.84</time>
   <dipole>
    <v name="dipole">      0.00000000       0.00000000       0.01582847 </v>
    <i name="Tr[quadrupol]"> -10259.27819028 </i>
    <i name="Echarged">      0.00000000 </i>
    <i name="Edipol_quadrupol">      0.00000000 </i>
    <i name="Eion">      0.00000000 </i>
   </dipole>
   <energy>
    <i name="e_fr_energy">   -191.81009882 </i>
    <i name="e_wo_entrp">   -191.59185070 </i>
    <i name="e_0_energy">   -191.70097476 </i>
   </energy>
  </scstep>
  <scstep>
   <time name="diag">    1.49    1.50</time>
   <time name="diis">    4.69    4.82</time>
   <time name="orth">    0.37    0.37</time>
   <time name="total">    6.84    6.98</time>
   <dipole>
    <v name="dipole">      0.00000000       0.00000000      -0.11982564 </v>
    <i name="Tr[quadrupol]"> -10260.40105882 </i>
    <i name="Echarged">      0.00000000 </i>
    <i name="Edipol_quadrupol">      0.00000000 </i>
    <i name="Eion">      0.00000000 </i>
   </dipole>
   <energy>
    <i name="e_fr_energy">   -192.38164806 </i>
    <i name="e_wo_entrp">   -192.15548933 </i>
    <i name="e_0_energy">   -192.26856870 </i>
   </energy>
  </scstep>
  <scstep>
   <time name="diag">    1.52    1.53</time>
   <time name="diis">    4.58    4.63</time>
   <time name="orth">    0.37    0.37</time>
   <time name="total">    6.76    6.82</time>
   <dipole>
    <v name="dipole">      0.00000000       0.00000000       0.07357208 </v>
    <i name="Tr[quadrupol]"> -10260.17866780 </i>
    <i name="Echarged">      0.00000000 </i>
    <i name="Edipol_quadrupol">      0.00000000 </i>
    <i name="Eion">      0.00000000 </i>
   </dipole>
   <energy>
    <i name="e_fr_energy">   -191.71672111 </i>
    <i name="e_wo_entrp">   -191.50339126 </i>
    <i name="e_0_energy">   -191.61005618 </i>
   </energy>
  </scstep>
  <scstep>
   <time name="diag">    1.52    1.53</time>
   <time name="diis">    4.61    4.63</time>
   <time name="orth">    0.37    0.37</time>
   <time name="total">    6.78    6.82</time>
   <dipole>
    <v name="dipole">      0.00000000       0.00000000      -0.16624573 </v>
    <i name="Tr[quadrupol]"> -10260.16311660 </i>
    <i name="Echarged">      0.00000000 </i>
    <i name="Edipol_quadrupol">      0.00000000 </i>
    <i name="Eion">      0.00000000 </i>
   </dipole>
   <energy>
    <i name="e_fr_energy">   -192.19079618 </i>
    <i name="e_wo_entrp">   -191.97398732 </i>
    <i name="e_0_energy">   -192.08239175 </i>
   </energy>
  </scstep>
  <scstep>
   <time name="diag">    1.50    1.51</time>
   <time name="diis">    4.66    4.68</time>
   <time name="orth">    0.37    0.37</time>
   <time name="total">    6.82    6.85</time>
   <dipole>
    <v name="dipole">      0.00000000       0.00000000       0.05773141 </v>
    <i name="Tr[quadrupol]"> -10260.31069715 </i>
    <i name="Echarged">      0.00000000 </i>
    <i name="Edipol_quadrupol">      0.00000000 </i>
    <i name="Eion">      0.00000000 </i>
   </dipole>
   <energy>
    <i name="e_fr_energy">   -191.68424584 </i>
    <i name="e_wo_entrp">   -191.45398167 </i>
    <i name="e_0_energy">   -191.56911376 </i>
   </energy>
  </scstep>
  <scstep>
   <time name="diag">    1.50    1.51</time>
   <time name="diis">    4.62    4.64</time>
   <time name="orth">    0.37    0.37</time>
   <time name="total">    6.77    6.81</time>
   <dipole>
    <v name="dipole">      0.00000000       0.00000000      -0.01694569 </v>
    <i name="Tr[quadrupol]"> -10260.19759425 </i>
    <i name="Echarged">      0.00000000 </i>
    <i name="Edipol_quadrupol">      0.00000000 </i>
    <i name="Eion">      0.00000000 </i>
   </dipole>
   <energy>
    <i name="e_fr_energy">   -191.58631176 </i>
    <i name="e_wo_entrp">   -191.35269025 </i>
    <i name="e_0_energy">   -191.46950101 </i>
   </energy>
  </scstep>
  <scstep>
   <time name="diag">    1.51    1.52</time>
   <time name="diis">    4.64    4.67</time>
   <time name="orth">    0.37    0.37</time>
   <time name="total">    6.82    6.85</time>
   <dipole>
    <v name="dipole">      0.00000000       0.00000000       0.01038296 </v>
    <i name="Tr[quadrupol]"> -10260.13226881 </i>
    <i name="Echarged">      0.00000000 </i>
    <i name="Edipol_quadrupol">      0.00000000 </i>
    <i name="Eion">      0.00000000 </i>
   </dipole>
   <energy>
    <i name="e_fr_energy">   -191.55872283 </i>
    <i name="e_wo_entrp">   -191.31456206 </i>
    <i name="e_0_energy">   -191.43664245 </i>
   </energy>
  </scstep>
  <scstep>
   <time name="diag">    1.52    1.53</time>
   <time name="diis">    4.61    4.72</time>
   <time name="orth">    0.37    0.37</time>
   <time name="total">    6.78    6.91</time>
   <dipole>
    <v name="dipole">      0.00000000       0.00000000      -0.00180502 </v>
    <i name="Tr[quadrupol]"> -10260.08254113 </i>
    <i name="Echarged">      0.00000000 </i>
    <i name="Edipol_quadrupol">      0.00000000 </i>
    <i name="Eion">      0.00000000 </i>
   </dipole>
   <energy>
    <i name="e_fr_energy">   -191.54341899 </i>
    <i name="e_wo_entrp">   -191.30669750 </i>
    <i name="e_0_energy">   -191.42505824 </i>
   </energy>
  </scstep>
  <scstep>
   <time name="diag">    1.50    1.51</time>
   <time name="diis">    4.67    4.69</time>
   <time name="orth">    0.37    0.37</time>
   <time name="total">    6.83    6.87</time>
   <dipole>
    <v name="dipole">      0.00000000       0.00000000      -0.00063571 </v>
    <i name="Tr[quadrupol]"> -10260.08115373 </i>
    <i name="Echarged">      0.00000000 </i>
    <i name="Edipol_quadrupol">      0.00000000 </i>
    <i name="Eion">      0.00000000 </i>
   </dipole>
   <energy>
    <i name="e_fr_energy">   -191.54219361 </i>
    <i name="e_wo_entrp">   -191.30253409 </i>
    <i name="e_0_energy">   -191.42236385 </i>
   </energy>
  </scstep>
  <scstep>
   <time name="diag">    1.50    1.50</time>
   <time name="diis">    4.62    4.64</time>
   <time name="orth">    0.37    0.37</time>
   <time name="total">    6.77    6.81</time>
   <dipole>
    <v name="dipole">      0.00000000       0.00000000      -0.00086768 </v>
    <i name="Tr[quadrupol]"> -10260.08717555 </i>
    <i name="Echarged">      0.00000000 </i>
    <i name="Edipol_quadrupol">      0.00000000 </i>
    <i name="Eion">      0.00000000 </i>
[...]
       <r>    2.3234    0.0000 </r>
       <r>    2.3457    0.0000 </r>
       <r>    2.4552    0.0000 </r>
       <r>    2.5501    0.0000 </r>
       <r>    2.7031    0.0000 </r>
       <r>    3.0093    0.0000 </r>
       <r>    3.1684    0.0000 </r>
       <r>    3.2814    0.0000 </r>
       <r>    3.5146    0.0000 </r>
       <r>    3.6006    0.0000 </r>
       <r>    3.7333    0.0000 </r>
       <r>    4.0374    0.0000 </r>
       <r>    4.0927    0.0000 </r>
       <r>    4.1878    0.0000 </r>
       <r>    4.4655    0.0000 </r>
       <r>    4.4977    0.0000 </r>
       <r>    4.5946    0.0000 </r>
       <r>    4.6514    0.0000 </r>
       <r>    4.7346    0.0000 </r>
       <r>    4.8298    0.0000 </r>
       <r>    4.8997    0.0000 </r>
       <r>    4.9403    0.0000 </r>
       <r>    4.9838    0.0000 </r>
       <r>    5.0146    0.0000 </r>
       <r>    5.0573    0.0000 </r>
       <r>    5.0730    0.0000 </r>
       <r>    5.2086    0.0000 </r>
       <r>    5.2490    0.0000 </r>
      </set>
     </set>
    </set>
   </array>
  </eigenvalues>
  <separator name="orbital magnetization" >
   <v name="MAGDIPOLOUT">      0.00000000      0.00000000      0.00000000</v>
  </separator>
  <dos>
   <i name="efermi">     -1.09421357 </i>
   <total>
    <array>
     <dimension dim="1">gridpoints</dimension>
     <dimension dim="2">spin</dimension>
     <field>energy</field>
     <field>total</field>
     <field>integrated</field>
     <set>
      <set comment="spin 1">
       <r>    -9.7579     0.0000     0.0000 </r>
       <r>    -9.7040     0.0000     0.0000 </r>
       <r>    -9.6501     0.0000     0.0000 </r>
       <r>    -9.5962     0.0000     0.0000 </r>
       <r>    -9.5424     0.0000     0.0000 </r>
       <r>    -9.4885     0.0000     0.0000 </r>
       <r>    -9.4346     0.0000     0.0000 </r>
       <r>    -9.3807     0.0000     0.0000 </r>
       <r>    -9.3269     0.0000     0.0000 </r>
       <r>    -9.2730     0.0000     0.0000 </r>
       <r>    -9.2191     0.0000     0.0000 </r>
       <r>    -9.1652     0.0000     0.0000 </r>
       <r>    -9.1114     0.0000     0.0000 </r>
       <r>    -9.0575     0.0001     0.0000 </r>
       <r>    -9.0036     0.0031     0.0002 </r>
       <r>    -8.9497     0.0413     0.0024 </r>
       <r>    -8.8959     0.3200     0.0196 </r>
       <r>    -8.8420     1.4255     0.0964 </r>
       <r>    -8.7881     3.6637     0.2938 </r>
       <r>    -8.7342     5.4760     0.5888 </r>
       <r>    -8.6804     5.0185     0.8592 </r>
       <r>    -8.6265     3.8337     1.0657 </r>
       <r>    -8.5726     4.3353     1.2993 </r>
       <r>    -8.5188     5.3401     1.5870 </r>
       <r>    -8.4649     4.4810     1.8284 </r>
       <r>    -8.4110     2.3186     1.9533 </r>
       <r>    -8.3571     0.7940     1.9961 </r>
       <r>    -8.3033     0.4997     2.0230 </r>
       <r>    -8.2494     1.1052     2.0825 </r>
       <r>    -8.1955     2.0556     2.1933 </r>
       <r>    -8.1416     2.9338     2.3513 </r>
       <r>    -8.0878     4.0678     2.5705 </r>
       <r>    -8.0339     5.6814     2.8766 </r>
       <r>    -7.9800     7.6217     3.2872 </r>
       <r>    -7.9261     9.4515     3.7964 </r>
       <r>    -7.8723     9.6185     4.3145 </r>
       <r>    -7.8184     7.4644     4.7167 </r>
       <r>    -7.7645     4.9545     4.9836 </r>
       <r>    -7.7106     4.6452     5.2339 </r>
       <r>    -7.6568     6.3561     5.5763 </r>
       <r>    -7.6029     7.6860     5.9904 </r>
       <r>    -7.5490     8.0151     6.4222 </r>
       <r>    -7.4952     8.8177     6.8972 </r>
       <r>    -7.4413    10.8918     7.4840 </r>
       <r>    -7.3874    12.7151     8.1690 </r>
       <r>    -7.3335    12.6075     8.8482 </r>
       <r>    -7.2797    12.0002     9.4947 </r>
       <r>    -7.2258    12.6670    10.1771 </r>
       <r>    -7.1719    14.1645    10.9402 </r>
       <r>    -7.1180    16.1138    11.8083 </r>
       <r>    -7.0642    18.2918    12.7938 </r>
       <r>    -7.0103    20.8285    13.9159 </r>
       <r>    -6.9564    25.7180    15.3014 </r>
       <r>    -6.9025    32.9164    17.0747 </r>
       <r>    -6.8487    38.0031    19.1221 </r>
       <r>    -6.7948    38.4889    21.1957 </r>
       <r>    -6.7409    37.1038    23.1946 </r>
       <r>    -6.6870    36.3684    25.1539 </r>
       <r>    -6.6332    37.2377    27.1600 </r>
       <r>    -6.5793    40.4755    29.3406 </r>
       <r>    -6.5254    44.8714    31.7580 </r>
       <r>    -6.4716    48.9313    34.3941 </r>
       <r>    -6.4177    53.4519    37.2737 </r>
       <r>    -6.3638    59.8270    40.4968 </r>
       <r>    -6.3099    68.2657    44.1746 </r>
       <r>    -6.2561    76.5861    48.3006 </r>
       <r>    -6.2022    81.3276    52.6820 </r>
       <r>    -6.1483    82.4116    57.1218 </r>
       <r>    -6.0944    82.0101    61.5400 </r>
       <r>    -6.0406    81.0027    65.9039 </r>
       <r>    -5.9867    79.8331    70.2048 </r>
       <r>    -5.9328    78.9831    74.4599 </r>
       <r>    -5.8789    79.3073    78.7325 </r>
       <r>    -5.8251    80.5685    83.0730 </r>
       <r>    -5.7712    80.8920    87.4310 </r>
       <r>    -5.7173    79.3130    91.7039 </r>
       <r>    -5.6634    76.1871    95.8084 </r>
       <r>    -5.6096    72.4756    99.7129 </r>
       <r>    -5.5557    68.9413   103.4270 </r>
       <r>    -5.5018    65.5816   106.9601 </r>
       <r>    -5.4480    63.7709   110.3957 </r>
       <r>    -5.3941    65.3190   113.9147 </r>
       <r>    -5.3402    68.4089   117.6001 </r>
       <r>    -5.2863    70.0983   121.3766 </r>
       <r>    -5.2325    70.4847   125.1739 </r>
       <r>    -5.1786    71.6551   129.0342 </r>
       <r>    -5.1247    74.1989   133.0316 </r>
       <r>    -5.0708    76.9845   137.1790 </r>
       <r>    -5.0170    80.4290   141.5120 </r>
       <r>    -4.9631    85.0534   146.0942 </r>
       <r>    -4.9092    88.5995   150.8674 </r>
       <r>    -4.8553    88.6249   155.6419 </r>
       <r>    -4.8015    86.1852   160.2850 </r>
       <r>    -4.7476    84.5367   164.8394 </r>
       <r>    -4.6937    84.7122   169.4031 </r>
       <r>    -4.6398    85.4081   174.0044 </r>
       <r>    -4.5860    86.7049   178.6755 </r>
       <r>    -4.5321    88.8832   183.4640 </r>
       <r>    -4.4782    90.0350   188.3145 </r>
       <r>    -4.4243    88.5113   193.0829 </r>
       <r>    -4.3705    85.5378   197.6912 </r>
       <r>    -4.3166    84.5052   202.2438 </r>
       <r>    -4.2627    86.7550   206.9176 </r>
       <r>    -4.2089    90.4519   211.7906 </r>
       <r>    -4.1550    94.1183   216.8611 </r>
       <r>    -4.1011    96.5894   222.0647 </r>
       <r>    -4.0472    96.8170   227.2806 </r>
       <r>    -3.9934    95.5417   232.4278 </r>
       <r>    -3.9395    94.0922   237.4969 </r>
       <r>    -3.8856    92.9850   242.5063 </r>
       <r>    -3.8317    92.5673   247.4933 </r>
       <r>    -3.7779    92.9014   252.4982 </r>
       <r>    -3.7240    92.6369   257.4889 </r>
       <r>    -3.6701    90.9785   262.3903 </r>
       <r>    -3.6162    89.9412   267.2358 </r>
       <r>    -3.5624    90.9281   272.1344 </r>
       <r>    -3.5085    92.7634   277.1319 </r>
       <r>    -3.4546    94.7024   282.2339 </r>
       <r>    -3.4007    97.1893   287.4698 </r>
       <r>    -3.3469   100.3412   292.8756 </r>
       <r>    -3.2930   102.9501   298.4219 </r>
       <r>    -3.2391   103.6047   304.0035 </r>
       <r>    -3.1853   101.7908   309.4873 </r>
       <r>    -3.1314    97.8049   314.7564 </r>
       <r>    -3.0775    93.1925   319.7771 </r>
       <r>    -3.0236    90.2244   324.6378 </r>
       <r>    -2.9698    89.7410   329.4725 </r>
       <r>    -2.9159    90.7307   334.3605 </r>
       <r>    -2.8620    92.0995   339.3222 </r>
       <r>    -2.8081    92.5185   344.3066 </r>
       <r>    -2.7543    91.7725   349.2507 </r>
       <r>    -2.7004    92.4839   354.2331 </r>
       <r>    -2.6465    96.4293   359.4281 </r>
       <r>    -2.5926   100.4889   364.8419 </r>
       <r>    -2.5388   100.7401   370.2691 </r>
       <r>    -2.4849    97.9173   375.5443 </r>
       <r>    -2.4310    94.7760   380.6502 </r>
       <r>    -2.3771    92.4817   385.6326 </r>
       <r>    -2.3233    90.9071   390.5301 </r>
       <r>    -2.2694    89.5418   395.3540 </r>
       <r>    -2.2155    88.7046   400.1329 </r>
       <r>    -2.1617    89.3631   404.9472 </r>
       <r>    -2.1078    91.3471   409.8684 </r>
       <r>    -2.0539    93.4870   414.9049 </r>
       <r>    -2.0000    96.1109   420.0827 </r>
       <r>    -1.9462   100.3315   425.4880 </r>
       <r>    -1.8923   104.2249   431.1030 </r>
       <r>    -1.8384   104.3100   436.7225 </r>
       <r>    -1.7845   100.6233   442.1435 </r>
       <r>    -1.7307    96.4422   447.3392 </r>
       <r>    -1.6768    94.4864   452.4295 </r>
       <r>    -1.6229    95.5261   457.5759 </r>
       <r>    -1.5690    98.0578   462.8586 </r>
       <r>    -1.5152    99.7241   468.2311 </r>
       <r>    -1.4613    99.8358   473.6097 </r>
       <r>    -1.4074    99.3802   478.9636 </r>
       <r>    -1.3535    98.4079   484.2652 </r>
       <r>    -1.2997    95.0812   489.3876 </r>
       <r>    -1.2458    88.1301   494.1355 </r>
       <r>    -1.1919    77.4922   498.3103 </r>
       <r>    -1.1381    63.7626   501.7455 </r>
       <r>    -1.0842    50.3467   504.4578 </r>
       <r>    -1.0303    39.4807   506.5848 </r>
       <r>    -0.9764    28.5919   508.1251 </r>
       <r>    -0.9226    17.6447   509.0757 </r>
       <r>    -0.8687    10.2977   509.6305 </r>
       <r>    -0.8148     7.7043   510.0456 </r>
       <r>    -0.7609     7.8907   510.4707 </r>
       <r>    -0.7071     8.5408   510.9308 </r>
       <r>    -0.6532     9.7007   511.4534 </r>
       <r>    -0.5993    12.5986   512.1321 </r>
       <r>    -0.5454    16.4654   513.0192 </r>
       <r>    -0.4916    19.7251   514.0819 </r>
       <r>    -0.4377    21.6851   515.2501 </r>
       <r>    -0.3838    21.6779   516.4180 </r>
       <r>    -0.3299    20.5065   517.5228 </r>
       <r>    -0.2761    20.8368   518.6453 </r>
       <r>    -0.2222    22.6423   519.8651 </r>
       <r>    -0.1683    22.1709   521.0596 </r>
       <r>    -0.1144    18.0387   522.0314 </r>
       <r>    -0.0606    13.2220   522.7437 </r>
       <r>    -0.0067    10.5834   523.3139 </r>
       <r>     0.0472    11.0823   523.9109 </r>
       <r>     0.1010    13.8300   524.6560 </r>
       <r>     0.1549    15.3679   525.4839 </r>
       <r>     0.2088    13.5014   526.2113 </r>
       <r>     0.2627    11.2280   526.8162 </r>
       <r>     0.3165    12.3332   527.4806 </r>
       <r>     0.3704    16.4291   528.3657 </r>
       <r>     0.4243    20.4631   529.4681 </r>
       <r>     0.4782    22.9134   530.7025 </r>
       <r>     0.5320    23.8498   531.9874 </r>
       <r>     0.5859    23.2013   533.2374 </r>
       <r>     0.6398    22.1681   534.4316 </r>
       <r>     0.6937    22.3370   535.6350 </r>
       <r>     0.7475    22.6574   536.8557 </r>
       <r>     0.8014    20.2504   537.9466 </r>
       <r>     0.8553    15.2167   538.7664 </r>
       <r>     0.9092    11.8981   539.4074 </r>
       <r>     0.9630    12.0934   540.0589 </r>
       <r>     1.0169    12.7163   540.7440 </r>
       <r>     1.0708    12.0792   541.3947 </r>
       <r>     1.1246    10.9570   541.9850 </r>
       <r>     1.1785     9.3140   542.4868 </r>
       <r>     1.2324     7.1729   542.8733 </r>
       <r>     1.2863     5.8662   543.1893 </r>
       <r>     1.3401     5.9324   543.5089 </r>
       <r>     1.3940     6.7754   543.8739 </r>
       <r>     1.4479     9.2850   544.3741 </r>
       <r>     1.5018    13.9900   545.1278 </r>
       <r>     1.5556    17.8588   546.0899 </r>
       <r>     1.6095    17.7089   547.0440 </r>
       <r>     1.6634    14.6152   547.8314 </r>
       <r>     1.7173    12.3732   548.4980 </r>
       <r>     1.7711    12.8722   549.1914 </r>
       <r>     1.8250    15.0900   550.0044 </r>
       <r>     1.8789    16.6456   550.9011 </r>
       <r>     1.9328    15.5973   551.7414 </r>
       <r>     1.9866    12.4574   552.4126 </r>
       <r>     2.0405     9.5178   552.9253 </r>
       <r>     2.0944     9.8015   553.4534 </r>
       <r>     2.1482    13.7339   554.1933 </r>
       <r>     2.2021    17.6494   555.1441 </r>
       <r>     2.2560    19.8577   556.2139 </r>
       <r>     2.3099    22.1668   557.4081 </r>
       <r>     2.3637    24.1855   558.7111 </r>
       <r>     2.4176    23.9221   559.9998 </r>
       <r>     2.4715    22.4214   561.2078 </r>
       <r>     2.5254    21.7035   562.3770 </r>
       <r>     2.5792    22.3070   563.5788 </r>
       <r>     2.6331    23.6359   564.8521 </r>
       <r>     2.6870    23.4852   566.1174 </r>
       <r>     2.7409    20.1636   567.2037 </r>
       <r>     2.7947    14.9953   568.0115 </r>
       <r>     2.8486    10.3753   568.5705 </r>
       <r>     2.9025     7.4858   568.9738 </r>
       <r>     2.9564     6.4903   569.3234 </r>
       <r>     3.0102     6.1361   569.6540 </r>
       <r>     3.0641     5.2056   569.9344 </r>
       <r>     3.1180     4.9934   570.2035 </r>
       <r>     3.1718     6.5064   570.5540 </r>
       <r>     3.2257     8.6485   571.0199 </r>
       <r>     3.2796    10.8643   571.6052 </r>
       <r>     3.3335    12.7127   572.2901 </r>
       <r>     3.3873    13.1214   572.9970 </r>
       <r>     3.4412    12.6862   573.6804 </r>
       <r>     3.4951    13.3928   574.4020 </r>
       <r>     3.5490    15.7020   575.2479 </r>
       <r>     3.6028    17.6230   576.1973 </r>
       <r>     3.6567    17.5839   577.1446 </r>
       <r>     3.7106    16.7766   578.0484 </r>
       <r>     3.7645    16.4919   578.9369 </r>
       <r>     3.8183    15.5323   579.7737 </r>
       <r>     3.8722    13.0636   580.4775 </r>
       <r>     3.9261    10.9642   581.0682 </r>
       <r>     3.9800    11.4864   581.6870 </r>
       <r>     4.0338    13.8095   582.4310 </r>
       <r>     4.0877    14.6814   583.2219 </r>
       <r>     4.1416    13.7117   583.9606 </r>
       <r>     4.1955    13.2076   584.6721 </r>
       <r>     4.2493    12.2232   585.3306 </r>
       <r>     4.3032     9.1493   585.8236 </r>
       <r>     4.3571     7.3428   586.2191 </r>
       <r>     4.4109     9.8370   586.7491 </r>
       <r>     4.4648    13.8874   587.4973 </r>
       <r>     4.5187    16.0236   588.3605 </r>
       <r>     4.5726    17.8739   589.3234 </r>
       <r>     4.6264    22.3003   590.5248 </r>
       <r>     4.6803    27.1853   591.9894 </r>
       <r>     4.7342    28.8193   593.5420 </r>
       <r>     4.7881    27.6658   595.0325 </r>
       <r>     4.8419    26.4163   596.4556 </r>
       <r>     4.8958    26.6941   597.8937 </r>
       <r>     4.9497    29.2436   599.4692 </r>
       <r>     5.0036    33.5747   601.2780 </r>
       <r>     5.0574    36.5569   603.2475 </r>
       <r>     5.1113    34.8481   605.1249 </r>
       <r>     5.1652    30.5068   606.7684 </r>
       <r>     5.2191    27.8940   608.2711 </r>
       <r>     5.2729    25.5450   609.6473 </r>
       <r>     5.3268    20.0709   610.7286 </r>
       <r>     5.3807    12.8111   611.4188 </r>
       <r>     5.4345     6.7826   611.7842 </r>
       <r>     5.4884     2.8980   611.9403 </r>
       <r>     5.5423     0.8999   611.9888 </r>
       <r>     5.5962     0.1830   611.9987 </r>
       <r>     5.6500     0.0229   611.9999 </r>
       <r>     5.7039     0.0017   612.0000 </r>
       <r>     5.7578     0.0001   612.0000 </r>
       <r>     5.8117     0.0000   612.0000 </r>
       <r>     5.8655     0.0000   612.0000 </r>
       <r>     5.9194     0.0000   612.0000 </r>
       <r>     5.9733     0.0000   612.0000 </r>
       <r>     6.0272     0.0000   612.0000 </r>
       <r>     6.0810     0.0000   612.0000 </r>
       <r>     6.1349     0.0000   612.0000 </r>
       <r>     6.1888     0.0000   612.0000 </r>
       <r>     6.2427     0.0000   612.0000 </r>
       <r>     6.2965     0.0000   612.0000 </r>
       <r>     6.3504     0.0000   612.0000 </r>
       <r>     6.4043     0.0000   612.0000 </r>
      </set>
     </set>
    </array>
   </total>
  </dos>
 </calculation>
 <structure name="finalpos" >
  <crystal>
   <varray name="basis" >
    <v>      11.00258152       0.00000000       0.00000000 </v>
    <v>       5.50129076       9.52851510       0.00000000 </v>
    <v>       0.00000000       0.00000000      24.49178509 </v>
   </varray>
   <i name="volume">   2567.67623402 </i>
   <varray name="rec_basis" >
    <v>       0.09088776      -0.05247407       0.00000000 </v>
    <v>       0.00000000       0.10494815       0.00000000 </v>
    <v>       0.00000000       0.00000000       0.04083002 </v>
   </varray>
  </crystal>
  <varray name="positions" >
   <v>       0.24839446       0.75018205       0.60287965 </v>
   <v>       0.58260011       0.83304664       0.39330084 </v>
   <v>       0.41641857       0.91389763       0.50018043 </v>
   <v>       0.41598311       0.16663678       0.49973329 </v>
   <v>       0.58503810       0.08492309       0.39165028 </v>
   <v>       0.66835954       0.91261160       0.49808221 </v>
   <v>       0.33128376       0.83527889       0.39964041 </v>
   <v>       0.66731708       0.16707145       0.49891011 </v>
   <v>       0.16827420       0.66615004       0.49983105 </v>
   <v>       0.33657492       0.58266892       0.39765631 </v>
   <v>       0.25026281       0.25097280       0.60615995 </v>
   <v>       0.16739586       0.41529323       0.49996814 </v>
   <v>       0.49779687       0.49927947       0.60181899 </v>
   <v>       0.24941861       0.00149930       0.60484770 </v>
   <v>       0.33461398       0.33206680       0.39380672 </v>
   <v>       0.66568297       0.41737722       0.50064291 </v>
   <v>       0.91827546       0.91581227       0.49990066 </v>
   <v>      -0.00258594       0.50449631       0.60339238 </v>
   <v>       0.83411522       0.57990491       0.39771763 </v>
   <v>       0.08380249       0.58308899       0.39435362 </v>
   <v>       0.91768719       0.41440221       0.50155742 </v>
   <v>       0.74717675       0.50293864       0.60503125 </v>
   <v>      -0.00517319       0.00323231       0.60465049 </v>
   <v>       0.83547477       0.83489581       0.39350828 </v>
   <v>       0.83464276       0.33105904       0.40454367 </v>
   <v>       0.74801916       0.25062678       0.59824277 </v>
   <v>       0.83666355       0.08442158       0.40261942 </v>
   <v>       0.66779303       0.66477518       0.49938996 </v>
   <v>       0.49978036       0.75165511       0.59683550 </v>
   <v>       0.74668602       0.00136104       0.59695981 </v>
   <v>       0.41653653       0.66620459       0.50062538 </v>
   <v>       0.08311123       0.08519432       0.40726389 </v>
   <v>       0.50009484       0.24898554       0.59643123 </v>
   <v>       0.41688689       0.41673444       0.49847805 </v>
   <v>       0.58695361       0.33272572       0.40133500 </v>
   <v>       0.50077893      -0.00031529       0.59732521 </v>
   <v>       0.16712570       0.91726370       0.50327608 </v>
   <v>       0.24893635       0.49979825       0.59691953 </v>
   <v>       0.16723566       0.16432471       0.50330320 </v>
   <v>       0.33204203       0.08477778       0.40330777 </v>
   <v>      -0.00391185       0.75188351       0.59680862 </v>
   <v>       0.08369874       0.83582599       0.40341843 </v>
   <v>       0.91721516       0.66474872       0.49795075 </v>
   <v>      -0.00275335       0.25196953       0.59992684 </v>
   <v>       0.08487519       0.33005219       0.40403567 </v>
   <v>       0.92050139       0.16372765       0.50248841 </v>
   <v>       0.58494517       0.58189885       0.40373782 </v>
   <v>       0.74795522       0.75257372       0.59555625 </v>
  </varray>
 </structure>
</modeling>
