unknown system                          
           1
    11.002582    0.000000    0.000000
     5.501291    9.528515    0.000000
     0.000000    0.000000   24.491785
   Au   Pd
  24  24
Direct configuration=     1
   0.25000000  0.75000000  0.59169983
   0.58333333  0.83333333  0.40830017
   0.41666667  0.91666667  0.50000000
   0.41666667  0.16666667  0.50000000
   0.58333333  0.08333333  0.40830017
   0.66666667  0.91666667  0.50000000
   0.33333333  0.83333333  0.40830017
   0.66666667  0.16666667  0.50000000
   0.16666667  0.66666667  0.50000000
   0.33333333  0.58333333  0.40830017
   0.25000000  0.25000000  0.59169983
   0.16666667  0.41666667  0.50000000
   0.50000000  0.50000000  0.59169983
   0.25000000  0.00000000  0.59169983
   0.33333333  0.33333333  0.40830017
   0.66666667  0.41666667  0.50000000
   0.91666667  0.91666667  0.50000000
   0.00000000  0.50000000  0.59169983
   0.83333333  0.58333333  0.40830017
   0.08333333  0.58333333  0.40830017
   0.91666667  0.41666667  0.50000000
   0.75000000  0.50000000  0.59169983
   0.00000000  0.00000000  0.59169983
   0.83333333  0.83333333  0.40830017
   0.83333333  0.33333333  0.40830017
   0.75000000  0.25000000  0.59169983
   0.83333333  0.08333333  0.40830017
   0.66666667  0.66666667  0.50000000
   0.50000000  0.75000000  0.59169983
   0.75000000  0.00000000  0.59169983
   0.41666667  0.66666667  0.50000000
   0.08333333  0.08333333  0.40830017
   0.50000000  0.25000000  0.59169983
   0.41666667  0.41666667  0.50000000
   0.58333333  0.33333333  0.40830017
   0.50000000  0.00000000  0.59169983
   0.16666667  0.91666667  0.50000000
   0.25000000  0.50000000  0.59169983
   0.16666667  0.16666667  0.50000000
   0.33333333  0.08333333  0.40830017
   0.00000000  0.75000000  0.59169983
   0.08333333  0.83333333  0.40830017
   0.91666667  0.66666667  0.50000000
   0.00000000  0.25000000  0.59169983
   0.08333333  0.33333333  0.40830017
   0.91666667  0.16666667  0.50000000
   0.58333333  0.58333333  0.40830017
   0.75000000  0.75000000  0.59169983
Direct configuration=     2
   0.25040800  0.74938009  0.59352528
   0.58284840  0.83269563  0.40603571
   0.41618266  0.91602488  0.50036617
   0.41608992  0.16695220  0.50044127
   0.58335703  0.08419384  0.40570154
   0.66754404  0.91489359  0.50125674
   0.33234567  0.83380703  0.40649348
   0.66704474  0.16798840  0.50039462
   0.16674243  0.66713867  0.50040324
   0.33462588  0.58313355  0.40642137
   0.25059728  0.24967992  0.59388512
   0.16662052  0.41655934  0.50006928
   0.49945561  0.49962467  0.59355374
   0.25018765  0.00023156  0.59355379
   0.33356313  0.33287140  0.40603263
   0.66616821  0.41672710  0.49927493
   0.91749032  0.91676095  0.50005070
  -0.00044436  0.50142483  0.59383567
   0.83312190  0.58232617  0.40641101
   0.08279653  0.58355313  0.40605720
   0.91725641  0.41511707  0.49956402
   0.74964577  0.50068216  0.59386515
  -0.00121400  0.00104429  0.59357102
   0.83432827  0.83353384  0.40603062
   0.83343440  0.33274560  0.40724047
   0.75034718  0.24923264  0.59286368
   0.83416982  0.08388793  0.40714273
   0.66623171  0.66686781  0.50025012
   0.50058597  0.75029217  0.59270532
   0.74958357  0.00005119  0.59304930
   0.41732511  0.66669652  0.49996418
   0.08272256  0.08401210  0.40763109
   0.50046148  0.24967105  0.59292962
   0.41711578  0.41673419  0.50024780
   0.58399250  0.33357331  0.40712160
   0.50084452 -0.00047881  0.59303108
   0.16608763  0.91765253  0.49953042
   0.25038322  0.49980724  0.59295542
   0.16553439  0.16629117  0.49946779
   0.33194929  0.08397867  0.40703805
  -0.00079666  0.74991244  0.59292138
   0.08297924  0.83459664  0.40710846
   0.91588696  0.66714352  0.50050799
  -0.00034601  0.24950973  0.59273046
   0.08344891  0.33202064  0.40712331
   0.91783750  0.16631738  0.49963310
   0.58375337  0.58259990  0.40734006
   0.74970555  0.75054014  0.59267232
Direct configuration=     3
   0.25163202  0.74752035  0.59900163
   0.58139358  0.83078251  0.39924232
   0.41473065  0.91409952  0.50146467
   0.41435967  0.16780879  0.50176506
   0.58342812  0.08677535  0.39790564
   0.67017616  0.90957435  0.50502695
   0.32938268  0.83522813  0.40107342
   0.66817895  0.17195360  0.50157847
   0.16696970  0.66855467  0.50161295
   0.33850351  0.58253420  0.40078499
   0.25238912  0.24871967  0.60044098
   0.16648210  0.41623736  0.50027714
   0.49782244  0.49849867  0.59911546
   0.25075059  0.00092625  0.59911566
   0.33425254  0.33148560  0.39923001
   0.66467282  0.41690840  0.49709971
   0.91996127  0.91704379  0.50020280
  -0.00177744  0.50569931  0.60024319
   0.83248760  0.57930467  0.40074353
   0.08118612  0.58421252  0.39932830
   0.91902563  0.41046828  0.49825607
   0.74858309  0.50272865  0.60036112
  -0.00485601  0.00417717  0.59918457
   0.83731309  0.83413537  0.39922196
   0.83373759  0.33098240  0.40406136
   0.75138873  0.24693056  0.59635525
   0.83667929  0.08555173  0.40367041
   0.66492684  0.66747123  0.50100050
   0.50234389  0.75116867  0.59572178
   0.74833429  0.00020476  0.59709770
   0.41930043  0.66678609  0.49985670
   0.08089023  0.08604841  0.40562384
   0.50184593  0.24868419  0.59661899
   0.41846312  0.41693676  0.50099122
   0.58597001  0.33429324  0.40358589
   0.50337808 -0.00191522  0.59702481
   0.16435052  0.92061010  0.49812166
   0.25153289  0.49922897  0.59672217
   0.16213758  0.16516470  0.49787116
   0.32779717  0.08591469  0.40325168
  -0.00318664  0.74964978  0.59658603
   0.08191696  0.83838655  0.40353331
   0.91354784  0.66857409  0.50203195
  -0.00138402  0.24803893  0.59582234
   0.08379563  0.32808254  0.40359272
   0.92135000  0.16526954  0.49853239
   0.58501348  0.58039959  0.40445972
   0.74882220  0.75216057  0.59558980
Direct configuration=     4
   0.25054670  0.74944357  0.60010422
   0.58156375  0.83238273  0.39820606
   0.41436850  0.91565449  0.50090477
   0.41570632  0.16628194  0.50124213
   0.58448342  0.08503846  0.39698078
   0.66839464  0.91349108  0.50331374
   0.32988492  0.83545001  0.39982997
   0.66832500  0.16825170  0.50106724
   0.16805103  0.66752029  0.50109723
   0.33688865  0.58246413  0.39985845
   0.25127784  0.24949200  0.60188657
   0.16583565  0.41707228  0.50016820
   0.49989721  0.49789215  0.60027341
   0.25028495  0.00062555  0.60033137
   0.33365371  0.33243607  0.39807173
   0.66565756  0.41859786  0.49816996
   0.91806165  0.91772625  0.50015540
  -0.00126414  0.50365718  0.60148218
   0.83283997  0.57980203  0.39974504
   0.08243053  0.58345984  0.39832867
   0.91725199  0.41398619  0.49897281
   0.74887845  0.50147135  0.60138009
  -0.00341944  0.00220642  0.60043556
   0.83501283  0.83528191  0.39819137
   0.83368829  0.33088021  0.40271333
   0.75039896  0.24907500  0.59715814
   0.83563241  0.08553724  0.40294154
   0.66671643  0.66499267  0.50058777
   0.50181478  0.75093854  0.59673322
   0.74857467  0.00062473  0.59822602
   0.41775916  0.66692437  0.49993516
   0.08092057  0.08587764  0.40413485
   0.50206576  0.24808107  0.59760138
   0.41657500  0.41790230  0.50062673
   0.58600461  0.33310969  0.40244271
   0.50239490 -0.00110813  0.59835951
   0.16580410  0.91908164  0.49888355
   0.25084192  0.49872735  0.59750512
   0.16514117  0.16441481  0.49870670
   0.32958632  0.08483758  0.40274770
  -0.00294998  0.75108457  0.59757359
   0.08244529  0.83723733  0.40272474
   0.91543019  0.66593069  0.50119379
  -0.00152767  0.24984779  0.59640490
   0.08377895  0.32932337  0.40247244
   0.92017360  0.16467464  0.49906899
   0.58487536  0.58131576  0.40348743
   0.74924352  0.75100369  0.59757376
Direct configuration=     5
   0.25010581  0.75022485  0.60055212
   0.58163287  0.83303280  0.39778509
   0.41422138  0.91628617  0.50067732
   0.41625338  0.16566168  0.50102970
   0.58491212  0.08433287  0.39660507
   0.66767092  0.91508220  0.50261777
   0.33008895  0.83554014  0.39932483
   0.66838433  0.16674786  0.50085956
   0.16849030  0.66710009  0.50088772
   0.33623263  0.58243566  0.39948206
   0.25082640  0.24980575  0.60247382
   0.16557303  0.41741146  0.50012395
   0.50074006  0.49764575  0.60074381
   0.25009579  0.00050340  0.60082524
   0.33341044  0.33282219  0.39760119
   0.66605760  0.41928418  0.49860474
   0.91728995  0.91800349  0.50013615
  -0.00105562  0.50282760  0.60198551
   0.83298312  0.58000407  0.39933941
   0.08293606  0.58315407  0.39792258
   0.91653147  0.41541529  0.49926398
   0.74899843  0.50096059  0.60179404
  -0.00283586  0.00140582  0.60094375
   0.83407838  0.83574768  0.39777271
   0.83366826  0.33083870  0.40216571
   0.74999688  0.24994614  0.59748430
   0.83520713  0.08553135  0.40264545
   0.66744342  0.66398579  0.50042010
   0.50159984  0.75084505  0.59714410
   0.74867232  0.00079534  0.59868439
   0.41713304  0.66698055  0.49996703
   0.08093290  0.08580826  0.40352997
   0.50215506  0.24783607  0.59800046
   0.41580798  0.41829453  0.50047866
   0.58601867  0.33262890  0.40197831
   0.50199550 -0.00078027  0.59890171
   0.16639460  0.91846072  0.49919305
   0.25056122  0.49852357  0.59782318
   0.16636134  0.16411018  0.49904612
   0.33031313  0.08440002  0.40254297
  -0.00285384  0.75166743  0.59797477
   0.08265992  0.83677047  0.40239627
   0.91619486  0.66485685  0.50085331
  -0.00158602  0.25058262  0.59664155
   0.08377218  0.32982743  0.40201735
   0.91969570  0.16443297  0.49928697
   0.58481925  0.58168794  0.40309244
   0.74941468  0.75053372  0.59837972
Direct configuration=     6
   0.25029111  0.74974723  0.60102479
   0.58190950  0.83339264  0.39737231
   0.41577453  0.91509888  0.50049651
   0.41583984  0.16683297  0.50078642
   0.58434887  0.08442755  0.39612186
   0.66783683  0.91376147  0.50201607
   0.33065360  0.83522710  0.39882288
   0.66703102  0.16796277  0.50054418
   0.16772342  0.66755476  0.50066277
   0.33582521  0.58262200  0.39908467
   0.25065921  0.24987817  0.60311181
   0.16619033  0.41637105  0.50004631
   0.50020297  0.49813651  0.60116867
   0.24986393  0.00087819  0.60141142
   0.33382969  0.33227755  0.39717183
   0.66576281  0.41792239  0.49903704
   0.91797070  0.91629565  0.50009444
  -0.00095068  0.50249019  0.60253402
   0.83322463  0.58060051  0.39886061
   0.08266129  0.58359211  0.39745806
   0.91733610  0.41503660  0.49947332
   0.74921015  0.50084113  0.60240718
  -0.00278158  0.00169352  0.60150967
   0.83404407  0.83515084  0.39739767
   0.83364007  0.33114697  0.40177720
   0.75001091  0.25008432  0.59763137
   0.83496545  0.08524079  0.40234770
   0.66714540  0.66574085  0.50030559
   0.50136990  0.75086091  0.59733156
   0.74873838  0.00070546  0.59913196
   0.41653581  0.66736679  0.50003554
   0.08119276  0.08577063  0.40308256
   0.50196274  0.24783141  0.59820338
   0.41648875  0.41741156  0.50025024
   0.58587261  0.33243750  0.40180120
   0.50170388 -0.00082503  0.59930371
   0.16657369  0.91787071  0.49962238
   0.25044272  0.49882618  0.59804346
   0.16621147  0.16522493  0.49952827
   0.33115443  0.08437437  0.40237785
  -0.00270757  0.75157675  0.59813148
   0.08253250  0.83611790  0.40227384
   0.91610698  0.66561116  0.50050640
  -0.00143292  0.25080591  0.59677573
   0.08380207  0.33020969  0.40182457
   0.91962574  0.16488346  0.49962009
   0.58427399  0.58214045  0.40275022
   0.74933268  0.75079455  0.59872916
Direct configuration=     7
   0.25033280  0.74963977  0.60113113
   0.58197173  0.83347360  0.39727945
   0.41612397  0.91483175  0.50045583
   0.41574680  0.16709649  0.50073169
   0.58422214  0.08444886  0.39601314
   0.66787415  0.91346432  0.50188070
   0.33078064  0.83515667  0.39870995
   0.66672654  0.16823611  0.50047322
   0.16755088  0.66765706  0.50061216
   0.33573354  0.58266392  0.39899527
   0.25062159  0.24989447  0.60325535
   0.16632922  0.41613697  0.50002884
   0.50008214  0.49824692  0.60126426
   0.24981176  0.00096252  0.60154331
   0.33392402  0.33215502  0.39707523
   0.66569649  0.41761600  0.49913430
   0.91812386  0.91591141  0.50008506
  -0.00092707  0.50241427  0.60265743
   0.83327897  0.58073470  0.39875289
   0.08259947  0.58369066  0.39735355
   0.91751713  0.41495140  0.49952041
   0.74925779  0.50081426  0.60254513
  -0.00276937  0.00175825  0.60163699
   0.83403635  0.83501656  0.39731330
   0.83363373  0.33121632  0.40168979
   0.75001407  0.25011540  0.59766446
   0.83491107  0.08517542  0.40228071
   0.66707835  0.66613572  0.50027982
   0.50131817  0.75086448  0.59737374
   0.74875324  0.00068524  0.59923266
   0.41640145  0.66745369  0.50005096
   0.08125123  0.08576216  0.40298190
   0.50191947  0.24783036  0.59824903
   0.41664191  0.41721291  0.50019885
   0.58583974  0.33239444  0.40176135
   0.50163827 -0.00083510  0.59939415
   0.16661399  0.91773797  0.49971897
   0.25041606  0.49889426  0.59809303
   0.16617775  0.16547573  0.49963675
   0.33134371  0.08436860  0.40234070
  -0.00267466  0.75155634  0.59816673
   0.08250383  0.83597108  0.40224629
   0.91608721  0.66578087  0.50042836
  -0.00139848  0.25085615  0.59680592
   0.08380879  0.33029569  0.40178120
   0.91961000  0.16498481  0.49969503
   0.58415131  0.58224225  0.40267323
   0.74931423  0.75085324  0.59880778
Direct configuration=     8
   0.25044295  0.74920279  0.60141873
   0.58206604  0.83326854  0.39688575
   0.41618060  0.91475153  0.50043594
   0.41569598  0.16714487  0.50074350
   0.58403440  0.08467022  0.39559041
   0.66816176  0.91313721  0.50183550
   0.33078949  0.83516140  0.39849706
   0.66690924  0.16788626  0.50036655
   0.16761673  0.66705441  0.50056507
   0.33580262  0.58263881  0.39878137
   0.25089053  0.24985482  0.60370355
   0.16660582  0.41616566  0.50001478
   0.49945697  0.49858772  0.60147040
   0.24989829  0.00108190  0.60185422
   0.33400551  0.33202700  0.39676272
   0.66557451  0.41768286  0.49921399
   0.91782629  0.91614103  0.50012106
  -0.00102554  0.50286770  0.60293270
   0.83321161  0.58074273  0.39850857
   0.08261252  0.58371296  0.39700433
   0.91729605  0.41492449  0.49948664
   0.74912742  0.50125450  0.60291539
  -0.00307390  0.00226867  0.60193632
   0.83426687  0.83480655  0.39700959
   0.83350240  0.33165105  0.40172853
   0.75008848  0.24978114  0.59769987
   0.83504780  0.08488372  0.40226530
   0.66718524  0.66598199  0.50026804
   0.50124595  0.75091664  0.59737088
   0.74861422  0.00060721  0.59921513
   0.41651811  0.66722071  0.50007099
   0.08157464  0.08564022  0.40306709
   0.50171075  0.24792485  0.59823794
   0.41658940  0.41738852  0.50008450
   0.58577439  0.33269268  0.40171856
   0.50173197 -0.00098858  0.59935930
   0.16652802  0.91819181  0.49993773
   0.25033173  0.49916550  0.59804570
   0.16617340  0.16525592  0.49983047
   0.33131255  0.08451324  0.40236362
  -0.00265027  0.75116820  0.59815244
   0.08239637  0.83602173  0.40227270
   0.91616651  0.66584368  0.50032802
  -0.00135989  0.25073017  0.59693437
   0.08389018  0.33028063  0.40181371
   0.91993783  0.16467816  0.49976842
   0.58408203  0.58217978  0.40271558
   0.74923547  0.75123639  0.59869699
Direct configuration=     9
   0.25056302  0.74872645  0.60173224
   0.58216884  0.83304500  0.39645660
   0.41624234  0.91466408  0.50041427
   0.41564057  0.16719760  0.50075637
   0.58382974  0.08491152  0.39512961
   0.66847528  0.91278063  0.50178622
   0.33079914  0.83516655  0.39826499
   0.66710839  0.16750490  0.50025028
   0.16768851  0.66639749  0.50051374
   0.33587792  0.58261144  0.39854822
   0.25118368  0.24981160  0.60419212
   0.16690733  0.41619693  0.49999945
   0.49877551  0.49895922  0.60169510
   0.24999261  0.00121204  0.60219315
   0.33409433  0.33188745  0.39642207
   0.66544154  0.41775573  0.49930086
   0.91750191  0.91639134  0.50016031
  -0.00113288  0.50336196  0.60323276
   0.83313818  0.58075149  0.39824224
   0.08262675  0.58373727  0.39662364
   0.91705505  0.41489516  0.49944981
   0.74898531  0.50173439  0.60331899
  -0.00340587  0.00282506  0.60226260
   0.83451814  0.83457763  0.39667852
   0.83335925  0.33212493  0.40177076
   0.75016960  0.24941677  0.59773847
   0.83519684  0.08456574  0.40224850
   0.66730175  0.66581442  0.50025520
   0.50116722  0.75097350  0.59736776
   0.74846267  0.00052216  0.59919602
   0.41664528  0.66696674  0.50009283
   0.08192717  0.08550730  0.40315996
   0.50148324  0.24802786  0.59822584
   0.41653216  0.41757995  0.49995985
   0.58570315  0.33301779  0.40167192
   0.50183412 -0.00115587  0.59932130
   0.16643432  0.91868652  0.50017620
   0.25023980  0.49946116  0.59799411
   0.16616865  0.16501632  0.50004165
   0.33127858  0.08467091  0.40238859
  -0.00262370  0.75074509  0.59813685
   0.08227922  0.83607694  0.40230149
   0.91625295  0.66591214  0.50021864
  -0.00131784  0.25059285  0.59707438
   0.08397890  0.33026422  0.40184916
   0.92029518  0.16434389  0.49984842
   0.58400652  0.58211168  0.40276174
   0.74914962  0.75165405  0.59857622
Direct configuration=    10
   0.24998054  0.74925552  0.60198833
   0.58215085  0.83298035  0.39594691
   0.41612135  0.91470187  0.50036726
   0.41583025  0.16681991  0.50081498
   0.58404508  0.08484825  0.39460152
   0.66832793  0.91288333  0.50166678
   0.33066343  0.83524060  0.39815071
   0.66726340  0.16725167  0.50012575
   0.16769846  0.66670398  0.50043610
   0.33585001  0.58267193  0.39829490
   0.25120322  0.25009405  0.60470761
   0.16666774  0.41604142  0.50001160
   0.49901727  0.49865100  0.60188995
   0.25015553  0.00098198  0.60256185
   0.33399536  0.33204910  0.39601221
   0.66555526  0.41773281  0.49946584
   0.91780468  0.91646565  0.50026654
  -0.00119380  0.50346892  0.60347678
   0.83312218  0.58064352  0.39798716
   0.08287370  0.58346666  0.39615145
   0.91703480  0.41496143  0.49948006
   0.74877105  0.50192547  0.60370562
  -0.00339135  0.00258319  0.60258634
   0.83446331  0.83474533  0.39628486
   0.83335951  0.33216658  0.40195540
   0.74969904  0.24967591  0.59772315
   0.83533366  0.08457294  0.40229156
   0.66750280  0.66522384  0.50022709
   0.50101633  0.75108808  0.59730436
   0.74832145  0.00055449  0.59907604
   0.41650909  0.66697092  0.50010796
   0.08206156  0.08551642  0.40344372
   0.50138633  0.24816250  0.59808652
   0.41673111  0.41753636  0.49981255
   0.58585248  0.33314070  0.40166610
   0.50186269 -0.00117143  0.59915420
   0.16648965  0.91849357  0.50045600
   0.25009281  0.49930008  0.59791669
   0.16626492  0.16495449  0.50028716
   0.33121724  0.08466692  0.40250489
  -0.00262674  0.75092202  0.59804712
   0.08243113  0.83619469  0.40247709
   0.91647386  0.66542632  0.50008521
  -0.00144980  0.25100651  0.59725243
   0.08405269  0.33023463  0.40201157
   0.92035461  0.16419916  0.49987642
   0.58398908  0.58210134  0.40290625
   0.74906422  0.75189501  0.59834941
Direct configuration=    11
   0.24933197  0.74984462  0.60227348
   0.58213082  0.83290836  0.39537938
   0.41598664  0.91474395  0.50031492
   0.41604145  0.16639936  0.50088024
   0.58428486  0.08477780  0.39401350
   0.66816387  0.91299769  0.50153379
   0.33051233  0.83532305  0.39802346
   0.66743600  0.16696969  0.49998709
   0.16770952  0.66704526  0.50034965
   0.33581893  0.58273928  0.39801283
   0.25122497  0.25040856  0.60528159
   0.16640097  0.41586825  0.50002513
   0.49928648  0.49830780  0.60210692
   0.25033695  0.00072582  0.60297240
   0.33388516  0.33222910  0.39555584
   0.66568189  0.41770728  0.49964953
   0.91814181  0.91654839  0.50038483
  -0.00126163  0.50358800  0.60374850
   0.83310436  0.58052329  0.39770315
   0.08314868  0.58316534  0.39562567
   0.91701225  0.41503523  0.49951375
   0.74853249  0.50213824  0.60413613
  -0.00337518  0.00231386  0.60294681
   0.83440226  0.83493206  0.39584652
   0.83335981  0.33221296  0.40216100
   0.74917508  0.24996446  0.59770610
   0.83548599  0.08458096  0.40233951
   0.66772666  0.66456623  0.50019579
   0.50084831  0.75121565  0.59723377
   0.74816419  0.00059049  0.59894243
   0.41635744  0.66697559  0.50012481
   0.08221119  0.08552657  0.40375967
   0.50127843  0.24831242  0.59793138
   0.41695264  0.41748783  0.49964853
   0.58601875  0.33327756  0.40165963
   0.50189451 -0.00118875  0.59896813
   0.16655127  0.91827874  0.50076756
   0.24992913  0.49912072  0.59783047
   0.16637211  0.16488565  0.50056053
   0.33114894  0.08466249  0.40263438
  -0.00263012  0.75111902  0.59794721
   0.08260027  0.83632580  0.40267261
   0.91671984  0.66488537  0.49993665
  -0.00159673  0.25146712  0.59745069
   0.08413485  0.33020168  0.40219241
   0.92042078  0.16403801  0.49990761
   0.58396967  0.58208983  0.40306715
   0.74896913  0.75216330  0.59809685
Direct configuration=    12
   0.24924115  0.74987302  0.60247876
   0.58203960  0.83303980  0.39487569
   0.41608083  0.91430694  0.50018654
   0.41587692  0.16666730  0.50084033
   0.58443302  0.08485442  0.39344400
   0.66841403  0.91252971  0.50108414
   0.33054892  0.83535887  0.39808420
   0.66738200  0.16710875  0.49978555
   0.16787120  0.66701361  0.50025188
   0.33574079  0.58282725  0.39779812
   0.25102464  0.25036845  0.60577269
   0.16672267  0.41554944  0.50004947
   0.49911665  0.49850320  0.60220553
   0.25018175  0.00106476  0.60338986
   0.33415607  0.33207680  0.39510685
   0.66590211  0.41729972  0.49991266
   0.91825457  0.91609352  0.50045238
  -0.00158573  0.50370805  0.60392790
   0.83322869  0.58058962  0.39747140
   0.08306855  0.58321995  0.39516309
   0.91723375  0.41473293  0.49973704
   0.74849305  0.50211458  0.60450936
  -0.00370004  0.00264165  0.60329186
   0.83456538  0.83496586  0.39544958
   0.83354677  0.33187113  0.40244608
   0.74908218  0.25018199  0.59765237
   0.83558604  0.08477725  0.40240182
   0.66755551  0.66474976  0.50011772
   0.50063978  0.75114413  0.59709260
   0.74806188  0.00084982  0.59875400
   0.41618754  0.66711383  0.50019651
   0.08215494  0.08566359  0.40421966
   0.50122245  0.24837097  0.59767948
   0.41685539  0.41714961  0.49945901
   0.58617628  0.33302563  0.40169263
   0.50150607 -0.00086209  0.59877574
   0.16695554  0.91787841  0.50114853
   0.24988255  0.49917530  0.59763029
   0.16645153  0.16493669  0.50099751
   0.33140110  0.08460258  0.40282185
  -0.00277982  0.75140005  0.59777410
   0.08272095  0.83627172  0.40291886
   0.91674808  0.66486528  0.49967019
  -0.00176778  0.25173774  0.59763612
   0.08420525  0.33017443  0.40245205
   0.92033609  0.16429249  0.50011411
   0.58393812  0.58226224  0.40328287
   0.74904299  0.75185924  0.59779700
Direct configuration=    13
   0.24915672  0.74989942  0.60266956
   0.58195482  0.83316197  0.39440752
   0.41616839  0.91390074  0.50006721
   0.41572399  0.16691634  0.50080324
   0.58457074  0.08492563  0.39291465
   0.66864654  0.91209472  0.50066620
   0.33058293  0.83539217  0.39814065
   0.66733180  0.16723800  0.49959821
   0.16802147  0.66698420  0.50016099
   0.33566815  0.58290901  0.39759855
   0.25083844  0.25033117  0.60622916
   0.16702169  0.41525311  0.50007209
   0.49895879  0.49868483  0.60229719
   0.25003749  0.00137980  0.60377788
   0.33440787  0.33193524  0.39468952
   0.66610681  0.41692089  0.50015724
   0.91835937  0.91567072  0.50051516
  -0.00188699  0.50381964  0.60409466
   0.83334425  0.58065127  0.39725600
   0.08299408  0.58327070  0.39473313
   0.91743964  0.41445194  0.49994459
   0.74845639  0.50209259  0.60485627
  -0.00400200  0.00294632  0.60361258
   0.83471699  0.83499728  0.39508063
   0.83372055  0.33155340  0.40271107
   0.74899584  0.25038419  0.59760244
   0.83567903  0.08495970  0.40245974
   0.66739643  0.66492035  0.50004517
   0.50044595  0.75107765  0.59696139
   0.74796679  0.00109087  0.59857886
   0.41602962  0.66724232  0.50026314
   0.08210267  0.08579094  0.40464721
   0.50117042  0.24842538  0.59744535
   0.41676501  0.41683524  0.49928285
   0.58632270  0.33279147  0.40172331
   0.50114501 -0.00055845  0.59859691
   0.16733130  0.91750631  0.50150264
   0.24983926  0.49922603  0.59744422
   0.16652536  0.16498414  0.50140368
   0.33163549  0.08454689  0.40299611
  -0.00291896  0.75166126  0.59761320
   0.08283312  0.83622146  0.40314775
   0.91677432  0.66484661  0.49942251
  -0.00192678  0.25198927  0.59780848
   0.08427068  0.33014911  0.40269338
   0.92025736  0.16452903  0.50030605
   0.58390880  0.58242249  0.40348337
   0.74911164  0.75157661  0.59751830
Direct configuration=    14
   0.24919138  0.74983117  0.60281600
   0.58198662  0.83332142  0.39400363
   0.41633621  0.91390909  0.49997529
   0.41585244  0.16670819  0.50068451
   0.58472481  0.08488621  0.39247819
   0.66856789  0.91211947  0.50014343
   0.33060300  0.83546597  0.39828649
   0.66733749  0.16689092  0.49940431
   0.16827226  0.66639134  0.50006255
   0.33574794  0.58282832  0.39748557
   0.25060166  0.25045864  0.60659040
   0.16713387  0.41539440  0.50007611
   0.49858912  0.49900771  0.60229161
   0.24975461  0.00161720  0.60411641
   0.33456061  0.33184416  0.39430592
   0.66585995  0.41716067  0.50037026
   0.91819140  0.91570162  0.50049608
  -0.00198070  0.50396774  0.60416352
   0.83340034  0.58064571  0.39715844
   0.08301458  0.58329113  0.39442504
   0.91745155  0.41463113  0.50020489
   0.74829603  0.50211012  0.60511627
  -0.00429155  0.00345900  0.60387629
   0.83486874  0.83509824  0.39472767
   0.83378647  0.33154068  0.40298427
   0.74903330  0.25048299  0.59761351
   0.83581831  0.08485746  0.40252782
   0.66745339  0.66487051  0.49992877
   0.50030611  0.75111613  0.59684476
   0.74773023  0.00129179  0.59832062
   0.41620183  0.66676935  0.50034226
   0.08223926  0.08573882  0.40513933
   0.50103927  0.24852292  0.59720542
   0.41662320  0.41687206  0.49907282
   0.58630277  0.33277987  0.40173199
   0.50101498 -0.00048577  0.59835634
   0.16731517  0.91754180  0.50189971
   0.24973326  0.49933184  0.59723676
   0.16684812  0.16471237  0.50184992
   0.33187460  0.08458765  0.40318928
  -0.00308234  0.75172083  0.59745745
   0.08285894  0.83615768  0.40334666
   0.91701704  0.66459001  0.49911470
  -0.00207131  0.25200019  0.59806099
   0.08442908  0.33018614  0.40294889
   0.92046411  0.16417954  0.50064804
   0.58406588  0.58238411  0.40371381
   0.74892809  0.75151146  0.59720703
Direct configuration=    15
   0.24921642  0.74978184  0.60292184
   0.58200960  0.83343666  0.39371171
   0.41645751  0.91391512  0.49990885
   0.41594528  0.16655774  0.50059870
   0.58483617  0.08485772  0.39216273
   0.66851105  0.91213736  0.49976559
   0.33061751  0.83551931  0.39839189
   0.66734160  0.16664005  0.49926416
   0.16845353  0.66596284  0.49999139
   0.33580561  0.58277000  0.39740392
   0.25043053  0.25055077  0.60685149
   0.16721495  0.41549652  0.50007901
   0.49832193  0.49924108  0.60228758
   0.24955015  0.00178878  0.60436109
   0.33467100  0.33177833  0.39402866
   0.66568153  0.41733398  0.50052423
   0.91806999  0.91572396  0.50048229
  -0.00204844  0.50407479  0.60421329
   0.83344088  0.58064169  0.39708793
   0.08302940  0.58330590  0.39420236
   0.91746017  0.41476064  0.50039302
   0.74818014  0.50212278  0.60530420
  -0.00450083  0.00382956  0.60406689
   0.83497842  0.83517121  0.39447257
   0.83383410  0.33153148  0.40318173
   0.74906037  0.25055439  0.59762151
   0.83591898  0.08478356  0.40257702
   0.66749457  0.66483449  0.49984464
   0.50020504  0.75114394  0.59676047
   0.74755926  0.00143700  0.59813398
   0.41632629  0.66642750  0.50039945
   0.08233798  0.08570116  0.40549502
   0.50094448  0.24859342  0.59703200
   0.41652070  0.41689867  0.49892101
   0.58628837  0.33277149  0.40173826
   0.50092100 -0.00043324  0.59818247
   0.16730351  0.91756745  0.50218669
   0.24965665  0.49940831  0.59708682
   0.16708140  0.16451595  0.50217245
   0.33204741  0.08461710  0.40332889
  -0.00320043  0.75176388  0.59734489
   0.08287760  0.83611159  0.40349042
   0.91719247  0.66440455  0.49889222
  -0.00217577  0.25200808  0.59824349
   0.08454357  0.33021291  0.40313356
   0.92061354  0.16392694  0.50089522
   0.58417941  0.58235636  0.40388037
   0.74879542  0.75146437  0.59698205
Direct configuration=    16
   0.24894172  0.75002995  0.60291718
   0.58220200  0.83331447  0.39361993
   0.41649870  0.91390648  0.49996010
   0.41599968  0.16650082  0.50049090
   0.58486635  0.08482187  0.39206253
   0.66846285  0.91224303  0.49953324
   0.33069639  0.83543567  0.39856334
   0.66730151  0.16662957  0.49918923
   0.16825199  0.66612108  0.49994282
   0.33596124  0.58272008  0.39743561
   0.25043101  0.25078247  0.60683798
   0.16717399  0.41534877  0.50003783
   0.49828504  0.49910888  0.60222095
   0.24963471  0.00148874  0.60442952
   0.33448701  0.33189233  0.39396787
   0.66564641  0.41735676  0.50054808
   0.91820425  0.91573636  0.50042084
  -0.00194126  0.50413667  0.60412701
   0.83340731  0.58057233  0.39717820
   0.08321959  0.58319191  0.39418865
   0.91737850  0.41483941  0.50052788
   0.74796375  0.50229906  0.60530155
  -0.00444373  0.00360615  0.60413442
   0.83499975  0.83512822  0.39434716
   0.83377995  0.33174416  0.40334904
   0.74879786  0.25064432  0.59768467
   0.83601903  0.08460208  0.40258536
   0.66773067  0.66471012  0.49977290
   0.50016804  0.75139145  0.59673759
   0.74742157  0.00132200  0.59797501
   0.41635456  0.66630524  0.50042297
   0.08261768  0.08557955  0.40574323
   0.50076348  0.24874377  0.59694288
   0.41679373  0.41681043  0.49881694
   0.58627182  0.33295267  0.40171931
   0.50104733 -0.00062719  0.59805168
   0.16713357  0.91753348  0.50236624
   0.24953194  0.49941530  0.59707494
   0.16719943  0.16449301  0.50233246
   0.33197112  0.08477789  0.40335243
  -0.00327623  0.75174134  0.59727418
   0.08297806  0.83602140  0.40353975
   0.91719360  0.66446331  0.49873611
  -0.00225229  0.25206938  0.59845274
   0.08468223  0.33024756  0.40327792
   0.92064240  0.16373980  0.50112504
   0.58430999  0.58224917  0.40390704
   0.74849171  0.75185868  0.59677677
Direct configuration=    17
   0.24873239  0.75021902  0.60291364
   0.58234861  0.83322136  0.39355000
   0.41653009  0.91389990  0.49999916
   0.41604114  0.16645745  0.50040876