  56  56   0   0
  0.4903395E+02  0.1100258E-08  0.1100258E-08  0.2619179E-08  0.3500000E-15
  1.000000000000000E-004
  CAR 
 unknown system                          
      6.46115281    -21.56829051  301     -1.25331428      1.00000000
    -21.568  0.0000E+00  0.0000E+00
    -21.475  0.0000E+00  0.0000E+00
    -21.381  0.0000E+00  0.0000E+00
    -21.288  0.0000E+00  0.0000E+00
    -21.195  0.0000E+00  0.0000E+00
    -21.101  0.0000E+00  0.0000E+00
    -21.008  0.0000E+00  0.0000E+00
    -20.914  0.0000E+00  0.0000E+00
    -20.821  0.1788E-14  0.1671E-15
    -20.727  0.1732E-10  0.1619E-11
    -20.634  0.3064E-07  0.2865E-08
    -20.541  0.1017E-04  0.9529E-06
    -20.447  0.6673E-03  0.6330E-04
    -20.354  0.9523E-02  0.9530E-03
    -20.260  0.3365E-01  0.4097E-02
    -20.167  0.3296E-01  0.7176E-02
    -20.073  0.1445E-01  0.8526E-02
    -19.980  0.2028E-01  0.1042E-01
    -19.887  0.2053E-01  0.1234E-01
    -19.793  0.3300E-01  0.1542E-01
    -19.700  0.3795E-01  0.1897E-01
    -19.606  0.1783E-01  0.2063E-01
    -19.513  0.2110E-01  0.2261E-01
    -19.419  0.1457E-01  0.2397E-01
    -19.326  0.1379E-01  0.2525E-01
    -19.233  0.2211E-01  0.2732E-01
    -19.139  0.1921E-01  0.2912E-01
    -19.046  0.2155E-01  0.3113E-01
    -18.952  0.8564E-02  0.3193E-01
    -18.859  0.7484E-03  0.3200E-01
    -18.765  0.1321E-04  0.3200E-01
    -18.672  0.4475E-07  0.3200E-01
    -18.578  0.2813E-10  0.3200E-01
    -18.485  0.3216E-14  0.3200E-01
    -18.392  0.0000E+00  0.3200E-01
    -18.298  0.0000E+00  0.3200E-01
    -18.205  0.0000E+00  0.3200E-01
    -18.111  0.0000E+00  0.3200E-01
    -18.018  0.0000E+00  0.3200E-01
    -17.924  0.0000E+00  0.3200E-01
    -17.831  0.0000E+00  0.3200E-01
    -17.738  0.0000E+00  0.3200E-01
    -17.644  0.0000E+00  0.3200E-01
    -17.551  0.0000E+00  0.3200E-01
    -17.457  0.0000E+00  0.3200E-01
    -17.364  0.0000E+00  0.3200E-01
    -17.270  0.0000E+00  0.3200E-01
    -17.177  0.0000E+00  0.3200E-01
    -17.084  0.0000E+00  0.3200E-01
    -16.990  0.0000E+00  0.3200E-01
    -16.897  0.0000E+00  0.3200E-01
    -16.803  0.0000E+00  0.3200E-01
    -16.710  0.0000E+00  0.3200E-01
    -16.616  0.0000E+00  0.3200E-01
    -16.523  0.0000E+00  0.3200E-01
    -16.430  0.0000E+00  0.3200E-01
    -16.336  0.0000E+00  0.3200E-01
    -16.243  0.0000E+00  0.3200E-01
    -16.149  0.0000E+00  0.3200E-01
    -16.056  0.0000E+00  0.3200E-01
    -15.962  0.0000E+00  0.3200E-01
    -15.869  0.0000E+00  0.3200E-01
    -15.776  0.0000E+00  0.3200E-01
    -15.682  0.0000E+00  0.3200E-01
    -15.589  0.0000E+00  0.3200E-01
    -15.495  0.0000E+00  0.3200E-01
    -15.402  0.0000E+00  0.3200E-01
    -15.308  0.0000E+00  0.3200E-01
    -15.215  0.0000E+00  0.3200E-01
    -15.122  0.0000E+00  0.3200E-01
    -15.028  0.0000E+00  0.3200E-01
    -14.935  0.0000E+00  0.3200E-01
    -14.841  0.0000E+00  0.3200E-01
    -14.748  0.0000E+00  0.3200E-01
    -14.654  0.0000E+00  0.3200E-01
    -14.561  0.0000E+00  0.3200E-01
    -14.467  0.0000E+00  0.3200E-01
    -14.374  0.0000E+00  0.3200E-01
    -14.281  0.0000E+00  0.3200E-01
    -14.187  0.0000E+00  0.3200E-01
    -14.094  0.0000E+00  0.3200E-01
    -14.000  0.0000E+00  0.3200E-01
    -13.907  0.0000E+00  0.3200E-01
    -13.813  0.0000E+00  0.3200E-01
    -13.720  0.0000E+00  0.3200E-01
    -13.627  0.0000E+00  0.3200E-01
    -13.533  0.0000E+00  0.3200E-01
    -13.440  0.0000E+00  0.3200E-01
    -13.346  0.0000E+00  0.3200E-01
    -13.253  0.0000E+00  0.3200E-01
    -13.159  0.0000E+00  0.3200E-01
    -13.066  0.0000E+00  0.3200E-01
    -12.973  0.0000E+00  0.3200E-01
    -12.879  0.0000E+00  0.3200E-01
    -12.786  0.0000E+00  0.3200E-01
    -12.692  0.0000E+00  0.3200E-01
    -12.599  0.0000E+00  0.3200E-01
    -12.505  0.0000E+00  0.3200E-01
    -12.412  0.0000E+00  0.3200E-01
    -12.319  0.0000E+00  0.3200E-01
    -12.225  0.0000E+00  0.3200E-01
    -12.132  0.0000E+00  0.3200E-01
    -12.038  0.0000E+00  0.3200E-01
    -11.945  0.0000E+00  0.3200E-01
    -11.851  0.0000E+00  0.3200E-01
    -11.758  0.0000E+00  0.3200E-01
    -11.665  0.0000E+00  0.3200E-01
    -11.571  0.0000E+00  0.3200E-01
    -11.478  0.0000E+00  0.3200E-01
    -11.384  0.0000E+00  0.3200E-01
    -11.291  0.0000E+00  0.3200E-01
    -11.197  0.0000E+00  0.3200E-01
    -11.104  0.0000E+00  0.3200E-01
    -11.011  0.0000E+00  0.3200E-01
    -10.917  0.0000E+00  0.3200E-01
    -10.824  0.0000E+00  0.3200E-01
    -10.730  0.0000E+00  0.3200E-01
    -10.637  0.0000E+00  0.3200E-01
    -10.543  0.0000E+00  0.3200E-01
    -10.450  0.0000E+00  0.3200E-01
    -10.357  0.0000E+00  0.3200E-01
    -10.263  0.0000E+00  0.3200E-01
    -10.170  0.0000E+00  0.3200E-01
    -10.076  0.0000E+00  0.3200E-01
     -9.983  0.0000E+00  0.3200E-01
     -9.889  0.0000E+00  0.3200E-01
     -9.796  0.0000E+00  0.3200E-01
     -9.702  0.0000E+00  0.3200E-01
     -9.609  0.0000E+00  0.3200E-01
     -9.516  0.1715E-14  0.3200E-01
     -9.422  0.1395E-10  0.3200E-01
     -9.329  0.2111E-07  0.3200E-01
     -9.235  0.6081E-05  0.3200E-01
     -9.142  0.3448E-03  0.3203E-01
     -9.048  0.4054E-02  0.3241E-01
     -8.955  0.1093E-01  0.3343E-01
     -8.862  0.1103E-01  0.3446E-01
     -8.768  0.1084E-01  0.3548E-01
     -8.675  0.4982E-02  0.3594E-01
     -8.581  0.6755E-03  0.3601E-01
     -8.488  0.1162E-02  0.3611E-01
     -8.394  0.5872E-02  0.3666E-01
     -8.301  0.1944E-01  0.3848E-01
     -8.208  0.3789E-01  0.4202E-01
     -8.114  0.3805E-01  0.4557E-01
     -8.021  0.3698E-01  0.4903E-01
     -7.927  0.2703E-01  0.5155E-01
     -7.834  0.1927E-01  0.5336E-01
     -7.740  0.2635E-01  0.5582E-01
     -7.647  0.3790E-01  0.5936E-01
     -7.554  0.5346E-01  0.6435E-01
     -7.460  0.5965E-01  0.6993E-01
     -7.367  0.6705E-01  0.7619E-01
     -7.273  0.7888E-01  0.8356E-01
     -7.180  0.1032E+00  0.9320E-01
     -7.086  0.1230E+00  0.1047E+00
     -6.993  0.1157E+00  0.1155E+00
     -6.900  0.9954E-01  0.1248E+00
     -6.806  0.1068E+00  0.1348E+00
     -6.713  0.1276E+00  0.1467E+00
     -6.619  0.1354E+00  0.1594E+00
     -6.526  0.1384E+00  0.1723E+00
     -6.432  0.1404E+00  0.1854E+00
     -6.339  0.1514E+00  0.1996E+00
     -6.246  0.1642E+00  0.2149E+00
     -6.152  0.1609E+00  0.2299E+00
     -6.059  0.1677E+00  0.2456E+00
     -5.965  0.1738E+00  0.2618E+00
     -5.872  0.1688E+00  0.2776E+00
     -5.778  0.1645E+00  0.2930E+00
     -5.685  0.1657E+00  0.3084E+00
     -5.592  0.1679E+00  0.3241E+00
     -5.498  0.1639E+00  0.3394E+00
     -5.405  0.1637E+00  0.3547E+00
     -5.311  0.1685E+00  0.3705E+00
     -5.218  0.1730E+00  0.3866E+00
     -5.124  0.1723E+00  0.4027E+00
     -5.031  0.1673E+00  0.4184E+00
     -4.937  0.1716E+00  0.4344E+00
     -4.844  0.1758E+00  0.4508E+00
     -4.751  0.1827E+00  0.4679E+00
     -4.657  0.1913E+00  0.4858E+00
     -4.564  0.1942E+00  0.5039E+00
     -4.470  0.1917E+00  0.5218E+00
     -4.377  0.1957E+00  0.5401E+00
     -4.283  0.1909E+00  0.5580E+00
     -4.190  0.1857E+00  0.5753E+00
     -4.097  0.1947E+00  0.5935E+00
     -4.003  0.1923E+00  0.6115E+00
     -3.910  0.1843E+00  0.6287E+00
     -3.816  0.1859E+00  0.6461E+00
     -3.723  0.1893E+00  0.6637E+00
     -3.629  0.1865E+00  0.6812E+00
     -3.536  0.1899E+00  0.6989E+00
     -3.443  0.2028E+00  0.7179E+00
     -3.349  0.2074E+00  0.7372E+00
     -3.256  0.2054E+00  0.7564E+00
     -3.162  0.2022E+00  0.7753E+00
     -3.069  0.1909E+00  0.7932E+00
     -2.975  0.1897E+00  0.8109E+00
     -2.882  0.2019E+00  0.8297E+00
     -2.789  0.2045E+00  0.8488E+00
     -2.695  0.2005E+00  0.8676E+00
     -2.602  0.1920E+00  0.8855E+00
     -2.508  0.1840E+00  0.9027E+00
     -2.415  0.1859E+00  0.9201E+00
     -2.321  0.1972E+00  0.9385E+00
     -2.228  0.1969E+00  0.9569E+00
     -2.135  0.1878E+00  0.9744E+00
     -2.041  0.1841E+00  0.9916E+00
     -1.948  0.1769E+00  0.1008E+01
     -1.854  0.1735E+00  0.1024E+01
     -1.761  0.1659E+00  0.1040E+01
     -1.667  0.1556E+00  0.1054E+01
     -1.574  0.1451E+00  0.1068E+01
     -1.481  0.1352E+00  0.1081E+01
     -1.387  0.1215E+00  0.1092E+01
     -1.294  0.9467E-01  0.1101E+01
     -1.200  0.7232E-01  0.1108E+01
     -1.107  0.5289E-01  0.1112E+01
     -1.013  0.5494E-01  0.1118E+01
     -0.920  0.5762E-01  0.1123E+01
     -0.827  0.5291E-01  0.1128E+01
     -0.733  0.5229E-01  0.1133E+01
     -0.640  0.5637E-01  0.1138E+01
     -0.546  0.5650E-01  0.1143E+01
     -0.453  0.4922E-01  0.1148E+01
     -0.359  0.3798E-01  0.1152E+01
     -0.266  0.3728E-01  0.1155E+01
     -0.172  0.3771E-01  0.1159E+01
     -0.079  0.2668E-01  0.1161E+01
      0.014  0.1855E-01  0.1163E+01
      0.108  0.2268E-01  0.1165E+01
      0.201  0.2429E-01  0.1167E+01
      0.295  0.3057E-01  0.1170E+01
      0.388  0.3661E-01  0.1173E+01
      0.482  0.3819E-01  0.1177E+01
      0.575  0.4098E-01  0.1181E+01
      0.668  0.4157E-01  0.1185E+01
      0.762  0.3731E-01  0.1188E+01
      0.855  0.3252E-01  0.1191E+01
      0.949  0.3688E-01  0.1195E+01
      1.042  0.3499E-01  0.1198E+01
      1.136  0.2636E-01  0.1200E+01
      1.229  0.1999E-01  0.1202E+01
      1.322  0.1889E-01  0.1204E+01
      1.416  0.2136E-01  0.1206E+01
      1.509  0.2840E-01  0.1209E+01
      1.603  0.3528E-01  0.1212E+01
      1.696  0.3442E-01  0.1215E+01
      1.790  0.3338E-01  0.1218E+01
      1.883  0.3398E-01  0.1221E+01
      1.976  0.4081E-01  0.1225E+01
      2.070  0.4216E-01  0.1229E+01
      2.163  0.3432E-01  0.1232E+01
      2.257  0.2531E-01  0.1235E+01
      2.350  0.2001E-01  0.1237E+01
      2.444  0.2473E-01  0.1239E+01
      2.537  0.2770E-01  0.1242E+01
      2.630  0.2441E-01  0.1244E+01
      2.724  0.1886E-01  0.1246E+01
      2.817  0.2030E-01  0.1248E+01
      2.911  0.2956E-01  0.1250E+01
      3.004  0.3571E-01  0.1254E+01
      3.098  0.3971E-01  0.1257E+01
      3.191  0.3543E-01  0.1261E+01
      3.284  0.3269E-01  0.1264E+01
      3.378  0.3108E-01  0.1267E+01
      3.471  0.3136E-01  0.1270E+01
      3.565  0.3757E-01  0.1273E+01
      3.658  0.3575E-01  0.1276E+01
      3.752  0.2917E-01  0.1279E+01
      3.845  0.3120E-01  0.1282E+01
      3.939  0.3648E-01  0.1285E+01
      4.032  0.3799E-01  0.1289E+01
      4.125  0.3645E-01  0.1292E+01
      4.219  0.3560E-01  0.1296E+01
      4.312  0.3709E-01  0.1299E+01
      4.406  0.4169E-01  0.1303E+01
      4.499  0.4156E-01  0.1307E+01
      4.593  0.4514E-01  0.1311E+01
      4.686  0.5742E-01  0.1317E+01
      4.779  0.6311E-01  0.1322E+01
      4.873  0.6784E-01  0.1329E+01
      4.966  0.5882E-01  0.1334E+01
      5.060  0.4889E-01  0.1339E+01
      5.153  0.3669E-01  0.1342E+01
      5.247  0.1553E-01  0.1344E+01
      5.340  0.2868E-02  0.1344E+01
      5.433  0.1670E-03  0.1344E+01
      5.527  0.2319E-05  0.1344E+01
      5.620  0.6616E-08  0.1344E+01
      5.714  0.3622E-11  0.1344E+01
      5.807  0.3676E-15  0.1344E+01
      5.901  0.0000E+00  0.1344E+01
      5.994  0.0000E+00  0.1344E+01
      6.087  0.0000E+00  0.1344E+01
      6.181  0.0000E+00  0.1344E+01
      6.274  0.0000E+00  0.1344E+01
      6.368  0.0000E+00  0.1344E+01
      6.461  0.0000E+00  0.1344E+01
