unknown system                          
           1
    11.002582    0.000000    0.000000
     5.501291    9.528515    0.000000
     0.000000    0.000000   26.191785
   Au   O    Pd
  24   8  24
Direct configuration=     1
   0.41666667  0.91666667  0.46754708
   0.91666667  0.16666667  0.46754708
   0.66666667  0.91666667  0.46754708
   0.83333333  0.83333333  0.38179910
   0.75000000  0.50000000  0.55329505
   0.66666667  0.66666667  0.46754708
   0.00000000  0.25000000  0.55329505
   0.08333333  0.58333333  0.38179910
   0.66666667  0.41666667  0.46754708
   0.66666667  0.16666667  0.46754708
   0.08333333  0.83333333  0.38179910
   0.75000000  0.75000000  0.55329505
   0.16666667  0.91666667  0.46754708
   0.41666667  0.66666667  0.46754708
   0.58333333  0.58333333  0.38179910
   0.50000000  0.25000000  0.55329505
   0.33333333  0.33333333  0.38179910
   0.58333333  0.33333333  0.38179910
   0.41666667  0.16666667  0.46754708
   0.33333333  0.58333333  0.38179910
   0.16666667  0.66666667  0.46754708
   0.25000000  0.50000000  0.55329505
   0.58333333  0.08333333  0.38179910
   0.58333333  0.83333333  0.38179910
   0.33333333  0.83333333  0.61820090
   0.33333333  0.08333333  0.61820090
   0.83333333  0.83333333  0.61820090
   0.58333333  0.83333333  0.61820090
   0.58333333  0.08333333  0.61820090
   0.83333333  0.33333333  0.61820090
   0.83333333  0.08333333  0.61820090
   0.58333333  0.58333333  0.61820090
   0.50000000  0.50000000  0.55329505
   0.16666667  0.16666667  0.46754708
   0.08333333  0.08333333  0.38179910
   0.41666667  0.41666667  0.46754708
   0.00000000  0.75000000  0.55329505
   0.25000000  0.25000000  0.55329505
   0.50000000  0.00000000  0.55329505
   0.16666667  0.41666667  0.46754708
   0.91666667  0.91666667  0.46754708
   0.50000000  0.75000000  0.55329505
   0.25000000  0.75000000  0.55329505
   0.83333333  0.08333333  0.38179910
   0.75000000  0.00000000  0.55329505
   0.00000000  0.50000000  0.55329505
   0.83333333  0.33333333  0.38179910
   0.91666667  0.66666667  0.46754708
   0.75000000  0.25000000  0.55329505
   0.83333333  0.58333333  0.38179910
   0.91666667  0.41666667  0.46754708
   0.08333333  0.33333333  0.38179910
   0.00000000  0.00000000  0.55329505
   0.33333333  0.83333333  0.38179910
   0.33333333  0.08333333  0.38179910
   0.25000000  0.00000000  0.55329505
Direct configuration=     2
   0.41506934  0.91801173  0.46800613
   0.91746559  0.16632431  0.46697624
   0.66823877  0.91667596  0.46840391
   0.83333333  0.83333333  0.38179910
   0.75041186  0.50035022  0.55626999
   0.66908111  0.66536459  0.46808959
   0.00166713  0.24961123  0.55560681
   0.08333333  0.58333333  0.38179910
   0.66754584  0.41542649  0.46787440
   0.66863217  0.16586477  0.46809906
   0.08333333  0.83333333  0.38179910
   0.75170868  0.74900395  0.55644322
   0.16559571  0.91854936  0.46820660
   0.41628403  0.66669318  0.46825546
   0.58333333  0.58333333  0.38179910
   0.49929190  0.25122211  0.55589129
   0.33333333  0.33333333  0.38179910
   0.58333333  0.33333333  0.38179910
   0.41407481  0.16747062  0.46788642
   0.33333333  0.58333333  0.38179910
   0.16499683  0.66698926  0.46887378
   0.24930038  0.50001221  0.55477217
   0.58333333  0.08333333  0.38179910
   0.58333333  0.83333333  0.38179910
   0.33165346  0.83288478  0.61403135
   0.33138190  0.08563021  0.61405787
   0.83627218  0.83146528  0.61464729
   0.58333846  0.83310294  0.61521067
   0.58260316  0.08446600  0.61485695
   0.83409910  0.33228262  0.61526999
   0.83451211  0.08299441  0.61418741
   0.58181171  0.58301900  0.61480055
   0.49999819  0.50057419  0.55564284
   0.16590908  0.16765720  0.46775967
   0.08333333  0.08333333  0.38179910
   0.41678681  0.41652072  0.46854745
  -0.00089387  0.75070427  0.55554718
   0.24984826  0.24893653  0.55545093
   0.49889378  0.00063692  0.55797755
   0.16550408  0.41582330  0.46817095
   0.91628674  0.91685447  0.46808036
   0.49904295  0.75028641  0.55816752
   0.25017504  0.75084532  0.55584757
   0.83333333  0.08333333  0.38179910
   0.75104805  0.00021720  0.55773569
   0.00130879  0.49973492  0.55389449
   0.83333333  0.33333333  0.38179910
   0.91719421  0.66556753  0.46796945
   0.75071482  0.24859338  0.55711143
   0.83333333  0.58333333  0.38179910
   0.91792331  0.41692564  0.46730418
   0.08333333  0.33333333  0.38179910
  -0.00114569 -0.00017637  0.55573051
   0.33333333  0.83333333  0.38179910
   0.33333333  0.08333333  0.38179910
   0.25032452  0.00000080  0.55690310
Direct configuration=     3
   0.41234866  0.92030274  0.46878803
   0.91882638  0.16574117  0.46600394
   0.67091650  0.91669178  0.46986333
   0.83333333  0.83333333  0.38179910
   0.75111337  0.50094674  0.56133712
   0.67319356  0.66314679  0.46901365
   0.00450672  0.24894906  0.55954437
   0.08333333  0.58333333  0.38179910
   0.66904332  0.41331413  0.46843193
   0.67197997  0.16449891  0.46903923
   0.08333333  0.83333333  0.38179910
   0.75461903  0.74730740  0.56180541
   0.16377157  0.92175610  0.46932994
   0.41563229  0.66673833  0.46946203
   0.58333333  0.58333333  0.38179910
   0.49808580  0.25330369  0.56031340
   0.33333333  0.33333333  0.38179910
   0.58333333  0.33333333  0.38179910
   0.40966017  0.16883997  0.46846440
   0.33333333  0.58333333  0.38179910
   0.16215265  0.66753874  0.47113353
   0.24810874  0.50003300  0.55728812
   0.58333333  0.08333333  0.38179910
   0.58333333  0.83333333  0.38179910
   0.32879218  0.83212076  0.60692947
   0.32805806  0.08954243  0.60700115
   0.84127785  0.82828346  0.60859452
   0.58334720  0.83271051  0.61011749
   0.58135949  0.08639525  0.60916129
   0.83540342  0.33049295  0.61027784
   0.83651990  0.08241714  0.60735133
   0.57921997  0.58248361  0.60900883
   0.49999511  0.50155220  0.55964178
   0.16461870  0.16934436  0.46812176
   0.08333333  0.08333333  0.38179910
   0.41699146  0.41627214  0.47025136
  -0.00241638  0.75190384  0.55938317
   0.24958980  0.24712515  0.55912298
   0.49700957  0.00172178  0.56595312
   0.16352387  0.41438683  0.46923358
   0.91563961  0.91717434  0.46898869
   0.49741282  0.75077424  0.56646667
   0.25047319  0.75228512  0.56019522
   0.83333333  0.08333333  0.38179910
   0.75283317  0.00058714  0.56529931
   0.00353802  0.49928341  0.55491549
   0.83333333  0.33333333  0.38179910
   0.91809275  0.66369540  0.46868887
   0.75193236  0.24619753  0.56361177
   0.83333333  0.58333333  0.38179910
   0.92006372  0.41736674  0.46689045
   0.08333333  0.33333333  0.38179910
  -0.00309712 -0.00047679  0.55987875
   0.33333333  0.83333333  0.38179910
   0.33333333  0.08333333  0.38179910
   0.25087727  0.00000215  0.56304859
Direct configuration=     4
   0.41287189  0.91986215  0.46863766
   0.91856469  0.16585331  0.46619093
   0.67040154  0.91668873  0.46958267
   0.83333333  0.83333333  0.38179910
   0.75097846  0.50083203  0.56036264
   0.67240268  0.66357330  0.46883594
   0.00396063  0.24907641  0.55878712
   0.08333333  0.58333333  0.38179910
   0.66875534  0.41372037  0.46832471
   0.67133614  0.16476158  0.46885842
   0.08333333  0.83333333  0.38179910
   0.75405933  0.74763367  0.56077419
   0.16412237  0.92113940  0.46911391
   0.41575762  0.66672965  0.46922999
   0.58333333  0.58333333  0.38179910
   0.49831775  0.25290338  0.55946297
   0.33333333  0.33333333  0.38179910
   0.58333333  0.33333333  0.38179910
   0.41050916  0.16857663  0.46835325
   0.33333333  0.58333333  0.38179910
   0.16269962  0.66743307  0.47069895
   0.24833791  0.50002900  0.55680427
   0.58333333  0.08333333  0.38179910
   0.58333333  0.83333333  0.38179910
   0.32934244  0.83226769  0.60829526
   0.32869728  0.08879006  0.60835825
   0.84031519  0.82889536  0.60975855
   0.58334552  0.83278598  0.61109698
   0.58159866  0.08602423  0.61025664
   0.83515258  0.33083713  0.61123790
   0.83613378  0.08252816  0.60866600
   0.57971840  0.58258657  0.61012265
   0.49999571  0.50136412  0.55887273
   0.16486686  0.16901990  0.46805213
   0.08333333  0.08333333  0.38179910
   0.41695210  0.41631994  0.46992367
  -0.00212358  0.75167315  0.55864546
   0.24963951  0.24747351  0.55841680
   0.49737193  0.00151315  0.56441931
   0.16390469  0.41466308  0.46902922
   0.91576406  0.91711282  0.46881401
   0.49772632  0.75068042  0.56487063
   0.25041585  0.75200823  0.55935911
   0.83333333  0.08333333  0.38179910
   0.75248987  0.00051599  0.56384472
   0.00310931  0.49937024  0.55471914
   0.83333333  0.33333333  0.38179910
   0.91791995  0.66405543  0.46855052
   0.75169821  0.24665828  0.56236166
   0.83333333  0.58333333  0.38179910
   0.91965209  0.41728191  0.46697001
   0.08333333  0.33333333  0.38179910
  -0.00272183 -0.00041901  0.55908099
   0.33333333  0.83333333  0.38179910
   0.33333333  0.08333333  0.38179910
   0.25077097  0.00000189  0.56186673
Direct configuration=     5
   0.41272726  0.91998394  0.46867923
   0.91863702  0.16582232  0.46613924
   0.67054388  0.91668957  0.46966025
   0.83333333  0.83333333  0.38179910
   0.75101575  0.50086374  0.56063200
   0.67262129  0.66345541  0.46888506
   0.00411158  0.24904121  0.55899644
   0.08333333  0.58333333  0.38179910
   0.66883494  0.41360808  0.46835434
   0.67151410  0.16468897  0.46890840
   0.08333333  0.83333333  0.38179910
   0.75421404  0.74754349  0.56105923
   0.16402540  0.92130987  0.46917362
   0.41572298  0.66673205  0.46929413
   0.58333333  0.58333333  0.38179910
   0.49825364  0.25301403  0.55969804
   0.33333333  0.33333333  0.38179910
   0.58333333  0.33333333  0.38179910
   0.41027449  0.16864942  0.46838397
   0.33333333  0.58333333  0.38179910
   0.16254843  0.66746227  0.47081907
   0.24827457  0.50003011  0.55693801
   0.58333333  0.08333333  0.38179910
   0.58333333  0.83333333  0.38179910
   0.32919034  0.83222708  0.60791774
   0.32852059  0.08899803  0.60798313
   0.84058128  0.82872622  0.60943680
   0.58334598  0.83276512  0.61082624
   0.58153255  0.08612678  0.60995387
   0.83522191  0.33074199  0.61097252
   0.83624051  0.08249747  0.60830261
   0.57958063  0.58255811  0.60981478
   0.49999554  0.50141611  0.55908531
   0.16479827  0.16910959  0.46807137
   0.08333333  0.08333333  0.38179910
   0.41696298  0.41630673  0.47001425
  -0.00220451  0.75173691  0.55884937
   0.24962577  0.24737722  0.55861200
   0.49727177  0.00157082  0.56484328
   0.16379943  0.41458672  0.46908571
   0.91572966  0.91712983  0.46886229
   0.49763966  0.75070635  0.56531180
   0.25043170  0.75208477  0.55959022
   0.83333333  0.08333333  0.38179910
   0.75258476  0.00053566  0.56424679
   0.00322781  0.49934624  0.55477341
   0.83333333  0.33333333  0.38179910
   0.91796772  0.66395591  0.46858876
   0.75176293  0.24653092  0.56270721
   0.83333333  0.58333333  0.38179910
   0.91976587  0.41730536  0.46694802
   0.08333333  0.33333333  0.38179910
  -0.00282557 -0.00043498  0.55930150
   0.33333333  0.83333333  0.38179910
   0.33333333  0.08333333  0.38179910
   0.25080035  0.00000196  0.56219341
Direct configuration=     6
   0.41375490  0.91936884  0.47054679
   0.91891775  0.16678263  0.46737825
   0.66977633  0.91719694  0.47215358
   0.83333333  0.83333333  0.38179910
   0.75600160  0.50256505  0.56098231
   0.67249961  0.66366515  0.47109388
   0.00898312  0.24656993  0.55968383
   0.08333333  0.58333333  0.38179910
   0.66990695  0.41322708  0.47025234
   0.67115035  0.16439117  0.47099651
   0.08333333  0.83333333  0.38179910
   0.75699599  0.74038321  0.56127433
   0.16381096  0.92123441  0.47098117
   0.41582507  0.66750032  0.47096119
   0.58333333  0.58333333  0.38179910
   0.49482310  0.26003219  0.56022354
   0.33333333  0.33333333  0.38179910
   0.58333333  0.33333333  0.38179910
   0.41119800  0.16832831  0.46997642
   0.33333333  0.58333333  0.38179910
   0.16165689  0.66856603  0.47266712
   0.24789639  0.50014490  0.55863932
   0.58333333  0.08333333  0.38179910
   0.58333333  0.83333333  0.38179910
   0.32412234  0.83271867  0.60701976
   0.32211217  0.09436926  0.60711814
   0.84723293  0.82483124  0.60894606
   0.58286142  0.83269787  0.61029866
   0.58103705  0.08789492  0.60950682
   0.83646655  0.32953993  0.61033451
   0.84042918  0.08183811  0.60730779
   0.57686511  0.57951445  0.60911962
   0.49815462  0.49923630  0.56018554
   0.16349622  0.16955783  0.46923317
   0.08333333  0.08333333  0.38179910
   0.41724939  0.41540389  0.47173008
   0.00337459  0.74947786  0.55989724
   0.24743534  0.25139216  0.55922195
   0.49906158  0.00097953  0.56579764
   0.16402187  0.41426004  0.47020718
   0.91626396  0.91673560  0.47008260
   0.49948084  0.75081818  0.56675231
   0.24624776  0.75065577  0.56025376
   0.83333333  0.08333333  0.38179910
   0.75040884  0.00175761  0.56529951
   0.00415179  0.49860541  0.55546236
   0.83333333  0.33333333  0.38179910
   0.91784075  0.66423234  0.46962241
   0.74728119  0.24977803  0.56427091
   0.83333333  0.58333333  0.38179910
   0.91962012  0.41642466  0.46779908
   0.08333333  0.33333333  0.38179910
   0.00193589 -0.00266623  0.56025910
   0.33333333  0.83333333  0.38179910
   0.33333333  0.08333333  0.38179910
   0.24546149  0.00249467  0.56336353
Direct configuration=     7
   0.41453854  0.91889980  0.47197092
   0.91913182  0.16751493  0.46832307
   0.66919103  0.91758384  0.47405490
   0.83333333  0.83333333  0.38179910
   0.75980361  0.50386241  0.56124945
   0.67240682  0.66382509  0.47277824
   0.01269797  0.24468544  0.56020801
   0.08333333  0.58333333  0.38179910
   0.67072442  0.41293654  0.47169968
   0.67087297  0.16416407  0.47258883
   0.08333333  0.83333333  0.38179910
   0.75911741  0.73492306  0.56143836
   0.16364744  0.92117687  0.47235953
   0.41590293  0.66808618  0.47223243
   0.58333333  0.58333333  0.38179910
   0.49220710  0.26538396  0.56062426
   0.33333333  0.33333333  0.38179910
   0.58333333  0.33333333  0.38179910
   0.41190224  0.16808345  0.47119075
   0.33333333  0.58333333  0.38179910
   0.16097703  0.66940771  0.47407636
   0.24760800  0.50023243  0.55993667
   0.58333333  0.08333333  0.38179910
   0.58333333  0.83333333  0.38179910
   0.32025768  0.83309354  0.60633500
   0.31722536  0.09846516  0.60645853
   0.85230521  0.82186108  0.60857184
   0.58249191  0.83264659  0.60989636
   0.58065920  0.08924324  0.60916592
   0.83741565  0.32862329  0.60984799
   0.84362330  0.08133531  0.60654918
   0.57479436  0.57719347  0.60858952
   0.49675081  0.49757407  0.56102454
   0.16250333  0.16989965  0.47011911
   0.08333333  0.08333333  0.38179910
   0.41746779  0.41471542  0.47303851
   0.00762899  0.74775519  0.56069629
   0.24576501  0.25445380  0.55968708
   0.50042642  0.00052863  0.56652539
   0.16419149  0.41401092  0.47106236
   0.91667139  0.91643497  0.47101316
   0.50088485  0.75090345  0.56785079
   0.24305725  0.74956608  0.56075975
   0.83333333  0.08333333  0.38179910
   0.74874957  0.00268942  0.56610228
   0.00485638  0.49804049  0.55598772
   0.83333333  0.33333333  0.38179910
   0.91774393  0.66444313  0.47041063
   0.74386358  0.25225414  0.56546334
   0.83333333  0.58333333  0.38179910
   0.91950898  0.41575308  0.46844807
   0.08333333  0.33333333  0.38179910
   0.00556680 -0.00436769  0.56098932
   0.33333333  0.83333333  0.38179910
   0.33333333  0.08333333  0.38179910
   0.24139027  0.00439551  0.56425582
Direct configuration=     8
   0.41515889  0.91878906  0.47372372
   0.91836023  0.16760616  0.46964401
   0.66872899  0.91768873  0.47606782
   0.83333333  0.83333333  0.38179910
   0.76357511  0.49817392  0.56225130
   0.67105230  0.66437852  0.47359098
   0.01186484  0.24507449  0.56098012
   0.08333333  0.58333333  0.38179910
   0.67043814  0.41330140  0.47331884
   0.67099482  0.16397652  0.47417906
   0.08333333  0.83333333  0.38179910
   0.76380206  0.73588746  0.56241629
   0.16441059  0.92071206  0.47331248
   0.41637566  0.66795331  0.47372340
   0.58333333  0.58333333  0.38179910
   0.49040398  0.26586150  0.56184305
   0.33333333  0.33333333  0.38179910
   0.58333333  0.33333333  0.38179910
   0.41288522  0.16719778  0.47251690
   0.33333333  0.58333333  0.38179910
   0.16175447  0.66874680  0.47457532
   0.24552046  0.50111081  0.56220086
   0.58333333  0.08333333  0.38179910
   0.58333333  0.83333333  0.38179910
   0.31694803  0.83304694  0.60713233
   0.31291000  0.10231567  0.60752283
   0.85703798  0.81780250  0.60877220
   0.58492817  0.83290319  0.61209914
   0.57810871  0.09427265  0.61062434
   0.83890223  0.32858319  0.60994308
   0.84790758  0.08009541  0.60701127
   0.57343132  0.57269785  0.60916216
   0.49498781  0.49857009  0.56156136
   0.16376112  0.16901143  0.47081915
   0.08333333  0.08333333  0.38179910
   0.41682615  0.41564552  0.47363120
   0.01088264  0.74648792  0.56156907
   0.24489611  0.25947316  0.55938601
   0.49761094  0.00317894  0.56575222
   0.16498455  0.41451670  0.47173402
   0.91617803  0.91701635  0.47216060
   0.49646880  0.75042611  0.56728654
   0.24232017  0.74628616  0.56103832
   0.83333333  0.08333333  0.38179910
   0.75120521  0.00036525  0.56597703
   0.00744475  0.49690387  0.55691804
   0.83333333  0.33333333  0.38179910
   0.91763704  0.66495622  0.47111969
   0.74042871  0.25623277  0.56623630
   0.83333333  0.58333333  0.38179910
   0.91930574  0.41552770  0.46900964
   0.08333333  0.33333333  0.38179910
   0.00764100 -0.00505172  0.56144104
   0.33333333  0.83333333  0.38179910
   0.33333333  0.08333333  0.38179910
   0.23941889  0.00423623  0.56427096
Direct configuration=     9
   0.41518124  0.91878507  0.47378687
   0.91833243  0.16760944  0.46969160
   0.66871235  0.91769251  0.47614035
   0.83333333  0.83333333  0.38179910
   0.76371099  0.49796898  0.56228739
   0.67100350  0.66439846  0.47362026
   0.01183482  0.24508851  0.56100794
   0.08333333  0.58333333  0.38179910
   0.67042782  0.41331454  0.47337718
   0.67099921  0.16396976  0.47423635
   0.08333333  0.83333333  0.38179910
   0.76397084  0.73592221  0.56245152
   0.16443809  0.92069531  0.47334681
   0.41639269  0.66794852  0.47377711
   0.58333333  0.58333333  0.38179910
   0.49033901  0.26587871  0.56188696
   0.33333333  0.33333333  0.38179910
   0.58333333  0.33333333  0.38179910
   0.41292064  0.16716587  0.47256468
   0.33333333  0.58333333  0.38179910
   0.16178248  0.66872299  0.47459330
   0.24544525  0.50114245  0.56228243
   0.58333333  0.08333333  0.38179910
   0.58333333  0.83333333  0.38179910
   0.31682879  0.83304526  0.60716106
   0.31275452  0.10245440  0.60756117
   0.85720849  0.81765627  0.60877942
   0.58501595  0.83291243  0.61217850
   0.57801682  0.09445385  0.61067689
   0.83895579  0.32858174  0.60994650
   0.84806194  0.08005073  0.60702792
   0.57338221  0.57253588  0.60918279
   0.49492429  0.49860598  0.56158070
   0.16380643  0.16897942  0.47084438
   0.08333333  0.08333333  0.38179910
   0.41680304  0.41567903  0.47365255
   0.01099987  0.74644227  0.56160051
   0.24486480  0.25965401  0.55937516
   0.49750951  0.00327442  0.56572437
   0.16501312  0.41453493  0.47175822
   0.91616025  0.91703729  0.47220194
   0.49630970  0.75040891  0.56726621
   0.24229361  0.74616799  0.56104836
   0.83333333  0.08333333  0.38179910
   0.75129368  0.00028151  0.56597252
   0.00753801  0.49686292  0.55695156
   0.83333333  0.33333333  0.38179910
   0.91763319  0.66497470  0.47114524
   0.74030496  0.25637611  0.56626415
   0.83333333  0.58333333  0.38179910
   0.91929842  0.41551958  0.46902987
   0.08333333  0.33333333  0.38179910
   0.00771573 -0.00507636  0.56145732
   0.33333333  0.83333333  0.38179910
   0.33333333  0.08333333  0.38179910
   0.23934786  0.00423049  0.56427151
Direct configuration=    10
   0.41518561  0.91887310  0.47458565
   0.91789368  0.16712212  0.47034877
   0.66890259  0.91728277  0.47690439
   0.83333333  0.83333333  0.38179910
   0.76230433  0.49970350  0.56291669
   0.67079564  0.66445469  0.47416962
   0.01170964  0.24499792  0.56124883
   0.08333333  0.58333333  0.38179910
   0.66951466  0.41380835  0.47396352
   0.67072828  0.16441715  0.47492696
   0.08333333  0.83333333  0.38179910
   0.76334005  0.73690064  0.56382278
   0.16508227  0.92023707  0.47327056
   0.41661102  0.66759015  0.47422714
   0.58333333  0.58333333  0.38179910
   0.49027728  0.26415088  0.56311964
   0.33333333  0.33333333  0.38179910
   0.58333333  0.33333333  0.38179910
   0.41357678  0.16689466  0.47291044
   0.33333333  0.58333333  0.38179910
   0.16287905  0.66742451  0.47415733
   0.24493098  0.50154951  0.56420663
   0.58333333  0.08333333  0.38179910
   0.58333333  0.83333333  0.38179910
   0.31498389  0.83262671  0.60812145
   0.31051789  0.10492171  0.60797696
   0.85957021  0.81580814  0.60997112
   0.58577300  0.83255354  0.61231958
   0.57673029  0.09641489  0.61134354
   0.84018528  0.32782958  0.61142732
   0.84934323  0.07957468  0.60738016
   0.57293912  0.57147931  0.60991697
   0.49287075  0.49918233  0.56155912
   0.16523432  0.16825256  0.47107371
   0.08333333  0.08333333  0.38179910
   0.41599644  0.41660762  0.47378354
   0.01202531  0.74623116  0.56192346
   0.24524813  0.25940497  0.55959447
   0.49515318  0.00503511  0.56669745
   0.16558449  0.41529778  0.47183978
   0.91580649  0.91747115  0.47278365
   0.49643433  0.74990401  0.56820689
   0.24435775  0.74447061  0.56159485
   0.83333333  0.08333333  0.38179910
   0.75291876  0.00044444  0.56672178
   0.00822372  0.49672475  0.55778475
   0.83333333  0.33333333  0.38179910
   0.91754832  0.66523909  0.47137140
   0.73949266  0.25568714  0.56709396
   0.83333333  0.58333333  0.38179910
   0.91948114  0.41575412  0.46918057
   0.08333333  0.33333333  0.38179910
   0.00718628 -0.00449382  0.56164240
   0.33333333  0.83333333  0.38179910
   0.33333333  0.08333333  0.38179910
   0.24092674  0.00383310  0.56445936
Direct configuration=    11
   0.41519045  0.91897049  0.47546934
   0.91740830  0.16658299  0.47107581
   0.66911306  0.91682947  0.47774965
   0.83333333  0.83333333  0.38179910
   0.76074814  0.50162240  0.56361288
   0.67056569  0.66451690  0.47477738
   0.01157116  0.24489771  0.56151534
   0.08333333  0.58333333  0.38179910
   0.66850444  0.41435464  0.47461219
   0.67042854  0.16491210  0.47569098
   0.08333333  0.83333333  0.38179910
   0.76264219  0.73798309  0.56533980
   0.16579494  0.91973011  0.47318620
   0.41685256  0.66719369  0.47472500
   0.58333333  0.58333333  0.38179910
   0.49020899  0.26223939  0.56448335
   0.33333333  0.33333333  0.38179910
   0.58333333  0.33333333  0.38179910
   0.41430267  0.16659463  0.47329297
   0.33333333  0.58333333  0.38179910
   0.16409218  0.66598800  0.47367501
   0.24436204  0.50199984  0.56633537
   0.58333333  0.08333333  0.38179910
   0.58333333  0.83333333  0.38179910
   0.31294288  0.83216366  0.60918392
   0.30804351  0.10765131  0.60843695
   0.86218298  0.81376355  0.61128950
   0.58661054  0.83215649  0.61247565
   0.57530700  0.09858439  0.61208106
   0.84154546  0.32699746  0.61306554
   0.85076072  0.07904802  0.60776984
   0.57244893  0.57031042  0.61072918
   0.49059892  0.49981995  0.56153525
   0.16681400  0.16744843  0.47132741
   0.08333333  0.08333333  0.38179910
   0.41510411  0.41763492  0.47392844
   0.01315976  0.74599760  0.56228073
   0.24567221  0.25912946  0.55983708
   0.49254637  0.00698296  0.56777397
   0.16621660  0.41614172  0.47193002
   0.91541513  0.91795113  0.47342719
   0.49657222  0.74934544  0.56924755
   0.24664131  0.74259280  0.56219943
   0.83333333  0.08333333  0.38179910
   0.75471658  0.00062469  0.56755069
   0.00898232  0.49657188  0.55870650
   0.83333333  0.33333333  0.38179910
   0.91745443  0.66553157  0.47162161
   0.73859402  0.25492492  0.56801199
   0.83333333  0.58333333  0.38179910
   0.91968330  0.41601359  0.46934728
   0.08333333  0.33333333  0.38179910
   0.00660054 -0.00384935  0.56184716
   0.33333333  0.83333333  0.38179910
   0.33333333  0.08333333  0.38179910
   0.24267345  0.00339347  0.56466719
Direct configuration=    12
   0.41564922  0.91862450  0.47594244
   0.91741573  0.16660042  0.47141852
   0.66941987  0.91653267  0.47841358
   0.83333333  0.83333333  0.38179910
   0.75988798  0.50175153  0.56460004
   0.67077887  0.66460950  0.47523704
   0.01043689  0.24555502  0.56180686
   0.08333333  0.58333333  0.38179910
   0.66824679  0.41445787  0.47497551
   0.66965837  0.16547403  0.47611329
   0.08333333  0.83333333  0.38179910
   0.76292049  0.73840944  0.56659632
   0.16608038  0.91920781  0.47311541
   0.41701953  0.66736909  0.47480322
   0.58333333  0.58333333  0.38179910
   0.48898368  0.26397952  0.56501847
   0.33333333  0.33333333  0.38179910
   0.58333333  0.33333333  0.38179910
   0.41496486  0.16671834  0.47333808
   0.33333333  0.58333333  0.38179910
   0.16450376  0.66555053  0.47367385
   0.24478212  0.50144027  0.56803195
   0.58333333  0.08333333  0.38179910
   0.58333333  0.83333333  0.38179910
   0.31188589  0.83214948  0.61012937
   0.30609851  0.10941460  0.60928121
   0.86433838  0.81253557  0.61243317
   0.58632775  0.83238883  0.61262359
   0.57570906  0.09775371  0.61311651
   0.84224111  0.32677908  0.61394408
   0.85128669  0.07912360  0.60861147
   0.57163849  0.56962989  0.61125308
   0.49037294  0.49911565  0.56186225
   0.16718743  0.16746346  0.47143063
   0.08333333  0.08333333  0.38179910
   0.41465666  0.41747459  0.47435347
   0.01321739  0.74613170  0.56246553
   0.24510751  0.25937104  0.55985567
   0.49216391  0.00732148  0.56909185
   0.16646183  0.41648825  0.47218869
   0.91555816  0.91768904  0.47373559
   0.49672265  0.74891394  0.57067818
   0.24725550  0.74257700  0.56247554
   0.83333333  0.08333333  0.38179910
   0.75494120  0.00012151  0.56862461
   0.00830536  0.49699480  0.55931559
   0.83333333  0.33333333  0.38179910
   0.91727232  0.66574446  0.47198037
   0.73881210  0.25520446  0.56920164
   0.83333333  0.58333333  0.38179910
   0.91998040  0.41600351  0.46955460
   0.08333333  0.33333333  0.38179910
   0.00787860 -0.00405603  0.56174374
   0.33333333  0.83333333  0.38179910
   0.33333333  0.08333333  0.38179910
   0.24363351  0.00242568  0.56494298
Direct configuration=    13
   0.41657005  0.91793004  0.47689203
   0.91743066  0.16663539  0.47210641
   0.67003570  0.91593695  0.47974619
   0.83333333  0.83333333  0.38179910
   0.75816151  0.50201071  0.56658145
   0.67120676  0.66479536  0.47615967
   0.00816025  0.24687434  0.56239198
   0.08333333  0.58333333  0.38179910
   0.66772965  0.41466505  0.47570475
   0.66811250  0.16660192  0.47696092
   0.08333333  0.83333333  0.38179910
   0.76347907  0.73926518  0.56911837
   0.16665330  0.91815947  0.47297331
   0.41735466  0.66772116  0.47496023
   0.58333333  0.58333333  0.38179910
   0.48652429  0.26747224  0.56609254
   0.33333333  0.33333333  0.38179910
   0.58333333  0.33333333  0.38179910
   0.41629396  0.16696666  0.47342864
   0.33333333  0.58333333  0.38179910
   0.16532986  0.66467245  0.47367152
   0.24562528  0.50031713  0.57143726
   0.58333333  0.08333333  0.38179910
   0.58333333  0.83333333  0.38179910
   0.30976433  0.83212102  0.61202703
   0.30219458  0.11295383  0.61097577
   0.86866462  0.81007082  0.61472870
   0.58576014  0.83285516  0.61292054
   0.57651605  0.09608639  0.61519483
   0.84363739  0.32634074  0.61570746
   0.85234241  0.07927529  0.61030075
   0.57001180  0.56826396  0.61230462
   0.48991936  0.49770202  0.56251859
   0.16793697  0.16749361  0.47163779
   0.08333333  0.08333333  0.38179910
   0.41375856  0.41715277  0.47520658
   0.01333306  0.74640086  0.56283645
   0.24397408  0.25985594  0.55989297
   0.49139625  0.00800095  0.57173705
   0.16695403  0.41718379  0.47270789
   0.91584525  0.91716299  0.47435461
   0.49702460  0.74804785  0.57354967
   0.24848829  0.74254529  0.56302973
   0.83333333  0.08333333  0.38179910
   0.75539206 -0.00088844  0.57078014
   0.00694660  0.49784366  0.56053813
   0.83333333  0.33333333  0.38179910
   0.91690679  0.66617176  0.47270047
   0.73924982  0.25576554  0.57158945
   0.83333333  0.58333333  0.38179910
   0.92057674  0.41598328  0.46997072
   0.08333333  0.33333333  0.38179910
   0.01044387 -0.00447088  0.56153616
   0.33333333  0.83333333  0.38179910
   0.33333333  0.08333333  0.38179910
   0.24556052  0.00048318  0.56549654
Direct configuration=    14
   0.41757131  0.91771887  0.47728961
   0.91753697  0.16712714  0.47212965
   0.67033555  0.91607459  0.48069208
   0.83333333  0.83333333  0.38179910
   0.75802931  0.50188565  0.56786858
   0.67209103  0.66441146  0.47690703
   0.00787720  0.24704567  0.56257380
   0.08333333  0.58333333  0.38179910
   0.66839887  0.41448719  0.47602403
   0.66806319  0.16650785  0.47756288
   0.08333333  0.83333333  0.38179910
   0.76608760  0.73754594  0.57031120
   0.16670781  0.91799318  0.47290453
   0.41790560  0.66777269  0.47493542
   0.58333333  0.58333333  0.38179910
   0.48786730  0.26583375  0.56695266
   0.33333333  0.33333333  0.38179910
   0.58333333  0.33333333  0.38179910
   0.41672586  0.16665195  0.47348043
   0.33333333  0.58333333  0.38179910
   0.16507466  0.66502395  0.47456019
   0.24381977  0.50141734  0.57346238
   0.58333333  0.08333333  0.38179910
   0.58333333  0.83333333  0.38179910
   0.30893008  0.83277267  0.61317965
   0.29959180  0.11456180  0.61193192
   0.87184956  0.80888178  0.61609859
   0.58493470  0.83401621  0.61451341
   0.57766528  0.09506834  0.61626983
   0.84402143  0.32662022  0.61668313
   0.85436956  0.07834486  0.61101325
   0.56880641  0.56684890  0.61336711
   0.49138227  0.49766439  0.56311411
   0.16751334  0.16788824  0.47178177
   0.08333333  0.08333333  0.38179910
   0.41363138  0.41670603  0.47592635
   0.01309465  0.74638227  0.56298285
   0.24265215  0.25958001  0.55989610
   0.49084127  0.00948932  0.57335533
   0.16646133  0.41718774  0.47339472
   0.91587376  0.91687920  0.47449118
   0.49525914  0.74758895  0.57513409
   0.24782159  0.74323113  0.56295326
   0.83333333  0.08333333  0.38179910
   0.75472770 -0.00065887  0.57266136