<?xml version="1.0" encoding="ISO-8859-1"?>
<modeling>
 <generator>
  <i name="program" type="string">vasp </i>
  <i name="version" type="string">5.4.1  </i>
  <i name="subversion" type="string">24Jun15 (build Mar 14 2019 10:18:33) complex                          parallel </i>
  <i name="platform" type="string">INTEL-19.0.2+OPENMPI-3.1.3 </i>
  <i name="date" type="string">2023 01 30 </i>
  <i name="time" type="string">23:53:27 </i>
 </generator>
 <incar>
  <i type="int" name="ISTART">     0</i>
  <i type="string" name="PREC">normal</i>
  <i type="string" name="ALGO"> Fast</i>
  <i type="int" name="NELM">   500</i>
  <i type="int" name="IBRION">     2</i>
  <i type="int" name="NFREE">     2</i>
  <i name="EDIFF">      0.00000100</i>
  <i name="EDIFFG">     -0.02000000</i>
  <i type="int" name="NSW">   500</i>
  <i type="int" name="ISIF">     0</i>
  <i type="int" name="ISYM">     2</i>
  <i name="ENCUT">    400.00000000</i>
  <i name="POTIM">      0.35000000</i>
  <i type="string" name="LREAL"> Auto</i>
  <i type="logical" name="LPLANE"> T  </i>
  <i type="int" name="ISMEAR">     0</i>
  <i name="SIGMA">      0.10000000</i>
  <i type="int" name="NWRITE">     1</i>
  <i type="logical" name="LWAVE"> F  </i>
  <i type="logical" name="LCHARG"> F  </i>
  <i type="logical" name="LVTOT"> F  </i>
  <i type="logical" name="LORBIT"> F  </i>
  <i type="logical" name="LAECHG"> F  </i>
  <v type="int" name="KPOINT_BSE">    -1     0     0     0</v>
  <i type="int" name="NELM">   500</i>
  <i type="string" name="GGA"> PE          ! optPBE-vdW XC-functional</i>
  <i type="int" name="VOSKOWN">     1</i>
  <i type="logical" name="LDIPOL"> T  </i>
  <i type="logical" name="LMONO"> F  </i>
  <i type="int" name="IDIPOL">     3</i>
  <v name="DIPOL">      0.00000000      0.00000000      0.50000000</v>
 </incar>
 <kpoints>
  <generation param="Monkhorst-Pack">
   <v type="int" name="divisions">       2        2        1 </v>
   <v name="usershift">      0.00000000       0.00000000       0.00000000 </v>
   <v name="genvec1">      0.50000000      -0.00000000       0.00000000 </v>
   <v name="genvec2">      0.00000000       0.50000000       0.00000000 </v>
   <v name="genvec3">      0.00000000       0.00000000       1.00000000 </v>
   <v name="shift">      0.50000000       0.50000000       0.00000000 </v>
  </generation>
  <varray name="kpointlist" >
   <v>       0.25000000       0.25000000       0.00000000 </v>
   <v>       0.00000000       0.25000000       0.00000000 </v>
   <v>      -0.25000000       0.00000000       0.00000000 </v>
   <v>      -0.25000000       0.25000000       0.00000000 </v>
   <v>       0.50000000      -0.25000000       0.00000000 </v>
   <v>      -0.25000000       0.50000000       0.00000000 </v>
  </varray>
  <varray name="weights" >
   <v>       0.16666667 </v>
   <v>       0.16666667 </v>
   <v>       0.16666667 </v>
   <v>       0.16666667 </v>
   <v>       0.16666667 </v>
   <v>       0.16666667 </v>
  </varray>
 </kpoints>
 <parameters>
  <separator name="general" >
   <i type="string" name="SYSTEM">unknown system</i>
   <i type="logical" name="LCOMPAT"> F  </i>
  </separator>
  <separator name="electronic" >
   <i type="string" name="PREC">normal</i>
   <i name="ENMAX">    400.00000000</i>
   <i name="ENAUG">    416.23000000</i>
   <i name="EDIFF">      0.00000100</i>
   <i type="int" name="IALGO">    68</i>
   <i type="int" name="IWAVPR">    11</i>
   <i type="int" name="NBANDS">   306</i>
   <i name="NELECT">    504.00000000</i>
   <i type="int" name="TURBO">     0</i>
   <i type="int" name="IRESTART">     0</i>
   <i type="int" name="NREBOOT">     0</i>
   <i type="int" name="NMIN">     0</i>
   <i name="EREF">      0.00000000</i>
   <separator name="electronic smearing" >
    <i type="int" name="ISMEAR">     0</i>
    <i name="SIGMA">      0.10000000</i>
    <i name="KSPACING">      0.50000000</i>
    <i type="logical" name="KGAMMA"> T  </i>
   </separator>
   <separator name="electronic projectors" >
    <i type="logical" name="LREAL"> T  </i>
    <v name="ROPT">     -0.00050000     -0.00050000</v>
    <i type="int" name="LMAXPAW">  -100</i>
    <i type="int" name="LMAXMIX">     2</i>
    <i type="logical" name="NLSPLINE"> F  </i>
   </separator>
   <separator name="electronic startup" >
    <i type="int" name="ISTART">     0</i>
    <i type="int" name="ICHARG">     2</i>
    <i type="int" name="INIWAV">     1</i>
   </separator>
   <separator name="electronic spin" >
    <i type="int" name="ISPIN">     1</i>
    <i type="logical" name="LNONCOLLINEAR"> F  </i>
    <v name="MAGMOM">      1.00000000      1.00000000      1.00000000      1.00000000      1.00000000      1.00000000      1.00000000      1.00000000      1.00000000      1.00000000      1.00000000      1.00000000      1.00000000      1.00000000      1.00000000      1.00000000      1.00000000      1.00000000      1.00000000      1.00000000
      1.00000000      1.00000000      1.00000000      1.00000000      1.00000000      1.00000000      1.00000000      1.00000000      1.00000000      1.00000000      1.00000000      1.00000000      1.00000000      1.00000000      1.00000000      1.00000000      1.00000000      1.00000000      1.00000000      1.00000000
      1.00000000      1.00000000      1.00000000      1.00000000      1.00000000      1.00000000      1.00000000      1.00000000</v>
    <i name="NUPDOWN">     -1.00000000</i>
    <i type="logical" name="LSORBIT"> F  </i>
    <v name="SAXIS">      0.00000000      0.00000000      1.00000000</v>
    <i type="logical" name="LSPIRAL"> F  </i>
    <v name="QSPIRAL">      0.00000000      0.00000000      0.00000000</v>
    <i type="logical" name="LZEROZ"> F  </i>
   </separator>
   <separator name="electronic exchange-correlation" >
    <i type="logical" name="LASPH"> F  </i>
    <i type="logical" name="LMETAGGA"> F  </i>
   </separator>
   <separator name="electronic convergence" >
    <i type="int" name="NELM">   500</i>
    <i type="int" name="NELMDL">    -5</i>
    <i type="int" name="NELMIN">     2</i>
    <i name="ENINI">    400.00000000</i>
    <separator name="electronic convergence detail" >
     <i type="logical" name="LDIAG"> T  </i>
     <i type="logical" name="LSUBROT"> F  </i>
     <i name="WEIMIN">      0.00100000</i>
     <i name="EBREAK">      0.00000000</i>
     <i name="DEPER">      0.30000000</i>
     <i type="int" name="NRMM">     4</i>
     <i name="TIME">      0.40000000</i>
    </separator>
   </separator>
   <separator name="electronic mixer" >
    <i name="AMIX">      0.40000000</i>
    <i name="BMIX">      1.00000000</i>
    <i name="AMIN">      0.10000000</i>
    <i name="AMIX_MAG">      1.60000000</i>
    <i name="BMIX_MAG">      1.00000000</i>
    <separator name="electronic mixer details" >
     <i type="int" name="IMIX">     4</i>
     <i type="logical" name="MIXFIRST"> F  </i>
     <i type="int" name="MAXMIX">   -45</i>
     <i name="WC">    100.00000000</i>
     <i type="int" name="INIMIX">     1</i>
     <i type="int" name="MIXPRE">     1</i>
     <i type="int" name="MREMOVE">     5</i>
    </separator>
   </separator>
   <separator name="electronic dipolcorrection" >
    <i type="logical" name="LDIPOL"> T  </i>
    <i type="logical" name="LMONO"> F  </i>
    <i type="int" name="IDIPOL">     3</i>
    <i name="EPSILON">      1.00000000</i>
    <v name="DIPOL">      0.00000000      0.00000000      0.50000000</v>
    <i name="EFIELD">      0.00000000</i>
   </separator>
  </separator>
  <separator name="grids" >
   <i type="int" name="NGX">    54</i>
   <i type="int" name="NGY">    54</i>
   <i type="int" name="NGZ">   120</i>
   <i type="int" name="NGXF">   108</i>
   <i type="int" name="NGYF">   108</i>
   <i type="int" name="NGZF">   240</i>
   <i type="logical" name="ADDGRID"> F  </i>
  </separator>
  <separator name="ionic" >
   <i type="int" name="NSW">   500</i>
   <i type="int" name="IBRION">     2</i>
   <i type="int" name="ISIF">     0</i>
   <i name="PSTRESS">      0.00000000</i>
   <i name="EDIFFG">     -0.02000000</i>
   <i type="int" name="NFREE">     2</i>
   <i name="POTIM">      0.35000000</i>
   <i name="SMASS">     -3.00000000</i>
   <i name="SCALEE">      1.00000000</i>
  </separator>
  <separator name="ionic md" >
   <i name="TEBEG">      0.00010000</i>
   <i name="TEEND">      0.00010000</i>
   <i type="int" name="NBLOCK">     1</i>
   <i type="int" name="KBLOCK">   500</i>
   <i type="int" name="NPACO">   256</i>
   <i name="APACO">     16.00000000</i>
  </separator>
  <separator name="symmetry" >
   <i type="int" name="ISYM">     2</i>
   <i name="SYMPREC">      0.00001000</i>
  </separator>
  <separator name="dos" >
   <i type="logical" name="LORBIT"> F  </i>
   <v name="RWIGS">     -1.00000000     -1.00000000</v>
   <i type="int" name="NEDOS">   301</i>
   <i name="EMIN">     10.00000000</i>
   <i name="EMAX">    -10.00000000</i>
   <i name="EFERMI">      0.00000000</i>
  </separator>
  <separator name="writing" >
   <i type="int" name="NWRITE">     1</i>
   <i type="logical" name="LWAVE"> F  </i>
   <i type="logical" name="LCHARG"> F  </i>
   <i type="logical" name="LPARD"> F  </i>
   <i type="logical" name="LVTOT"> F  </i>
   <i type="logical" name="LVHAR"> F  </i>
   <i type="logical" name="LELF"> F  </i>
   <i type="logical" name="LOPTICS"> F  </i>
   <v name="STM">      0.00000000      0.00000000      0.00000000      0.00000000      0.00000000      0.00000000      0.00000000</v>
  </separator>
  <separator name="performance" >
   <i type="int" name="NPAR">     6</i>
   <i type="int" name="NSIM">     4</i>
   <i type="int" name="NBLK">    -1</i>
   <i type="logical" name="LPLANE"> T  </i>
   <i type="logical" name="LSCALAPACK"> T  </i>
   <i type="logical" name="LSCAAWARE"> F  </i>
   <i type="logical" name="LSCALU"> F  </i>
   <i type="logical" name="LASYNC"> F  </i>
   <i type="logical" name="LORBITALREAL"> F  </i>
  </separator>
  <separator name="miscellaneous" >
   <i type="int" name="IDIOT">     3</i>
   <i type="logical" name="LMUSIC"> F  </i>
   <v name="POMASS">    196.96600000    106.42000000</v>
   <v name="DARWINR">      0.00000000      0.00000000</v>
   <v name="DARWINV">      1.00000000      1.00000000</v>
   <i type="logical" name="LCORR"> T  </i>
  </separator>
  <i type="logical" name="GGA_COMPAT"> T  </i>
  <i type="logical" name="LBERRY"> F  </i>
  <i type="int" name="ICORELEVEL">     0</i>
  <i type="logical" name="LDAU"> F  </i>
  <i type="int" name="I_CONSTRAINED_M">     0</i>
  <separator name="electronic exchange-correlation" >
   <i type="string" name="GGA">PE</i>
   <i type="int" name="VOSKOWN">     1</i>
   <i type="logical" name="LHFCALC"> F  </i>
   <i type="string" name="PRECFOCK"></i>
   <i type="logical" name="LSYMGRAD"> F  </i>
   <i type="logical" name="LHFONE"> F  </i>
   <i type="logical" name="LRHFCALC"> F  </i>
   <i type="logical" name="LTHOMAS"> F  </i>
   <i type="logical" name="LMODELHF"> F  </i>
   <i name="ENCUT4O">     -1.00000000</i>
   <i type="int" name="EXXOEP">     0</i>
   <i type="int" name="FOURORBIT">     0</i>
   <i name="AEXX">      0.00000000</i>
   <i name="HFALPHA">      0.00000000</i>
   <i name="MCALPHA">      0.00000000</i>
   <i name="ALDAX">      1.00000000</i>
   <i name="AGGAX">      1.00000000</i>
   <i name="ALDAC">      1.00000000</i>
   <i name="AGGAC">      1.00000000</i>
   <i type="int" name="NKREDX">     1</i>
   <i type="int" name="NKREDY">     1</i>
   <i type="int" name="NKREDZ">     1</i>
   <i type="logical" name="SHIFTRED"> F  </i>
   <i type="logical" name="ODDONLY"> F  </i>
   <i type="logical" name="EVENONLY"> F  </i>
   <i type="int" name="LMAXFOCK">     0</i>
   <i type="int" name="NMAXFOCKAE">     0</i>
   <i type="logical" name="LFOCKAEDFT"> F  </i>
   <i name="HFSCREEN">      0.00000000</i>
   <i name="HFSCREENC">      0.00000000</i>
   <i type="int" name="NBANDSGWLOW">     0</i>
  </separator>
  <separator name="vdW DFT" >
   <i type="logical" name="LUSE_VDW"> F  </i>
   <i name="Zab_VDW">     -0.84910000</i>
   <i name="PARAM1">      0.12340000</i>
   <i name="PARAM2">      1.00000000</i>
   <i name="PARAM3">      0.00000000</i>
  </separator>
  <separator name="model GW" >
   <i type="int" name="MODEL_GW">     0</i>
   <i name="MODEL_EPS0">     32.09595293</i>
   <i name="MODEL_ALPHA">      1.00000000</i>
  </separator>
  <separator name="linear response parameters" >
   <i type="logical" name="LEPSILON"> F  </i>
   <i type="logical" name="LRPA"> F  </i>
   <i type="logical" name="LNABLA"> F  </i>
   <i type="logical" name="LVEL"> F  </i>
   <i type="int" name="KINTER">     0</i>
   <i name="CSHIFT">      0.10000000</i>
   <i name="OMEGAMAX">     -1.00000000</i>
   <i name="DEG_THRESHOLD">      0.00200000</i>
  </separator>
  <separator name="orbital magnetization" >
   <i type="logical" name="NUCIND"> F  </i>
   <v name="MAGPOS">      0.00000000      0.00000000      0.00000000</v>
   <i type="logical" name="LNICSALL"> T  </i>
   <i type="logical" name="ORBITALMAG"> F  </i>
   <i type="logical" name="LMAGBLOCH"> F  </i>
   <i type="logical" name="LCHIMAG"> F  </i>
   <i type="logical" name="LGAUGE"> T  </i>
   <i type="int" name="MAGATOM">     0</i>
   <v name="MAGDIPOL">      0.00000000      0.00000000      0.00000000</v>
   <v name="AVECCONST">      0.00000000      0.00000000      0.00000000</v>
  </separator>
  <separator name="response functions" >
   <i type="logical" name="LADDER"> F  </i>
   <i type="logical" name="LFXC"> F  </i>
   <i type="logical" name="LHARTREE"> T  </i>
   <i type="int" name="IBSE">     0</i>
   <v type="int" name="KPOINT">    -1     0     0     0</v>
   <i type="logical" name="LTCTE"> F  </i>
   <i type="logical" name="LTETE"> F  </i>
   <i type="logical" name="LTRIPLET"> F  </i>
   <i type="logical" name="LFXCEPS"> F  </i>
   <i type="logical" name="LFXHEG"> F  </i>
   <i type="int" name="NATURALO">     0</i>
   <i type="logical" name="L2ORDER"> F  </i>
   <i type="logical" name="LUSEW"> F  </i>
   <i name="ENCUTGW">     -2.00000000</i>
   <i name="ENCUTGWSOFT">     -2.00000000</i>
   <i name="ENCUTLF">     -1.00000000</i>
   <i type="int" name="LMAXMP2">    -1</i>
   <i name="SCISSOR">      0.00000000</i>
   <i type="int" name="NOMEGA">     0</i>
   <i type="int" name="NOMEGAR">     0</i>
   <i type="int" name="NBANDSGW">    -1</i>
   <i type="int" name="NBANDSO">    -1</i>
   <i type="int" name="NBANDSV">    -1</i>
   <i type="int" name="NELM">   500</i>
   <i type="int" name="NELMHF">     1</i>
   <i type="int" name="DIM">     3</i>
   <i type="int" name="ANTIRES">     0</i>
   <i name="OMEGAMAX">    -30.00000000</i>
   <i name="OMEGAMIN">    -30.00000000</i>
   <i name="OMEGATL">   -200.00000000</i>
   <i type="int" name="OMEGAGRID">     0</i>
   <i name="CSHIFT">     -0.10000000</i>
   <i type="logical" name="SELFENERGY"> F  </i>
   <i type="logical" name="LSPECTRAL"> F  </i>
   <i type="logical" name="LSPECTRALGW"> F  </i>
   <i type="logical" name="LSINGLES"> F  </i>
   <i type="logical" name="LFERMIGW"> F  </i>
   <i type="logical" name="ODDONLYGW"> F  </i>
   <i type="logical" name="EVENONLYGW"> F  </i>
   <i type="int" name="NKREDLFX">     1</i>
   <i type="int" name="NKREDLFY">     1</i>
   <i type="int" name="NKREDLFZ">     1</i>
   <i type="int" name="MAXMEM">  1800</i>
   <i type="int" name="TELESCOPE">     0</i>
   <i type="int" name="TAUPAR">     1</i>
   <i type="int" name="OMEGAPAR">    -1</i>
   <i name="LAMBDA">      1.00000000</i>
  </separator>
  <separator name="External order field" >
   <i name="OFIELD_KAPPA">      0.00000000</i>
   <v name="OFIELD_K">      0.00000000      0.00000000      0.00000000</v>
   <i name="OFIELD_Q6_NEAR">      0.00000000</i>
   <i name="OFIELD_Q6_FAR">      0.00000000</i>
   <i name="OFIELD_A">      0.00000000</i>
  </separator>
 </parameters>
 <atominfo>
  <atoms>      48 </atoms>
  <types>       2 </types>
  <array name="atoms" >
   <dimension dim="1">ion</dimension>
   <field type="string">element</field>
   <field type="int">atomtype</field>
   <set>
    <rc><c>Au</c><c>   1</c></rc>
    <rc><c>Au</c><c>   1</c></rc>
    <rc><c>Au</c><c>   1</c></rc>
    <rc><c>Au</c><c>   1</c></rc>
    <rc><c>Au</c><c>   1</c></rc>
    <rc><c>Au</c><c>   1</c></rc>
    <rc><c>Au</c><c>   1</c></rc>
    <rc><c>Au</c><c>   1</c></rc>
    <rc><c>Au</c><c>   1</c></rc>
    <rc><c>Au</c><c>   1</c></rc>
    <rc><c>Au</c><c>   1</c></rc>
    <rc><c>Au</c><c>   1</c></rc>
    <rc><c>Au</c><c>   1</c></rc>
    <rc><c>Au</c><c>   1</c></rc>
    <rc><c>Au</c><c>   1</c></rc>
    <rc><c>Au</c><c>   1</c></rc>
    <rc><c>Au</c><c>   1</c></rc>
    <rc><c>Au</c><c>   1</c></rc>
    <rc><c>Au</c><c>   1</c></rc>
    <rc><c>Au</c><c>   1</c></rc>
    <rc><c>Au</c><c>   1</c></rc>
    <rc><c>Au</c><c>   1</c></rc>
    <rc><c>Au</c><c>   1</c></rc>
    <rc><c>Au</c><c>   1</c></rc>
    <rc><c>Pd</c><c>   2</c></rc>
    <rc><c>Pd</c><c>   2</c></rc>
    <rc><c>Pd</c><c>   2</c></rc>
    <rc><c>Pd</c><c>   2</c></rc>
    <rc><c>Pd</c><c>   2</c></rc>
    <rc><c>Pd</c><c>   2</c></rc>
    <rc><c>Pd</c><c>   2</c></rc>
    <rc><c>Pd</c><c>   2</c></rc>
    <rc><c>Pd</c><c>   2</c></rc>
    <rc><c>Pd</c><c>   2</c></rc>
    <rc><c>Pd</c><c>   2</c></rc>
    <rc><c>Pd</c><c>   2</c></rc>
    <rc><c>Pd</c><c>   2</c></rc>
    <rc><c>Pd</c><c>   2</c></rc>
    <rc><c>Pd</c><c>   2</c></rc>
    <rc><c>Pd</c><c>   2</c></rc>
    <rc><c>Pd</c><c>   2</c></rc>
    <rc><c>Pd</c><c>   2</c></rc>
    <rc><c>Pd</c><c>   2</c></rc>
    <rc><c>Pd</c><c>   2</c></rc>
    <rc><c>Pd</c><c>   2</c></rc>
    <rc><c>Pd</c><c>   2</c></rc>
    <rc><c>Pd</c><c>   2</c></rc>
    <rc><c>Pd</c><c>   2</c></rc>
   </set>
  </array>
  <array name="atomtypes" >
   <dimension dim="1">type</dimension>
   <field type="int">atomspertype</field>
   <field type="string">element</field>
   <field>mass</field>
   <field>valence</field>
   <field type="string">pseudopotential</field>
   <set>
    <rc><c>  24</c><c>Au</c><c>    196.96600000</c><c>     11.00000000</c><c>  PAW_PBE Au 04Oct2007                  </c></rc>
    <rc><c>  24</c><c>Pd</c><c>    106.42000000</c><c>     10.00000000</c><c>  PAW_PBE Pd 04Jan2005                  </c></rc>
   </set>
  </array>
 </atominfo>
 <structure name="initialpos" >
  <crystal>
   <varray name="basis" >
    <v>      11.00258152       0.00000000       0.00000000 </v>
    <v>       5.50129076       9.52851510       0.00000000 </v>
    <v>       0.00000000       0.00000000      24.49178509 </v>
   </varray>
   <i name="volume">   2567.67623402 </i>
   <varray name="rec_basis" >
    <v>       0.09088776      -0.05247407       0.00000000 </v>
    <v>       0.00000000       0.10494815       0.00000000 </v>
    <v>       0.00000000       0.00000000       0.04083002 </v>
   </varray>
  </crystal>
  <varray name="positions" >
   <v>       0.08333333       0.08333333       0.40830017 </v>
   <v>       0.00000000       0.25000000       0.59169983 </v>
   <v>       0.08333333       0.58333333       0.40830017 </v>
   <v>       0.91666667       0.91666667       0.50000000 </v>
   <v>       0.08333333       0.83333333       0.40830017 </v>
   <v>       0.91666667       0.41666667       0.50000000 </v>
   <v>       0.33333333       0.33333333       0.40830017 </v>
   <v>       0.00000000       0.75000000       0.59169983 </v>
   <v>       0.25000000       0.75000000       0.59169983 </v>
   <v>       0.25000000       0.25000000       0.59169983 </v>
   <v>       0.16666667       0.91666667       0.50000000 </v>
   <v>       0.66666667       0.91666667       0.50000000 </v>
   <v>       0.08333333       0.33333333       0.40830017 </v>
   <v>       0.41666667       0.16666667       0.50000000 </v>
   <v>       0.50000000       0.00000000       0.59169983 </v>
   <v>       0.41666667       0.41666667       0.50000000 </v>
   <v>       0.41666667       0.66666667       0.50000000 </v>
   <v>       0.50000000       0.50000000       0.59169983 </v>
   <v>       0.41666667       0.91666667       0.50000000 </v>
   <v>       0.66666667       0.16666667       0.50000000 </v>
   <v>       0.75000000       0.25000000       0.59169983 </v>
   <v>       0.66666667       0.66666667       0.50000000 </v>
   <v>       0.83333333       0.83333333       0.40830017 </v>
   <v>       0.58333333       0.08333333       0.40830017 </v>
   <v>       0.00000000       0.50000000       0.59169983 </v>
   <v>       0.58333333       0.33333333       0.40830017 </v>
   <v>       0.33333333       0.08333333       0.40830017 </v>
   <v>       0.16666667       0.16666667       0.50000000 </v>
   <v>       0.25000000       0.00000000       0.59169983 </v>
   <v>       0.25000000       0.50000000       0.59169983 </v>
   <v>       0.16666667       0.66666667       0.50000000 </v>
   <v>       0.33333333       0.58333333       0.40830017 </v>
   <v>       0.50000000       0.25000000       0.59169983 </v>
   <v>       0.33333333       0.83333333       0.40830017 </v>
   <v>       0.58333333       0.58333333       0.40830017 </v>
   <v>       0.50000000       0.75000000       0.59169983 </v>
   <v>       0.16666667       0.41666667       0.50000000 </v>
   <v>       0.66666667       0.41666667       0.50000000 </v>
   <v>       0.91666667       0.16666667       0.50000000 </v>
   <v>       0.83333333       0.08333333       0.40830017 </v>
   <v>       0.75000000       0.50000000       0.59169983 </v>
   <v>       0.75000000       0.00000000       0.59169983 </v>
   <v>       0.00000000       0.00000000       0.59169983 </v>
   <v>       0.83333333       0.58333333       0.40830017 </v>
   <v>       0.83333333       0.33333333       0.40830017 </v>
   <v>       0.58333333       0.83333333       0.40830017 </v>
   <v>       0.91666667       0.66666667       0.50000000 </v>
   <v>       0.75000000       0.75000000       0.59169983 </v>
  </varray>
  <varray name="selective"  type="logical" >
   <v type="logical" >  F  F  F </v>
   <v type="logical" >  T  T  T </v>
   <v type="logical" >  F  F  F </v>
   <v type="logical" >  T  T  T </v>
   <v type="logical" >  F  F  F </v>
   <v type="logical" >  T  T  T </v>
   <v type="logical" >  F  F  F </v>
   <v type="logical" >  T  T  T </v>
   <v type="logical" >  T  T  T </v>
   <v type="logical" >  T  T  T </v>
   <v type="logical" >  T  T  T </v>
   <v type="logical" >  T  T  T </v>
   <v type="logical" >  F  F  F </v>
   <v type="logical" >  T  T  T </v>
   <v type="logical" >  T  T  T </v>
   <v type="logical" >  T  T  T </v>
   <v type="logical" >  T  T  T </v>
   <v type="logical" >  T  T  T </v>
   <v type="logical" >  T  T  T </v>
   <v type="logical" >  T  T  T </v>
   <v type="logical" >  T  T  T </v>
   <v type="logical" >  T  T  T </v>
   <v type="logical" >  F  F  F </v>
   <v type="logical" >  F  F  F </v>
   <v type="logical" >  T  T  T </v>
   <v type="logical" >  F  F  F </v>
   <v type="logical" >  F  F  F </v>
   <v type="logical" >  T  T  T </v>
   <v type="logical" >  T  T  T </v>
   <v type="logical" >  T  T  T </v>
   <v type="logical" >  T  T  T </v>
   <v type="logical" >  F  F  F </v>
   <v type="logical" >  T  T  T </v>
   <v type="logical" >  F  F  F </v>
   <v type="logical" >  F  F  F </v>
   <v type="logical" >  T  T  T </v>
   <v type="logical" >  T  T  T </v>
   <v type="logical" >  T  T  T </v>
   <v type="logical" >  T  T  T </v>
   <v type="logical" >  F  F  F </v>
   <v type="logical" >  T  T  T </v>
   <v type="logical" >  T  T  T </v>
   <v type="logical" >  T  T  T </v>
   <v type="logical" >  F  F  F </v>
   <v type="logical" >  F  F  F </v>
   <v type="logical" >  F  F  F </v>
   <v type="logical" >  T  T  T </v>
   <v type="logical" >  T  T  T </v>
  </varray>
  <nose>
   <v>      -3.00000000       0.00000000       0.00010000       0.00010000 </v>
  </nose>
 </structure>
 <calculation>
  <scstep>
   <time name="dav">    9.28    9.35</time>
   <time name="total">    9.35    9.42</time>
   <dipole>
    <v name="dipole">      0.00000000       0.00000000       0.00000000 </v>
    <i name="Tr[quadrupol]"> -10237.81051312 </i>
    <i name="Echarged">      0.00000000 </i>
    <i name="Edipol_quadrupol">      0.00000000 </i>
    <i name="Eion">      0.00000000 </i>
   </dipole>
   <energy>
    <i name="alphaZ">    805.86936429 </i>
    <i name="ewald"> 200628.27497104 </i>
    <i name="hartreedc">-243044.08505532 </i>
    <i name="XCdc">   -327.50162628 </i>
    <i name="pawpsdc">  40340.05962942 </i>
    <i name="pawaedc"> -38292.62782345 </i>
    <i name="eentropy">     -0.13483759 </i>
    <i name="bandstr">   1431.05354320 </i>
    <i name="atom">  41659.78587232 </i>
    <i name="e_fr_energy">   3200.69403763 </i>
    <i name="e_wo_entrp">   3200.82887522 </i>
    <i name="e_0_energy">   3200.76145643 </i>
   </energy>
  </scstep>
  <scstep>
   <time name="dav">   11.14   11.15</time>
   <time name="total">   11.14   11.15</time>
   <dipole>
    <v name="dipole">      0.00000000       0.00000000       0.00000000 </v>
    <i name="Tr[quadrupol]"> -10237.81051312 </i>
    <i name="Echarged">      0.00000000 </i>
    <i name="Edipol_quadrupol">      0.00000000 </i>
    <i name="Eion">      0.00000000 </i>
   </dipole>
   <energy>
    <i name="e_fr_energy">     16.40820223 </i>
    <i name="e_wo_entrp">     16.55104030 </i>
    <i name="e_0_energy">     16.47962126 </i>
   </energy>
  </scstep>
  <scstep>
   <time name="dav">   10.81   10.82</time>
   <time name="total">   10.81   10.82</time>
   <dipole>
    <v name="dipole">      0.00000000       0.00000000       0.00000000 </v>
    <i name="Tr[quadrupol]"> -10237.81051312 </i>
    <i name="Echarged">      0.00000000 </i>
    <i name="Edipol_quadrupol">      0.00000000 </i>
    <i name="Eion">      0.00000000 </i>
   </dipole>
   <energy>
    <i name="e_fr_energy">   -199.31418202 </i>
    <i name="e_wo_entrp">   -199.09033504 </i>
    <i name="e_0_energy">   -199.20225853 </i>
   </energy>
  </scstep>
  <scstep>
   <time name="dav">   11.74   11.78</time>
   <time name="total">   11.74   11.78</time>
   <dipole>
    <v name="dipole">      0.00000000       0.00000000       0.00000000 </v>
    <i name="Tr[quadrupol]"> -10237.81051312 </i>
    <i name="Echarged">      0.00000000 </i>
    <i name="Edipol_quadrupol">      0.00000000 </i>
    <i name="Eion">      0.00000000 </i>
   </dipole>
   <energy>
    <i name="e_fr_energy">   -205.11085921 </i>
    <i name="e_wo_entrp">   -204.87945264 </i>
    <i name="e_0_energy">   -204.99515592 </i>
   </energy>
  </scstep>
  <scstep>
   <time name="dav">   11.31   11.38</time>
   <time name="total">   11.62   11.69</time>
   <dipole>
    <v name="dipole">      0.00000000       0.00000000       0.00000000 </v>
    <i name="Tr[quadrupol]"> -10237.81051312 </i>
    <i name="Echarged">      0.00000000 </i>
    <i name="Edipol_quadrupol">      0.00000000 </i>
    <i name="Eion">      0.00000000 </i>
   </dipole>
   <energy>
    <i name="e_fr_energy">   -205.30094049 </i>
    <i name="e_wo_entrp">   -205.07035581 </i>
    <i name="e_0_energy">   -205.18564815 </i>
   </energy>
  </scstep>
  <scstep>
   <time name="diag">    1.68    1.68</time>
   <time name="diis">    4.53    4.53</time>
   <time name="orth">    0.42    0.42</time>
   <time name="total">    6.99    7.00</time>
   <dipole>
    <v name="dipole">      0.00000000       0.00000000       0.00615791 </v>
    <i name="Tr[quadrupol]"> -10237.82867508 </i>
    <i name="Echarged">      0.00000000 </i>
    <i name="Edipol_quadrupol">      0.00000000 </i>
    <i name="Eion">      0.00000000 </i>
   </dipole>
   <energy>
    <i name="e_fr_energy">   -195.97256533 </i>
    <i name="e_wo_entrp">   -195.71344861 </i>
    <i name="e_0_energy">   -195.84300697 </i>
   </energy>
  </scstep>
  <scstep>
   <time name="diag">    1.68    1.68</time>
   <time name="diis">    4.53    4.53</time>
   <time name="orth">    0.42    0.42</time>
   <time name="total">    7.00    7.00</time>
   <dipole>
    <v name="dipole">      0.00000000       0.00000000       0.53605603 </v>
    <i name="Tr[quadrupol]"> -10238.23544715 </i>
    <i name="Echarged">      0.00000000 </i>
    <i name="Edipol_quadrupol">      0.00000000 </i>
    <i name="Eion">      0.00000000 </i>
   </dipole>
   <energy>
    <i name="e_fr_energy">   -199.24123661 </i>
    <i name="e_wo_entrp">   -199.06586647 </i>
    <i name="e_0_energy">   -199.15355154 </i>
   </energy>
  </scstep>
  <scstep>
   <time name="diag">    1.69    1.69</time>
   <time name="diis">    4.46    4.47</time>
   <time name="orth">    0.42    0.42</time>
   <time name="total">    6.94    6.95</time>
   <dipole>
    <v name="dipole">      0.00000000       0.00000000      -1.82695883 </v>
    <i name="Tr[quadrupol]"> -10240.22989494 </i>
    <i name="Echarged">      0.00000000 </i>
    <i name="Edipol_quadrupol">      0.00000000 </i>
    <i name="Eion">      0.00000000 </i>
   </dipole>
   <energy>
    <i name="e_fr_energy">   -218.52265215 </i>
    <i name="e_wo_entrp">   -218.26024602 </i>
    <i name="e_0_energy">   -218.39144908 </i>
   </energy>
  </scstep>
  <scstep>
   <time name="diag">    1.68    1.68</time>
   <time name="diis">    4.43    4.43</time>
   <time name="orth">    0.42    0.42</time>
   <time name="total">    6.90    6.91</time>
   <dipole>
    <v name="dipole">      0.00000000       0.00000000       0.81331198 </v>
    <i name="Tr[quadrupol]"> -10240.75742619 </i>
    <i name="Echarged">      0.00000000 </i>
    <i name="Edipol_quadrupol">      0.00000000 </i>
    <i name="Eion">      0.00000000 </i>
   </dipole>
   <energy>
    <i name="e_fr_energy">   -206.16011166 </i>
    <i name="e_wo_entrp">   -205.96429523 </i>
    <i name="e_0_energy">   -206.06220345 </i>
   </energy>
  </scstep>
  <scstep>
   <time name="diag">    1.68    1.69</time>
   <time name="diis">    4.48    4.49</time>
   <time name="orth">    0.42    0.42</time>
   <time name="total">    6.95    6.99</time>
   <dipole>
    <v name="dipole">      0.00000000       0.00000000      -0.08658005 </v>
    <i name="Tr[quadrupol]"> -10240.31318272 </i>
    <i name="Echarged">      0.00000000 </i>
    <i name="Edipol_quadrupol">      0.00000000 </i>
    <i name="Eion">      0.00000000 </i>
   </dipole>
   <energy>
    <i name="e_fr_energy">   -193.66822977 </i>
    <i name="e_wo_entrp">   -193.47251798 </i>
    <i name="e_0_energy">   -193.57037388 </i>
   </energy>
  </scstep>
  <scstep>
   <time name="diag">    1.66    1.70</time>
   <time name="diis">    4.85    4.88</time>
   <time name="orth">    0.48    0.49</time>
   <time name="total">    7.47    7.54</time>
   <dipole>
    <v name="dipole">      0.00000000       0.00000000       0.04033046 </v>
    <i name="Tr[quadrupol]"> -10239.97389741 </i>
    <i name="Echarged">      0.00000000 </i>
    <i name="Edipol_quadrupol">      0.00000000 </i>
    <i name="Eion">      0.00000000 </i>
   </dipole>
   <energy>
    <i name="e_fr_energy">   -189.29864944 </i>
    <i name="e_wo_entrp">   -189.08165795 </i>
    <i name="e_0_energy">   -189.19015370 </i>
   </energy>
  </scstep>
  <scstep>
   <time name="diag">    1.67    1.67</time>
   <time name="diis">    4.48    4.48</time>
   <time name="orth">    0.40    0.40</time>
   <time name="total">    6.92    6.93</time>
   <dipole>
    <v name="dipole">      0.00000000       0.00000000       0.01534041 </v>
    <i name="Tr[quadrupol]"> -10240.62759286 </i>
    <i name="Echarged">      0.00000000 </i>
    <i name="Edipol_quadrupol">      0.00000000 </i>
    <i name="Eion">      0.00000000 </i>
   </dipole>
   <energy>
    <i name="e_fr_energy">   -188.55388273 </i>
    <i name="e_wo_entrp">   -188.31878060 </i>
    <i name="e_0_energy">   -188.43633167 </i>
   </energy>
  </scstep>
  <scstep>
   <time name="diag">    1.65    1.66</time>
   <time name="diis">    4.53    4.53</time>
   <time name="orth">    0.41    0.41</time>
   <time name="total">    6.96    6.96</time>
   <dipole>
    <v name="dipole">      0.00000000       0.00000000       0.00033452 </v>
    <i name="Tr[quadrupol]"> -10240.82599018 </i>
    <i name="Echarged">      0.00000000 </i>
    <i name="Edipol_quadrupol">      0.00000000 </i>
    <i name="Eion">      0.00000000 </i>
   </dipole>
   <energy>
    <i name="e_fr_energy">   -188.41430193 </i>
    <i name="e_wo_entrp">   -188.16640951 </i>
    <i name="e_0_energy">   -188.29035572 </i>
   </energy>
  </scstep>
  <scstep>
   <time name="diag">    1.65    1.65</time>
   <time name="diis">    4.53    4.53</time>
   <time name="orth">    0.40    0.40</time>
   <time name="total">    6.94    6.95</time>
   <dipole>
    <v name="dipole">      0.00000000       0.00000000       0.02408128 </v>
    <i name="Tr[quadrupol]"> -10240.97397849 </i>
    <i name="Echarged">      0.00000000 </i>
    <i name="Edipol_quadrupol">      0.00000000 </i>
    <i name="Eion">      0.00000000 </i>
   </dipole>
   <energy>
    <i name="e_fr_energy">   -188.41107724 </i>
    <i name="e_wo_entrp">   -188.15580431 </i>
    <i name="e_0_energy">   -188.28344077 </i>
   </energy>
  </scstep>
  <scstep>
   <time name="diag">    1.66    1.66</time>
   <time name="diis">    4.53    4.53</time>
   <time name="orth">    0.40    0.40</time>
   <time name="total">    6.95    6.96</time>
   <dipole>
    <v name="dipole">      0.00000000       0.00000000       0.01571673 </v>
    <i name="Tr[quadrupol]"> -10241.23664818 </i>
    <i name="Echarged">      0.00000000 </i>
    <i name="Edipol_quadrupol">      0.00000000 </i>
    <i name="Eion">      0.00000000 </i>
   </dipole>
   <energy>
    <i name="e_fr_energy">   -188.33246891 </i>
    <i name="e_wo_entrp">   -188.07595421 </i>
    <i name="e_0_energy">   -188.20421156 </i>
   </energy>
  </scstep>
  <scstep>
   <time name="diag">    1.67    1.67</time>
   <time name="diis">    4.32    4.39</time>
   <time name="orth">    0.40    0.40</time>
   <time name="total">    6.75    6.83</time>
   <dipole>
    <v name="dipole">      0.00000000       0.00000000       0.03226326 </v>
    <i name="Tr[quadrupol]"> -10241.45518783 </i>
    <i name="Echarged">      0.00000000 </i>
    <i name="Edipol_quadrupol">      0.00000000 </i>
    <i name="Eion">      0.00000000 </i>
   </dipole>
   <energy>
    <i name="e_fr_energy">   -188.23311315 </i>
    <i name="e_wo_entrp">   -187.97655452 </i>
    <i name="e_0_energy">   -188.10483383 </i>
   </energy>
  </scstep>
  <scstep>
   <time name="diag">    1.66    1.66</time>
   <time name="diis">    4.52    4.52</time>
   <time name="orth">    0.41    0.41</time>
   <time name="total">    6.95    6.96</time>
   <dipole>
    <v name="dipole">      0.00000000       0.00000000       0.02241881 </v>
    <i name="Tr[quadrupol]"> -10241.73116285 </i>
    <i name="Echarged">      0.00000000 </i>
    <i name="Edipol_quadrupol">      0.00000000 </i>
    <i name="Eion">      0.00000000 </i>
   </dipole>
   <energy>
    <i name="e_fr_energy">   -188.20874836 </i>
    <i name="e_wo_entrp">   -187.95309318 </i>
    <i name="e_0_energy">   -188.08092077 </i>
   </energy>
  </scstep>
  <scstep>
   <time name="diag">    1.66    1.66</time>
   <time name="diis">    4.52    4.52</time>
   <time name="orth">    0.40    0.40</time>
   <time name="total">    6.94    6.95</time>
   <dipole>
    <v name="dipole">      0.00000000       0.00000000       0.02308458 </v>
    <i name="Tr[quadrupol]"> -10241.90952622 </i>
    <i name="Echarged">      0.00000000 </i>
    <i name="Edipol_quadrupol">      0.00000000 </i>
    <i name="Eion">      0.00000000 </i>
   </dipole>
   <energy>
    <i name="e_fr_energy">   -188.18266859 </i>
    <i name="e_wo_entrp">   -187.92871574 </i>
    <i name="e_0_energy">   -188.05569216 </i>
   </energy>
  </scstep>
  <scstep>
   <time name="diag">    1.66    1.66</time>
   <time name="diis">    4.47    4.48</time>
   <time name="orth">    0.40    0.40</time>
   <time name="total">    6.90    6.91</time>
   <dipole>
    <v name="dipole">      0.00000000       0.00000000       0.01532295 </v>
    <i name="Tr[quadrupol]"> -10242.03267949 </i>
    <i name="Echarged">      0.00000000 </i>
    <i name="Edipol_quadrupol">      0.00000000 </i>
    <i name="Eion">      0.00000000 </i>
   </dipole>
   <energy>
    <i name="e_fr_energy">   -188.17858971 </i>
    <i name="e_wo_entrp">   -187.91954054 </i>
    <i name="e_0_energy">   -188.04906513 </i>
   </energy>
  </scstep>
  <scstep>
   <time name="diag">    1.70    1.71</time>
   <time name="diis">    5.02    5.02</time>
   <time name="orth">    0.40    0.40</time>
   <time name="total">    7.48    7.50</time>
   <dipole>
    <v name="dipole">      0.00000000       0.00000000       0.01221675 </v>
    <i name="Tr[quadrupol]"> -10242.12062799 </i>
    <i name="Echarged">      0.00000000 </i>
    <i name="Edipol_quadrupol">      0.00000000 </i>
    <i name="Eion">      0.00000000 </i>
   </dipole>
   <energy>
    <i name="e_fr_energy">   -188.17703153 </i>
    <i name="e_wo_entrp">   -187.91983665 </i>
    <i name="e_0_energy">   -188.04843409 </i>
   </energy>
  </scstep>
  <scstep>
   <time name="diag">    1.66    1.66</time>
   <time name="diis">    4.53    4.53</time>
   <time name="orth">    0.40    0.40</time>
   <time name="total">    6.95    6.96</time>
   <dipole>
    <v name="dipole">      0.00000000       0.00000000       0.01386149 </v>
    <i name="Tr[quadrupol]"> -10242.28342442 </i>
    <i name="Echarged">      0.00000000 </i>
    <i name="Edipol_quadrupol">      0.00000000 </i>
    <i name="Eion">      0.00000000 </i>
   </dipole>
   <energy>
    <i name="e_fr_energy">   -188.17552862 </i>
    <i name="e_wo_entrp">   -187.91846098 </i>
    <i name="e_0_energy">   -188.04699480 </i>
   </energy>
  </scstep>
  <scstep>
   <time name="diag">    1.65    1.65</time>
   <time name="diis">    4.42    4.48</time>
   <time name="orth">    0.40    0.40</time>
   <time name="total">    6.83    6.89</time>
   <dipole>
    <v name="dipole">      0.00000000       0.00000000       0.01313377 </v>
    <i name="Tr[quadrupol]"> -10242.42881456 </i>
    <i name="Echarged">      0.00000000 </i>
    <i name="Edipol_quadrupol">      0.00000000 </i>
    <i name="Eion">      0.00000000 </i>
   </dipole>
   <energy>
    <i name="e_fr_energy">   -188.17504877 </i>
    <i name="e_wo_entrp">   -187.91813134 </i>
    <i name="e_0_energy">   -188.04659005 </i>
   </energy>
  </scstep>
  <scstep>
   <time name="diag">    1.66    1.66</time>
   <time name="diis">    4.53    4.53</time>
   <time name="orth">    0.40    0.40</time>
   <time name="total">    6.95    6.95</time>
   <dipole>
    <v name="dipole">      0.00000000       0.00000000       0.01184505 </v>
    <i name="Tr[quadrupol]"> -10242.52082372 </i>
    <i name="Echarged">      0.00000000 </i>
    <i name="Edipol_quadrupol">      0.00000000 </i>
    <i name="Eion">      0.00000000 </i>
   </dipole>
   <energy>
    <i name="e_fr_energy">   -188.17483351 </i>
    <i name="e_wo_entrp">   -187.91815429 </i>
    <i name="e_0_energy">   -188.04649390 </i>
   </energy>
  </scstep>
  <scstep>
   <time name="diag">    1.66    1.66</time>
   <time name="diis">    4.52    4.52</time>
   <time name="orth">    0.40    0.40</time>
   <time name="total">    6.95    6.96</time>
   <dipole>
    <v name="dipole">      0.00000000       0.00000000       0.01006679 </v>
    <i name="Tr[quadrupol]"> -10242.59860486 </i>
    <i name="Echarged">      0.00000000 </i>
    <i name="Edipol_quadrupol">      0.00000000 </i>
    <i name="Eion">      0.00000000 </i>
   </dipole>
   <energy>
    <i name="e_fr_energy">   -188.17496590 </i>
    <i name="e_wo_entrp">   -187.91822607 </i>
    <i name="e_0_energy">   -188.04659598 </i>
   </energy>
  </scstep>
  <scstep>
   <time name="diag">    1.65    1.65</time>
   <time name="diis">    4.53    4.53</time>
   <time name="orth">    0.40    0.40</time>
   <time name="total">    6.95    6.95</time>
   <dipole>
    <v name="dipole">      0.00000000       0.00000000       0.00858760 </v>
    <i name="Tr[quadrupol]"> -10242.67735340 </i>
    <i name="Echarged">      0.00000000 </i>
    <i name="Edipol_quadrupol">      0.00000000 </i>
    <i name="Eion">      0.00000000 </i>
   </dipole>
   <energy>
    <i name="e_fr_energy">   -188.17538391 </i>
    <i name="e_wo_entrp">   -187.91863202 </i>
    <i name="e_0_energy">   -188.04700796 </i>
   </energy>
  </scstep>
  <scstep>
   <time name="diag">    1.65    1.65</time>
   <time name="diis">    4.52    4.52</time>
   <time name="orth">    0.40    0.40</time>
   <time name="total">    6.93    6.94</time>
   <dipole>
    <v name="dipole">      0.00000000       0.00000000       0.00891661 </v>
    <i name="Tr[quadrupol]"> -10242.80603639 </i>
    <i name="Echarged">      0.00000000 </i>
    <i name="Edipol_quadrupol">      0.00000000 </i>
    <i name="Eion">      0.00000000 </i>
   </dipole>
   <energy>
    <i name="e_fr_energy">   -188.17603320 </i>
    <i name="e_wo_entrp">   -187.91925126 </i>
    <i name="e_0_energy">   -188.04764223 </i>
   </energy>
  </scstep>
  <scstep>
   <time name="diag">    1.65    1.65</time>
   <time name="diis">    4.53    4.53</time>
   <time name="orth">    0.40    0.40</time>
   <time name="total">    6.94    6.95</time>
   <dipole>
    <v name="dipole">      0.00000000       0.00000000       0.00855349 </v>
    <i name="Tr[quadrupol]"> -10242.86975786 </i>
    <i name="Echarged">      0.00000000 </i>
    <i name="Edipol_quadrupol">      0.00000000 </i>
    <i name="Eion">      0.00000000 </i>
   </dipole>
   <energy>
    <i name="e_fr_energy">   -188.17652369 </i>
    <i name="e_wo_entrp">   -187.91978710 </i>
    <i name="e_0_energy">   -188.04815540 </i>
   </energy>
  </scstep>
  <scstep>
   <time name="diag">    1.66    1.66</time>
   <time name="diis">    4.47    4.56</time>
   <time name="orth">    0.48    0.49</time>
   <time name="total">    7.07    7.17</time>
   <dipole>
    <v name="dipole">      0.00000000       0.00000000       0.00818302 </v>
    <i name="Tr[quadrupol]"> -10242.92164169 </i>
    <i name="Echarged">      0.00000000 </i>
    <i name="Edipol_quadrupol">      0.00000000 </i>
    <i name="Eion">      0.00000000 </i>
   </dipole>
   <energy>
    <i name="e_fr_energy">   -188.17700153 </i>
    <i name="e_wo_entrp">   -187.92014834 </i>
    <i name="e_0_energy">   -188.04857494 </i>
   </energy>
  </scstep>
  <scstep>
   <time name="diag">    1.87    1.87</time>
   <time name="diis">    4.48    4.49</time>
   <time name="orth">    0.40    0.40</time>
   <time name="total">    7.13    7.15</time>
   <dipole>
    <v name="dipole">      0.00000000       0.00000000       0.00829938 </v>
    <i name="Tr[quadrupol]"> -10242.98835947 </i>
    <i name="Echarged">      0.00000000 </i>
    <i name="Edipol_quadrupol">      0.00000000 </i>
    <i name="Eion">      0.00000000 </i>
   </dipole>
   <energy>
    <i name="e_fr_energy">   -188.17766712 </i>
    <i name="e_wo_entrp">   -187.92098328 </i>
    <i name="e_0_energy">   -188.04932520 </i>
   </energy>
  </scstep>
  <scstep>
   <time name="diag">    1.65    1.65</time>
   <time name="diis">    4.30    4.30</time>
   <time name="orth">    0.40    0.40</time>
   <time name="total">    6.71    6.72</time>
   <dipole>
    <v name="dipole">      0.00000000       0.00000000       0.00811095 </v>
    <i name="Tr[quadrupol]"> -10243.04183357 </i>
    <i name="Echarged">      0.00000000 </i>
    <i name="Edipol_quadrupol">      0.00000000 </i>
    <i name="Eion">      0.00000000 </i>
   </dipole>
   <energy>
    <i name="e_fr_energy">   -188.17814451 </i>
    <i name="e_wo_entrp">   -187.92140121 </i>
    <i name="e_0_energy">   -188.04977286 </i>
   </energy>
  </scstep>
  <scstep>
   <time name="diag">    1.66    1.66</time>
   <time name="diis">    3.65    3.65</time>
   <time name="orth">    0.40    0.40</time>
   <time name="total">    6.09    6.09</time>
   <dipole>
    <v name="dipole">      0.00000000       0.00000000       0.00791829 </v>
    <i name="Tr[quadrupol]"> -10243.07719274 </i>
    <i name="Echarged">      0.00000000 </i>
    <i name="Edipol_quadrupol">      0.00000000 </i>
    <i name="Eion">      0.00000000 </i>
   </dipole>
   <energy>
    <i name="e_fr_energy">   -188.17837600 </i>
    <i name="e_wo_entrp">   -187.92157858 </i>
    <i name="e_0_energy">   -188.04997729 </i>
   </energy>
  </scstep>
  <scstep>
   <time name="diag">    1.67    1.67</time>
   <time name="diis">    3.27    3.27</time>
   <time name="orth">    0.40    0.40</time>
   <time name="total">    5.70    5.71</time>
   <dipole>
    <v name="dipole">      0.00000000       0.00000000       0.00782873 </v>
    <i name="Tr[quadrupol]"> -10243.09065675 </i>
    <i name="Echarged">      0.00000000 </i>
    <i name="Edipol_quadrupol">      0.00000000 </i>
    <i name="Eion">      0.00000000 </i>
   </dipole>
   <energy>
    <i name="e_fr_energy">   -188.17847361 </i>
    <i name="e_wo_entrp">   -187.92166439 </i>
    <i name="e_0_energy">   -188.05006900 </i>
   </energy>
  </scstep>
  <scstep>
   <time name="diag">    1.65    1.65</time>
   <time name="diis">    2.93    2.93</time>
   <time name="orth">    0.40    0.40</time>
   <time name="total">    5.35    5.36</time>
   <dipole>
    <v name="dipole">      0.00000000       0.00000000       0.00780356 </v>
    <i name="Tr[quadrupol]"> -10243.10408908 </i>
    <i name="Echarged">      0.00000000 </i>
    <i name="Edipol_quadrupol">      0.00000000 </i>
    <i name="Eion">      0.00000000 </i>
   </dipole>
   <energy>
    <i name="e_fr_energy">   -188.17856868 </i>
    <i name="e_wo_entrp">   -187.92176913 </i>
    <i name="e_0_energy">   -188.05016890 </i>
   </energy>
  </scstep>
  <scstep>
   <time name="diag">    1.65    1.65</time>
   <time name="diis">    2.72    2.73</time>
   <time name="orth">    0.40    0.40</time>
   <time name="total">    5.14    5.14</time>
   <dipole>
    <v name="dipole">      0.00000000       0.00000000       0.00773978 </v>
    <i name="Tr[quadrupol]"> -10243.10984993 </i>
    <i name="Echarged">      0.00000000 </i>
    <i name="Edipol_quadrupol">      0.00000000 </i>
    <i name="Eion">      0.00000000 </i>
   </dipole>
   <energy>
    <i name="e_fr_energy">   -188.17860407 </i>
    <i name="e_wo_entrp">   -187.92180951 </i>
    <i name="e_0_energy">   -188.05020679 </i>
   </energy>
  </scstep>
  <scstep>
   <time name="diag">    1.62    1.68</time>
   <time name="diis">    2.76    2.76</time>
   <time name="orth">    0.40    0.40</time>
   <time name="total">    5.15    5.21</time>
   <dipole>
    <v name="dipole">      0.00000000       0.00000000       0.00765559 </v>
    <i name="Tr[quadrupol]"> -10243.11751964 </i>
    <i name="Echarged">      0.00000000 </i>
    <i name="Edipol_quadrupol">      0.00000000 </i>
    <i name="Eion">      0.00000000 </i>
   </dipole>
   <energy>
    <i name="e_fr_energy">   -188.17864475 </i>
    <i name="e_wo_entrp">   -187.92184979 </i>
    <i name="e_0_energy">   -188.05024727 </i>
   </energy>
  </scstep>
  <scstep>
   <time name="diag">    1.66    1.66</time>
   <time name="diis">    2.68    2.69</time>
   <time name="orth">    0.39    0.39</time>
   <time name="total">    5.10    5.11</time>
   <dipole>
    <v name="dipole">      0.00000000       0.00000000       0.00761101 </v>
    <i name="Tr[quadrupol]"> -10243.12285360 </i>
    <i name="Echarged">      0.00000000 </i>
    <i name="Edipol_quadrupol">      0.00000000 </i>
    <i name="Eion">      0.00000000 </i>
   </dipole>
   <energy>
    <i name="e_fr_energy">   -188.17866213 </i>
    <i name="e_wo_entrp">   -187.92186715 </i>
    <i name="e_0_energy">   -188.05026464 </i>
   </energy>
  </scstep>
  <scstep>
   <time name="diag">    1.65    1.65</time>
   <time name="diis">    2.49    2.49</time>
   <time name="orth">    0.39    0.39</time>
   <time name="total">    4.91    4.91</time>
   <dipole>
    <v name="dipole">      0.00000000       0.00000000       0.00757544 </v>
    <i name="Tr[quadrupol]"> -10243.12761805 </i>
    <i name="Echarged">      0.00000000 </i>
    <i name="Edipol_quadrupol">      0.00000000 </i>
    <i name="Eion">      0.00000000 </i>
   </dipole>
   <energy>
    <i name="e_fr_energy">   -188.17867011 </i>
    <i name="e_wo_entrp">   -187.92187631 </i>
    <i name="e_0_energy">   -188.05027321 </i>
   </energy>
  </scstep>
  <scstep>
   <time name="diag">    1.64    1.64</time>
   <time name="diis">    2.25    2.25</time>
   <time name="orth">    0.39    0.39</time>
   <time name="total">    4.65    4.66</time>
   <dipole>
    <v name="dipole">      0.00000000       0.00000000       0.00753280 </v>
    <i name="Tr[quadrupol]"> -10243.13055052 </i>
    <i name="Echarged">      0.00000000 </i>
    <i name="Edipol_quadrupol">      0.00000000 </i>
    <i name="Eion">      0.00000000 </i>
   </dipole>
   <energy>
    <i name="e_fr_energy">   -188.17867234 </i>
    <i name="e_wo_entrp">   -187.92187779 </i>
    <i name="e_0_energy">   -188.05027506 </i>
   </energy>
  </scstep>
  <scstep>
   <time name="diag">    1.65    1.65</time>
   <time name="diis">    2.38    2.40</time>
   <time name="orth">    0.48    0.48</time>
   <time name="total">    5.01    5.03</time>
   <dipole>
    <v name="dipole">      0.00000000       0.00000000       0.00750339 </v>
    <i name="Tr[quadrupol]"> -10243.13308111 </i>
    <i name="Echarged">      0.00000000 </i>
    <i name="Edipol_quadrupol">      0.00000000 </i>
    <i name="Eion">      0.00000000 </i>
   </dipole>
   <energy>
    <i name="e_fr_energy">   -188.17867339 </i>
    <i name="e_wo_entrp">   -187.92187927 </i>
    <i name="e_0_energy">   -188.05027633 </i>
   </energy>
  </scstep>
  <scstep>
   <time name="diag">    1.66    1.66</time>
   <time name="diis">    2.20    2.20</time>
   <time name="orth">    0.39    0.39</time>
   <time name="total">    4.31    4.32</time>
   <dipole>
    <v name="dipole">      0.00000000       0.00000000       0.00747898 </v>
    <i name="Tr[quadrupol]"> -10243.13543604 </i>
    <i name="Echarged">      0.00000000 </i>
    <i name="Edipol_quadrupol">      0.00000000 </i>
    <i name="Eion">      0.00000000 </i>
   </dipole>
   <energy>
    <i name="alphaZ">    805.86936232 </i>
    <i name="ewald"> 200628.27497104 </i>
    <i name="hartreedc">-242816.37453076 </i>
    <i name="XCdc">   -343.08318051 </i>
    <i name="pawpsdc">  49438.93670986 </i>
    <i name="pawaedc"> -47516.35790323 </i>
    <i name="eentropy">     -0.25679399 </i>
    <i name="bandstr">  -2044.97318127 </i>
    <i name="atom">  41659.78587232 </i>
    <i name="e_fr_energy">   -188.17867423 </i>
    <i name="e_wo_entrp">   -187.92188024 </i>
    <i name="e_0_energy">   -188.05027724 </i>
   </energy>
  </scstep>
  <structure>
   <crystal>
    <varray name="basis" >
     <v>      11.00258152       0.00000000       0.00000000 </v>
     <v>       5.50129076       9.52851510       0.00000000 </v>
     <v>       0.00000000       0.00000000      24.49178509 </v>
    </varray>
    <i name="volume">   2567.67623402 </i>
    <varray name="rec_basis" >
     <v>       0.09088776      -0.05247407       0.00000000 </v>
     <v>       0.00000000       0.10494815       0.00000000 </v>
     <v>       0.00000000       0.00000000       0.04083002 </v>
    </varray>
   </crystal>
   <varray name="positions" >
    <v>       0.08333333       0.08333333       0.40830017 </v>
    <v>       0.00000000       0.25000000       0.59169983 </v>
    <v>       0.08333333       0.58333333       0.40830017 </v>
    <v>       0.91666667       0.91666667       0.50000000 </v>
    <v>       0.08333333       0.83333333       0.40830017 </v>
    <v>       0.91666667       0.41666667       0.50000000 </v>
    <v>       0.33333333       0.33333333       0.40830017 </v>
    <v>       0.00000000       0.75000000       0.59169983 </v>
    <v>       0.25000000       0.75000000       0.59169983 </v>
    <v>       0.25000000       0.25000000       0.59169983 </v>
    <v>       0.16666667       0.91666667       0.50000000 </v>
    <v>       0.66666667       0.91666667       0.50000000 </v>
    <v>       0.08333333       0.33333333       0.40830017 </v>
    <v>       0.41666667       0.16666667       0.50000000 </v>
    <v>       0.50000000       0.00000000       0.59169983 </v>
    <v>       0.41666667       0.41666667       0.50000000 </v>
    <v>       0.41666667       0.66666667       0.50000000 </v>
    <v>       0.50000000       0.50000000       0.59169983 </v>
    <v>       0.41666667       0.91666667       0.50000000 </v>
    <v>       0.66666667       0.16666667       0.50000000 </v>
    <v>       0.75000000       0.25000000       0.59169983 </v>
    <v>       0.66666667       0.66666667       0.50000000 </v>
    <v>       0.83333333       0.83333333       0.40830017 </v>
    <v>       0.58333333       0.08333333       0.40830017 </v>
    <v>       0.00000000       0.50000000       0.59169983 </v>
    <v>       0.58333333       0.33333333       0.40830017 </v>
    <v>       0.33333333       0.08333333       0.40830017 </v>
    <v>       0.16666667       0.16666667       0.50000000 </v>
    <v>       0.25000000       0.00000000       0.59169983 </v>
    <v>       0.25000000       0.50000000       0.59169983 </v>
    <v>       0.16666667       0.66666667       0.50000000 </v>
    <v>       0.33333333       0.58333333       0.40830017 </v>
    <v>       0.50000000       0.25000000       0.59169983 </v>
    <v>       0.33333333       0.83333333       0.40830017 </v>
    <v>       0.58333333       0.58333333       0.40830017 </v>
    <v>       0.50000000       0.75000000       0.59169983 </v>
    <v>       0.16666667       0.41666667       0.50000000 </v>
    <v>       0.66666667       0.41666667       0.50000000 </v>
    <v>       0.91666667       0.16666667       0.50000000 </v>
    <v>       0.83333333       0.08333333       0.40830017 </v>
    <v>       0.75000000       0.50000000       0.59169983 </v>
    <v>       0.75000000       0.00000000       0.59169983 </v>
    <v>       0.00000000       0.00000000       0.59169983 </v>
    <v>       0.83333333       0.58333333       0.40830017 </v>
    <v>       0.83333333       0.33333333       0.40830017 </v>
    <v>       0.58333333       0.83333333       0.40830017 </v>
    <v>       0.91666667       0.66666667       0.50000000 </v>
    <v>       0.75000000       0.75000000       0.59169983 </v>
   </varray>
  </structure>
  <varray name="forces" >
   <v>      -0.00882516       0.14707274      -1.38774096 </v>
   <v>       0.01179364      -0.11279604       1.29040699 </v>
   <v>      -0.00755754       0.01797993      -1.16276632 </v>
   <v>       0.12916368       0.17342906       0.31645327 </v>
   <v>       0.24781066      -0.14891839      -1.62084694 </v>
   <v>      -0.06698802       0.12266744      -0.01527583 </v>
   <v>       0.11860883       0.10865341      -1.59318615 </v>
   <v>      -0.25168037      -0.19889510       1.28442484 </v>
   <v>      -0.00422451       0.12186117       1.61597091 </v>
   <v>      -0.01010428       0.29497177       1.38442889 </v>
   <v>       0.08577220       0.36454770       0.22406898 </v>
   <v>       0.12272972      -0.52032118       0.27105238 </v>
   <v>      -0.19682870      -0.06543108      -1.30175253 </v>
   <v>      -0.46649863       0.26681435       0.04272410 </v>
   <v>       0.10693828      -0.20750300       1.83232670 </v>
   <v>      -0.13422543       0.28954905      -0.02213366 </v>
   <v>       0.07576360      -0.18711066      -0.54169994 </v>
   <v>       0.11902677      -0.07863826       1.62260629 </v>
   <v>      -0.32113593       0.09940796      -0.27001255 </v>
   <v>       0.50898963       0.26772890       0.01633318 </v>
   <v>       0.00661702      -0.10759532       1.36963745 </v>
   <v>       0.16240159      -0.29590492      -0.02455219 </v>
   <v>      -0.24801125      -0.18930035      -1.65400413 </v>
   <v>      -0.00031912      -0.00804229      -1.87297919 </v>
   <v>       0.05236025       0.13023799       0.66402465 </v>
   <v>       0.36600694       0.15831093      -0.85210097 </v>
   <v>      -0.05521503      -0.25808105      -0.92655452 </v>
   <v>      -0.01151526      -0.02320681       0.00405848 </v>
   <v>      -0.09444521      -0.04824462       0.91064283 </v>
   <v>      -0.20950882      -0.10728942       0.75806603 </v>
   <v>      -0.17491782      -0.41523079      -0.00040910 </v>
   <v>       0.30205097       0.04060623      -0.84106118 </v>
   <v>      -0.02180538      -0.00052618       1.06883093 </v>
   <v>       0.19769977      -0.10952244      -0.99147443 </v>
   <v>      -0.01652321      -0.07608637      -0.79602690 </v>
   <v>       0.16610848      -0.02335057       1.07281307 </v>
   <v>      -0.10891469       0.32574599       0.32497098 </v>
   <v>       0.24927963      -0.08075367      -0.39236159 </v>
   <v>      -0.03266542       0.17828136      -0.17217290 </v>
   <v>       0.07761003       0.40229850      -0.91160335 </v>
   <v>       0.08831361       0.25957941       0.81595492 </v>
   <v>      -0.00485199      -0.02887968       1.03430104 </v>
   <v>       0.01762193       0.10147430       0.88243673 </v>
   <v>      -0.28831186       0.03554929      -0.82013330 </v>
   <v>      -0.26600453      -0.00083908      -0.68790246 </v>
   <v>      -0.19293802      -0.12050789      -1.03881750 </v>
   <v>      -0.00011764      -0.34179439       0.23401103 </v>
   <v>      -0.01853338      -0.15199794       0.85702394 </v>
  </varray>
  <energy>
   <i name="e_fr_energy">   -188.17867423 </i>
   <i name="e_wo_entrp">   -188.05027724 </i>
   <i name="e_0_energy">     -0.25679399 </i>
  </energy>
  <time name="totalsc">  283.59  284.45</time>
 </calculation>
 <calculation>
  <scstep>
   <time name="dav">    9.54    9.60</time>
   <time name="total">    9.90    9.97</time>
   <dipole>
    <v name="dipole">      0.00000000       0.00000000       0.00745830 </v>
    <i name="Tr[quadrupol]"> -10237.14005301 </i>
    <i name="Echarged">      0.00000000 </i>
    <i name="Edipol_quadrupol">      0.00000000 </i>
    <i name="Eion">      0.00000000 </i>
   </dipole>
   <energy>
    <i name="alphaZ">    805.86590129 </i>
    <i name="ewald"> 199242.20833733 </i>
    <i name="hartreedc">-241438.85248622 </i>
    <i name="XCdc">   -344.23289894 </i>
    <i name="pawpsdc">  49438.93264262 </i>
    <i name="pawaedc"> -47516.35381878 </i>
    <i name="eentropy">     -0.25132998 </i>
    <i name="bandstr">  -2035.85041098 </i>
    <i name="atom">  41659.78587232 </i>
    <i name="e_fr_energy">   -188.74819134 </i>
    <i name="e_wo_entrp">   -188.49686136 </i>
    <i name="e_0_energy">   -188.62252635 </i>
   </energy>
  </scstep>
  <scstep>
   <time name="diag">    1.65    1.65</time>
   <time name="diis">    4.42    4.43</time>
   <time name="orth">    0.39    0.39</time>
   <time name="total">    6.83    6.83</time>
   <dipole>
    <v name="dipole">      0.00000000       0.00000000       0.05461076 </v>
    <i name="Tr[quadrupol]"> -10236.99528490 </i>
    <i name="Echarged">      0.00000000 </i>
    <i name="Edipol_quadrupol">      0.00000000 </i>
    <i name="Eion">      0.00000000 </i>
   </dipole>
   <energy>
    <i name="e_fr_energy">   -188.95962841 </i>
    <i name="e_wo_entrp">   -188.71484897 </i>
    <i name="e_0_energy">   -188.83723869 </i>
   </energy>
  </scstep>
  <scstep>
   <time name="diag">    1.64    1.64</time>
   <time name="diis">    4.52    4.52</time>
   <time name="orth">    0.40    0.40</time>
   <time name="total">    6.91    6.92</time>
   <dipole>
    <v name="dipole">      0.00000000       0.00000000      -0.09530395 </v>
    <i name="Tr[quadrupol]"> -10237.13422009 </i>
    <i name="Echarged">      0.00000000 </i>
    <i name="Edipol_quadrupol">      0.00000000 </i>
    <i name="Eion">      0.00000000 </i>
   </dipole>
   <energy>
    <i name="e_fr_energy">   -189.13349562 </i>
    <i name="e_wo_entrp">   -188.89952719 </i>
    <i name="e_0_energy">   -189.01651140 </i>
   </energy>
  </scstep>
  <scstep>
   <time name="diag">    1.65    1.65</time>
   <time name="diis">    4.53    4.53</time>
   <time name="orth">    0.39    0.39</time>
   <time name="total">    6.93    6.93</time>
   <dipole>
    <v name="dipole">      0.00000000       0.00000000       0.02540191 </v>
    <i name="Tr[quadrupol]"> -10237.21089541 </i>
    <i name="Echarged">      0.00000000 </i>
    <i name="Edipol_quadrupol">      0.00000000 </i>
    <i name="Eion">      0.00000000 </i>
   </dipole>
   <energy>
    <i name="e_fr_energy">   -188.95741768 </i>
    <i name="e_wo_entrp">   -188.70384339 </i>
    <i name="e_0_energy">   -188.83063053 </i>
   </energy>
  </scstep>
  <scstep>
   <time name="diag">    1.65    1.65</time>
   <time name="diis">    4.53    4.53</time>
   <time name="orth">    0.38    0.38</time>
   <time name="total">    6.92    6.93</time>
   <dipole>
    <v name="dipole">      0.00000000       0.00000000       0.00644725 </v>
    <i name="Tr[quadrupol]"> -10237.14632913 </i>
    <i name="Echarged">      0.00000000 </i>
    <i name="Edipol_quadrupol">      0.00000000 </i>
    <i name="Eion">      0.00000000 </i>
   </dipole>
   <energy>
    <i name="e_fr_energy">   -188.94307346 </i>
    <i name="e_wo_entrp">   -188.69538588 </i>
    <i name="e_0_energy">   -188.81922967 </i>
   </energy>
  </scstep>
  <scstep>
   <time name="diag">    1.65    1.65</time>
   <time name="diis">    4.49    4.49</time>
   <time name="orth">    0.39    0.39</time>
   <time name="total">    6.88    6.89</time>
   <dipole>
    <v name="dipole">      0.00000000       0.00000000       0.02464991 </v>
    <i name="Tr[quadrupol]"> -10237.16049098 </i>
    <i name="Echarged">      0.00000000 </i>
    <i name="Edipol_quadrupol">      0.00000000 </i>
    <i name="Eion">      0.00000000 </i>
   </dipole>
   <energy>
    <i name="e_fr_energy">   -188.94122239 </i>
    <i name="e_wo_entrp">   -188.69244871 </i>
    <i name="e_0_energy">   -188.81683555 </i>
   </energy>
  </scstep>
  <scstep>
   <time name="diag">    1.64    1.65</time>
   <time name="diis">    4.32    4.41</time>
   <time name="orth">    0.43    0.44</time>
   <time name="total">    6.89    6.99</time>
   <dipole>
    <v name="dipole">      0.00000000       0.00000000       0.02339795 </v>
    <i name="Tr[quadrupol]"> -10237.16969948 </i>
    <i name="Echarged">      0.00000000 </i>
    <i name="Edipol_quadrupol">      0.00000000 </i>
    <i name="Eion">      0.00000000 </i>
   </dipole>
   <energy>
    <i name="e_fr_energy">   -188.93584520 </i>
    <i name="e_wo_entrp">   -188.68285071 </i>
    <i name="e_0_energy">   -188.80934796 </i>
   </energy>
  </scstep>
  <scstep>
   <time name="diag">    2.00    2.01</time>
   <time name="diis">    4.49    4.49</time>
   <time name="orth">    0.39    0.39</time>
   <time name="total">    7.25    7.27</time>
   <dipole>
    <v name="dipole">      0.00000000       0.00000000       0.01555236 </v>
    <i name="Tr[quadrupol]"> -10237.14673356 </i>
    <i name="Echarged">      0.00000000 </i>
    <i name="Edipol_quadrupol">      0.00000000 </i>
    <i name="Eion">      0.00000000 </i>
   </dipole>
   <energy>
    <i name="e_fr_energy">   -188.93408470 </i>
    <i name="e_wo_entrp">   -188.68270498 </i>
    <i name="e_0_energy">   -188.80839484 </i>
   </energy>
  </scstep>
  <scstep>
   <time name="diag">    1.64    1.64</time>
   <time name="diis">    4.51    4.52</time>
   <time name="orth">    0.39    0.39</time>
   <time name="total">    6.90    6.91</time>
   <dipole>
    <v name="dipole">      0.00000000       0.00000000       0.01454348 </v>
    <i name="Tr[quadrupol]"> -10237.14574943 </i>
    <i name="Echarged">      0.00000000 </i>
    <i name="Edipol_quadrupol">      0.00000000 </i>
    <i name="Eion">      0.00000000 </i>
   </dipole>
   <energy>
    <i name="e_fr_energy">   -188.93370602 </i>
    <i name="e_wo_entrp">   -188.68094962 </i>
    <i name="e_0_energy">   -188.80732782 </i>
   </energy>
  </scstep>
  <scstep>
   <time name="diag">    1.65    1.65</time>
   <time name="diis">    4.49    4.49</time>
   <time name="orth">    0.39    0.39</time>
   <time name="total">    6.89    6.90</time>
   <dipole>
    <v name="dipole">      0.00000000       0.00000000       0.01517695 </v>
    <i name="Tr[quadrupol]"> -10237.14347482 </i>
    <i name="Echarged">      0.00000000 </i>
    <i name="Edipol_quadrupol">      0.00000000 </i>
    <i name="Eion">      0.00000000 </i>
   </dipole>
   <energy>
    <i name="e_fr_energy">   -188.93357353 </i>
    <i name="e_wo_entrp">   -188.68113017 </i>
    <i name="e_0_energy">   -188.80735185 </i>
   </energy>
  </scstep>
  <scstep>
   <time name="diag">    1.63    1.64</time>
   <time name="diis">    4.52    4.52</time>
   <time name="orth">    0.38    0.39</time>
   <time name="total">    6.90    6.90</time>
   <dipole>
    <v name="dipole">      0.00000000       0.00000000       0.01518581 </v>
    <i name="Tr[quadrupol]"> -10237.14424877 </i>
    <i name="Echarged">      0.00000000 </i>
    <i name="Edipol_quadrupol">      0.00000000 </i>
    <i name="Eion">      0.00000000 </i>
   </dipole>
   <energy>
    <i name="e_fr_energy">   -188.93354607 </i>
    <i name="e_wo_entrp">   -188.68097664 </i>
    <i name="e_0_energy">   -188.80726136 </i>
   </energy>
  </scstep>
  <scstep>
   <time name="diag">    1.64    1.64</time>
   <time name="diis">    4.39    4.39</time>
   <time name="orth">    0.39    0.39</time>
   <time name="total">    6.78    6.78</time>
   <dipole>
    <v name="dipole">      0.00000000       0.00000000       0.01508879 </v>
    <i name="Tr[quadrupol]"> -10237.14651124 </i>
    <i name="Echarged">      0.00000000 </i>
    <i name="Edipol_quadrupol">      0.00000000 </i>
    <i name="Eion">      0.00000000 </i>
   </dipole>
   <energy>
    <i name="e_fr_energy">   -188.93353971 </i>
    <i name="e_wo_entrp">   -188.68108423 </i>
    <i name="e_0_energy">   -188.80731197 </i>
   </energy>
  </scstep>
  <scstep>
   <time name="diag">    1.63    1.64</time>
   <time name="diis">    4.19    4.25</time>
   <time name="orth">    0.39    0.39</time>
   <time name="total">    6.58    6.65</time>
   <dipole>
    <v name="dipole">      0.00000000       0.00000000       0.01507535 </v>
    <i name="Tr[quadrupol]"> -10237.14884494 </i>
    <i name="Echarged">      0.00000000 </i>
    <i name="Edipol_quadrupol">      0.00000000 </i>
    <i name="Eion">      0.00000000 </i>
   </dipole>
   <energy>
    <i name="e_fr_energy">   -188.93353469 </i>
    <i name="e_wo_entrp">   -188.68114094 </i>
    <i name="e_0_energy">   -188.80733782 </i>
   </energy>
  </scstep>
  <scstep>
   <time name="diag">    1.65    1.65</time>
   <time name="diis">    3.19    3.20</time>
   <time name="orth">    0.39    0.39</time>
   <time name="total">    5.29    5.29</time>
   <dipole>
    <v name="dipole">      0.00000000       0.00000000       0.01500472 </v>
    <i name="Tr[quadrupol]"> -10237.15115006 </i>
    <i name="Echarged">      0.00000000 </i>
    <i name="Edipol_quadrupol">      0.00000000 </i>
    <i name="Eion">      0.00000000 </i>
   </dipole>
   <energy>
    <i name="alphaZ">    805.86239339 </i>
    <i name="ewald"> 199242.20833733 </i>
    <i name="hartreedc">-241439.34422977 </i>
    <i name="XCdc">   -344.20073021 </i>
    <i name="pawpsdc">  49206.25949894 </i>
    <i name="pawaedc"> -47282.06624712 </i>
    <i name="eentropy">     -0.25242012 </i>
    <i name="bandstr">  -2037.18601004 </i>
    <i name="atom">  41659.78587232 </i>
    <i name="e_fr_energy">   -188.93353530 </i>
    <i name="e_wo_entrp">   -188.68111517 </i>
    <i name="e_0_energy">   -188.80732524 </i>
   </energy>
  </scstep>
  <structure>
   <crystal>
    <varray name="basis" >
     <v>      11.00258152       0.00000000       0.00000000 </v>
     <v>       5.50129076       9.52851510       0.00000000 </v>
     <v>       0.00000000       0.00000000      24.49178509 </v>
    </varray>
    <i name="volume">   2567.67623402 </i>
    <varray name="rec_basis" >
     <v>       0.09088776      -0.05247407       0.00000000 </v>
     <v>       0.00000000       0.10494815       0.00000000 </v>
     <v>       0.00000000       0.00000000       0.04083002 </v>
    </varray>
   </crystal>
   <varray name="positions" >
    <v>       0.08333333       0.08333333       0.40830017 </v>
    <v>       0.00023608       0.24960024       0.59347907 </v>
    <v>       0.08333333       0.58333333       0.40830017 </v>
    <v>       0.91675578       0.91728131       0.50043633 </v>
    <v>       0.08333333       0.83333333       0.40830017 </v>
    <v>       0.91624369       0.41710141       0.49997894 </v>
    <v>       0.33333333       0.33333333       0.40830017 </v>
    <v>      -0.00042002       0.74929510       0.59347083 </v>
    <v>       0.24977109       0.75043189       0.59392797 </v>
    <v>       0.24944628       0.25104540       0.59360871 </v>
    <v>       0.16628393       0.91795865       0.50030895 </v>
    <v>       0.66796539       0.91482260       0.50037373 </v>
    <v>       0.08333333       0.33333333       0.40830017 </v>
    <v>       0.41476205       0.16761228       0.50005891 </v>
    <v>       0.50069593      -0.00073541       0.59422629 </v>
    <v>       0.41574160       0.41769285       0.49996948 </v>
    <v>       0.41723077       0.66600353       0.49925309 </v>
    <v>       0.50050468       0.49972130       0.59393712 </v>
    <v>       0.41550486       0.91701898       0.49962770 </v>
    <v>       0.66775446       0.16761552       0.50002252 </v>
    <v>       0.75021097       0.24961867       0.59358832 </v>
    <v>       0.66768948       0.66561795       0.49996615 </v>
    <v>       0.83333333       0.83333333       0.40830017 </v>
    <v>       0.58333333       0.08333333       0.40830017 </v>
    <v>      -0.00007008       0.50046157       0.59261540 </v>
    <v>       0.58333333       0.33333333       0.40830017 </v>
    <v>       0.33333333       0.08333333       0.40830017 </v>
    <v>       0.16667245       0.16658442       0.50000560 </v>
    <v>       0.24979561      -0.00017098       0.59295545 </v>
    <v>       0.24954708       0.49961976       0.59274507 </v>
    <v>       0.16686560       0.66519505       0.49999944 </v>
    <v>       0.33333333       0.58333333       0.40830017 </v>
    <v>       0.49993401       0.24999814       0.59317356 </v>
    <v>       0.33333333       0.83333333       0.40830017 </v>
    <v>       0.58333333       0.58333333       0.40830017 </v>
    <v>       0.50055121       0.74991724       0.59317905 </v>
    <v>       0.16575514       0.41782114       0.50044808 </v>
    <v>       0.66757487       0.41638047       0.49945900 </v>
    <v>       0.91625049       0.16729851       0.49976260 </v>
    <v>       0.83333333       0.08333333       0.40830017 </v>
    <v>       0.74981107       0.50091997       0.59282489 </v>
    <v>       0.75003628      -0.00010235       0.59312595 </v>
    <v>      -0.00012573       0.00035963       0.59291656 </v>
    <v>       0.83333333       0.58333333       0.40830017 </v>
    <v>       0.83333333       0.33333333       0.40830017 </v>
    <v>       0.58333333       0.83333333       0.40830017 </v>
    <v>       0.91727198       0.66545532       0.50032266 </v>
    <v>       0.75021246       0.74946131       0.59288152 </v>
   </varray>
  </structure>
  <varray name="forces" >
   <v>      -0.00540034       0.13856509      -1.39865733 </v>
   <v>       0.00123942      -0.02900374       0.94988103 </v>
   <v>      -0.02451016       0.01599929      -1.16615088 </v>
   <v>       0.10265407       0.01582640       0.46531935 </v>
   <v>       0.24871425      -0.14378604      -1.51256227 </v>
   <v>      -0.01494730      -0.05850184       0.25152987 </v>
   <v>       0.10217935       0.11845330      -1.56853453 </v>
   <v>      -0.12593611      -0.09326697       0.97960102 </v>
   <v>       0.01971382       0.02603410       1.10465759 </v>
   <v>      -0.00907600       0.12518298       1.06779556 </v>
   <v>      -0.01462871       0.08247098       0.42666161 </v>
   <v>      -0.01535481      -0.16622262       0.46760886 </v>
   <v>      -0.17805130      -0.05581371      -1.25999391 </v>
   <v>      -0.18743738       0.05620205       0.42296643 </v>
   <v>       0.03088174      -0.10230039       1.25374543 </v>
   <v>       0.01594314       0.11941566       0.31657159 </v>
   <v>      -0.00044642      -0.09830448       0.09414129 </v>
   <v>       0.07148362      -0.00993924       1.10597536 </v>
   <v>      -0.04330229       0.03465428       0.18210549 </v>
   <v>       0.15160205       0.17299155       0.29432526 </v>
   <v>       0.02121083      -0.03324445       1.03578323 </v>
   <v>       0.01698813      -0.12021555       0.19217113 </v>
   <v>      -0.22030371      -0.18751040      -1.56070181 </v>
   <v>      -0.00029708      -0.02678935      -1.69401037 </v>
   <v>      -0.03030636       0.04690772       0.59168479 </v>
   <v>       0.33394487       0.15680802      -0.86342798 </v>
   <v>      -0.04765273      -0.24318229      -0.96311698 </v>
   <v>      -0.03686644       0.11304190       0.28146472 </v>
   <v>       0.00827661      -0.03026634       0.72712531 </v>
   <v>      -0.06942088      -0.03885022       0.64170698 </v>
   <v>      -0.06465903      -0.09538767       0.29566270 </v>
   <v>       0.27109724       0.03712151      -0.90914461 </v>
   <v>      -0.01970655      -0.02625472       0.73979368 </v>
   <v>       0.15859782      -0.08897530      -1.03788868 </v>
   <v>       0.01597049      -0.07376979      -0.87903623 </v>
   <v>       0.07055783      -0.01579068       0.72034074 </v>
   <v>      -0.11679321       0.14271293       0.37827380 </v>
   <v>       0.09301490      -0.04385354       0.03239309 </v>
   <v>       0.04410063       0.19733213       0.13506186 </v>
   <v>       0.07036496       0.36993973      -0.92146301 </v>
   <v>       0.06121586       0.13611373       0.64467160 </v>
   <v>      -0.02184233      -0.00948299       0.78719893 </v>
   <v>      -0.01232645       0.03696259       0.70801513 </v>
   <v>      -0.27276797       0.04288493      -0.84737621 </v>
   <v>      -0.23794255      -0.00251654      -0.74521972 </v>
   <v>      -0.17802030      -0.11497181      -1.00044292 </v>
   <v>       0.06669326      -0.16982209       0.31172791 </v>
   <v>      -0.02844845      -0.10759810       0.72176610 </v>
  </varray>
  <energy>
   <i name="e_fr_energy">   -188.93353530 </i>
   <i name="e_wo_entrp">   -188.80732524 </i>
   <i name="e_0_energy">     -0.25242012 </i>
  </energy>
  <time name="totalsc">  100.90  101.23</time>
 </calculation>
 <calculation>
  <scstep>
   <time name="dav">    9.46    9.48</time>
   <time name="total">    9.95    9.97</time>
   <dipole>
    <v name="dipole">      0.00000000       0.00000000       0.01488031 </v>
    <i name="Tr[quadrupol]"> -10220.10060081 </i>
    <i name="Echarged">      0.00000000 </i>
    <i name="Edipol_quadrupol">      0.00000000 </i>
    <i name="Eion">      0.00000000 </i>
   </dipole>
   <energy>
    <i name="alphaZ">    805.84222152 </i>
    <i name="ewald"> 195221.02909218 </i>
    <i name="hartreedc">-237439.83222567 </i>
    <i name="XCdc">   -347.03721866 </i>
    <i name="pawpsdc">  49206.17815445 </i>
    <i name="pawaedc"> -47281.98473239 </i>
    <i name="eentropy">     -0.23581159 </i>
    <i name="bandstr">  -2011.94144000 </i>
    <i name="atom">  41659.78587232 </i>
    <i name="e_fr_energy">   -188.19608783 </i>
    <i name="e_wo_entrp">   -187.96027625 </i>
    <i name="e_0_energy">   -188.07818204 </i>
   </energy>
  </scstep>
  <scstep>
   <time name="diag">    2.03    2.04</time>
   <time name="diis">    4.48    4.48</time>
   <time name="orth">    0.39    0.39</time>
   <time name="total">    7.28    7.29</time>
   <dipole>
    <v name="dipole">      0.00000000       0.00000000       0.11249353 </v>
    <i name="Tr[quadrupol]"> -10219.62323612 </i>
    <i name="Echarged">      0.00000000 </i>
    <i name="Edipol_quadrupol">      0.00000000 </i>
    <i name="Eion">      0.00000000 </i>
   </dipole>
   <energy>
    <i name="e_fr_energy">   -189.95422039 </i>
    <i name="e_wo_entrp">   -189.72985124 </i>
    <i name="e_0_energy">   -189.84203582 </i>
   </energy>
  </scstep>
  <scstep>
   <time name="diag">    1.63    1.64</time>
   <time name="diis">    4.47    4.47</time>
   <time name="orth">    0.39    0.39</time>
   <time name="total">    6.85    6.86</time>
   <dipole>
    <v name="dipole">      0.00000000       0.00000000      -0.16007444 </v>
    <i name="Tr[quadrupol]"> -10220.19845218 </i>
    <i name="Echarged">      0.00000000 </i>
    <i name="Edipol_quadrupol">      0.00000000 </i>
    <i name="Eion">      0.00000000 </i>
   </dipole>
   <energy>
    <i name="e_fr_energy">   -190.48392544 </i>
    <i name="e_wo_entrp">   -190.27005457 </i>
    <i name="e_0_energy">   -190.37699001 </i>
   </energy>
  </scstep>
  <scstep>
   <time name="diag">    1.65    1.65</time>
   <time name="diis">    4.43    4.51</time>
   <time name="orth">    0.39    0.39</time>
   <time name="total">    6.83    6.91</time>
   <dipole>
    <v name="dipole">      0.00000000       0.00000000       0.09488663 </v>
    <i name="Tr[quadrupol]"> -10220.13836180 </i>
    <i name="Echarged">      0.00000000 </i>
    <i name="Edipol_quadrupol">      0.00000000 </i>
    <i name="Eion">      0.00000000 </i>
   </dipole>
   <energy>
    <i name="e_fr_energy">   -189.93442131 </i>
    <i name="e_wo_entrp">   -189.71158776 </i>
    <i name="e_0_energy">   -189.82300453 </i>
   </energy>
  </scstep>
  <scstep>
   <time name="diag">    1.65    1.65</time>
   <time name="diis">    4.52    4.52</time>
   <time name="orth">    0.39    0.39</time>
   <time name="total">    6.92    6.93</time>
   <dipole>
    <v name="dipole">      0.00000000       0.00000000      -0.00712213 </v>
    <i name="Tr[quadrupol]"> -10220.03811940 </i>
    <i name="Echarged">      0.00000000 </i>
    <i name="Edipol_quadrupol">      0.00000000 </i>
    <i name="Eion">      0.00000000 </i>
   </dipole>
   <energy>
    <i name="e_fr_energy">   -189.89145584 </i>
    <i name="e_wo_entrp">   -189.66159679 </i>
    <i name="e_0_energy">   -189.77652632 </i>
   </energy>
  </scstep>
  <scstep>
   <time name="diag">    1.64    1.64</time>
   <time name="diis">    4.39    4.39</time>
   <time name="orth">    0.39    0.39</time>
   <time name="total">    6.78    6.78</time>
   <dipole>
    <v name="dipole">      0.00000000       0.00000000       0.08063991 </v>
    <i name="Tr[quadrupol]"> -10220.14825201 </i>
    <i name="Echarged">      0.00000000 </i>
    <i name="Edipol_quadrupol">      0.00000000 </i>
    <i name="Eion">      0.00000000 </i>
   </dipole>
   <energy>
    <i name="e_fr_energy">   -189.86087076 </i>
    <i name="e_wo_entrp">   -189.63619736 </i>
    <i name="e_0_energy">   -189.74853406 </i>
   </energy>
  </scstep>
  <scstep>
   <time name="diag">    1.64    1.64</time>
   <time name="diis">    4.51    4.53</time>
   <time name="orth">    0.39    0.39</time>
   <time name="total">    6.90    6.92</time>
   <dipole>
    <v name="dipole">      0.00000000       0.00000000       0.06287500 </v>
    <i name="Tr[quadrupol]"> -10220.13953345 </i>
    <i name="Echarged">      0.00000000 </i>
    <i name="Edipol_quadrupol">      0.00000000 </i>
    <i name="Eion">      0.00000000 </i>
   </dipole>
   <energy>
    <i name="e_fr_energy">   -189.82825988 </i>
    <i name="e_wo_entrp">   -189.58777170 </i>
    <i name="e_0_energy">   -189.70801579 </i>
   </energy>
  </scstep>
  <scstep>
   <time name="diag">    1.65    1.65</time>
   <time name="diis">    4.53    4.53</time>
   <time name="orth">    0.39    0.39</time>
   <time name="total">    6.92    6.94</time>
   <dipole>
    <v name="dipole">      0.00000000       0.00000000       0.04049090 </v>
    <i name="Tr[quadrupol]"> -10220.07178574 </i>
    <i name="Echarged">      0.00000000 </i>
    <i name="Edipol_quadrupol">      0.00000000 </i>
    <i name="Eion">      0.00000000 </i>
   </dipole>
   <energy>
[...]
       <r>    -9.4289     0.0000     0.0000 </r>
       <r>    -9.3747     0.0000     0.0000 </r>
       <r>    -9.3205     0.0000     0.0000 </r>
       <r>    -9.2663     0.0000     0.0000 </r>
       <r>    -9.2120     0.0002     0.0000 </r>
       <r>    -9.1578     0.0050     0.0003 </r>
       <r>    -9.1036     0.0625     0.0037 </r>
       <r>    -9.0494     0.4440     0.0277 </r>
       <r>    -8.9952     1.7983     0.1253 </r>
       <r>    -8.9409     4.1671     0.3512 </r>
       <r>    -8.8867     5.5997     0.6548 </r>
       <r>    -8.8325     4.7828     0.9142 </r>
       <r>    -8.7783     4.0127     1.1318 </r>
       <r>    -8.7240     4.9912     1.4024 </r>
       <r>    -8.6698     5.4627     1.6986 </r>
       <r>    -8.6156     3.7104     1.8998 </r>
       <r>    -8.5614     1.4674     1.9794 </r>
       <r>    -8.5071     0.3425     1.9979 </r>
       <r>    -8.4529     0.1299     2.0050 </r>
       <r>    -8.3987     0.5248     2.0334 </r>
       <r>    -8.3445     1.8718     2.1349 </r>
       <r>    -8.2903     4.0272     2.3533 </r>
       <r>    -8.2360     5.2618     2.6386 </r>
       <r>    -8.1818     4.4202     2.8783 </r>
       <r>    -8.1276     3.5129     3.0688 </r>
       <r>    -8.0734     5.2875     3.3555 </r>
       <r>    -8.0191     8.9303     3.8397 </r>
       <r>    -7.9649    10.2464     4.3953 </r>
       <r>    -7.9107     7.5732     4.8059 </r>
       <r>    -7.8565     4.6656     5.0589 </r>
       <r>    -7.8022     4.7583     5.3169 </r>
       <r>    -7.7480     6.1395     5.6498 </r>
       <r>    -7.6938     6.1891     5.9854 </r>
       <r>    -7.6396     5.7117     6.2951 </r>
       <r>    -7.5854     6.6558     6.6560 </r>
       <r>    -7.5311     9.4202     7.1668 </r>
       <r>    -7.4769    12.2566     7.8314 </r>
       <r>    -7.4227    12.5491     8.5118 </r>
       <r>    -7.3685    11.3025     9.1247 </r>
       <r>    -7.3142    12.4843     9.8016 </r>
       <r>    -7.2600    17.1388    10.7309 </r>
       <r>    -7.2058    22.4388    11.9476 </r>
       <r>    -7.1516    25.3122    13.3201 </r>
       <r>    -7.0973    25.8582    14.7222 </r>
       <r>    -7.0431    26.2026    16.1430 </r>
       <r>    -6.9889    26.9627    17.6050 </r>
       <r>    -6.9347    27.2185    19.0809 </r>
       <r>    -6.8805    27.1271    20.5518 </r>
       <r>    -6.8262    28.0990    22.0754 </r>
       <r>    -6.7720    31.3875    23.7773 </r>
       <r>    -6.7178    37.2374    25.7965 </r>
       <r>    -6.6636    44.3410    28.2008 </r>
       <r>    -6.6093    49.7691    30.8994 </r>
       <r>    -6.5551    51.4528    33.6893 </r>
       <r>    -6.5009    51.5619    36.4852 </r>
       <r>    -6.4467    53.8604    39.4056 </r>
       <r>    -6.3924    59.1385    42.6123 </r>
       <r>    -6.3382    65.5824    46.1684 </r>
       <r>    -6.2840    71.2562    50.0321 </r>
       <r>    -6.2298    76.0259    54.1544 </r>
       <r>    -6.1756    80.2652    58.5067 </r>
       <r>    -6.1213    83.1888    63.0174 </r>
       <r>    -6.0671    84.2506    67.5857 </r>
       <r>    -6.0129    83.8258    72.1310 </r>
       <r>    -5.9587    82.5697    76.6082 </r>
       <r>    -5.9044    80.2033    80.9570 </r>
       <r>    -5.8502    76.7876    85.1207 </r>
       <r>    -5.7960    74.3134    89.1502 </r>
       <r>    -5.7418    73.0887    93.1133 </r>
       <r>    -5.6876    70.6320    96.9432 </r>
       <r>    -5.6333    67.1645   100.5850 </r>
       <r>    -5.5791    65.1920   104.1199 </r>
       <r>    -5.5249    64.1157   107.5965 </r>
       <r>    -5.4707    62.7354   110.9982 </r>
       <r>    -5.4164    63.4401   114.4381 </r>
       <r>    -5.3622    68.1306   118.1323 </r>
       <r>    -5.3080    73.7588   122.1317 </r>
       <r>    -5.2538    76.4041   126.2746 </r>
       <r>    -5.1995    77.0638   130.4532 </r>
       <r>    -5.1453    79.2644   134.7512 </r>
       <r>    -5.0911    82.7135   139.2362 </r>
       <r>    -5.0369    84.9444   143.8421 </r>
       <r>    -4.9827    86.2152   148.5169 </r>
       <r>    -4.9284    86.9709   153.2328 </r>
       <r>    -4.8742    86.2822   157.9112 </r>
       <r>    -4.8200    85.1472   162.5282 </r>
       <r>    -4.7658    84.8801   167.1306 </r>
       <r>    -4.7115    84.5601   171.7157 </r>
       <r>    -4.6573    83.3491   176.2352 </r>
       <r>    -4.6031    82.4610   180.7065 </r>
       <r>    -4.5489    82.9893   185.2064 </r>
       <r>    -4.4946    83.9625   189.7591 </r>
       <r>    -4.4404    84.8402   194.3594 </r>
       <r>    -4.3862    86.0423   199.0248 </r>
       <r>    -4.3320    87.2053   203.7534 </r>
       <r>    -4.2778    87.6885   208.5081 </r>
       <r>    -4.2235    87.1596   213.2342 </r>
       <r>    -4.1693    86.6846   217.9345 </r>
       <r>    -4.1151    87.3173   222.6691 </r>
       <r>    -4.0609    87.9401   227.4374 </r>
       <r>    -4.0066    88.1651   232.2180 </r>
       <r>    -3.9524    89.0482   237.0465 </r>
       <r>    -3.8982    89.9708   241.9249 </r>
       <r>    -3.8440    90.1185   246.8114 </r>
       <r>    -3.7897    89.7143   251.6760 </r>
       <r>    -3.7355    88.9575   256.4996 </r>
       <r>    -3.6813    88.8085   261.3150 </r>
       <r>    -3.6271    89.4636   266.1660 </r>
       <r>    -3.5729    89.8198   271.0363 </r>
       <r>    -3.5186    89.3401   275.8806 </r>
       <r>    -3.4644    88.3700   280.6723 </r>
       <r>    -3.4102    87.5686   285.4205 </r>
       <r>    -3.3560    87.3868   290.1589 </r>
       <r>    -3.3017    88.3305   294.9484 </r>
       <r>    -3.2475    89.5269   299.8028 </r>
       <r>    -3.1933    88.7775   304.6166 </r>
       <r>    -3.1391    86.1258   309.2866 </r>
       <r>    -3.0848    84.2786   313.8565 </r>
       <r>    -3.0306    84.9815   318.4644 </r>
       <r>    -2.9764    88.0488   323.2387 </r>
       <r>    -2.9222    92.4281   328.2504 </r>
       <r>    -2.8680    96.1900   333.4661 </r>
       <r>    -2.8137    98.4636   338.8051 </r>
       <r>    -2.7595   100.5779   344.2587 </r>
       <r>    -2.7053   103.4162   349.8663 </r>
       <r>    -2.6511   106.0944   355.6190 </r>
       <r>    -2.5968   108.0333   361.4769 </r>
       <r>    -2.5426   108.1607   367.3417 </r>
       <r>    -2.4884   104.9352   373.0316 </r>
       <r>    -2.4342    99.4307   378.4230 </r>
       <r>    -2.3799    94.3990   383.5416 </r>
       <r>    -2.3257    90.6550   388.4572 </r>
       <r>    -2.2715    87.9552   393.2264 </r>
       <r>    -2.2173    87.9492   397.9953 </r>
       <r>    -2.1631    90.9420   402.9264 </r>
       <r>    -2.1088    94.0660   408.0270 </r>
       <r>    -2.0546    95.5105   413.2058 </r>
       <r>    -2.0004    96.0028   418.4114 </r>
       <r>    -1.9462    96.8221   423.6614 </r>
       <r>    -1.8919    99.8317   429.0745 </r>
       <r>    -1.8377   104.7850   434.7563 </r>
       <r>    -1.7835   107.3844   440.5790 </r>
       <r>    -1.7293   105.9864   446.3259 </r>
       <r>    -1.6750   104.9719   452.0178 </r>
       <r>    -1.6208   107.1732   457.8290 </r>
       <r>    -1.5666   110.2072   463.8048 </r>
       <r>    -1.5124   110.5772   469.8006 </r>
       <r>    -1.4582   106.9973   475.6023 </r>
       <r>    -1.4039   100.7697   481.0664 </r>
       <r>    -1.3497    93.9144   486.1587 </r>
       <r>    -1.2955    87.3194   490.8934 </r>
       <r>    -1.2413    80.0450   495.2337 </r>
       <r>    -1.1870    70.0191   499.0303 </r>
       <r>    -1.1328    56.8706   502.1140 </r>
       <r>    -1.0786    43.9409   504.4966 </r>
       <r>    -1.0244    34.2913   506.3560 </r>
       <r>    -0.9702    26.7174   507.8047 </r>
       <r>    -0.9159    19.4244   508.8579 </r>
       <r>    -0.8617    12.6125   509.5418 </r>
       <r>    -0.8075     7.7800   509.9637 </r>
       <r>    -0.7533     6.9657   510.3414 </r>
       <r>    -0.6990     9.5391   510.8586 </r>
       <r>    -0.6448    12.1560   511.5178 </r>
       <r>    -0.5906    14.1444   512.2847 </r>
       <r>    -0.5364    17.6960   513.2442 </r>
       <r>    -0.4821    21.7225   514.4221 </r>
       <r>    -0.4279    23.1276   515.6761 </r>
       <r>    -0.3737    22.5089   516.8966 </r>
       <r>    -0.3195    22.1301   518.0966 </r>
       <r>    -0.2653    22.5006   519.3167 </r>
       <r>    -0.2110    21.5436   520.4848 </r>
       <r>    -0.1568    16.9745   521.4052 </r>
       <r>    -0.1026    11.6323   522.0360 </r>
       <r>    -0.0484     9.6262   522.5579 </r>
       <r>     0.0059     9.6364   523.0804 </r>
       <r>     0.0601     9.6253   523.6024 </r>
       <r>     0.1143    10.9348   524.1953 </r>
       <r>     0.1685    13.4641   524.9253 </r>
       <r>     0.2228    14.6154   525.7178 </r>
       <r>     0.2770    14.5967   526.5093 </r>
       <r>     0.3312    16.4419   527.4008 </r>
       <r>     0.3854    20.0150   528.4861 </r>
       <r>     0.4396    21.8243   529.6695 </r>
       <r>     0.4939    21.4695   530.8336 </r>
       <r>     0.5481    21.9088   532.0216 </r>
       <r>     0.6023    24.0967   533.3282 </r>
       <r>     0.6565    26.1262   534.7448 </r>
       <r>     0.7108    25.7794   536.1427 </r>
       <r>     0.7650    23.3846   537.4106 </r>
       <r>     0.8192    20.5720   538.5261 </r>
       <r>     0.8734    16.7507   539.4344 </r>
       <r>     0.9277    12.3881   540.1061 </r>
       <r>     0.9819     9.6768   540.6308 </r>
       <r>     1.0361     8.4641   541.0898 </r>
       <r>     1.0903     7.7619   541.5106 </r>
       <r>     1.1445     7.4905   541.9168 </r>
       <r>     1.1988     7.6640   542.3324 </r>
       <r>     1.2530     8.2862   542.7817 </r>
       <r>     1.3072     8.7526   543.2562 </r>
       <r>     1.3614     7.8454   543.6816 </r>
       <r>     1.4157     6.5089   544.0346 </r>
       <r>     1.4699     8.2457   544.4817 </r>
       <r>     1.5241    13.3562   545.2059 </r>
       <r>     1.5783    17.0490   546.1303 </r>
       <r>     1.6326    16.4519   547.0224 </r>
       <r>     1.6868    14.4976   547.8085 </r>
       <r>     1.7410    14.8594   548.6142 </r>
       <r>     1.7952    16.6276   549.5158 </r>
       <r>     1.8494    15.7934   550.3722 </r>
       <r>     1.9037    12.1618   551.0317 </r>
       <r>     1.9579     9.4659   551.5449 </r>
       <r>     2.0121     9.4452   552.0571 </r>
       <r>     2.0663    11.6871   552.6908 </r>
       <r>     2.1206    15.4594   553.5290 </r>
       <r>     2.1748    19.7530   554.6001 </r>
       <r>     2.2290    23.4269   555.8704 </r>
       <r>     2.2832    25.5829   557.2576 </r>
       <r>     2.3375    25.6493   558.6483 </r>
       <r>     2.3917    24.0195   559.9507 </r>
       <r>     2.4459    22.5562   561.1738 </r>
       <r>     2.5001    21.9477   562.3639 </r>
       <r>     2.5543    20.8202   563.4928 </r>
       <r>     2.6086    20.0589   564.5805 </r>
       <r>     2.6628    21.6410   565.7539 </r>
       <r>     2.7170    22.5651   566.9775 </r>
       <r>     2.7712    18.8442   567.9992 </r>
       <r>     2.8255    12.0790   568.6542 </r>
       <r>     2.8797     7.0468   569.0363 </r>
       <r>     2.9339     5.8314   569.3525 </r>
       <r>     2.9881     5.7748   569.6656 </r>
       <r>     3.0423     4.2149   569.8942 </r>
       <r>     3.0966     2.7927   570.0456 </r>
       <r>     3.1508     4.3841   570.2833 </r>
       <r>     3.2050     8.7397   570.7572 </r>
       <r>     3.2592    11.9670   571.4061 </r>
       <r>     3.3135    11.5281   572.0312 </r>
       <r>     3.3677     9.8247   572.5639 </r>
       <r>     3.4219     9.4064   573.0740 </r>
       <r>     3.4761    10.4017   573.6380 </r>
       <r>     3.5304    13.0506   574.3456 </r>
       <r>     3.5846    16.9786   575.2662 </r>
       <r>     3.6388    20.1509   576.3589 </r>
       <r>     3.6930    21.1431   577.5053 </r>
       <r>     3.7472    20.0039   578.5900 </r>
       <r>     3.8015    17.3905   579.5330 </r>
       <r>     3.8557    14.3543   580.3113 </r>
       <r>     3.9099    12.4864   580.9883 </r>
       <r>     3.9641    13.2676   581.7078 </r>
       <r>     4.0184    15.1208   582.5276 </r>
       <r>     4.0726    14.3261   583.3044 </r>
       <r>     4.1268    11.0722   583.9048 </r>
       <r>     4.1810     9.5683   584.4236 </r>
       <r>     4.2353    10.4846   584.9921 </r>
       <r>     4.2895    10.1817   585.5442 </r>
       <r>     4.3437     8.1944   585.9886 </r>
       <r>     4.3979     7.9231   586.4182 </r>
       <r>     4.4521    10.5489   586.9902 </r>
       <r>     4.5064    15.2401   587.8165 </r>
       <r>     4.5606    21.7659   588.9967 </r>
       <r>     4.6148    27.3846   590.4816 </r>
       <r>     4.6690    27.7659   591.9872 </r>
       <r>     4.7233    24.0897   593.2934 </r>
       <r>     4.7775    22.1834   594.4962 </r>
       <r>     4.8317    24.2952   595.8136 </r>
       <r>     4.8859    27.4060   597.2996 </r>
       <r>     4.9402    28.5458   598.8475 </r>
       <r>     4.9944    29.2538   600.4337 </r>
       <r>     5.0486    32.2479   602.1823 </r>
       <r>     5.1028    34.7784   604.0681 </r>
       <r>     5.1570    33.4168   605.8800 </r>
       <r>     5.2113    31.3348   607.5791 </r>
       <r>     5.2655    29.9566   609.2034 </r>
       <r>     5.3197    25.1128   610.5651 </r>
       <r>     5.3739    16.1502   611.4408 </r>
       <r>     5.4282     7.4506   611.8448 </r>
       <r>     5.4824     2.3317   611.9713 </r>
       <r>     5.5366     0.4681   611.9966 </r>
       <r>     5.5908     0.0576   611.9998 </r>
       <r>     5.6451     0.0042   612.0000 </r>
       <r>     5.6993     0.0002   612.0000 </r>
       <r>     5.7535     0.0000   612.0000 </r>
       <r>     5.8077     0.0000   612.0000 </r>
       <r>     5.8619     0.0000   612.0000 </r>
       <r>     5.9162     0.0000   612.0000 </r>
       <r>     5.9704     0.0000   612.0000 </r>
       <r>     6.0246     0.0000   612.0000 </r>
       <r>     6.0788     0.0000   612.0000 </r>
       <r>     6.1331     0.0000   612.0000 </r>
       <r>     6.1873     0.0000   612.0000 </r>
       <r>     6.2415     0.0000   612.0000 </r>
       <r>     6.2957     0.0000   612.0000 </r>
       <r>     6.3500     0.0000   612.0000 </r>
      </set>
     </set>
    </array>
   </total>
  </dos>
 </calculation>
 <structure name="finalpos" >
  <crystal>
   <varray name="basis" >
    <v>      11.00258152       0.00000000       0.00000000 </v>
    <v>       5.50129076       9.52851510       0.00000000 </v>
    <v>       0.00000000       0.00000000      24.49178509 </v>
   </varray>
   <i name="volume">   2567.67623402 </i>
   <varray name="rec_basis" >
    <v>       0.09088776      -0.05247407       0.00000000 </v>
    <v>       0.00000000       0.10494815       0.00000000 </v>
    <v>       0.00000000       0.00000000       0.04083002 </v>
   </varray>
  </crystal>
  <varray name="positions" >
   <v>       0.08333333       0.08333333       0.40830017 </v>
   <v>       0.00028941       0.24875229       0.60977162 </v>
   <v>       0.08333333       0.58333333       0.40830017 </v>
   <v>       0.91693844       0.91797880       0.50997319 </v>
   <v>       0.08333333       0.83333333       0.40830017 </v>
   <v>       0.91662899       0.41667339       0.50722400 </v>
   <v>       0.33333333       0.33333333       0.40830017 </v>
   <v>      -0.00119984       0.74765647       0.61053972 </v>
   <v>       0.25031220       0.74994959       0.61238438 </v>
   <v>       0.24944420       0.25116425       0.61235456 </v>
   <v>       0.16533427       0.91921929       0.50993960 </v>
   <v>       0.66691007       0.91558324       0.51070612 </v>
   <v>       0.08333333       0.33333333       0.40830017 </v>
   <v>       0.41240335       0.16884304       0.51075604 </v>
   <v>       0.50180534      -0.00274918       0.61617833 </v>
   <v>       0.41479566       0.41909267       0.50844244 </v>
   <v>       0.41619867       0.66603725       0.50603027 </v>
   <v>       0.50142957       0.49933835       0.61170771 </v>
   <v>       0.41443590       0.91885172       0.50686616 </v>
   <v>       0.66743899       0.16941228       0.50828150 </v>
   <v>       0.75061239       0.24873750       0.61041069 </v>
   <v>       0.66787453       0.66553593       0.50622681 </v>
   <v>       0.83333333       0.83333333       0.40830017 </v>
   <v>       0.58333333       0.08333333       0.40830017 </v>
   <v>      -0.00077475       0.49944074       0.60533318 </v>
   <v>       0.58333333       0.33333333       0.40830017 </v>
   <v>       0.33333333       0.08333333       0.40830017 </v>
   <v>       0.16483390       0.16926390       0.50919838 </v>
   <v>       0.25148450      -0.00123403       0.60691676 </v>
   <v>       0.24987410       0.49878027       0.60613368 </v>
   <v>       0.16564562       0.66643656       0.50927836 </v>
   <v>       0.33333333       0.58333333       0.40830017 </v>
   <v>       0.50024257       0.24900776       0.60739929 </v>
   <v>       0.33333333       0.83333333       0.40830017 </v>
   <v>       0.58333333       0.58333333       0.40830017 </v>
   <v>       0.50104275       0.74939284       0.60523865 </v>
   <v>       0.16474466       0.41898829       0.50961154 </v>
   <v>       0.66712088       0.41646401       0.50659160 </v>
   <v>       0.91554607       0.16955280       0.50764197 </v>
   <v>       0.83333333       0.08333333       0.40830017 </v>
   <v>       0.74988090       0.50177422       0.60469011 </v>
   <v>       0.74977565      -0.00079383       0.60779562 </v>
   <v>       0.00009168      -0.00072985       0.60724672 </v>
   <v>       0.83333333       0.58333333       0.40830017 </v>
   <v>       0.83333333       0.33333333       0.40830017 </v>
   <v>       0.58333333       0.83333333       0.40830017 </v>
   <v>       0.91841922       0.66585413       0.50856060 </v>
   <v>       0.75005026       0.74750371       0.60621962 </v>
  </varray>
  <varray name="selective"  type="logical" >
   <v type="logical" >  F  F  F </v>
   <v type="logical" >  T  T  T </v>
   <v type="logical" >  F  F  F </v>
   <v type="logical" >  T  T  T </v>
   <v type="logical" >  F  F  F </v>
   <v type="logical" >  T  T  T </v>
   <v type="logical" >  F  F  F </v>
   <v type="logical" >  T  T  T </v>
   <v type="logical" >  T  T  T </v>
   <v type="logical" >  T  T  T </v>
   <v type="logical" >  T  T  T </v>
   <v type="logical" >  T  T  T </v>
   <v type="logical" >  F  F  F </v>
   <v type="logical" >  T  T  T </v>
   <v type="logical" >  T  T  T </v>
   <v type="logical" >  T  T  T </v>
   <v type="logical" >  T  T  T </v>
   <v type="logical" >  T  T  T </v>
   <v type="logical" >  T  T  T </v>
   <v type="logical" >  T  T  T </v>
   <v type="logical" >  T  T  T </v>
   <v type="logical" >  T  T  T </v>
   <v type="logical" >  F  F  F </v>
   <v type="logical" >  F  F  F </v>
   <v type="logical" >  T  T  T </v>
   <v type="logical" >  F  F  F </v>
   <v type="logical" >  F  F  F </v>
   <v type="logical" >  T  T  T </v>
   <v type="logical" >  T  T  T </v>
   <v type="logical" >  T  T  T </v>
   <v type="logical" >  T  T  T </v>
   <v type="logical" >  F  F  F </v>
   <v type="logical" >  T  T  T </v>
   <v type="logical" >  F  F  F </v>
   <v type="logical" >  F  F  F </v>
   <v type="logical" >  T  T  T </v>
   <v type="logical" >  T  T  T </v>
   <v type="logical" >  T  T  T </v>
   <v type="logical" >  T  T  T </v>
   <v type="logical" >  F  F  F </v>
   <v type="logical" >  T  T  T </v>
   <v type="logical" >  T  T  T </v>
   <v type="logical" >  T  T  T </v>
   <v type="logical" >  F  F  F </v>
   <v type="logical" >  F  F  F </v>
   <v type="logical" >  F  F  F </v>
   <v type="logical" >  T  T  T </v>
   <v type="logical" >  T  T  T </v>
  </varray>
  <nose>
   <v>      -3.00000000       0.00000000       0.00010000       0.00010000 </v>
  </nose>
 </structure>
</modeling>
