  48  48   0   0
  0.5349325E+02  0.1100258E-08  0.1100258E-08  0.2449179E-08  0.3500000E-15
  1.000000000000000E-004
  CAR 
 unknown system                          
      6.33636264     -9.83149905  301     -1.10390183      1.00000000
     -9.831  0.0000E+00  0.0000E+00
     -9.778  0.0000E+00  0.0000E+00
     -9.724  0.0000E+00  0.0000E+00
     -9.670  0.0000E+00  0.0000E+00
     -9.616  0.0000E+00  0.0000E+00
     -9.562  0.0000E+00  0.0000E+00
     -9.508  0.0000E+00  0.0000E+00
     -9.454  0.0000E+00  0.0000E+00
     -9.400  0.5493E-17  0.2961E-18
     -9.346  0.2112E-14  0.1141E-15
     -9.293  0.4601E-12  0.2491E-13
     -9.239  0.5712E-10  0.3103E-11
     -9.185  0.4059E-08  0.2219E-09
     -9.131  0.1661E-06  0.9172E-08
     -9.077  0.3935E-05  0.2213E-06
     -9.023  0.5439E-04  0.3153E-05
     -8.969  0.4414E-03  0.2694E-04
     -8.915  0.2117E-02  0.1410E-03
     -8.861  0.6049E-02  0.4670E-03
     -8.808  0.1052E-01  0.1034E-02
     -8.754  0.1203E-01  0.1683E-02
     -8.700  0.1112E-01  0.2282E-02
     -8.646  0.1033E-01  0.2839E-02
     -8.592  0.9058E-02  0.3327E-02
     -8.538  0.6651E-02  0.3686E-02
     -8.484  0.3932E-02  0.3897E-02
     -8.430  0.2138E-02  0.4013E-02
     -8.376  0.2244E-02  0.4134E-02
     -8.322  0.3431E-02  0.4319E-02
     -8.269  0.3706E-02  0.4518E-02
     -8.215  0.3240E-02  0.4693E-02
     -8.161  0.4453E-02  0.4933E-02
     -8.107  0.7604E-02  0.5343E-02
     -8.053  0.1010E-01  0.5887E-02
     -7.999  0.1075E-01  0.6466E-02
     -7.945  0.1011E-01  0.7011E-02
     -7.891  0.9700E-02  0.7534E-02
     -7.837  0.1223E-01  0.8193E-02
     -7.784  0.1714E-01  0.9117E-02
     -7.730  0.1977E-01  0.1018E-01
     -7.676  0.1790E-01  0.1115E-01
     -7.622  0.1439E-01  0.1192E-01
     -7.568  0.1339E-01  0.1264E-01
     -7.514  0.1670E-01  0.1354E-01
     -7.460  0.2186E-01  0.1472E-01
     -7.406  0.2451E-01  0.1604E-01
     -7.352  0.2397E-01  0.1733E-01
     -7.299  0.2313E-01  0.1858E-01
     -7.245  0.2410E-01  0.1988E-01
     -7.191  0.2769E-01  0.2137E-01
     -7.137  0.3283E-01  0.2314E-01
     -7.083  0.3630E-01  0.2510E-01
     -7.029  0.3955E-01  0.2723E-01
     -6.975  0.4711E-01  0.2977E-01
     -6.921  0.5802E-01  0.3289E-01
     -6.867  0.7070E-01  0.3670E-01
     -6.813  0.8431E-01  0.4125E-01
     -6.760  0.9342E-01  0.4628E-01
     -6.706  0.9705E-01  0.5151E-01
     -6.652  0.9889E-01  0.5684E-01
     -6.598  0.9798E-01  0.6212E-01
     -6.544  0.9579E-01  0.6729E-01
     -6.490  0.9904E-01  0.7262E-01
     -6.436  0.1077E+00  0.7843E-01
     -6.382  0.1165E+00  0.8471E-01
     -6.328  0.1255E+00  0.9148E-01
     -6.275  0.1350E+00  0.9875E-01
     -6.221  0.1406E+00  0.1063E+00
     -6.167  0.1405E+00  0.1139E+00
     -6.113  0.1379E+00  0.1213E+00
     -6.059  0.1367E+00  0.1287E+00
     -6.005  0.1364E+00  0.1360E+00
     -5.951  0.1342E+00  0.1433E+00
     -5.897  0.1324E+00  0.1504E+00
     -5.843  0.1336E+00  0.1576E+00
     -5.790  0.1347E+00  0.1649E+00
     -5.736  0.1329E+00  0.1720E+00
     -5.682  0.1303E+00  0.1791E+00
     -5.628  0.1298E+00  0.1861E+00
     -5.574  0.1332E+00  0.1932E+00
     -5.520  0.1421E+00  0.2009E+00
     -5.466  0.1554E+00  0.2093E+00
     -5.412  0.1659E+00  0.2182E+00
     -5.358  0.1703E+00  0.2274E+00
     -5.304  0.1746E+00  0.2368E+00
     -5.251  0.1799E+00  0.2465E+00
     -5.197  0.1809E+00  0.2562E+00
     -5.143  0.1778E+00  0.2658E+00
     -5.089  0.1730E+00  0.2751E+00
     -5.035  0.1678E+00  0.2842E+00
     -4.981  0.1649E+00  0.2931E+00
     -4.927  0.1663E+00  0.3020E+00
     -4.873  0.1723E+00  0.3113E+00
     -4.819  0.1800E+00  0.3210E+00
     -4.766  0.1857E+00  0.3310E+00
     -4.712  0.1868E+00  0.3411E+00
     -4.658  0.1832E+00  0.3510E+00
     -4.604  0.1788E+00  0.3606E+00
     -4.550  0.1759E+00  0.3701E+00
     -4.496  0.1740E+00  0.3795E+00
     -4.442  0.1725E+00  0.3888E+00
     -4.388  0.1733E+00  0.3981E+00
     -4.334  0.1772E+00  0.4076E+00
     -4.281  0.1799E+00  0.4173E+00
     -4.227  0.1807E+00  0.4271E+00
     -4.173  0.1827E+00  0.4369E+00
     -4.119  0.1851E+00  0.4469E+00
     -4.065  0.1857E+00  0.4569E+00
     -4.011  0.1838E+00  0.4668E+00
     -3.957  0.1797E+00  0.4765E+00
     -3.903  0.1776E+00  0.4861E+00
     -3.849  0.1802E+00  0.4958E+00
     -3.795  0.1863E+00  0.5058E+00
     -3.742  0.1945E+00  0.5163E+00
     -3.688  0.2021E+00  0.5272E+00
     -3.634  0.2068E+00  0.5383E+00
     -3.580  0.2095E+00  0.5496E+00
     -3.526  0.2116E+00  0.5610E+00
     -3.472  0.2141E+00  0.5726E+00
     -3.418  0.2172E+00  0.5843E+00
     -3.364  0.2207E+00  0.5962E+00
     -3.310  0.2243E+00  0.6083E+00
     -3.257  0.2256E+00  0.6204E+00
     -3.203  0.2198E+00  0.6323E+00
     -3.149  0.2096E+00  0.6436E+00
     -3.095  0.2043E+00  0.6546E+00
     -3.041  0.2037E+00  0.6656E+00
     -2.987  0.1991E+00  0.6763E+00
     -2.933  0.1875E+00  0.6864E+00
     -2.879  0.1764E+00  0.6959E+00
     -2.825  0.1728E+00  0.7052E+00
     -2.772  0.1738E+00  0.7146E+00
     -2.718  0.1744E+00  0.7240E+00
     -2.664  0.1752E+00  0.7334E+00
     -2.610  0.1789E+00  0.7431E+00
     -2.556  0.1845E+00  0.7530E+00
     -2.502  0.1890E+00  0.7632E+00
     -2.448  0.1908E+00  0.7735E+00
     -2.394  0.1908E+00  0.7838E+00
     -2.340  0.1903E+00  0.7940E+00
     -2.286  0.1881E+00  0.8042E+00
     -2.233  0.1835E+00  0.8140E+00
     -2.179  0.1776E+00  0.8236E+00
     -2.125  0.1719E+00  0.8329E+00
     -2.071  0.1693E+00  0.8420E+00
     -2.017  0.1706E+00  0.8512E+00
     -1.963  0.1717E+00  0.8604E+00
     -1.909  0.1698E+00  0.8696E+00
     -1.855  0.1670E+00  0.8786E+00
     -1.801  0.1634E+00  0.8874E+00
     -1.748  0.1596E+00  0.8960E+00
     -1.694  0.1611E+00  0.9047E+00
     -1.640  0.1698E+00  0.9138E+00
     -1.586  0.1826E+00  0.9237E+00
     -1.532  0.1950E+00  0.9342E+00
     -1.478  0.2026E+00  0.9451E+00
     -1.424  0.2040E+00  0.9561E+00
     -1.370  0.1995E+00  0.9669E+00
     -1.316  0.1884E+00  0.9770E+00
     -1.263  0.1724E+00  0.9863E+00
     -1.209  0.1553E+00  0.9947E+00
     -1.155  0.1373E+00  0.1002E+01
     -1.101  0.1158E+00  0.1008E+01
     -1.047  0.9014E-01  0.1013E+01
     -0.993  0.6290E-01  0.1017E+01
     -0.939  0.3901E-01  0.1019E+01
     -0.885  0.2450E-01  0.1020E+01
     -0.831  0.2115E-01  0.1021E+01
     -0.777  0.2323E-01  0.1022E+01
     -0.724  0.2532E-01  0.1024E+01
     -0.670  0.2848E-01  0.1025E+01
     -0.616  0.3305E-01  0.1027E+01
     -0.562  0.3676E-01  0.1029E+01
     -0.508  0.3916E-01  0.1031E+01
     -0.454  0.3756E-01  0.1033E+01
     -0.400  0.3061E-01  0.1035E+01
     -0.346  0.2498E-01  0.1036E+01
     -0.292  0.2685E-01  0.1038E+01
     -0.239  0.3373E-01  0.1039E+01
     -0.185  0.3859E-01  0.1042E+01
     -0.131  0.3819E-01  0.1044E+01
     -0.077  0.3335E-01  0.1045E+01
     -0.023  0.2819E-01  0.1047E+01
      0.031  0.2815E-01  0.1048E+01
      0.085  0.3262E-01  0.1050E+01
      0.139  0.3601E-01  0.1052E+01
      0.193  0.3689E-01  0.1054E+01
      0.246  0.3807E-01  0.1056E+01
      0.300  0.3920E-01  0.1058E+01
      0.354  0.3827E-01  0.1060E+01
      0.408  0.3524E-01  0.1062E+01
      0.462  0.3164E-01  0.1064E+01
      0.516  0.3038E-01  0.1066E+01
      0.570  0.3403E-01  0.1067E+01
      0.624  0.4217E-01  0.1070E+01
      0.678  0.4899E-01  0.1072E+01
      0.732  0.4723E-01  0.1075E+01
      0.785  0.3597E-01  0.1077E+01
      0.839  0.2317E-01  0.1078E+01
      0.893  0.1792E-01  0.1079E+01
      0.947  0.1956E-01  0.1080E+01
      1.001  0.2062E-01  0.1081E+01
      1.055  0.1848E-01  0.1082E+01
      1.109  0.1780E-01  0.1083E+01
      1.163  0.2039E-01  0.1084E+01
      1.217  0.2103E-01  0.1085E+01
      1.270  0.1729E-01  0.1086E+01
      1.324  0.1395E-01  0.1087E+01
      1.378  0.1513E-01  0.1088E+01
      1.432  0.2049E-01  0.1089E+01
      1.486  0.2716E-01  0.1090E+01
      1.540  0.3083E-01  0.1092E+01
      1.594  0.3016E-01  0.1094E+01
      1.648  0.2953E-01  0.1095E+01
      1.702  0.3354E-01  0.1097E+01
      1.755  0.4006E-01  0.1099E+01
      1.809  0.4159E-01  0.1102E+01
      1.863  0.3574E-01  0.1103E+01
      1.917  0.2891E-01  0.1105E+01
      1.971  0.2499E-01  0.1106E+01
      2.025  0.2146E-01  0.1108E+01
      2.079  0.1850E-01  0.1108E+01
      2.133  0.1987E-01  0.1110E+01
      2.187  0.2660E-01  0.1111E+01
      2.241  0.3594E-01  0.1113E+01
      2.294  0.4404E-01  0.1115E+01
      2.348  0.4687E-01  0.1118E+01
      2.402  0.4313E-01  0.1120E+01
      2.456  0.3650E-01  0.1122E+01
      2.510  0.3251E-01  0.1124E+01
      2.564  0.3526E-01  0.1126E+01
      2.618  0.4334E-01  0.1128E+01
      2.672  0.4972E-01  0.1131E+01
      2.726  0.4754E-01  0.1133E+01
      2.779  0.3609E-01  0.1135E+01
      2.833  0.2366E-01  0.1137E+01
      2.887  0.1902E-01  0.1138E+01
      2.941  0.1940E-01  0.1139E+01
      2.995  0.1709E-01  0.1140E+01
      3.049  0.1366E-01  0.1140E+01
      3.103  0.1523E-01  0.1141E+01
      3.157  0.2132E-01  0.1142E+01
      3.211  0.2609E-01  0.1144E+01
      3.264  0.2472E-01  0.1145E+01
      3.318  0.1870E-01  0.1146E+01
      3.372  0.1474E-01  0.1147E+01
      3.426  0.1614E-01  0.1148E+01
      3.480  0.2102E-01  0.1149E+01
      3.534  0.2790E-01  0.1150E+01
      3.588  0.3574E-01  0.1152E+01
      3.642  0.4080E-01  0.1154E+01
      3.696  0.4085E-01  0.1157E+01
      3.750  0.3773E-01  0.1159E+01
      3.803  0.3182E-01  0.1160E+01
      3.857  0.2362E-01  0.1162E+01
      3.911  0.1851E-01  0.1163E+01
      3.965  0.2046E-01  0.1164E+01
      4.019  0.2535E-01  0.1165E+01
      4.073  0.2755E-01  0.1167E+01
      4.127  0.2676E-01  0.1168E+01
      4.181  0.2409E-01  0.1169E+01
      4.235  0.2069E-01  0.1170E+01
      4.288  0.1761E-01  0.1171E+01
      4.342  0.1725E-01  0.1172E+01
      4.396  0.2357E-01  0.1174E+01
      4.450  0.3327E-01  0.1175E+01
      4.504  0.3969E-01  0.1178E+01
      4.558  0.4522E-01  0.1180E+01
      4.612  0.5232E-01  0.1183E+01
      4.666  0.5369E-01  0.1186E+01
      4.720  0.4665E-01  0.1188E+01
      4.773  0.4089E-01  0.1190E+01
      4.827  0.4328E-01  0.1193E+01
      4.881  0.5127E-01  0.1196E+01
      4.935  0.5908E-01  0.1199E+01
      4.989  0.6472E-01  0.1202E+01
      5.043  0.6922E-01  0.1206E+01
      5.097  0.6903E-01  0.1210E+01
      5.151  0.6327E-01  0.1213E+01
      5.205  0.5972E-01  0.1216E+01
      5.259  0.5703E-01  0.1219E+01
      5.312  0.4518E-01  0.1222E+01
      5.366  0.2636E-01  0.1223E+01
      5.420  0.1095E-01  0.1224E+01
      5.474  0.3134E-02  0.1224E+01
      5.528  0.5879E-03  0.1224E+01
      5.582  0.6886E-04  0.1224E+01
      5.636  0.4858E-05  0.1224E+01
      5.690  0.2018E-06  0.1224E+01
      5.744  0.4869E-08  0.1224E+01
      5.797  0.6760E-10  0.1224E+01
      5.851  0.5368E-12  0.1224E+01
      5.905  0.2428E-14  0.1224E+01
      5.959  0.5493E-17  0.1224E+01
      6.013  0.0000E+00  0.1224E+01
      6.067  0.0000E+00  0.1224E+01
      6.121  0.0000E+00  0.1224E+01
      6.175  0.0000E+00  0.1224E+01
      6.229  0.0000E+00  0.1224E+01
      6.282  0.0000E+00  0.1224E+01
      6.336  0.0000E+00  0.1224E+01
