 vasp.5.4.1 24Jun15 (build Mar 14 2019 10:18:33) complex                        
  
 executed on INTEL-19.0.2+OPENMPI date 2022.07.11  19:57:17
 running on   36 total cores
 distrk:  each k-point on   36 cores,    1 groups
 distr:  one band on NCORES_PER_BAND=   6 cores,    6 groups


--------------------------------------------------------------------------------------------------------


 INCAR:
 POTCAR:    PAW_PBE Au 04Oct2007                  
 POTCAR:    PAW_PBE Pd 04Jan2005                  
 POTCAR:    PAW_PBE Au 04Oct2007                  
  local pseudopotential read in
  partial core-charges read in
  partial kinetic energy density read in
  atomic valenz-charges read in
  non local Contribution for L=           2  read in
    real space projection operators read in
  non local Contribution for L=           2  read in
    real space projection operators read in
  non local Contribution for L=           0  read in
    real space projection operators read in
  non local Contribution for L=           0  read in
    real space projection operators read in
  non local Contribution for L=           1  read in
    real space projection operators read in
  non local Contribution for L=           1  read in
    real space projection operators read in
    PAW grid and wavefunctions read in
 
   number of l-projection  operators is LMAX  =           6
   number of lm-projection operators is LMMAX =          18
 
 POTCAR:    PAW_PBE Pd 04Jan2005                  
  local pseudopotential read in
  partial core-charges read in
  partial kinetic energy density read in
  atomic valenz-charges read in
  non local Contribution for L=           2  read in
    real space projection operators read in
  non local Contribution for L=           2  read in
    real space projection operators read in
  non local Contribution for L=           0  read in
    real space projection operators read in
  non local Contribution for L=           0  read in
    real space projection operators read in
  non local Contribution for L=           1  read in
    real space projection operators read in
  non local Contribution for L=           1  read in
    real space projection operators read in
    PAW grid and wavefunctions read in
 
   number of l-projection  operators is LMAX  =           6
   number of lm-projection operators is LMMAX =          18
 
 Optimization of the real space projectors (new method)

 maximal supplied QI-value         = 15.12
 optimisation between [QCUT,QGAM] = [ 10.13, 20.41] = [ 28.73,116.64] Ry 
 Optimized for a Real-space Cutoff    1.51 Angstroem

   l    n(q)    QCUT    max X(q) W(low)/X(q) W(high)/X(q)  e(spline) 
   2      8    10.129    60.898    0.46E-03    0.46E-03    0.14E-06
   2      8    10.129    58.894    0.47E-03    0.47E-03    0.14E-06
   0      9    10.129   109.617    0.16E-03    0.11E-03    0.54E-07
   0      9    10.129    75.026    0.15E-03    0.11E-03    0.52E-07
   1      9    10.129    16.344    0.96E-04    0.15E-03    0.14E-06
   1      9    10.129    10.160    0.81E-04    0.12E-03    0.11E-06
 Optimization of the real space projectors (new method)

 maximal supplied QI-value         = 14.36
 optimisation between [QCUT,QGAM] = [ 10.20, 20.39] = [ 29.12,116.47] Ry 
 Optimized for a Real-space Cutoff    1.51 Angstroem

   l    n(q)    QCUT    max X(q) W(low)/X(q) W(high)/X(q)  e(spline) 
   2      8    10.197    59.108    0.26E-03    0.14E-03    0.96E-07
   2      8    10.197    58.101    0.27E-03    0.14E-03    0.98E-07
   0      9    10.197   102.235    0.54E-04    0.60E-05    0.72E-07
   0      9    10.197    58.388    0.52E-04    0.60E-05    0.68E-07
   1      9    10.197    22.191    0.18E-03    0.25E-03    0.79E-07
   1      9    10.197    15.590    0.15E-03    0.21E-03    0.69E-07
  PAW_PBE Au 04Oct2007                  :
 energy of atom  1       EATOM= -926.0867
 kinetic energy error for atom=    0.0062 (will be added to EATOM!!)
  PAW_PBE Pd 04Jan2005                  :
 energy of atom  2       EATOM= -809.7530
 kinetic energy error for atom=    0.0091 (will be added to EATOM!!)
 
 
 POSCAR: Au Pd                                   
  positions in cartesian coordinates
  No initial velocities read in
 exchange correlation table for  LEXCH =        8
   RHO(1)=    0.500       N(1)  =     2000
   RHO(2)=  100.500       N(2)  =     4000

 VTST: version 3.2, (02/03/18)

 CHAIN: initializing optimizer
 
 OPT: Using VASP Conjugate-Gradient optimizer
 CHAIN: Read ICHAIN            0
 
 POSCAR: Au Pd                                   
  positions in cartesian coordinates
  No initial velocities read in
 


--------------------------------------------------------------------------------------------------------


 ion  position               nearest neighbor table
   1  0.083  0.083  0.408-  12 2.75   5 2.75  23 2.75  30 2.75  47 2.75  34 2.75  19 2.75  25 2.75
                            15 2.75
   2  0.833  0.833  0.408-  24 2.75   9 2.75  18 2.75   3 2.75  34 2.75  23 2.75  37 2.75  20 2.75
                            46 2.75
   3  0.833  0.583  0.408-  20 2.75   5 2.75   2 2.75  30 2.75  37 2.75  18 2.75  48 2.75  16 2.75
                            28 2.75
   4  0.750  0.250  0.592-  31 2.75  15 2.75  27 2.75  29 2.75   6 2.75  38 2.75  17 2.75  41 2.75
                             7 2.75
   5  0.833  0.333  0.408-  16 2.75   3 2.75   1 2.75  34 2.75  48 2.75   8 2.75  30 2.75  15 2.75
                            31 2.75
   6  0.750  0.000  0.592-   7 2.75  24 2.75  14 2.75  22 2.75   4 2.75  41 2.75  29 2.75  43 2.75
                            46 2.75
   7  0.667  0.167  0.500-   9 2.75   6 2.75  41 2.75  31 2.75  24 2.75  42 2.75  46 2.75  44 2.75
                            15 2.75   8 2.75   4 2.75  34 2.75
   8  0.583  0.333  0.408-  31 2.75   9 2.75  34 2.75  40 2.75  48 2.75   5 2.75  11 2.75   7 2.75
                            42 2.75
   9  0.583  0.083  0.408-   7 2.75   2 2.75   8 2.75  11 2.75  37 2.75  34 2.75  19 2.75  46 2.75
                            44 2.75
  10  0.167  0.667  0.500-  18 2.75  45 2.75  14 2.75  25 2.75  32 2.75  42 2.75  24 2.75  20 2.75
                            39 2.75  23 2.75  13 2.75  40 2.75
  11  0.333  0.333  0.408-  42 2.75  18 2.75  19 2.75  40 2.75   9 2.75   8 2.75  30 2.75  44 2.75
                            32 2.75
  12  0.167  0.167  0.500-   1 2.75  26 2.75  17 2.75  25 2.75  16 2.75  32 2.75  36 2.75  15 2.75
                            44 2.75  30 2.75  19 2.75  33 2.75
  13  0.250  0.750  0.592-  25 2.75  39 2.75  29 2.75  38 2.75  26 2.75  45 2.75  35 2.75  14 2.75
                            10 2.75
  14  0.000  0.750  0.592-  24 2.75  10 2.75  21 2.75   6 2.75  29 2.75  45 2.75  22 2.75  13 2.75
                            20 2.75
  15  0.917  0.167  0.500-  34 2.75  29 2.75   4 2.75  25 2.75  16 2.75  31 2.75  24 2.75   7 2.75
                            12 2.75   5 2.75  17 2.75   1 2.75
  16  0.917  0.417  0.500-   5 2.75  17 2.75  27 2.75  12 2.75  20 2.75  15 2.75  28 2.75  31 2.75
                            32 2.75   3 2.75  21 2.75  30 2.75
  17  0.000  0.250  0.592-  16 2.75  12 2.75  21 2.75  26 2.75  27 2.75  29 2.75   4 2.75  33 2.75
                            15 2.75
  18  0.083  0.583  0.408-  10 2.75   2 2.75  11 2.75  23 2.75  30 2.75   3 2.75  40 2.75  32 2.75
                            20 2.75
  19  0.333  0.083  0.408-  44 2.75  30 2.75  37 2.75  11 2.75  47 2.75   9 2.75   1 2.75  36 2.75
                            12 2.75
  20  0.917  0.667  0.500-   3 2.75  21 2.75  22 2.75  16 2.75  24 2.75  32 2.75  46 2.75  10 2.75
                            28 2.75   2 2.75  14 2.75  18 2.75
  21  0.000  0.500  0.592-  20 2.75  32 2.75  14 2.75  22 2.75  17 2.75  33 2.75  27 2.75  45 2.75
                            16 2.75
  22  0.750  0.750  0.592-  46 2.75  20 2.75  21 2.75  27 2.75  43 2.75   6 2.75  14 2.75  35 2.75
                            28 2.75
  23  0.083  0.833  0.408-  25 2.75  18 2.75   1 2.75  34 2.75  40 2.75   2 2.75  47 2.75  10 2.75
                            24 2.75
  24  0.917  0.917  0.500-   2 2.75  14 2.75   6 2.75  10 2.75   7 2.75  15 2.75  20 2.75  25 2.75
                            46 2.75  34 2.75  23 2.75  29 2.75
  25  0.167  0.917  0.500-  23 2.75  13 2.75  29 2.75  15 2.75  12 2.75  10 2.75  39 2.75  36 2.75
                            24 2.75   1 2.75  26 2.75  47 2.75
  26  0.250  0.000  0.592-  12 2.75  36 2.75  17 2.75  33 2.75  35 2.75  13 2.75  29 2.75  43 2.75
                            25 2.75
  27  0.750  0.500  0.592-  28 2.75  16 2.75  17 2.75  22 2.75   4 2.75  35 2.75  21 2.75  38 2.75
                            31 2.75
  28  0.667  0.667  0.500-  48 2.75  27 2.75  35 2.75  16 2.75  36 2.75  46 2.75  31 2.75  20 2.75
                            39 2.75  37 2.75   3 2.75  22 2.75
  29  0.000  0.000  0.592-  15 2.75  25 2.75  14 2.75   4 2.75  17 2.75  13 2.75   6 2.75  26 2.75
                            24 2.75
  30  0.083  0.333  0.408-  32 2.75   3 2.75  18 2.75  19 2.75   1 2.75  11 2.75   5 2.75  12 2.75
                            16 2.75
  31  0.667  0.417  0.500-   8 2.75   4 2.75  38 2.75  15 2.75  28 2.75   7 2.75  39 2.75  16 2.75
                            42 2.75  48 2.75  27 2.75   5 2.75
  32  0.167  0.417  0.500-  30 2.75  33 2.75  21 2.75  10 2.75  12 2.75  20 2.75  44 2.75  42 2.75
                            16 2.75  18 2.75  11 2.75  45 2.75
  33  0.250  0.250  0.592-  32 2.75  44 2.75  21 2.75  43 2.75  26 2.75  45 2.75  41 2.75  17 2.75
                            12 2.75
  34  0.833  0.083  0.408-  15 2.75   5 2.75   8 2.75   2 2.75  23 2.75   1 2.75   9 2.75  24 2.75
                             7 2.75
  35  0.500  0.750  0.592-  36 2.75  28 2.75  26 2.75  27 2.75  38 2.75  43 2.75  13 2.75  22 2.75
                            39 2.75
  36  0.417  0.917  0.500-  47 2.75  35 2.75  26 2.75  12 2.75  39 2.75  44 2.75  28 2.75  46 2.75
                            25 2.75  19 2.75  43 2.75  37 2.75
  37  0.583  0.833  0.408-  46 2.75   9 2.75  19 2.75   3 2.75  48 2.75  47 2.75   2 2.75  28 2.75
                            36 2.75
  38  0.500  0.500  0.592-  39 2.75  31 2.75   4 2.75  35 2.75  13 2.75  41 2.75  27 2.75  45 2.75
                            42 2.75
  39  0.417  0.667  0.500-  40 2.75  38 2.75  13 2.75  36 2.75  25 2.75  31 2.75  42 2.75  28 2.75
                            10 2.75  47 2.75  35 2.75  48 2.75
  40  0.333  0.583  0.408-  39 2.75  11 2.75  23 2.75   8 2.75  47 2.75  18 2.75  48 2.75  42 2.75
                            10 2.75
  41  0.500  0.250  0.592-  42 2.75   7 2.75  38 2.75   6 2.75  43 2.75  45 2.75   4 2.75  33 2.75
                            44 2.75
  42  0.417  0.417  0.500-  11 2.75  41 2.75  45 2.75  39 2.75  10 2.75  44 2.75   7 2.75  31 2.75
                            32 2.75  40 2.75  38 2.75   8 2.75
  43  0.500  0.000  0.592-  44 2.75  46 2.75  35 2.75  41 2.75  22 2.75  33 2.75  26 2.75   6 2.75
                            36 2.75
  44  0.417  0.167  0.500-  19 2.75  43 2.75  33 2.75  36 2.75  42 2.75  32 2.75  46 2.75  12 2.75
                             7 2.75  11 2.75  41 2.75   9 2.75
  45  0.250  0.500  0.592-  10 2.75  42 2.75  14 2.75  33 2.75  41 2.75  13 2.75  21 2.75  38 2.75
                            32 2.75
  46  0.667  0.917  0.500-  37 2.75  22 2.75  43 2.75  28 2.75  20 2.75   7 2.75  44 2.75  36 2.75
                            24 2.75   9 2.75   2 2.75   6 2.75
  47  0.333  0.833  0.408-  36 2.75  19 2.75   1 2.75  40 2.75  48 2.75  23 2.75  37 2.75  39 2.75
                            25 2.75
  48  0.583  0.583  0.408-  28 2.75   8 2.75   5 2.75  37 2.75  47 2.75  40 2.75   3 2.75  31 2.75
                            39 2.75
 
  LATTYP: Found a hexagonal cell.
 ALAT       =    11.0025815153
 C/A-ratio  =     2.2260035120
  
  Lattice vectors:
  
 A1 = (   5.5012907576,  -9.5285150994,   0.0000000000)
 A2 = ( -11.0025815153,   0.0000000000,   0.0000000000)
 A3 = (   0.0000000000,   0.0000000000, -24.4917850943)


Analysis of symmetry for initial positions (statically):
=====================================================================
 Subroutine PRICEL returns:
 Original cell was already a primitive cell.
 

 Routine SETGRP: Setting up the symmetry group for a 
 hexagonal supercell.


 Subroutine GETGRP returns: Found  1 space group operations
 (whereof  1 operations were pure point group operations)
 out of a pool of 24 trial point group operations.


The static configuration has the point symmetry C_1 .


Analysis of symmetry for dynamics (positions and initial velocities):
=====================================================================
 Subroutine PRICEL returns:
 Original cell was already a primitive cell.
 

 Routine SETGRP: Setting up the symmetry group for a 
 hexagonal supercell.


 Subroutine GETGRP returns: Found  1 space group operations
 (whereof  1 operations were pure point group operations)
 out of a pool of 24 trial point group operations.


The dynamic configuration has the point symmetry C_1 .
 
 
 KPOINTS: Automatic mesh                          

Automatic generation of k-mesh.
Space group operators:
 irot       det(A)        alpha          n_x          n_y          n_z        tau_x        tau_y        tau_z
    1     1.000000     0.000000     1.000000     0.000000     0.000000     0.000000     0.000000     0.000000
 
 Subroutine IBZKPT returns following result:
 ===========================================
 
 Found      6 irreducible k-points:
 
 Following reciprocal coordinates:
            Coordinates               Weight
  0.250000  0.250000  0.000000     16.000000
  0.000000  0.250000  0.000000     16.000000
 -0.250000  0.000000  0.000000     16.000000
 -0.250000  0.250000  0.000000     16.000000
  0.500000 -0.250000  0.000000     16.000000
 -0.250000  0.500000  0.000000     16.000000
 
 Following cartesian coordinates:
            Coordinates               Weight
  0.022722  0.013119  0.000000     16.000000
  0.000000  0.026237  0.000000     16.000000
 -0.022722  0.013119  0.000000     16.000000
 -0.022722  0.039356  0.000000     16.000000
  0.045444 -0.052474  0.000000     16.000000
 -0.022722  0.065593  0.000000     16.000000
 


--------------------------------------------------------------------------------------------------------




 Dimension of arrays:
   k-points           NKPTS =      6   k-points in BZ     NKDIM =      6   number of bands    NBANDS=    306
   number of dos      NEDOS =    301   number of ions     NIONS =     48
   non local maximal  LDIM  =      6   non local SUM 2l+1 LMDIM =     18
   total plane-waves  NPLWV = 349920
   max r-space proj   IRMAX =   2009   max aug-charges    IRDMAX=   8532
   dimension x,y,z NGX =    54 NGY =   54 NGZ =  120
   dimension x,y,z NGXF=   108 NGYF=  108 NGZF=  240
   support grid    NGXF=   108 NGYF=  108 NGZF=  240
   ions per type =              24  24
 NGX,Y,Z   is equivalent  to a cutoff of   8.16,  8.16,  8.15 a.u.
 NGXF,Y,Z  is equivalent  to a cutoff of  16.32, 16.32, 16.29 a.u.


 I would recommend the setting:
   dimension x,y,z NGX =    54 NGY =   54 NGZ =  120
 SYSTEM =  unknown system                          
 POSCAR =  Au Pd                                   

 Startparameter for this run:
   NWRITE =      1    write-flag & timer
   PREC   = normal    normal or accurate (medium, high low for compatibility)
   ISTART =      0    job   : 0-new  1-cont  2-samecut
   ICHARG =      2    charge: 1-file 2-atom 10-const
   ISPIN  =      1    spin polarized calculation?
   LNONCOLLINEAR =      F non collinear calculations
   LSORBIT =      F    spin-orbit coupling
   INIWAV =      1    electr: 0-lowe 1-rand  2-diag
   LASPH  =      F    aspherical Exc in radial PAW
   METAGGA=      F    non-selfconsistent MetaGGA calc.

 Electronic Relaxation 1
   ENCUT  =  400.0 eV  29.40 Ry    5.42 a.u.  17.94 17.94 39.94*2*pi/ulx,y,z
   ENINI  =  400.0     initial cutoff
   ENAUG  =  416.2 eV  augmentation charge cutoff
   NELM   =    500;   NELMIN=  2; NELMDL= -5     # of ELM steps 
   EDIFF  = 0.1E-05   stopping-criterion for ELM
   LREAL  =      T    real-space projection
   NLSPLINE    = F    spline interpolate recip. space projectors
   LCOMPAT=      F    compatible to vasp.4.4
   GGA_COMPAT  = T    GGA compatible to vasp.4.4-vasp.4.6
   LMAXPAW     = -100 max onsite density
   LMAXMIX     =    2 max onsite mixed and CHGCAR
   VOSKOWN=      1    Vosko Wilk Nusair interpolation
   ROPT   =   -0.00050  -0.00050
 Ionic relaxation
   EDIFFG = -.2E-01   stopping-criterion for IOM
   NSW    =    500    number of steps for IOM
   NBLOCK =      1;   KBLOCK =    500    inner block; outer block 
   IBRION =      2    ionic relax: 0-MD 1-quasi-New 2-CG
   NFREE  =      2    steps in history (QN), initial steepest desc. (CG)
   ISIF   =      0    stress and relaxation
   IWAVPR =     11    prediction:  0-non 1-charg 2-wave 3-comb
   ISYM   =      2    0-nonsym 1-usesym 2-fastsym
   LCORR  =      T    Harris-Foulkes like correction to forces

   POTIM  = 0.3500    time-step for ionic-motion
   TEIN   =    0.0    initial temperature
   TEBEG  =    0.0;   TEEND  =   0.0 temperature during run
   SMASS  =  -3.00    Nose mass-parameter (am)
   estimated Nose-frequenzy (Omega)   =  0.10E-29 period in steps =****** mass=  -0.277E-26a.u.
   SCALEE = 1.0000    scale energy and forces
   NPACO  =    256;   APACO  = 16.0  distance and # of slots for P.C.
   PSTRESS=    0.0 pullay stress

  Mass of Ions in am
   POMASS = 196.97106.42
  Ionic Valenz
   ZVAL   =  11.00 10.00
  Atomic Wigner-Seitz radii
   RWIGS  =  -1.00 -1.00
  virtual crystal weights 
   VCA    =   1.00  1.00
   NELECT =     504.0000    total number of electrons
   NUPDOWN=      -1.0000    fix difference up-down

 DOS related values:
   EMIN   =  10.00;   EMAX   =-10.00  energy-range for DOS
   EFERMI =   0.00
   ISMEAR =     0;   SIGMA  =   0.10  broadening in eV -4-tet -1-fermi 0-gaus

 Electronic relaxation 2 (details)
   IALGO  =     68    algorithm
   LDIAG  =      T    sub-space diagonalisation (order eigenvalues)
   LSUBROT=      F    optimize rotation matrix (better conditioning)
   TURBO    =      0    0=normal 1=particle mesh
   IRESTART =      0    0=no restart 2=restart with 2 vectors
   NREBOOT  =      0    no. of reboots
   NMIN     =      0    reboot dimension
   EREF     =   0.00    reference energy to select bands
   IMIX   =      4    mixing-type and parameters
     AMIX     =   0.40;   BMIX     =  1.00
     AMIX_MAG =   1.60;   BMIX_MAG =  1.00
     AMIN     =   0.10
     WC   =   100.;   INIMIX=   1;  MIXPRE=   1;  MAXMIX= -45

 Intra band minimization:
   WEIMIN = 0.0010     energy-eigenvalue tresh-hold
   EBREAK =  0.82E-09  absolut break condition
   DEPER  =   0.30     relativ break condition  

   TIME   =   0.40     timestep for ELM

  volume/ion in A,a.u.               =      53.49       360.99
  Fermi-wavevector in a.u.,A,eV,Ry     =   0.951418  1.797920 12.315955  0.905197
  Thomas-Fermi vector in A             =   2.079887
 
 Write flags
   LWAVE  =      F    write WAVECAR
   LCHARG =      F    write CHGCAR
   LVTOT  =      F    write LOCPOT, total local potential
   LVHAR  =      F    write LOCPOT, Hartree potential only
   LELF   =      F    write electronic localiz. function (ELF)
   LORBIT =      0    0 simple, 1 ext, 2 COOP (PROOUT)


 Dipole corrections
   LMONO  =      F    monopole corrections only (constant potential shift)
   LDIPOL =      T    correct potential (dipole corrections)
   IDIPOL =      3    1-x, 2-y, 3-z, 4-all directions 
   EPSILON=  1.0000000 bulk dielectric constant

 Exchange correlation treatment:
   GGA     =    PE    GGA type
   LEXCH   =     8    internal setting for exchange type
   VOSKOWN=      1    Vosko Wilk Nusair interpolation
   LHFCALC =     F    Hartree Fock is set to
   LHFONE  =     F    Hartree Fock one center treatment
   AEXX    =    0.0000 exact exchange contribution

 Linear response parameters
   LEPSILON=     F    determine dielectric tensor
   LRPA    =     F    only Hartree local field effects (RPA)
   LNABLA  =     F    use nabla operator in PAW spheres
   LVEL    =     F    velocity operator in full k-point grid
   LINTERFAST=   F  fast interpolation
   KINTER  =     0    interpolate to denser k-point grid
   CSHIFT  =0.1000    complex shift for real part using Kramers Kronig
   OMEGAMAX=  -1.0    maximum frequency
   DEG_THRESHOLD= 0.2000000E-02 threshold for treating states as degnerate
   RTIME   =    0.100 relaxation time in fs

 Orbital magnetization related:
   ORBITALMAG=     F  switch on orbital magnetization
   LCHIMAG   =     F  perturbation theory with respect to B field
   DQ        =  0.001000  dq finite difference perturbation B field



--------------------------------------------------------------------------------------------------------


 conjugate gradient relaxation of ions
 charge density and potential will be updated during run
 non-spin polarized calculation
 RMM-DIIS sequential band-by-band and
  variant of blocked Davidson during initial phase
 perform sub-space diagonalisation
    before iterative eigenvector-optimisation
 modified Broyden-mixing scheme, WC =      100.0
 initial mixing is a Kerker type mixing with AMIX =  0.4000 and BMIX =      1.0000
 Hartree-type preconditioning will be used
 using additional bands           54
 real space projection scheme for non local part
 use partial core corrections
 calculate Harris-corrections to forces 
   (improved forces if not selfconsistent)
 use gradient corrections 
 use of overlap-Matrix (Vanderbilt PP)
 Gauss-broadening in eV      SIGMA  =   0.10


--------------------------------------------------------------------------------------------------------


  energy-cutoff  :      400.00
  volume of cell :     2567.68
      direct lattice vectors                 reciprocal lattice vectors
    11.002581515  0.000000000  0.000000000     0.090887761 -0.052474073  0.000000000
     5.501290758  9.528515099  0.000000000     0.000000000  0.104948147  0.000000000
     0.000000000  0.000000000 24.491785094     0.000000000  0.000000000  0.040830017

  length of vectors
    11.002581515 11.002581515 24.491785094     0.104948147  0.104948147  0.040830017


 
 k-points in units of 2pi/SCALE and weight: Automatic mesh                          
   0.02272194  0.01311852  0.00000000       0.167
   0.00000000  0.02623704  0.00000000       0.167
  -0.02272194  0.01311852  0.00000000       0.167
  -0.02272194  0.03935555  0.00000000       0.167
   0.04544388 -0.05247407  0.00000000       0.167
  -0.02272194  0.06559259  0.00000000       0.167
 
 k-points in reciprocal lattice and weights: Automatic mesh                          
   0.25000000  0.25000000  0.00000000       0.167
   0.00000000  0.25000000  0.00000000       0.167
  -0.25000000  0.00000000  0.00000000       0.167
  -0.25000000  0.25000000  0.00000000       0.167
   0.50000000 -0.25000000  0.00000000       0.167
  -0.25000000  0.50000000  0.00000000       0.167
 
 position of ions in fractional coordinates (direct lattice) 
   0.08333333  0.08333333  0.40830017
   0.83333333  0.83333333  0.40830017
   0.83333333  0.58333333  0.40830017
   0.75000000  0.25000000  0.59169983
   0.83333333  0.33333333  0.40830017
   0.75000000  0.00000000  0.59169983
   0.66666667  0.16666667  0.50000000
   0.58333333  0.33333333  0.40830017
   0.58333333  0.08333333  0.40830017
   0.16666667  0.66666667  0.50000000
   0.33333333  0.33333333  0.40830017
   0.16666667  0.16666667  0.50000000
   0.25000000  0.75000000  0.59169983
   0.00000000  0.75000000  0.59169983
   0.91666667  0.16666667  0.50000000
   0.91666667  0.41666667  0.50000000
   0.00000000  0.25000000  0.59169983
   0.08333333  0.58333333  0.40830017
   0.33333333  0.08333333  0.40830017
   0.91666667  0.66666667  0.50000000
   0.00000000  0.50000000  0.59169983
   0.75000000  0.75000000  0.59169983
   0.08333333  0.83333333  0.40830017
   0.91666667  0.91666667  0.50000000
   0.16666667  0.91666667  0.50000000
   0.25000000  0.00000000  0.59169983
   0.75000000  0.50000000  0.59169983
   0.66666667  0.66666667  0.50000000
   0.00000000  0.00000000  0.59169983
   0.08333333  0.33333333  0.40830017
   0.66666667  0.41666667  0.50000000
   0.16666667  0.41666667  0.50000000
   0.25000000  0.25000000  0.59169983
   0.83333333  0.08333333  0.40830017
   0.50000000  0.75000000  0.59169983
   0.41666667  0.91666667  0.50000000
   0.58333333  0.83333333  0.40830017
   0.50000000  0.50000000  0.59169983
   0.41666667  0.66666667  0.50000000
   0.33333333  0.58333333  0.40830017
   0.50000000  0.25000000  0.59169983
   0.41666667  0.41666667  0.50000000
   0.50000000  0.00000000  0.59169983
   0.41666667  0.16666667  0.50000000
   0.25000000  0.50000000  0.59169983
   0.66666667  0.91666667  0.50000000
   0.33333333  0.83333333  0.40830017
   0.58333333  0.58333333  0.40830017
 
 position of ions in cartesian coordinates  (Angst):
   1.37532269  0.79404292 10.00000000
  13.75322689  7.94042925 10.00000000
  12.37790420  5.55830047 10.00000000
   9.62725883  2.38212877 14.49178509
  11.00258152  3.17617170 10.00000000
   8.25193614  0.00000000 14.49178509
   8.25193614  1.58808585 12.24589255
   8.25193614  3.17617170 10.00000000
   6.87661345  0.79404292 10.00000000
   5.50129076  6.35234340 12.24589255
   5.50129076  3.17617170 10.00000000
   2.75064538  1.58808585 12.24589255
   6.87661345  7.14638632 14.49178509
   4.12596807  7.14638632 14.49178509
  11.00258152  1.58808585 12.24589255
  12.37790420  3.97021462 12.24589255
   1.37532269  2.38212877 14.49178509
   4.12596807  5.55830047 10.00000000
   4.12596807  0.79404292 10.00000000
  13.75322689  6.35234340 12.24589255
   2.75064538  4.76425755 14.49178509
  12.37790420  7.14638632 14.49178509
   5.50129076  7.94042925 10.00000000
  15.12854958  8.73447217 12.24589255
   6.87661345  8.73447217 12.24589255
   2.75064538  0.00000000 14.49178509
  11.00258152  4.76425755 14.49178509
  11.00258152  6.35234340 12.24589255
   0.00000000  0.00000000 14.49178509
   2.75064538  3.17617170 10.00000000
   9.62725883  3.97021462 12.24589255
   4.12596807  3.97021462 12.24589255
   4.12596807  2.38212877 14.49178509
   9.62725883  0.79404292 10.00000000
   9.62725883  7.14638632 14.49178509
   9.62725883  8.73447217 12.24589255
  11.00258152  7.94042925 10.00000000
   8.25193614  4.76425755 14.49178509
   8.25193614  6.35234340 12.24589255
   6.87661345  5.55830047 10.00000000
   6.87661345  2.38212877 14.49178509
   6.87661345  3.97021462 12.24589255
   5.50129076  0.00000000 14.49178509
   5.50129076  1.58808585 12.24589255
   5.50129076  4.76425755 14.49178509
  12.37790420  8.73447217 12.24589255
   8.25193614  7.94042925 10.00000000
   9.62725883  5.55830047 10.00000000
 


--------------------------------------------------------------------------------------------------------


 k-point  1 :   0.2500 0.2500 0.0000  plane waves:   46635
 k-point  2 :   0.0000 0.2500 0.0000  plane waves:   46635
 k-point  3 :  -0.2500 0.0000 0.0000  plane waves:   46635
 k-point  4 :  -0.2500 0.2500 0.0000  plane waves:   46644
 k-point  5 :   0.5000-0.2500 0.0000  plane waves:   46644
 k-point  6 :  -0.2500 0.5000 0.0000  plane waves:   46644

 maximum and minimum number of plane-waves per node :      7818     7732

 maximum number of plane-waves:     46644
 maximum index in each direction: 
   IXMAX=   18   IYMAX=   18   IZMAX=   39
   IXMIN=  -18   IYMIN=  -18   IZMIN=  -39

 WARNING: aliasing errors must be expected set NGX to  74 to avoid them
 WARNING: aliasing errors must be expected set NGY to  74 to avoid them
 WARNING: aliasing errors must be expected set NGZ to 158 to avoid them
 aliasing errors are usually negligible using standard VASP settings
 and one can safely disregard these warnings

 real space projection operators:
  total allocation   :      12803.06 KBytes
  max/ min on nodes  :       2145.66       2127.94


 parallel 3D FFT for wavefunctions:
    minimum data exchange during FFTs selected (reduces bandwidth)
 parallel 3D FFT for charge:
    minimum data exchange during FFTs selected (reduces bandwidth)


 total amount of memory used by VASP on root node    84353. kBytes
========================================================================

   base      :      30000. kBytes
   nonlr-proj:       4285. kBytes
   fftplans  :       4447. kBytes
   grid      :       6721. kBytes
   one-center:        124. kBytes
   wavefun   :      38776. kBytes
 
     INWAV:  cpu time    0.0000: real time    0.0000
 Broyden mixing: mesh for mixing (old mesh)
   NGX = 35   NGY = 35   NGZ = 79
  (NGX  =108   NGY  =108   NGZ  =240)
  gives a total of  96775 points

 initial charge density was supplied:
 charge density of overlapping atoms calculated
 number of electron     504.0000000 magnetization 
 keeping initial charge density in first step


--------------------------------------------------------------------------------------------------------


 Maximum index for non-local projection operator          355
 Maximum index for augmentation-charges          437 (set IRDMAX)


--------------------------------------------------------------------------------------------------------


 First call to EWALD:  gamma=   0.129
 Maximum number of real-space cells 4x 4x 2
 Maximum number of reciprocal cells 2x 2x 5

 FEWALD executed in parallel
    FEWALD:  cpu time    0.0026: real time    0.0027


----------------------------------------- Iteration    1(   1)  ---------------------------------------


    POTLOK:  cpu time    0.0513: real time    0.0517
    SETDIJ:  cpu time    0.0058: real time    0.0058
     EDDAV:  cpu time    9.0109: real time    9.0585
       DOS:  cpu time    0.0013: real time    0.0013
    --------------------------------------------
      LOOP:  cpu time    9.0733: real time    9.1259

 eigenvalue-minimisations  :  3672
 total energy-change (2. order) : 0.3200455E+04  (-0.1898424E+05)
 number of electron     504.0000000 magnetization 
 augmentation part      504.0000000 magnetization 

 DIPCOR: dipole corrections for dipol
 direction  3 min pos     1,
 dipolmoment           0.000000      0.000000      0.000002 electrons x Angstroem
 Tr[quadrupol]    -10134.407844

 energy correction for charged system         0.000000 eV
 dipol+quadrupol energy correction           -0.000000 eV
 added-field ion interaction          0.000001 eV  (added to PSCEN)


 Free energy of the ion-electron system (eV)
  ---------------------------------------------------
  alpha Z        PSCENC =       805.86936534
  Ewald energy   TEWEN  =    199949.57708292
  -Hartree energ DENC   =   -242363.81258075
  -exchange      EXHF   =         0.00000000
  -V(xc)+E(xc)   XCENC  =      -327.69089272
  PAW double counting   =     40340.05962942   -38292.62782345
  entropy T*S    EENTRO =        -0.13578286
  eigenvalues    EBANDS =      1429.43033945
  atomic energy  EATOM  =     41659.78587232
  Solvation  Ediel_sol  =         0.00000000
  ---------------------------------------------------
  free energy    TOTEN  =      3200.45520967 eV

  energy without entropy =     3200.59099254  energy(sigma->0) =     3200.52310111


--------------------------------------------------------------------------------------------------------




----------------------------------------- Iteration    1(   2)  ---------------------------------------


     EDDAV:  cpu time   10.6238: real time   10.6855
       DOS:  cpu time    0.0014: real time    0.0014
    --------------------------------------------
      LOOP:  cpu time   10.6260: real time   10.6905

 eigenvalue-minimisations  :  4392
 total energy-change (2. order) :-0.3187617E+04  (-0.2935196E+04)
 number of electron     504.0000000 magnetization 
 augmentation part      504.0000000 magnetization 

 DIPCOR: dipole corrections for dipol
 direction  3 min pos     1,
 dipolmoment           0.000000      0.000000      0.000002 electrons x Angstroem
 Tr[quadrupol]    -10134.407844

 energy correction for charged system         0.000000 eV
 dipol+quadrupol energy correction           -0.000000 eV
 added-field ion interaction          0.000001 eV  (added to PSCEN)


 Free energy of the ion-electron system (eV)
  ---------------------------------------------------
  alpha Z        PSCENC =       805.86936534
  Ewald energy   TEWEN  =    199949.57708292
  -Hartree energ DENC   =   -242363.81258075
  -exchange      EXHF   =         0.00000000
  -V(xc)+E(xc)   XCENC  =      -327.69089272
  PAW double counting   =     40340.05962942   -38292.62782345
  entropy T*S    EENTRO =        -0.11713835
  eigenvalues    EBANDS =     -1758.20578508
  atomic energy  EATOM  =     41659.78587232
  Solvation  Ediel_sol  =         0.00000000
  ---------------------------------------------------
  free energy    TOTEN  =        12.83772966 eV

  energy without entropy =       12.95486801  energy(sigma->0) =       12.89629884


--------------------------------------------------------------------------------------------------------




----------------------------------------- Iteration    1(   3)  ---------------------------------------


     EDDAV:  cpu time   10.1085: real time   10.2434
       DOS:  cpu time    0.0015: real time    0.0015
    --------------------------------------------
      LOOP:  cpu time   10.1111: real time   10.2494

 eigenvalue-minimisations  :  4140
 total energy-change (2. order) :-0.2147744E+03  (-0.2002419E+03)
 number of electron     504.0000000 magnetization 
 augmentation part      504.0000000 magnetization 

 DIPCOR: dipole corrections for dipol
 direction  3 min pos     1,
 dipolmoment           0.000000      0.000000      0.000002 electrons x Angstroem
 Tr[quadrupol]    -10134.407844

 energy correction for charged system         0.000000 eV
 dipol+quadrupol energy correction           -0.000000 eV
 added-field ion interaction          0.000001 eV  (added to PSCEN)


 Free energy of the ion-electron system (eV)
  ---------------------------------------------------
  alpha Z        PSCENC =       805.86936534
  Ewald energy   TEWEN  =    199949.57708292
  -Hartree energ DENC   =   -242363.81258075
  -exchange      EXHF   =         0.00000000
  -V(xc)+E(xc)   XCENC  =      -327.69089272
  PAW double counting   =     40340.05962942   -38292.62782345
  entropy T*S    EENTRO =        -0.19033753
  eigenvalues    EBANDS =     -1972.90694916
  atomic energy  EATOM  =     41659.78587232
  Solvation  Ediel_sol  =         0.00000000
  ---------------------------------------------------
  free energy    TOTEN  =      -201.93663360 eV

  energy without entropy =     -201.74629607  energy(sigma->0) =     -201.84146484


--------------------------------------------------------------------------------------------------------




----------------------------------------- Iteration    1(   4)  ---------------------------------------


     EDDAV:  cpu time   10.3871: real time   10.4550
       DOS:  cpu time    0.0015: real time    0.0015
    --------------------------------------------
      LOOP:  cpu time   10.3897: real time   10.4620

 eigenvalue-minimisations  :  4296
 total energy-change (2. order) :-0.5720342E+01  (-0.5658423E+01)
 number of electron     504.0000000 magnetization 
 augmentation part      504.0000000 magnetization 

 DIPCOR: dipole corrections for dipol
 direction  3 min pos     1,
 dipolmoment           0.000000      0.000000      0.000002 electrons x Angstroem
 Tr[quadrupol]    -10134.407844

 energy correction for charged system         0.000000 eV
 dipol+quadrupol energy correction           -0.000000 eV
 added-field ion interaction          0.000001 eV  (added to PSCEN)


 Free energy of the ion-electron system (eV)
  ---------------------------------------------------
  alpha Z        PSCENC =       805.86936534
  Ewald energy   TEWEN  =    199949.57708292
  -Hartree energ DENC   =   -242363.81258075
  -exchange      EXHF   =         0.00000000
  -V(xc)+E(xc)   XCENC  =      -327.69089272
  PAW double counting   =     40340.05962942   -38292.62782345
  entropy T*S    EENTRO =        -0.19755457
  eigenvalues    EBANDS =     -1978.62007404
  atomic energy  EATOM  =     41659.78587232
  Solvation  Ediel_sol  =         0.00000000
  ---------------------------------------------------
  free energy    TOTEN  =      -207.65697553 eV

  energy without entropy =     -207.45942096  energy(sigma->0) =     -207.55819824


--------------------------------------------------------------------------------------------------------




----------------------------------------- Iteration    1(   5)  ---------------------------------------


     EDDAV:  cpu time   10.5398: real time   10.5937
       DOS:  cpu time    0.0015: real time    0.0015
    CHARGE:  cpu time    0.2294: real time    0.2304
    MIXING:  cpu time    0.0024: real time    0.0026
    --------------------------------------------
      LOOP:  cpu time   10.7743: real time   10.8318

 eigenvalue-minimisations  :  4368
 total energy-change (2. order) :-0.1690626E+00  (-0.1684992E+00)
 number of electron     503.9998403 magnetization 
 augmentation part      191.2752556 magnetization 

 DIPCOR: dipole corrections for dipol
 direction  3 min pos     1,
 dipolmoment           0.000000      0.000000      0.000002 electrons x Angstroem
 Tr[quadrupol]    -10134.407844

 energy correction for charged system         0.000000 eV
 dipol+quadrupol energy correction           -0.000000 eV
 added-field ion interaction          0.000001 eV  (added to PSCEN)


 Broyden mixing:
  rms(total) = 0.62398E+01    rms(broyden)= 0.62398E+01
  rms(prec ) = 0.64070E+01
  weight for this iteration     100.00

 Free energy of the ion-electron system (eV)
  ---------------------------------------------------
  alpha Z        PSCENC =       805.86936534
  Ewald energy   TEWEN  =    199949.57708292
  -Hartree energ DENC   =   -242363.81258075
  -exchange      EXHF   =         0.00000000
  -V(xc)+E(xc)   XCENC  =      -327.69089272
  PAW double counting   =     40340.05962942   -38292.62782345
  entropy T*S    EENTRO =        -0.19761037
  eigenvalues    EBANDS =     -1978.78908085
  atomic energy  EATOM  =     41659.78587232
  Solvation  Ediel_sol  =         0.00000000
  ---------------------------------------------------
  free energy    TOTEN  =      -207.82603813 eV

  energy without entropy =     -207.62842776  energy(sigma->0) =     -207.72723295


--------------------------------------------------------------------------------------------------------




----------------------------------------- Iteration    1(   6)  ---------------------------------------


    POTLOK:  cpu time    0.0478: real time    0.0481
    SETDIJ:  cpu time    0.0056: real time    0.0058
    EDDIAG:  cpu time    1.5772: real time    1.5848
  RMM-DIIS:  cpu time    4.8762: real time    4.9010
    ORTHCH:  cpu time    0.3865: real time    0.3883
       DOS:  cpu time    0.0015: real time    0.0015
    CHARGE:  cpu time    0.2398: real time    0.2410
    MIXING:  cpu time    0.0025: real time    0.0026
    --------------------------------------------
      LOOP:  cpu time    7.1378: real time    7.1777

 eigenvalue-minimisations  :  3679
 total energy-change (2. order) :-0.2142892E+01  (-0.1070416E+02)
 number of electron     503.9998441 magnetization 
 augmentation part      189.9205128 magnetization 

 DIPCOR: dipole corrections for dipol
 direction  3 min pos     1,
 dipolmoment           0.000000      0.000000      1.009438 electrons x Angstroem
 Tr[quadrupol]    -10136.432481

 energy correction for charged system         0.000000 eV
 dipol+quadrupol energy correction           -0.035906 eV
 added-field ion interaction          0.479317 eV  (added to PSCEN)


 Broyden mixing:
  rms(total) = 0.61816E+01    rms(broyden)= 0.61815E+01
  rms(prec ) = 0.66419E+01
  weight for this iteration     100.00

 eigenvalues of (default mixing * dielectric matrix)
  average eigenvalue GAMMA=   0.5332
  0.5332

 Free energy of the ion-electron system (eV)
  ---------------------------------------------------
  alpha Z        PSCENC =       806.31277566
  Ewald energy   TEWEN  =    199949.57708292
  -Hartree energ DENC   =   -242129.83028827
  -exchange      EXHF   =         0.00000000
  -V(xc)+E(xc)   XCENC  =      -340.39218385
  PAW double counting   =     43909.05616392   -41921.15102083
  entropy T*S    EENTRO =        -0.24540540
  eigenvalues    EBANDS =     -2143.08192682
  atomic energy  EATOM  =     41659.78587232
  Solvation  Ediel_sol  =         0.00000000
  ---------------------------------------------------
  free energy    TOTEN  =      -209.96893036 eV

  energy without entropy =     -209.72352496  energy(sigma->0) =     -209.84622766


--------------------------------------------------------------------------------------------------------




----------------------------------------- Iteration    1(   7)  ---------------------------------------


    POTLOK:  cpu time    0.0470: real time    0.0474
    SETDIJ:  cpu time    0.0056: real time    0.0058
    EDDIAG:  cpu time    1.5751: real time    1.5830
  RMM-DIIS:  cpu time    4.9167: real time    4.9405
    ORTHCH:  cpu time    0.3796: real time    0.3997
       DOS:  cpu time    0.0016: real time    0.0016
    CHARGE:  cpu time    0.2353: real time    0.2616
    MIXING:  cpu time    0.0022: real time    0.0022
    --------------------------------------------
      LOOP:  cpu time    7.1637: real time    7.2460

 eigenvalue-minimisations  :  3679
 total energy-change (2. order) : 0.3023575E+01  (-0.5426809E+01)
 number of electron     503.9998378 magnetization 
 augmentation part      195.1611829 magnetization 

 DIPCOR: dipole corrections for dipol
 direction  3 min pos     1,
 dipolmoment           0.000000      0.000000     -0.989852 electrons x Angstroem
 Tr[quadrupol]    -10134.633252

 energy correction for charged system         0.000000 eV
 dipol+quadrupol energy correction           -0.034526 eV
 added-field ion interaction         -0.470017 eV  (added to PSCEN)


 Broyden mixing:
  rms(total) = 0.46416E+01    rms(broyden)= 0.46412E+01
  rms(prec ) = 0.52632E+01
  weight for this iteration     100.00

 eigenvalues of (default mixing * dielectric matrix)
  average eigenvalue GAMMA=   0.7867
  1.2532  0.3201

 Free energy of the ion-electron system (eV)
  ---------------------------------------------------
  alpha Z        PSCENC =       805.36482160
  Ewald energy   TEWEN  =    199949.57708292
  -Hartree energ DENC   =   -241979.52938591
  -exchange      EXHF   =         0.00000000
  -V(xc)+E(xc)   XCENC  =      -342.41565132
  PAW double counting   =     44926.49235931   -42959.74546556
  entropy T*S    EENTRO =        -0.23846578
  eigenvalues    EBANDS =     -2266.23652310
  atomic energy  EATOM  =     41659.78587232
  Solvation  Ediel_sol  =         0.00000000
  ---------------------------------------------------
  free energy    TOTEN  =      -206.94535553 eV

  energy without entropy =     -206.70688974  energy(sigma->0) =     -206.82612264


--------------------------------------------------------------------------------------------------------




----------------------------------------- Iteration    1(   8)  ---------------------------------------


    POTLOK:  cpu time    0.0471: real time    0.0493
    SETDIJ:  cpu time    0.0055: real time    0.0056
    EDDIAG:  cpu time    1.5663: real time    1.6050
  RMM-DIIS:  cpu time    5.0514: real time    5.0790
    ORTHCH:  cpu time    0.3850: real time    0.3867
       DOS:  cpu time    0.0016: real time    0.0016
    CHARGE:  cpu time    0.2380: real time    0.2391
    MIXING:  cpu time    0.0024: real time    0.0024
    --------------------------------------------
      LOOP:  cpu time    7.2980: real time    7.3721

 eigenvalue-minimisations  :  3672
 total energy-change (2. order) :-0.1895122E+02  (-0.9630876E+01)
 number of electron     503.9998364 magnetization 
 augmentation part      195.5109991 magnetization 

 DIPCOR: dipole corrections for dipol
 direction  3 min pos     1,
 dipolmoment           0.000000      0.000000      1.943712 electrons x Angstroem
 Tr[quadrupol]    -10135.688531

 energy correction for charged system         0.000000 eV
 dipol+quadrupol energy correction           -0.133127 eV
 added-field ion interaction          0.922943 eV  (added to PSCEN)


 Broyden mixing:
  rms(total) = 0.47070E+01    rms(broyden)= 0.47067E+01
  rms(prec ) = 0.56849E+01
  weight for this iteration     100.00

 eigenvalues of (default mixing * dielectric matrix)
  average eigenvalue GAMMA=   0.8430
  1.8845  0.4075  0.2369

 Free energy of the ion-electron system (eV)
  ---------------------------------------------------
  alpha Z        PSCENC =       806.65918052
  Ewald energy   TEWEN  =    199949.57708292
  -Hartree energ DENC   =   -241938.23018812
  -exchange      EXHF   =         0.00000000
  -V(xc)+E(xc)   XCENC  =      -344.52114395
  PAW double counting   =     46599.48955861   -44659.36880669
  entropy T*S    EENTRO =        -0.31631754
  eigenvalues    EBANDS =     -2298.97181589
  atomic energy  EATOM  =     41659.78587232
  Solvation  Ediel_sol  =         0.00000000
  ---------------------------------------------------
  free energy    TOTEN  =      -225.89657782 eV

  energy without entropy =     -225.58026028  energy(sigma->0) =     -225.73841905


--------------------------------------------------------------------------------------------------------




----------------------------------------- Iteration    1(   9)  ---------------------------------------


    POTLOK:  cpu time    0.0460: real time    0.0462
    SETDIJ:  cpu time    0.0054: real time    0.0055
    EDDIAG:  cpu time    1.5858: real time    1.5933
  RMM-DIIS:  cpu time    4.8816: real time    4.9057
    ORTHCH:  cpu time    0.3871: real time    0.3888
       DOS:  cpu time    0.0016: real time    0.0016
    CHARGE:  cpu time    0.2366: real time    0.2377
    MIXING:  cpu time    0.0025: real time    0.0025
    --------------------------------------------
      LOOP:  cpu time    7.1476: real time    7.1840

 eigenvalue-minimisations  :  3679
 total energy-change (2. order) : 0.8512110E+01  (-0.6165262E+01)
 number of electron     503.9998340 magnetization 
 augmentation part      198.0971156 magnetization 

 DIPCOR: dipole corrections for dipol
 direction  3 min pos     1,
 dipolmoment           0.000000      0.000000     -0.476050 electrons x Angstroem
 Tr[quadrupol]    -10137.236157

 energy correction for charged system         0.000000 eV
 dipol+quadrupol energy correction           -0.007986 eV
 added-field ion interaction         -0.226046 eV  (added to PSCEN)


 Broyden mixing:
  rms(total) = 0.41037E+01    rms(broyden)= 0.41034E+01
  rms(prec ) = 0.44999E+01
  weight for this iteration     100.00

 eigenvalues of (default mixing * dielectric matrix)
  average eigenvalue GAMMA=   0.7843
  2.1673  0.4174  0.2761  0.2761

 Free energy of the ion-electron system (eV)
  ---------------------------------------------------
  alpha Z        PSCENC =       805.63533306
  Ewald energy   TEWEN  =    199949.57708292
  -Hartree energ DENC   =   -241943.85768277
  -exchange      EXHF   =         0.00000000
  -V(xc)+E(xc)   XCENC  =      -346.39421967
  PAW double counting   =     48129.41249978   -46213.22739259
  entropy T*S    EENTRO =        -0.17108784
  eigenvalues    EBANDS =     -2258.14487299
  atomic energy  EATOM  =     41659.78587232
  Solvation  Ediel_sol  =         0.00000000
  ---------------------------------------------------
  free energy    TOTEN  =      -217.38446778 eV

  energy without entropy =     -217.21337995  energy(sigma->0) =     -217.29892387


--------------------------------------------------------------------------------------------------------




----------------------------------------- Iteration    1(  10)  ---------------------------------------


    POTLOK:  cpu time    0.0463: real time    0.0465
    SETDIJ:  cpu time    0.0055: real time    0.0055
    EDDIAG:  cpu time    1.5841: real time    1.5948
  RMM-DIIS:  cpu time    4.8700: real time    4.8935
    ORTHCH:  cpu time    0.3811: real time    0.3828
       DOS:  cpu time    0.0016: real time    0.0016
    CHARGE:  cpu time    0.2348: real time    0.2358
    MIXING:  cpu time    0.0028: real time    0.0028
    --------------------------------------------
      LOOP:  cpu time    7.1271: real time    7.1664

 eigenvalue-minimisations  :  3679
 total energy-change (2. order) : 0.1643519E+02  (-0.2305198E+01)
 number of electron     503.9998335 magnetization 
 augmentation part      198.9534758 magnetization 

 DIPCOR: dipole corrections for dipol
 direction  3 min pos     1,
 dipolmoment           0.000000      0.000000      0.441682 electrons x Angstroem
 Tr[quadrupol]    -10135.711236

 energy correction for charged system         0.000000 eV
 dipol+quadrupol energy correction           -0.006874 eV
 added-field ion interaction          0.209726 eV  (added to PSCEN)


 Broyden mixing:
  rms(total) = 0.24589E+01    rms(broyden)= 0.24587E+01
  rms(prec ) = 0.28622E+01
  weight for this iteration     100.00

 eigenvalues of (default mixing * dielectric matrix)
  average eigenvalue GAMMA=   0.7346
  2.2347  0.4441  0.4441  0.3221  0.2279

 Free energy of the ion-electron system (eV)
  ---------------------------------------------------
  alpha Z        PSCENC =       806.07221623
  Ewald energy   TEWEN  =    199949.57708292
  -Hartree energ DENC   =   -241897.59047844
  -exchange      EXHF   =         0.00000000
  -V(xc)+E(xc)   XCENC  =      -346.37575883
  PAW double counting   =     48920.32269510   -47013.25230175
  entropy T*S    EENTRO =        -0.14193749
  eigenvalues    EBANDS =     -2279.34666442
  atomic energy  EATOM  =     41659.78587232
  Solvation  Ediel_sol  =         0.00000000
  ---------------------------------------------------
  free energy    TOTEN  =      -200.94927436 eV

  energy without entropy =     -200.80733687  energy(sigma->0) =     -200.87830562


--------------------------------------------------------------------------------------------------------




----------------------------------------- Iteration    1(  11)  ---------------------------------------


    POTLOK:  cpu time    0.0463: real time    0.0465
    SETDIJ:  cpu time    0.0057: real time    0.0062
    EDDIAG:  cpu time    1.5673: real time    1.5766
  RMM-DIIS:  cpu time    4.8427: real time    4.9014
    ORTHCH:  cpu time    0.3818: real time    0.3834
       DOS:  cpu time    0.0016: real time    0.0016
    CHARGE:  cpu time    0.2331: real time    0.2341
    MIXING:  cpu time    0.0029: real time    0.0029
    --------------------------------------------
      LOOP:  cpu time    7.0820: real time    7.1572

 eigenvalue-minimisations  :  3679
 total energy-change (2. order) : 0.7290110E+01  (-0.1682310E+01)
 number of electron     503.9998342 magnetization 
 augmentation part      198.9397336 magnetization 

 DIPCOR: dipole corrections for dipol
 direction  3 min pos     1,
 dipolmoment           0.000000      0.000000      0.184202 electrons x Angstroem
 Tr[quadrupol]    -10136.721040

 energy correction for charged system         0.000000 eV
 dipol+quadrupol energy correction           -0.001196 eV
 added-field ion interaction          0.087466 eV  (added to PSCEN)


 Broyden mixing:
  rms(total) = 0.14890E+01    rms(broyden)= 0.14887E+01
  rms(prec ) = 0.16773E+01
  weight for this iteration     100.00

 eigenvalues of (default mixing * dielectric matrix)
  average eigenvalue GAMMA=   0.7014
  2.1837  0.6014  0.6014  0.2961  0.2961  0.2295

 Free energy of the ion-electron system (eV)
  ---------------------------------------------------
  alpha Z        PSCENC =       805.95563419
  Ewald energy   TEWEN  =    199949.57708292
  -Hartree energ DENC   =   -241951.98536936
  -exchange      EXHF   =         0.00000000
  -V(xc)+E(xc)   XCENC  =      -345.99516702
  PAW double counting   =     49121.60988027   -47213.79293478
  entropy T*S    EENTRO =        -0.20186236
  eigenvalues    EBANDS =     -2218.61230098
  atomic energy  EATOM  =     41659.78587232
  Solvation  Ediel_sol  =         0.00000000
  ---------------------------------------------------
  free energy    TOTEN  =      -193.65916480 eV

  energy without entropy =     -193.45730244  energy(sigma->0) =     -193.55823362


--------------------------------------------------------------------------------------------------------




----------------------------------------- Iteration    1(  12)  ---------------------------------------


    POTLOK:  cpu time    0.0482: real time    0.0494
    SETDIJ:  cpu time    0.0054: real time    0.0058
    EDDIAG:  cpu time    1.5924: real time    1.6005
  RMM-DIIS:  cpu time    4.9314: real time    4.9555
    ORTHCH:  cpu time    0.3807: real time    0.3825
       DOS:  cpu time    0.0016: real time    0.0016
    CHARGE:  cpu time    0.2344: real time    0.2362
    MIXING:  cpu time    0.0029: real time    0.0029
    --------------------------------------------
      LOOP:  cpu time    7.1979: real time    7.2396

 eigenvalue-minimisations  :  3679
 total energy-change (2. order) : 0.4003953E+01  (-0.7500812E+00)
 number of electron     503.9998354 magnetization 
 augmentation part      197.7717727 magnetization 

 DIPCOR: dipole corrections for dipol
 direction  3 min pos     1,
 dipolmoment           0.000000      0.000000      0.132273 electrons x Angstroem
 Tr[quadrupol]    -10136.721035

 energy correction for charged system         0.000000 eV
 dipol+quadrupol energy correction           -0.000617 eV
 added-field ion interaction          0.062808 eV  (added to PSCEN)


 Broyden mixing:
  rms(total) = 0.11629E+01    rms(broyden)= 0.11627E+01
  rms(prec ) = 0.12844E+01
  weight for this iteration     100.00

 eigenvalues of (default mixing * dielectric matrix)
  average eigenvalue GAMMA=   0.6568
  2.2308  0.5348  0.5348  0.4211  0.3258  0.3258  0.2245

 Free energy of the ion-electron system (eV)
  ---------------------------------------------------
  alpha Z        PSCENC =       805.93155562
  Ewald energy   TEWEN  =    199949.57708292
  -Hartree energ DENC   =   -241989.55857122
  -exchange      EXHF   =         0.00000000
  -V(xc)+E(xc)   XCENC  =      -344.96475329
  PAW double counting   =     49186.35547906   -47273.74564477
  entropy T*S    EENTRO =        -0.24207377
  eigenvalues    EBANDS =     -2182.79415874
  atomic energy  EATOM  =     41659.78587232
  Solvation  Ediel_sol  =         0.00000000
  ---------------------------------------------------
  free energy    TOTEN  =      -189.65521188 eV

  energy without entropy =     -189.41313811  energy(sigma->0) =     -189.53417499


--------------------------------------------------------------------------------------------------------




----------------------------------------- Iteration    1(  13)  ---------------------------------------


    POTLOK:  cpu time    0.0458: real time    0.0461
    SETDIJ:  cpu time    0.0055: real time    0.0055
    EDDIAG:  cpu time    1.5832: real time    1.5905
  RMM-DIIS:  cpu time    4.8604: real time    4.9804
    ORTHCH:  cpu time    0.3805: real time    0.3821
       DOS:  cpu time    0.0015: real time    0.0015
    CHARGE:  cpu time    0.2349: real time    0.2360
    MIXING:  cpu time    0.0029: real time    0.0029
    --------------------------------------------
      LOOP:  cpu time    7.1156: real time    7.2481

 eigenvalue-minimisations  :  3681
 total energy-change (2. order) : 0.4490625E+00  (-0.2593892E+00)
 number of electron     503.9998359 magnetization 
 augmentation part      197.4714226 magnetization 

 DIPCOR: dipole corrections for dipol
 direction  3 min pos     1,
 dipolmoment           0.000000      0.000000      0.092420 electrons x Angstroem
 Tr[quadrupol]    -10137.191269

 energy correction for charged system         0.000000 eV
 dipol+quadrupol energy correction           -0.000301 eV
 added-field ion interaction          0.043885 eV  (added to PSCEN)


 Broyden mixing:
  rms(total) = 0.78669E+00    rms(broyden)= 0.78652E+00
  rms(prec ) = 0.86593E+00
  weight for this iteration     100.00

 eigenvalues of (default mixing * dielectric matrix)
  average eigenvalue GAMMA=   0.6699
  2.2374  0.6813  0.6813  0.6806  0.3018  0.3018  0.2336  0.2416

 Free energy of the ion-electron system (eV)
  ---------------------------------------------------
  alpha Z        PSCENC =       805.91294782
  Ewald energy   TEWEN  =    199949.57708292
  -Hartree energ DENC   =   -242010.97549079
  -exchange      EXHF   =         0.00000000
  -V(xc)+E(xc)   XCENC  =      -344.79545294
  PAW double counting   =     49263.41539289   -47350.16225394
  entropy T*S    EENTRO =        -0.24448333
  eigenvalues    EBANDS =     -2161.71976436
  atomic energy  EATOM  =     41659.78587232
  Solvation  Ediel_sol  =         0.00000000
  ---------------------------------------------------
  free energy    TOTEN  =      -189.20614942 eV

  energy without entropy =     -188.96166609  energy(sigma->0) =     -189.08390776


--------------------------------------------------------------------------------------------------------




----------------------------------------- Iteration    1(  14)  ---------------------------------------


    POTLOK:  cpu time    0.0467: real time    0.0471
    SETDIJ:  cpu time    0.0054: real time    0.0054
    EDDIAG:  cpu time    1.5893: real time    1.6013
  RMM-DIIS:  cpu time    4.9067: real time    4.9342
    ORTHCH:  cpu time    0.3794: real time    0.3813
       DOS:  cpu time    0.0016: real time    0.0016
    CHARGE:  cpu time    0.2345: real time    0.2356
    MIXING:  cpu time    0.0031: real time    0.0031
    --------------------------------------------
      LOOP:  cpu time    7.1676: real time    7.2126

 eigenvalue-minimisations  :  3679
 total energy-change (2. order) : 0.1844294E+00  (-0.1261421E+00)
 number of electron     503.9998358 magnetization 
 augmentation part      197.4534515 magnetization 

 DIPCOR: dipole corrections for dipol
 direction  3 min pos     1,
 dipolmoment           0.000000      0.000000      0.070989 electrons x Angstroem
 Tr[quadrupol]    -10137.325651

 energy correction for charged system         0.000000 eV
 dipol+quadrupol energy correction           -0.000178 eV
 added-field ion interaction          0.033708 eV  (added to PSCEN)


 Broyden mixing:
  rms(total) = 0.70596E+00    rms(broyden)= 0.70580E+00
  rms(prec ) = 0.77461E+00
  weight for this iteration     100.00

 eigenvalues of (default mixing * dielectric matrix)
  average eigenvalue GAMMA=   0.6572
  2.2262  0.8110  0.8110  0.7021  0.3219  0.3219  0.2521  0.2521  0.2171

 Free energy of the ion-electron system (eV)
  ---------------------------------------------------
  alpha Z        PSCENC =       805.90289459
  Ewald energy   TEWEN  =    199949.57708292
  -Hartree energ DENC   =   -242020.72860092
  -exchange      EXHF   =         0.00000000
  -V(xc)+E(xc)   XCENC  =      -344.60282007
  PAW double counting   =     49294.24477012   -47379.90696809
  entropy T*S    EENTRO =        -0.23695702
  eigenvalues    EBANDS =     -2153.05699385
  atomic energy  EATOM  =     41659.78587232
  Solvation  Ediel_sol  =         0.00000000
  ---------------------------------------------------
  free energy    TOTEN  =      -189.02172001 eV

  energy without entropy =     -188.78476298  energy(sigma->0) =     -188.90324150


--------------------------------------------------------------------------------------------------------




----------------------------------------- Iteration    1(  15)  ---------------------------------------


    POTLOK:  cpu time    0.0464: real time    0.0466
    SETDIJ:  cpu time    0.0054: real time    0.0054
    EDDIAG:  cpu time    1.5696: real time    1.5777
  RMM-DIIS:  cpu time    4.8741: real time    4.9143
    ORTHCH:  cpu time    0.3773: real time    0.3790
       DOS:  cpu time    0.0016: real time    0.0016
    CHARGE:  cpu time    0.2328: real time    0.2338
    MIXING:  cpu time    0.0032: real time    0.0032
    --------------------------------------------
      LOOP:  cpu time    7.1112: real time    7.1645

 eigenvalue-minimisations  :  3679
 total energy-change (2. order) :-0.3260442E-01  (-0.4821443E-01)
 number of electron     503.9998356 magnetization 
 augmentation part      197.3821007 magnetization 

 DIPCOR: dipole corrections for dipol
 direction  3 min pos     1,
 dipolmoment           0.000000      0.000000      0.044083 electrons x Angstroem
 Tr[quadrupol]    -10137.517156

 energy correction for charged system         0.000000 eV
 dipol+quadrupol energy correction           -0.000068 eV
 added-field ion interaction          0.020932 eV  (added to PSCEN)


 Broyden mixing:
  rms(total) = 0.70686E+00    rms(broyden)= 0.70679E+00
  rms(prec ) = 0.79170E+00
  weight for this iteration     100.00

 eigenvalues of (default mixing * dielectric matrix)
  average eigenvalue GAMMA=   0.6634
  2.1647  1.0093  1.0093  0.6744  0.4083  0.4083  0.2589  0.2589  0.2211  0.2211

 Free energy of the ion-electron system (eV)
  ---------------------------------------------------
  alpha Z        PSCENC =       805.89022812
  Ewald energy   TEWEN  =    199949.57708292
  -Hartree energ DENC   =   -242030.58136184
  -exchange      EXHF   =         0.00000000
  -V(xc)+E(xc)   XCENC  =      -344.46234445
  PAW double counting   =     49303.15633417   -47387.75016828
  entropy T*S    EENTRO =        -0.23620654
  eigenvalues    EBANDS =     -2144.43376084
  atomic energy  EATOM  =     41659.78587232
  Solvation  Ediel_sol  =         0.00000000
  ---------------------------------------------------
  free energy    TOTEN  =      -189.05432443 eV

  energy without entropy =     -188.81811788  energy(sigma->0) =     -188.93622115


--------------------------------------------------------------------------------------------------------




----------------------------------------- Iteration    1(  16)  ---------------------------------------


    POTLOK:  cpu time    0.0463: real time    0.0465
    SETDIJ:  cpu time    0.0054: real time    0.0054
    EDDIAG:  cpu time    1.5871: real time    1.5947
  RMM-DIIS:  cpu time    4.9057: real time    4.9302
    ORTHCH:  cpu time    0.3768: real time    0.3786
       DOS:  cpu time    0.0016: real time    0.0016
    CHARGE:  cpu time    0.2333: real time    0.2343
    MIXING:  cpu time    0.0035: real time    0.0035
    --------------------------------------------
      LOOP:  cpu time    7.1604: real time    7.1977

 eigenvalue-minimisations  :  3680
 total energy-change (2. order) : 0.2330447E+00  (-0.2653247E-01)
 number of electron     503.9998358 magnetization 
 augmentation part      197.2707484 magnetization 

 DIPCOR: dipole corrections for dipol
 direction  3 min pos     1,
 dipolmoment           0.000000      0.000000      0.048162 electrons x Angstroem
 Tr[quadrupol]    -10137.710476

 energy correction for charged system         0.000000 eV
 dipol+quadrupol energy correction           -0.000082 eV
 added-field ion interaction          0.022869 eV  (added to PSCEN)


 Broyden mixing:
  rms(total) = 0.59013E+00    rms(broyden)= 0.59007E+00
  rms(prec ) = 0.66281E+00
  weight for this iteration     100.00

 eigenvalues of (default mixing * dielectric matrix)
  average eigenvalue GAMMA=   0.6735
  2.1496  1.2344  1.2344  0.6196  0.4609  0.4609  0.2906  0.2906  0.2440  0.2321
  0.1910

 Free energy of the ion-electron system (eV)
  ---------------------------------------------------
  alpha Z        PSCENC =       805.89215165
  Ewald energy   TEWEN  =    199949.57708292
  -Hartree energ DENC   =   -242043.13291315
  -exchange      EXHF   =         0.00000000
  -V(xc)+E(xc)   XCENC  =      -344.23905490
  PAW double counting   =     49295.34197244   -47378.17772172
  entropy T*S    EENTRO =        -0.24498904
  eigenvalues    EBANDS =     -2133.62368021
  atomic energy  EATOM  =     41659.78587232
  Solvation  Ediel_sol  =         0.00000000
  ---------------------------------------------------
  free energy    TOTEN  =      -188.82127969 eV

  energy without entropy =     -188.57629065  energy(sigma->0) =     -188.69878517


--------------------------------------------------------------------------------------------------------




----------------------------------------- Iteration    1(  17)  ---------------------------------------


    POTLOK:  cpu time    0.0468: real time    0.0470
    SETDIJ:  cpu time    0.0056: real time    0.0056
    EDDIAG:  cpu time    1.5825: real time    1.5935
  RMM-DIIS:  cpu time    4.8743: real time    4.8986
    ORTHCH:  cpu time    0.3763: real time    0.3781
       DOS:  cpu time    0.0016: real time    0.0016
    CHARGE:  cpu time    0.2351: real time    0.2362
    MIXING:  cpu time    0.0036: real time    0.0036
    --------------------------------------------
      LOOP:  cpu time    7.1267: real time    7.1676

 eigenvalue-minimisations  :  3680
 total energy-change (2. order) : 0.1420500E+00  (-0.3208403E-01)
 number of electron     503.9998359 magnetization 
 augmentation part      197.2409153 magnetization 

 DIPCOR: dipole corrections for dipol
 direction  3 min pos     1,
 dipolmoment           0.000000      0.000000      0.057044 electrons x Angstroem
 Tr[quadrupol]    -10138.038981

 energy correction for charged system         0.000000 eV
 dipol+quadrupol energy correction           -0.000115 eV
 added-field ion interaction          0.027086 eV  (added to PSCEN)


 Broyden mixing:
  rms(total) = 0.41428E+00    rms(broyden)= 0.41420E+00
  rms(prec ) = 0.46891E+00
  weight for this iteration     100.00

 eigenvalues of (default mixing * dielectric matrix)
  average eigenvalue GAMMA=   0.7010
  2.1381  1.4957  1.4957  0.6104  0.5605  0.5605  0.3248  0.3248  0.2509  0.2509
  0.2223  0.1778

 Free energy of the ion-electron system (eV)
  ---------------------------------------------------
  alpha Z        PSCENC =       805.89633600
  Ewald energy   TEWEN  =    199949.57708292
  -Hartree energ DENC   =   -242058.32419794
  -exchange      EXHF   =         0.00000000
  -V(xc)+E(xc)   XCENC  =      -344.10992327
  PAW double counting   =     49306.54403541   -47388.23243641
  entropy T*S    EENTRO =        -0.25626367
  eigenvalues    EBANDS =     -2119.55973508
  atomic energy  EATOM  =     41659.78587232
  Solvation  Ediel_sol  =         0.00000000
  ---------------------------------------------------
  free energy    TOTEN  =      -188.67922971 eV

  energy without entropy =     -188.42296605  energy(sigma->0) =     -188.55109788


--------------------------------------------------------------------------------------------------------




----------------------------------------- Iteration    1(  18)  ---------------------------------------


    POTLOK:  cpu time    0.0471: real time    0.0474
    SETDIJ:  cpu time    0.0058: real time    0.0059
    EDDIAG:  cpu time    1.5766: real time    1.5850
  RMM-DIIS:  cpu time    4.8946: real time    4.9215
    ORTHCH:  cpu time    0.3761: real time    0.3780
       DOS:  cpu time    0.0016: real time    0.0016
    CHARGE:  cpu time    0.2351: real time    0.2362
    MIXING:  cpu time    0.0040: real time    0.0040
    --------------------------------------------
      LOOP:  cpu time    7.1418: real time    7.1841

 eigenvalue-minimisations  :  3680
 total energy-change (2. order) : 0.8590338E-01  (-0.1860299E-01)
 number of electron     503.9998361 magnetization 
 augmentation part      197.1585356 magnetization 

 DIPCOR: dipole corrections for dipol
 direction  3 min pos     1,
 dipolmoment           0.000000      0.000000      0.084175 electrons x Angstroem
 Tr[quadrupol]    -10138.318541

 energy correction for charged system         0.000000 eV
 dipol+quadrupol energy correction           -0.000250 eV
 added-field ion interaction          0.039969 eV  (added to PSCEN)


 Broyden mixing:
  rms(total) = 0.32302E+00    rms(broyden)= 0.32298E+00
  rms(prec ) = 0.37788E+00
  weight for this iteration     100.00

 eigenvalues of (default mixing * dielectric matrix)
  average eigenvalue GAMMA=   0.6859
  2.0841  1.5882  1.5882  0.6093  0.6093  0.6335  0.3310  0.3310  0.2505  0.2505
  0.2295  0.2295  0.1815

 Free energy of the ion-electron system (eV)
  ---------------------------------------------------
  alpha Z        PSCENC =       805.90908377
  Ewald energy   TEWEN  =    199949.57708292
  -Hartree energ DENC   =   -242073.47026047
  -exchange      EXHF   =         0.00000000
  -V(xc)+E(xc)   XCENC  =      -343.93029259
  PAW double counting   =     49327.15726253   -47407.55988720
  entropy T*S    EENTRO =        -0.26056957
  eigenvalues    EBANDS =     -2105.80161802
  atomic energy  EATOM  =     41659.78587232
  Solvation  Ediel_sol  =         0.00000000
  ---------------------------------------------------
  free energy    TOTEN  =      -188.59332633 eV

  energy without entropy =     -188.33275676  energy(sigma->0) =     -188.46304154


--------------------------------------------------------------------------------------------------------




----------------------------------------- Iteration    1(  19)  ---------------------------------------


    POTLOK:  cpu time    0.0467: real time    0.0470
    SETDIJ:  cpu time    0.0057: real time    0.0057
    EDDIAG:  cpu time    1.5163: real time    1.6067
  RMM-DIIS:  cpu time    4.9171: real time    4.9450
    ORTHCH:  cpu time    0.3760: real time    0.3796
       DOS:  cpu time    0.0015: real time    0.0015
    CHARGE:  cpu time    0.2326: real time    0.2336
    MIXING:  cpu time    0.0040: real time    0.0041
    --------------------------------------------
      LOOP:  cpu time    7.1007: real time    7.2281

 eigenvalue-minimisations  :  3679
 total energy-change (2. order) : 0.1024844E+00  (-0.9264714E-02)
 number of electron     503.9998362 magnetization 
 augmentation part      197.0993487 magnetization 

 DIPCOR: dipole corrections for dipol
 direction  3 min pos     1,
 dipolmoment           0.000000      0.000000      0.085425 electrons x Angstroem
 Tr[quadrupol]    -10138.436628

 energy correction for charged system         0.000000 eV
 dipol+quadrupol energy correction           -0.000257 eV
 added-field ion interaction          0.040563 eV  (added to PSCEN)


 Broyden mixing:
  rms(total) = 0.18296E+00    rms(broyden)= 0.18291E+00
  rms(prec ) = 0.21706E+00
  weight for this iteration     100.00

 eigenvalues of (default mixing * dielectric matrix)
  average eigenvalue GAMMA=   0.6797
  2.1498  1.6257  1.6257  0.6521  0.6521  0.4982  0.4328  0.4328  0.2887  0.2887
  0.2638  0.2303  0.2015  0.1731

 Free energy of the ion-electron system (eV)
  ---------------------------------------------------
  alpha Z        PSCENC =       805.90966976
  Ewald energy   TEWEN  =    199949.57708292
  -Hartree energ DENC   =   -242080.81478108
  -exchange      EXHF   =         0.00000000
  -V(xc)+E(xc)   XCENC  =      -343.80205155
  PAW double counting   =     49339.98765346   -47419.62468899
  entropy T*S    EENTRO =        -0.26279204
  eigenvalues    EBANDS =     -2099.24680676
  atomic energy  EATOM  =     41659.78587232
  Solvation  Ediel_sol  =         0.00000000
  ---------------------------------------------------
  free energy    TOTEN  =      -188.49084196 eV

  energy without entropy =     -188.22804992  energy(sigma->0) =     -188.35944594


--------------------------------------------------------------------------------------------------------




----------------------------------------- Iteration    1(  20)  ---------------------------------------


    POTLOK:  cpu time    0.0463: real time    0.0465
    SETDIJ:  cpu time    0.0055: real time    0.0055
    EDDIAG:  cpu time    1.5609: real time    1.5938
  RMM-DIIS:  cpu time    4.8644: real time    4.9058
    ORTHCH:  cpu time    0.3768: real time    0.3785
       DOS:  cpu time    0.0015: real time    0.0016
    CHARGE:  cpu time    0.2288: real time    0.2346
    MIXING:  cpu time    0.0041: real time    0.0041
    --------------------------------------------
      LOOP:  cpu time    7.0891: real time    7.1744

 eigenvalue-minimisations  :  3680
 total energy-change (2. order) : 0.2786718E-01  (-0.3202832E-02)
 number of electron     503.9998362 magnetization 
 augmentation part      197.0607422 magnetization 

 DIPCOR: dipole corrections for dipol
 direction  3 min pos     1,
 dipolmoment           0.000000      0.000000      0.062041 electrons x Angstroem
 Tr[quadrupol]    -10138.558555

 energy correction for charged system         0.000000 eV
 dipol+quadrupol energy correction           -0.000136 eV
 added-field ion interaction          0.029459 eV  (added to PSCEN)


 Broyden mixing:
  rms(total) = 0.11232E+00    rms(broyden)= 0.11227E+00
  rms(prec ) = 0.12752E+00
  weight for this iteration     100.00

 eigenvalues of (default mixing * dielectric matrix)
  average eigenvalue GAMMA=   0.6775
  2.2698  1.6156  1.6156  0.7360  0.7360  0.5124  0.5124  0.4621  0.2974  0.2974
  0.2551  0.2551  0.2291  0.1939  0.1752

 Free energy of the ion-electron system (eV)
  ---------------------------------------------------
  alpha Z        PSCENC =       805.89868773
  Ewald energy   TEWEN  =    199949.57708292
  -Hartree energ DENC   =   -242086.16819067
  -exchange      EXHF   =         0.00000000
  -V(xc)+E(xc)   XCENC  =      -343.75374885
  PAW double counting   =     49350.26890038   -47429.63292490
  entropy T*S    EENTRO =        -0.26497939
  eigenvalues    EBANDS =     -2094.17367432
  atomic energy  EATOM  =     41659.78587232
  Solvation  Ediel_sol  =         0.00000000
  ---------------------------------------------------
  free energy    TOTEN  =      -188.46297478 eV

  energy without entropy =     -188.19799539  energy(sigma->0) =     -188.33048508


--------------------------------------------------------------------------------------------------------




----------------------------------------- Iteration    1(  21)  ---------------------------------------


    POTLOK:  cpu time    0.0471: real time    0.0473
    SETDIJ:  cpu time    0.0055: real time    0.0055
    EDDIAG:  cpu time    1.5807: real time    1.5883
  RMM-DIIS:  cpu time    4.7410: real time    4.8842
    ORTHCH:  cpu time    0.3750: real time    0.3769
       DOS:  cpu time    0.0016: real time    0.0016
    CHARGE:  cpu time    0.2354: real time    0.2365
    MIXING:  cpu time    0.0041: real time    0.0042
    --------------------------------------------
      LOOP:  cpu time    6.9912: real time    7.1492

 eigenvalue-minimisations  :  3680
 total energy-change (2. order) : 0.9564697E-02  (-0.1083464E-02)
 number of electron     503.9998362 magnetization 
 augmentation part      197.0548154 magnetization 

 DIPCOR: dipole corrections for dipol
 direction  3 min pos     1,
 dipolmoment           0.000000      0.000000      0.046462 electrons x Angstroem
 Tr[quadrupol]    -10138.646628

 energy correction for charged system         0.000000 eV
 dipol+quadrupol energy correction           -0.000076 eV
 added-field ion interaction          0.022062 eV  (added to PSCEN)


 Broyden mixing:
  rms(total) = 0.68844E-01    rms(broyden)= 0.68826E-01
  rms(prec ) = 0.77981E-01
  weight for this iteration     100.00

 eigenvalues of (default mixing * dielectric matrix)
  average eigenvalue GAMMA=   0.6743
  2.3037  1.6062  1.6062  0.8192  0.8192  0.5254  0.5254  0.5690  0.3187  0.3187
  0.2617  0.2617  0.2561  0.2290  0.1944  0.1740

 Free energy of the ion-electron system (eV)
  ---------------------------------------------------
  alpha Z        PSCENC =       805.89135018
  Ewald energy   TEWEN  =    199949.57708292
  -Hartree energ DENC   =   -242089.68049066
  -exchange      EXHF   =         0.00000000
  -V(xc)+E(xc)   XCENC  =      -343.73980279
  PAW double counting   =     49358.64381771   -47437.97487670
  entropy T*S    EENTRO =        -0.26737989
  eigenvalues    EBANDS =     -2090.68898317
  atomic energy  EATOM  =     41659.78587232
  Solvation  Ediel_sol  =         0.00000000
  ---------------------------------------------------
  free energy    TOTEN  =      -188.45341008 eV

  energy without entropy =     -188.18603019  energy(sigma->0) =     -188.31972014


--------------------------------------------------------------------------------------------------------




----------------------------------------- Iteration    1(  22)  ---------------------------------------


    POTLOK:  cpu time    0.0468: real time    0.0473
    SETDIJ:  cpu time    0.0055: real time    0.0056
    EDDIAG:  cpu time    1.5709: real time    1.5784
  RMM-DIIS:  cpu time    4.8952: real time    4.9192
    ORTHCH:  cpu time    0.3740: real time    0.3757
       DOS:  cpu time    0.0016: real time    0.0016
    CHARGE:  cpu time    0.2338: real time    0.2349
    MIXING:  cpu time    0.0043: real time    0.0043
    --------------------------------------------
      LOOP:  cpu time    7.1330: real time    7.1699

 eigenvalue-minimisations  :  3679
 total energy-change (2. order) : 0.2814480E-02  (-0.3489970E-03)
 number of electron     503.9998362 magnetization 
 augmentation part      197.0430589 magnetization 

 DIPCOR: dipole corrections for dipol
 direction  3 min pos     1,
 dipolmoment           0.000000      0.000000      0.042737 electrons x Angstroem
 Tr[quadrupol]    -10138.713765

 energy correction for charged system         0.000000 eV
 dipol+quadrupol energy correction           -0.000064 eV
 added-field ion interaction          0.020293 eV  (added to PSCEN)


 Broyden mixing:
  rms(total) = 0.53797E-01    rms(broyden)= 0.53791E-01
  rms(prec ) = 0.60472E-01
  weight for this iteration     100.00

 eigenvalues of (default mixing * dielectric matrix)
  average eigenvalue GAMMA=   0.6829
  2.3373  1.5985  1.5985  0.9575  0.9575  0.6699  0.5756  0.5756  0.3488  0.3488
  0.2795  0.2795  0.2459  0.2459  0.2242  0.1920  0.1741

 Free energy of the ion-electron system (eV)
  ---------------------------------------------------
  alpha Z        PSCENC =       805.88959275
  Ewald energy   TEWEN  =    199949.57708292
  -Hartree energ DENC   =   -242092.55986294
  -exchange      EXHF   =         0.00000000
  -V(xc)+E(xc)   XCENC  =      -343.72246219
  PAW double counting   =     49362.38810365   -47441.65731334
  entropy T*S    EENTRO =        -0.26823067
  eigenvalues    EBANDS =     -2087.88337811
  atomic energy  EATOM  =     41659.78587232
  Solvation  Ediel_sol  =         0.00000000
  ---------------------------------------------------
  free energy    TOTEN  =      -188.45059560 eV

  energy without entropy =     -188.18236494  energy(sigma->0) =     -188.31648027


--------------------------------------------------------------------------------------------------------




----------------------------------------- Iteration    1(  23)  ---------------------------------------


    POTLOK:  cpu time    0.0461: real time    0.0464
    SETDIJ:  cpu time    0.0055: real time    0.0055
    EDDIAG:  cpu time    1.5625: real time    1.5699
  RMM-DIIS:  cpu time    4.8855: real time    4.9104
    ORTHCH:  cpu time    0.3724: real time    0.3744
       DOS:  cpu time    0.0016: real time    0.0016
    CHARGE:  cpu time    0.2322: real time    0.2332
    MIXING:  cpu time    0.0046: real time    0.0047
    --------------------------------------------
      LOOP:  cpu time    7.1113: real time    7.1490

 eigenvalue-minimisations  :  3682
 total energy-change (2. order) : 0.1984804E-02  (-0.1469828E-03)
 number of electron     503.9998362 magnetization 
 augmentation part      197.0299088 magnetization 

 DIPCOR: dipole corrections for dipol
 direction  3 min pos     1,
 dipolmoment           0.000000      0.000000      0.044480 electrons x Angstroem
 Tr[quadrupol]    -10138.817842

 energy correction for charged system         0.000000 eV
 dipol+quadrupol energy correction           -0.000070 eV
[...]
    275       1.7885      0.00000
    276       1.8374      0.00000
    277       2.1480      0.00000
    278       2.2347      0.00000
    279       2.3224      0.00000
    280       2.3714      0.00000
    281       2.5023      0.00000
    282       2.5835      0.00000
    283       2.6850      0.00000
    284       2.9331      0.00000
    285       3.0689      0.00000
    286       3.2375      0.00000
    287       3.5190      0.00000
    288       3.5640      0.00000
    289       3.6413      0.00000
    290       3.8909      0.00000
    291       4.1151      0.00000
    292       4.1891      0.00000
    293       4.3886      0.00000
    294       4.4447      0.00000
    295       4.5571      0.00000
    296       4.6181      0.00000
    297       4.6461      0.00000
    298       4.7497      0.00000
    299       4.8564      0.00000
    300       4.8844      0.00000
    301       4.9599      0.00000
    302       5.0201      0.00000
    303       5.0485      0.00000
    304       5.0977      0.00000
    305       5.2092      0.00000
    306       5.2251      0.00000


--------------------------------------------------------------------------------------------------------


 soft charge-density along one line, spin component           1
         0         1         2         3         4         5         6         7         8         9
 total charge-density along one line
 
 pseudopotential strength for first ion, spin component:           1
 -8.029  -0.004   0.002  -0.003   0.001  -8.176  -0.004   0.002
 -0.004  -7.952  -0.001  -0.002  -0.001  -0.004  -8.101  -0.001
  0.002  -0.001  -7.947  -0.001   0.001   0.002  -0.001  -8.096
 -0.003  -0.002  -0.001  -7.953   0.002  -0.003  -0.002  -0.001
  0.001  -0.001   0.001   0.002  -8.030   0.001  -0.001   0.001
 -8.176  -0.004   0.002  -0.003   0.001  -8.307  -0.004   0.002
 -0.004  -8.101  -0.001  -0.002  -0.001  -0.004  -8.233  -0.001
  0.002  -0.001  -8.096  -0.001   0.001   0.002  -0.001  -8.229
 -0.003  -0.002  -0.001  -8.102   0.002  -0.003  -0.002  -0.001
  0.001  -0.001   0.001   0.002  -8.177   0.001  -0.001   0.001
  0.001   0.001  -0.026   0.001   0.000   0.001   0.001  -0.026
  0.002   0.001  -0.037   0.001   0.000   0.002   0.001  -0.037
 -0.001  -0.003  -0.001  -0.000  -0.001  -0.001  -0.002  -0.001
 -0.000   0.001  -0.005  -0.000   0.000  -0.000   0.001  -0.004
  0.001  -0.000   0.000  -0.002   0.001   0.001  -0.000   0.000
 -0.001  -0.002  -0.001  -0.000  -0.001  -0.001  -0.002  -0.001
 -0.000   0.002  -0.005  -0.000   0.000  -0.000   0.002  -0.004
  0.002  -0.000   0.000  -0.002   0.001   0.002  -0.000   0.000
 total augmentation occupancy for first ion, spin component:           1
  4.386  -0.075  -0.006   0.042   0.026  -2.559   0.026   0.018  -0.069  -0.004  -0.042   0.003   0.096  -0.001  -0.010  -0.005
 -0.075   4.010   0.043   0.002   0.022   0.028  -1.749  -0.041  -0.008  -0.050  -0.033   0.024  -0.158  -0.008   0.001   0.005
 -0.006   0.043   4.342  -0.010   0.023   0.017  -0.041  -2.235   0.002  -0.016   1.056  -0.118  -0.012  -0.212   0.002   0.001
  0.042   0.002  -0.010   4.101   0.063  -0.068  -0.008   0.002  -1.833  -0.019  -0.018   0.004   0.002   0.000  -0.155  -0.000
  0.026   0.022   0.023   0.063   4.341  -0.004  -0.052  -0.016  -0.017  -2.535  -0.013   0.011  -0.036  -0.005  -0.109   0.000
 -2.559   0.028   0.017  -0.068  -0.004   2.618   0.010  -0.028   0.088  -0.014   0.042  -0.004  -0.084   0.000   0.009   0.004
  0.026  -1.749  -0.041  -0.008  -0.052   0.010   1.461   0.039   0.012   0.071   0.025  -0.019   0.147   0.005  -0.001  -0.006
  0.018  -0.041  -2.235   0.002  -0.016  -0.028   0.039   2.072   0.004   0.010  -0.992   0.145   0.010   0.214  -0.001  -0.001
 -0.069  -0.008   0.002  -1.833  -0.017   0.088   0.012   0.004   1.537  -0.017   0.012  -0.002  -0.002   0.002   0.143   0.000
 -0.004  -0.050  -0.016  -0.019  -2.535  -0.014   0.071   0.010  -0.017   2.612   0.013  -0.010   0.032   0.003   0.095  -0.001
 -0.042  -0.033   1.056  -0.018  -0.013   0.042   0.025  -0.992   0.012   0.013   2.410  -0.505  -0.004   0.109   0.002   0.000
  0.003   0.024  -0.118   0.004   0.011  -0.004  -0.019   0.145  -0.002  -0.010  -0.505   0.150   0.000  -0.054  -0.001   0.000
  0.096  -0.158  -0.012   0.002  -0.036  -0.084   0.147   0.010  -0.002   0.032  -0.004   0.000   0.189  -0.000   0.003  -0.006
 -0.001  -0.008  -0.212   0.000  -0.005   0.000   0.005   0.214   0.002   0.003   0.109  -0.054  -0.000   0.087   0.000  -0.000
 -0.010   0.001   0.002  -0.155  -0.109   0.009  -0.001  -0.001   0.143   0.095   0.002  -0.001   0.003   0.000   0.188  -0.000
 -0.005   0.005   0.001  -0.000   0.000   0.004  -0.006  -0.001   0.000  -0.001   0.000   0.000  -0.006  -0.000  -0.000   0.000
 -0.000   0.002   0.002  -0.000   0.000   0.000  -0.001  -0.006  -0.000  -0.000  -0.007   0.002  -0.000  -0.003  -0.000   0.000
  0.002  -0.000  -0.000   0.006   0.005  -0.001   0.000   0.000  -0.006  -0.004  -0.000   0.000  -0.000  -0.000  -0.006  -0.000


------------------------ aborting loop because EDIFF is reached ----------------------------------------


    CHARGE:  cpu time    0.2228: real time    0.2240
    FORLOC:  cpu time    0.0159: real time    0.0160
    FORNL :  cpu time    1.6458: real time    1.6584
    FORCOR:  cpu time    0.0599: real time    0.0616
    FORHAR:  cpu time    0.0248: real time    0.0249
    MIXING:  cpu time    0.0036: real time    0.0036
    OFIELD:  cpu time    0.0001: real time    0.0000

 VOLUME and BASIS-vectors are now :
 -----------------------------------------------------------------------------
  energy-cutoff  :      400.00
  volume of cell :     2567.68
      direct lattice vectors                 reciprocal lattice vectors
    11.002581515  0.000000000  0.000000000     0.090887761 -0.052474073  0.000000000
     5.501290758  9.528515099  0.000000000     0.000000000  0.104948147  0.000000000
     0.000000000  0.000000000 24.491785094     0.000000000  0.000000000  0.040830017

  length of vectors
    11.002581515 11.002581515 24.491785094     0.104948147  0.104948147  0.040830017


 FORCES acting on ions
    electron-ion (+dipol)            ewald-force                    non-local-force                 convergence-correction
 -----------------------------------------------------------------------------------------------
   0.208E+01 0.398E+01 0.226E+04   -.211E+01 -.405E+01 -.226E+04   0.230E-01 0.741E-01 0.237E+00   0.769E-03 -.225E-02 0.326E-02
   0.304E+01 -.385E+01 0.222E+04   -.355E+01 0.458E+01 -.222E+04   0.515E+00 -.739E+00 0.160E+00   -.662E-03 0.147E-02 0.687E-03
   0.105E+02 -.281E+01 0.227E+04   -.112E+02 0.298E+01 -.227E+04   0.685E+00 -.168E+00 0.910E-01   0.524E-03 0.178E-02 -.411E-04
   0.131E+02 -.147E+02 -.229E+04   -.133E+02 0.154E+02 0.229E+04   0.160E+00 -.735E+00 -.217E-01   0.359E-02 -.320E-02 0.272E-02
   0.372E+01 -.362E+01 0.224E+04   -.400E+01 0.364E+01 -.224E+04   0.287E+00 -.239E-01 0.124E+00   0.584E-03 -.177E-02 -.683E-03
   0.181E+02 -.142E+02 -.230E+04   -.184E+02 0.144E+02 0.230E+04   0.329E+00 -.201E+00 -.777E-01   -.221E-02 -.266E-02 0.856E-03
   -.442E+01 0.323E+01 -.315E+02   0.355E+01 -.281E+01 0.314E+02   0.863E+00 -.418E+00 0.751E-01   0.649E-03 -.637E-02 0.282E-02
   -.616E+01 -.832E+01 0.225E+04   0.647E+01 0.910E+01 -.225E+04   -.309E+00 -.782E+00 -.350E+00   0.106E-02 -.291E-02 -.153E-03
   -.685E+01 0.684E+01 0.223E+04   0.686E+01 -.748E+01 -.223E+04   -.569E-02 0.650E+00 -.230E+00   -.394E-03 -.238E-02 0.494E-02
   0.155E+02 -.106E+02 -.344E+02   -.148E+02 0.971E+01 0.343E+02   -.756E+00 0.883E+00 0.484E-01   0.109E-02 0.615E-02 0.413E-02
   0.924E+00 -.743E+01 0.222E+04   -.119E+01 0.789E+01 -.222E+04   0.271E+00 -.459E+00 -.462E+00   -.133E-03 -.316E-02 0.130E-02
   0.959E+01 -.388E+01 -.514E+01   -.869E+01 0.365E+01 0.569E+01   -.910E+00 0.247E+00 -.567E+00   0.123E-02 -.767E-02 0.894E-02
   -.194E+02 0.300E+01 -.227E+04   0.201E+02 -.286E+01 0.227E+04   -.712E+00 -.142E+00 0.226E+00   0.423E-02 0.785E-02 0.923E-03
   -.110E+02 0.374E+01 -.232E+04   0.116E+02 -.368E+01 0.232E+04   -.628E+00 -.623E-01 -.244E+00   -.108E-02 0.364E-02 0.868E-03
   -.434E+01 -.947E+01 -.437E+02   0.411E+01 0.897E+01 0.437E+02   0.224E+00 0.495E+00 0.152E-01   0.230E-02 -.396E-02 0.465E-02
   -.425E+01 -.495E+00 -.352E+02   0.399E+01 0.104E+01 0.352E+02   0.271E+00 -.550E+00 0.314E-03   -.265E-03 -.272E-03 0.568E-02
   -.117E+02 0.102E+02 -.232E+04   0.119E+02 -.107E+02 0.232E+04   -.146E+00 0.523E+00 -.248E+00   0.134E-02 -.455E-02 0.200E-02
   -.257E+01 0.115E+01 0.224E+04   0.274E+01 -.205E+01 -.224E+04   -.175E+00 0.906E+00 0.232E+00   -.108E-02 0.196E-02 0.849E-04
   0.382E+01 0.112E+02 0.227E+04   -.381E+01 -.117E+02 -.227E+04   -.149E-01 0.546E+00 -.303E+00   0.172E-03 -.337E-02 0.675E-02
   -.393E+01 0.137E+01 -.408E+02   0.352E+01 -.133E+01 0.408E+02   0.417E+00 -.524E-01 0.318E-01   -.328E-02 0.360E-02 0.324E-02
   -.716E+01 0.136E+02 -.230E+04   0.774E+01 -.141E+02 0.230E+04   -.566E+00 0.527E+00 -.216E+00   -.399E-02 -.117E-03 0.382E-02
   0.244E+02 -.703E+01 -.226E+04   -.257E+02 0.702E+01 0.226E+04   0.135E+01 0.172E-01 0.300E+00   -.433E-02 0.329E-02 0.118E-04
   -.755E+01 0.183E+01 0.225E+04   0.824E+01 -.171E+01 -.225E+04   -.692E+00 -.129E+00 0.126E+00   0.114E-02 0.249E-02 0.122E-02
   0.704E+01 0.121E+02 -.520E+02   -.679E+01 -.118E+02 0.520E+02   -.246E+00 -.253E+00 0.150E-01   0.440E-03 0.156E-02 0.325E-02
   0.937E+01 -.191E+01 -.280E+01   -.876E+01 0.175E+01 0.320E+01   -.607E+00 0.154E+00 -.407E+00   0.429E-02 0.163E-02 0.632E-02
   -.134E+02 0.490E+01 -.198E+04   0.136E+02 -.496E+01 0.197E+04   -.249E+00 0.632E-01 0.191E+01   0.228E-02 -.222E-02 0.317E-03
   0.197E+02 -.733E+01 -.198E+04   -.201E+02 0.766E+01 0.198E+04   0.400E+00 -.334E+00 0.177E+01   0.135E-02 0.309E-02 0.291E-02
   -.152E+02 0.530E+01 -.238E+02   0.144E+02 -.501E+01 0.239E+02   0.811E+00 -.299E+00 -.123E+00   -.955E-03 0.594E-02 0.637E-02
   -.156E+02 0.623E+00 -.198E+04   0.161E+02 -.770E+00 0.198E+04   -.448E+00 0.147E+00 0.129E+01   0.396E-02 -.245E-03 0.792E-03
   0.293E-01 -.378E+01 0.194E+04   0.939E-01 0.390E+01 -.194E+04   -.130E+00 -.116E+00 -.147E+01   -.533E-03 -.170E-02 0.172E-02
   -.618E+01 0.138E+02 -.139E+02   0.590E+01 -.127E+02 0.145E+02   0.273E+00 -.104E+01 -.526E+00   0.308E-02 0.850E-03 0.367E-02
   0.745E+01 -.800E+01 -.103E+02   -.700E+01 0.762E+01 0.107E+02   -.454E+00 0.382E+00 -.390E+00   -.261E-02 -.207E-02 0.423E-02
   -.182E+02 0.124E+02 -.196E+04   0.188E+02 -.124E+02 0.196E+04   -.640E+00 0.429E-01 0.170E+01   -.365E-02 -.791E-02 0.320E-02
   -.461E+00 0.867E-01 0.194E+04   0.364E+00 -.780E-01 -.194E+04   0.968E-01 -.454E-02 -.107E+01   0.245E-04 -.140E-02 0.207E-02
   0.481E+01 -.531E+01 -.198E+04   -.479E+01 0.523E+01 0.198E+04   -.266E-01 0.779E-01 0.197E+01   0.662E-03 0.696E-02 0.105E-02
   0.286E-01 -.522E+01 0.526E+01   0.169E+00 0.475E+01 -.495E+01   -.189E+00 0.478E+00 -.326E+00   -.103E-02 0.451E-03 0.877E-02
   0.972E+01 0.946E+01 0.193E+04   -.102E+02 -.980E+01 -.193E+04   0.481E+00 0.336E+00 -.190E+01   -.640E-03 0.237E-02 0.527E-02
   0.528E+01 0.984E+00 -.197E+04   -.521E+01 -.101E+01 0.196E+04   -.698E-01 0.299E-01 0.192E+01   0.363E-02 0.479E-02 0.392E-02
   0.564E+01 -.153E+00 -.398E+02   -.508E+01 0.592E-01 0.393E+02   -.571E+00 0.808E-01 0.444E+00   0.283E-02 0.921E-02 0.586E-02
   -.138E+02 -.727E+01 0.196E+04   0.144E+02 0.741E+01 -.195E+04   -.612E+00 -.144E+00 -.177E+01   0.491E-03 0.285E-02 0.103E-02
   0.180E+02 -.684E+01 -.197E+04   -.185E+02 0.720E+01 0.196E+04   0.522E+00 -.352E+00 0.200E+01   -.174E-02 -.635E-02 0.328E-02
   0.149E+01 0.385E+01 0.166E+02   -.156E+01 -.369E+01 -.158E+02   0.687E-01 -.163E+00 -.825E+00   -.313E-03 -.836E-03 0.250E-02
   0.130E+02 -.131E+02 -.195E+04   -.134E+02 0.132E+02 0.195E+04   0.364E+00 -.181E+00 0.200E+01   -.536E-02 -.424E-02 0.612E-03
   -.163E+01 -.108E+01 0.369E+02   0.163E+01 0.111E+01 -.355E+02   0.386E-02 -.248E-01 -.139E+01   -.299E-02 -.773E-02 0.514E-02
   -.170E+02 0.186E+02 -.198E+04   0.170E+02 -.194E+02 0.197E+04   -.194E-01 0.780E+00 0.176E+01   -.228E-02 0.186E-02 0.449E-02
   -.152E+02 0.134E+01 -.303E+02   0.142E+02 -.142E+01 0.303E+02   0.973E+00 0.887E-01 -.327E-01   -.374E-02 -.204E-03 0.546E-02
   -.657E+01 0.137E+02 0.194E+04   0.683E+01 -.142E+02 -.194E+04   -.268E+00 0.512E+00 -.204E+01   0.134E-02 0.322E-02 0.553E-02
   0.595E+01 -.109E+02 0.193E+04   -.621E+01 0.114E+02 -.193E+04   0.254E+00 -.517E+00 -.180E+01   0.119E-02 0.289E-02 0.203E-02
 -----------------------------------------------------------------------------------------------
   -.168E+00 -.140E+00 -.179E+01   -.203E-12 0.195E-12 -.909E-12   0.199E+00 0.147E+00 0.166E+01   0.960E-03 0.346E-03 0.148E+00
 
 
 POSITION                                       TOTAL-FORCE (eV/Angst)
 -----------------------------------------------------------------------------------
      1.36331      0.78549      9.69830        -0.004517     -0.001122     -0.006365
     13.73385      7.94495      9.73171         0.004602     -0.000654      0.003797
     12.33296      5.56496      9.66845         0.001981      0.007928      0.013887
      9.62433      2.41220     14.80964        -0.000447     -0.000090      0.006911
     10.97690      3.18116      9.72146         0.003621     -0.001815      0.004143
      8.23352      0.02069     14.84438        -0.000548     -0.004772     -0.002584
      8.22710      1.59789     12.26321        -0.002637     -0.002392      0.004235
      8.24511      3.20610      9.73062        -0.003849     -0.000743     -0.004404
      6.86229      0.77818      9.74259         0.002020      0.003422     -0.016906
      5.53099      6.33350     12.27037        -0.004744     -0.004033     -0.004710
      5.48091      3.18449      9.75025         0.001004     -0.001333      0.010122
      2.77495      1.57561     12.23912        -0.002085      0.009221     -0.005441
      6.91914      7.15051     14.76037        -0.005018      0.006242      0.007934
      4.15755      7.14436     14.88881         0.000385      0.004515      0.004200
     11.00767      1.59278     12.28074         0.000622     -0.004307     -0.000425
     12.36874      3.99059     12.27078         0.009628     -0.006563     -0.003396
      1.40150      2.35986     14.86186         0.006527      0.001047      0.001261
      4.11592      5.54472      9.70708        -0.007907      0.006740     -0.005244
      4.10664      0.76405      9.69162        -0.003760     -0.007717     -0.003761
     13.74163      6.34936     12.28128         0.007048     -0.009869      0.006467
      2.78532      4.74059     14.85672         0.009057     -0.006201     -0.012969
     12.35662      7.14754     14.78027         0.003401      0.001133      0.009823
      5.51257      7.93722      9.70547        -0.003981     -0.004051      0.007741
     15.13149      8.72636     12.29031         0.001750      0.002353      0.003756
      6.89941      8.71853     12.23788         0.004528     -0.005415      0.005803
      2.78354     -0.00173     14.59375         0.005339      0.006829      0.001416
     11.00838      4.76925     14.63830        -0.002398     -0.002093     -0.008344
     10.98891      6.36968     12.26607         0.010560     -0.000337     -0.001889
      0.02052     -0.00025     14.66236        -0.000483     -0.000500     -0.003857
      2.72398      3.17510      9.86304        -0.007846      0.000660      0.009326
      9.60869      4.00055     12.25186        -0.005687     -0.005672     -0.000190
      4.14773      3.96675     12.24168        -0.006938      0.004609     -0.001982
      4.15931      2.37494     14.58280         0.003488     -0.000258     -0.003083
      9.61527      0.79339      9.87879        -0.001394      0.002607      0.007169
      9.64176      7.14646     14.59153        -0.002715      0.003752     -0.009116
      9.63528      8.72721     12.22485         0.006445      0.006654     -0.004278
     10.98053      7.92678      9.91400        -0.000677     -0.000964     -0.005573
      8.26142      4.76832     14.57933         0.002014      0.006278      0.003125
      8.26833      6.36157     12.27579        -0.003762     -0.004352     -0.003548
      6.88631      5.57546      9.88793        -0.004415      0.001540     -0.004832
      6.86319      2.39921     14.57947         0.008669      0.000979      0.003530
      6.88175      3.96646     12.21115         0.001586     -0.001259      0.002957
      5.48682      0.00917     14.55431        -0.002296      0.001898      0.003811
      5.49652      1.58295     12.18994        -0.003505     -0.004036     -0.002069
      5.52407      4.73811     14.61701         0.003046      0.001216     -0.005117
     12.35347      8.72936     12.26724        -0.005466      0.003438      0.004046
      8.25250      7.91564      9.91351        -0.006600      0.000412     -0.001670
      9.60650      5.58128      9.93486        -0.003648     -0.002925     -0.003707
 -----------------------------------------------------------------------------------
    total drift:                                0.031234      0.007539      0.017810


--------------------------------------------------------------------------------------------------------



  FREE ENERGIE OF THE ION-ELECTRON SYSTEM (eV)
  ---------------------------------------------------
  free  energy   TOTEN  =      -192.35530868 eV

  energy  without entropy=     -192.09281604  energy(sigma->0) =     -192.22406236
 
 d Force = 0.6212601E-03[ 0.293E-03, 0.950E-03]  d Energy = 0.6361344E-03-0.149E-04
 d Force =-0.8775572E+01[-0.875E+01,-0.881E+01]  d Ewald  =-0.8775572E+01-0.143E-06


--------------------------------------------------------------------------------------------------------


    POTLOK:  cpu time    0.0516: real time    0.0528


--------------------------------------------------------------------------------------------------------


 stress matrix after NEB project (eV)
      0.00000      0.00000      0.00000
      0.00000      0.00000      0.00000
      0.00000      0.00000      0.00000
  FORCES: max atom, RMS     0.017366    0.008994
  FORCE total and by dimension    0.062314    0.016906
  Stress total and by dimension    0.000000    0.000000
 Conjugate gradient step on ions:
 trial-energy change:   -0.000636  1 .order   -0.000621   -0.000950   -0.000293
  (g-gl).g = 0.279E-03      g.g   = 0.361E-03  gl.gl    = 0.557E-03
 g(Force)  = 0.361E-03   g(Stress)= 0.000E+00 ortho     = 0.357E-04
 gamma     =   0.50025
 trial     =   2.50421
 opt step  =   3.44386  (harmonic =   3.61933) maximal distance =0.00535522
 next E    =  -192.355364   (d E  =  -0.00069)


--------------------------------------------------------------------------------------------------------


  
 reached required accuracy - stopping structural energy minimisation
     LOOP+:  cpu time   80.0001: real time   80.6952
    4ORBIT:  cpu time    0.0000: real time    0.0000

 total amount of memory used by VASP on root node    84353. kBytes
========================================================================

   base      :      30000. kBytes
   nonlr-proj:       4285. kBytes
   fftplans  :       4447. kBytes
   grid      :       6721. kBytes
   one-center:        124. kBytes
   wavefun   :      38776. kBytes
 
  
  
 General timing and accounting informations for this job:
 ========================================================
  
                  Total CPU time used (sec):     2320.103
                            User time (sec):     2217.388
                          System time (sec):      102.715
                         Elapsed time (sec):     2339.926
  
                   Maximum memory used (kb):      941408.
                   Average memory used (kb):           0.
  
                          Minor page faults:      1001035
                          Major page faults:            2
                 Voluntary context switches:        12326
