<?xml version="1.0" encoding="ISO-8859-1"?>
<modeling>
 <generator>
  <i name="program" type="string">vasp </i>
  <i name="version" type="string">5.4.1  </i>
  <i name="subversion" type="string">24Jun15 (build Mar 14 2019 10:18:33) complex                          parallel </i>
  <i name="platform" type="string">INTEL-19.0.2+OPENMPI-3.1.3 </i>
  <i name="date" type="string">2023 01 24 </i>
  <i name="time" type="string">11:11:06 </i>
 </generator>
 <incar>
  <i type="int" name="ISTART">     0</i>
  <i type="string" name="PREC">normal</i>
  <i type="string" name="ALGO"> Fast</i>
  <i type="int" name="NELM">   500</i>
  <i type="int" name="IBRION">     2</i>
  <i type="int" name="NFREE">     2</i>
  <i name="EDIFF">      0.00000100</i>
  <i name="EDIFFG">     -0.02000000</i>
  <i type="int" name="NSW">   500</i>
  <i type="int" name="ISIF">     0</i>
  <i type="int" name="ISYM">     2</i>
  <i name="ENCUT">    400.00000000</i>
  <i name="POTIM">      0.35000000</i>
  <i type="string" name="LREAL"> Auto</i>
  <i type="logical" name="LPLANE"> T  </i>
  <i type="int" name="ISMEAR">     0</i>
  <i name="SIGMA">      0.10000000</i>
  <i type="int" name="NWRITE">     1</i>
  <i type="logical" name="LWAVE"> F  </i>
  <i type="logical" name="LCHARG"> F  </i>
  <i type="logical" name="LVTOT"> F  </i>
  <i type="logical" name="LORBIT"> F  </i>
  <i type="logical" name="LAECHG"> F  </i>
  <v type="int" name="KPOINT_BSE">    -1     0     0     0</v>
  <i type="int" name="NELM">   500</i>
  <i type="string" name="GGA"> PE          ! optPBE-vdW XC-functional</i>
  <i type="int" name="VOSKOWN">     1</i>
  <i type="logical" name="LDIPOL"> T  </i>
  <i type="logical" name="LMONO"> F  </i>
  <i type="int" name="IDIPOL">     3</i>
  <v name="DIPOL">      0.00000000      0.00000000      0.50000000</v>
 </incar>
 <kpoints>
  <generation param="Monkhorst-Pack">
   <v type="int" name="divisions">       2        2        1 </v>
   <v name="usershift">      0.00000000       0.00000000       0.00000000 </v>
   <v name="genvec1">      0.50000000       0.00000000       0.00000000 </v>
   <v name="genvec2">      0.00000000       0.50000000       0.00000000 </v>
   <v name="genvec3">      0.00000000       0.00000000       1.00000000 </v>
   <v name="shift">      0.50000000       0.50000000       0.00000000 </v>
  </generation>
  <varray name="kpointlist" >
   <v>       0.25000000       0.25000000       0.00000000 </v>
   <v>       0.00000000       0.25000000       0.00000000 </v>
   <v>      -0.25000000       0.00000000       0.00000000 </v>
   <v>      -0.25000000       0.25000000       0.00000000 </v>
   <v>       0.50000000      -0.25000000       0.00000000 </v>
   <v>      -0.25000000       0.50000000       0.00000000 </v>
  </varray>
  <varray name="weights" >
   <v>       0.16666667 </v>
   <v>       0.16666667 </v>
   <v>       0.16666667 </v>
   <v>       0.16666667 </v>
   <v>       0.16666667 </v>
   <v>       0.16666667 </v>
  </varray>
 </kpoints>
 <parameters>
  <separator name="general" >
   <i type="string" name="SYSTEM">unknown system</i>
   <i type="logical" name="LCOMPAT"> F  </i>
  </separator>
  <separator name="electronic" >
   <i type="string" name="PREC">normal</i>
   <i name="ENMAX">    400.00000000</i>
   <i name="ENAUG">    605.39200000</i>
   <i name="EDIFF">      0.00000100</i>
   <i type="int" name="IALGO">    68</i>
   <i type="int" name="IWAVPR">    11</i>
   <i type="int" name="NBANDS">   336</i>
   <i name="NELECT">    552.00000000</i>
   <i type="int" name="TURBO">     0</i>
   <i type="int" name="IRESTART">     0</i>
   <i type="int" name="NREBOOT">     0</i>
   <i type="int" name="NMIN">     0</i>
   <i name="EREF">      0.00000000</i>
   <separator name="electronic smearing" >
    <i type="int" name="ISMEAR">     0</i>
    <i name="SIGMA">      0.10000000</i>
    <i name="KSPACING">      0.50000000</i>
    <i type="logical" name="KGAMMA"> T  </i>
   </separator>
   <separator name="electronic projectors" >
    <i type="logical" name="LREAL"> T  </i>
    <v name="ROPT">     -0.00050000     -0.00050000     -0.00050000</v>
    <i type="int" name="LMAXPAW">  -100</i>
    <i type="int" name="LMAXMIX">     2</i>
    <i type="logical" name="NLSPLINE"> F  </i>
   </separator>
   <separator name="electronic startup" >
    <i type="int" name="ISTART">     0</i>
    <i type="int" name="ICHARG">     2</i>
    <i type="int" name="INIWAV">     1</i>
   </separator>
   <separator name="electronic spin" >
    <i type="int" name="ISPIN">     1</i>
    <i type="logical" name="LNONCOLLINEAR"> F  </i>
    <v name="MAGMOM">      1.00000000      1.00000000      1.00000000      1.00000000      1.00000000      1.00000000      1.00000000      1.00000000      1.00000000      1.00000000      1.00000000      1.00000000      1.00000000      1.00000000      1.00000000      1.00000000      1.00000000      1.00000000      1.00000000      1.00000000
      1.00000000      1.00000000      1.00000000      1.00000000      1.00000000      1.00000000      1.00000000      1.00000000      1.00000000      1.00000000      1.00000000      1.00000000      1.00000000      1.00000000      1.00000000      1.00000000      1.00000000      1.00000000      1.00000000      1.00000000
      1.00000000      1.00000000      1.00000000      1.00000000      1.00000000      1.00000000      1.00000000      1.00000000      1.00000000      1.00000000      1.00000000      1.00000000      1.00000000      1.00000000      1.00000000      1.00000000</v>
    <i name="NUPDOWN">     -1.00000000</i>
    <i type="logical" name="LSORBIT"> F  </i>
    <v name="SAXIS">      0.00000000      0.00000000      1.00000000</v>
    <i type="logical" name="LSPIRAL"> F  </i>
    <v name="QSPIRAL">      0.00000000      0.00000000      0.00000000</v>
    <i type="logical" name="LZEROZ"> F  </i>
   </separator>
   <separator name="electronic exchange-correlation" >
    <i type="logical" name="LASPH"> F  </i>
    <i type="logical" name="LMETAGGA"> F  </i>
   </separator>
   <separator name="electronic convergence" >
    <i type="int" name="NELM">   500</i>
    <i type="int" name="NELMDL">    -5</i>
    <i type="int" name="NELMIN">     2</i>
    <i name="ENINI">    400.00000000</i>
    <separator name="electronic convergence detail" >
     <i type="logical" name="LDIAG"> T  </i>
     <i type="logical" name="LSUBROT"> F  </i>
     <i name="WEIMIN">      0.00100000</i>
     <i name="EBREAK">      0.00000000</i>
     <i name="DEPER">      0.30000000</i>
     <i type="int" name="NRMM">     4</i>
     <i name="TIME">      0.40000000</i>
    </separator>
   </separator>
   <separator name="electronic mixer" >
    <i name="AMIX">      0.40000000</i>
    <i name="BMIX">      1.00000000</i>
    <i name="AMIN">      0.10000000</i>
    <i name="AMIX_MAG">      1.60000000</i>
    <i name="BMIX_MAG">      1.00000000</i>
    <separator name="electronic mixer details" >
     <i type="int" name="IMIX">     4</i>
     <i type="logical" name="MIXFIRST"> F  </i>
     <i type="int" name="MAXMIX">   -45</i>
     <i name="WC">    100.00000000</i>
     <i type="int" name="INIMIX">     1</i>
     <i type="int" name="MIXPRE">     1</i>
     <i type="int" name="MREMOVE">     5</i>
    </separator>
   </separator>
   <separator name="electronic dipolcorrection" >
    <i type="logical" name="LDIPOL"> T  </i>
    <i type="logical" name="LMONO"> F  </i>
    <i type="int" name="IDIPOL">     3</i>
    <i name="EPSILON">      1.00000000</i>
    <v name="DIPOL">      0.00000000      0.00000000      0.50000000</v>
    <i name="EFIELD">      0.00000000</i>
   </separator>
  </separator>
  <separator name="grids" >
   <i type="int" name="NGX">    54</i>
   <i type="int" name="NGY">    54</i>
   <i type="int" name="NGZ">   128</i>
   <i type="int" name="NGXF">   108</i>
   <i type="int" name="NGYF">   108</i>
   <i type="int" name="NGZF">   256</i>
   <i type="logical" name="ADDGRID"> F  </i>
  </separator>
  <separator name="ionic" >
   <i type="int" name="NSW">   500</i>
   <i type="int" name="IBRION">     2</i>
   <i type="int" name="ISIF">     0</i>
   <i name="PSTRESS">      0.00000000</i>
   <i name="EDIFFG">     -0.02000000</i>
   <i type="int" name="NFREE">     2</i>
   <i name="POTIM">      0.35000000</i>
   <i name="SMASS">     -3.00000000</i>
   <i name="SCALEE">      1.00000000</i>
  </separator>
  <separator name="ionic md" >
   <i name="TEBEG">      0.00010000</i>
   <i name="TEEND">      0.00010000</i>
   <i type="int" name="NBLOCK">     1</i>
   <i type="int" name="KBLOCK">   500</i>
   <i type="int" name="NPACO">   256</i>
   <i name="APACO">     16.00000000</i>
  </separator>
  <separator name="symmetry" >
   <i type="int" name="ISYM">     2</i>
   <i name="SYMPREC">      0.00001000</i>
  </separator>
  <separator name="dos" >
   <i type="logical" name="LORBIT"> F  </i>
   <v name="RWIGS">     -1.00000000     -1.00000000     -1.00000000</v>
   <i type="int" name="NEDOS">   301</i>
   <i name="EMIN">     10.00000000</i>
   <i name="EMAX">    -10.00000000</i>
   <i name="EFERMI">      0.00000000</i>
  </separator>
  <separator name="writing" >
   <i type="int" name="NWRITE">     1</i>
   <i type="logical" name="LWAVE"> F  </i>
   <i type="logical" name="LCHARG"> F  </i>
   <i type="logical" name="LPARD"> F  </i>
   <i type="logical" name="LVTOT"> F  </i>
   <i type="logical" name="LVHAR"> F  </i>
   <i type="logical" name="LELF"> F  </i>
   <i type="logical" name="LOPTICS"> F  </i>
   <v name="STM">      0.00000000      0.00000000      0.00000000      0.00000000      0.00000000      0.00000000      0.00000000</v>
  </separator>
  <separator name="performance" >
   <i type="int" name="NPAR">     6</i>
   <i type="int" name="NSIM">     4</i>
   <i type="int" name="NBLK">    -1</i>
   <i type="logical" name="LPLANE"> T  </i>
   <i type="logical" name="LSCALAPACK"> T  </i>
   <i type="logical" name="LSCAAWARE"> F  </i>
   <i type="logical" name="LSCALU"> F  </i>
   <i type="logical" name="LASYNC"> F  </i>
   <i type="logical" name="LORBITALREAL"> F  </i>
  </separator>
  <separator name="miscellaneous" >
   <i type="int" name="IDIOT">     3</i>
   <i type="logical" name="LMUSIC"> F  </i>
   <v name="POMASS">    196.96600000     16.00000000    106.42000000</v>
   <v name="DARWINR">      0.00000000      0.00000000      0.00000000</v>
   <v name="DARWINV">      1.00000000      1.00000000      1.00000000</v>
   <i type="logical" name="LCORR"> T  </i>
  </separator>
  <i type="logical" name="GGA_COMPAT"> T  </i>
  <i type="logical" name="LBERRY"> F  </i>
  <i type="int" name="ICORELEVEL">     0</i>
  <i type="logical" name="LDAU"> F  </i>
  <i type="int" name="I_CONSTRAINED_M">     0</i>
  <separator name="electronic exchange-correlation" >
   <i type="string" name="GGA">PE</i>
   <i type="int" name="VOSKOWN">     1</i>
   <i type="logical" name="LHFCALC"> F  </i>
   <i type="string" name="PRECFOCK"></i>
   <i type="logical" name="LSYMGRAD"> F  </i>
   <i type="logical" name="LHFONE"> F  </i>
   <i type="logical" name="LRHFCALC"> F  </i>
   <i type="logical" name="LTHOMAS"> F  </i>
   <i type="logical" name="LMODELHF"> F  </i>
   <i name="ENCUT4O">     -1.00000000</i>
   <i type="int" name="EXXOEP">     0</i>
   <i type="int" name="FOURORBIT">     0</i>
   <i name="AEXX">      0.00000000</i>
   <i name="HFALPHA">      0.00000000</i>
   <i name="MCALPHA">      0.00000000</i>
   <i name="ALDAX">      1.00000000</i>
   <i name="AGGAX">      1.00000000</i>
   <i name="ALDAC">      1.00000000</i>
   <i name="AGGAC">      1.00000000</i>
   <i type="int" name="NKREDX">     1</i>
   <i type="int" name="NKREDY">     1</i>
   <i type="int" name="NKREDZ">     1</i>
   <i type="logical" name="SHIFTRED"> F  </i>
   <i type="logical" name="ODDONLY"> F  </i>
   <i type="logical" name="EVENONLY"> F  </i>
   <i type="int" name="LMAXFOCK">     0</i>
   <i type="int" name="NMAXFOCKAE">     0</i>
   <i type="logical" name="LFOCKAEDFT"> F  </i>
   <i name="HFSCREEN">      0.00000000</i>
   <i name="HFSCREENC">      0.00000000</i>
   <i type="int" name="NBANDSGWLOW">     0</i>
  </separator>
  <separator name="vdW DFT" >
   <i type="logical" name="LUSE_VDW"> F  </i>
   <i name="Zab_VDW">     -0.84910000</i>
   <i name="PARAM1">      0.12340000</i>
   <i name="PARAM2">      1.00000000</i>
   <i name="PARAM3">      0.00000000</i>
  </separator>
  <separator name="model GW" >
   <i type="int" name="MODEL_GW">     0</i>
   <i name="MODEL_EPS0">     29.42037089</i>
   <i name="MODEL_ALPHA">      1.00000000</i>
  </separator>
  <separator name="linear response parameters" >
   <i type="logical" name="LEPSILON"> F  </i>
   <i type="logical" name="LRPA"> F  </i>
   <i type="logical" name="LNABLA"> F  </i>
   <i type="logical" name="LVEL"> F  </i>
   <i type="int" name="KINTER">     0</i>
   <i name="CSHIFT">      0.10000000</i>
   <i name="OMEGAMAX">     -1.00000000</i>
   <i name="DEG_THRESHOLD">      0.00200000</i>
  </separator>
  <separator name="orbital magnetization" >
   <i type="logical" name="NUCIND"> F  </i>
   <v name="MAGPOS">      0.00000000      0.00000000      0.00000000</v>
   <i type="logical" name="LNICSALL"> T  </i>
   <i type="logical" name="ORBITALMAG"> F  </i>
   <i type="logical" name="LMAGBLOCH"> F  </i>
   <i type="logical" name="LCHIMAG"> F  </i>
   <i type="logical" name="LGAUGE"> T  </i>
   <i type="int" name="MAGATOM">     0</i>
   <v name="MAGDIPOL">      0.00000000      0.00000000      0.00000000</v>
   <v name="AVECCONST">      0.00000000      0.00000000      0.00000000</v>
  </separator>
  <separator name="response functions" >
   <i type="logical" name="LADDER"> F  </i>
   <i type="logical" name="LFXC"> F  </i>
   <i type="logical" name="LHARTREE"> T  </i>
   <i type="int" name="IBSE">     0</i>
   <v type="int" name="KPOINT">    -1     0     0     0</v>
   <i type="logical" name="LTCTE"> F  </i>
   <i type="logical" name="LTETE"> F  </i>
   <i type="logical" name="LTRIPLET"> F  </i>
   <i type="logical" name="LFXCEPS"> F  </i>
   <i type="logical" name="LFXHEG"> F  </i>
   <i type="int" name="NATURALO">     0</i>
   <i type="logical" name="L2ORDER"> F  </i>
   <i type="logical" name="LUSEW"> F  </i>
   <i name="ENCUTGW">     -2.00000000</i>
   <i name="ENCUTGWSOFT">     -2.00000000</i>
   <i name="ENCUTLF">     -1.00000000</i>
   <i type="int" name="LMAXMP2">    -1</i>
   <i name="SCISSOR">      0.00000000</i>
   <i type="int" name="NOMEGA">     0</i>
   <i type="int" name="NOMEGAR">     0</i>
   <i type="int" name="NBANDSGW">    -1</i>
   <i type="int" name="NBANDSO">    -1</i>
   <i type="int" name="NBANDSV">    -1</i>
   <i type="int" name="NELM">   500</i>
   <i type="int" name="NELMHF">     1</i>
   <i type="int" name="DIM">     3</i>
   <i type="int" name="ANTIRES">     0</i>
   <i name="OMEGAMAX">    -30.00000000</i>
   <i name="OMEGAMIN">    -30.00000000</i>
   <i name="OMEGATL">   -200.00000000</i>
   <i type="int" name="OMEGAGRID">     0</i>
   <i name="CSHIFT">     -0.10000000</i>
   <i type="logical" name="SELFENERGY"> F  </i>
   <i type="logical" name="LSPECTRAL"> F  </i>
   <i type="logical" name="LSPECTRALGW"> F  </i>
   <i type="logical" name="LSINGLES"> F  </i>
   <i type="logical" name="LFERMIGW"> F  </i>
   <i type="logical" name="ODDONLYGW"> F  </i>
   <i type="logical" name="EVENONLYGW"> F  </i>
   <i type="int" name="NKREDLFX">     1</i>
   <i type="int" name="NKREDLFY">     1</i>
   <i type="int" name="NKREDLFZ">     1</i>
   <i type="int" name="MAXMEM">  1800</i>
   <i type="int" name="TELESCOPE">     0</i>
   <i type="int" name="TAUPAR">     1</i>
   <i type="int" name="OMEGAPAR">    -1</i>
   <i name="LAMBDA">      1.00000000</i>
  </separator>
  <separator name="External order field" >
   <i name="OFIELD_KAPPA">      0.00000000</i>
   <v name="OFIELD_K">      0.00000000      0.00000000      0.00000000</v>
   <i name="OFIELD_Q6_NEAR">      0.00000000</i>
   <i name="OFIELD_Q6_FAR">      0.00000000</i>
   <i name="OFIELD_A">      0.00000000</i>
  </separator>
 </parameters>
 <atominfo>
  <atoms>      56 </atoms>
  <types>       3 </types>
  <array name="atoms" >
   <dimension dim="1">ion</dimension>
   <field type="string">element</field>
   <field type="int">atomtype</field>
   <set>
    <rc><c>Au</c><c>   1</c></rc>
    <rc><c>Au</c><c>   1</c></rc>
    <rc><c>Au</c><c>   1</c></rc>
    <rc><c>Au</c><c>   1</c></rc>
    <rc><c>Au</c><c>   1</c></rc>
    <rc><c>Au</c><c>   1</c></rc>
    <rc><c>Au</c><c>   1</c></rc>
    <rc><c>Au</c><c>   1</c></rc>
    <rc><c>Au</c><c>   1</c></rc>
    <rc><c>Au</c><c>   1</c></rc>
    <rc><c>Au</c><c>   1</c></rc>
    <rc><c>Au</c><c>   1</c></rc>
    <rc><c>Au</c><c>   1</c></rc>
    <rc><c>Au</c><c>   1</c></rc>
    <rc><c>Au</c><c>   1</c></rc>
    <rc><c>Au</c><c>   1</c></rc>
    <rc><c>Au</c><c>   1</c></rc>
    <rc><c>Au</c><c>   1</c></rc>
    <rc><c>Au</c><c>   1</c></rc>
    <rc><c>Au</c><c>   1</c></rc>
    <rc><c>Au</c><c>   1</c></rc>
    <rc><c>Au</c><c>   1</c></rc>
    <rc><c>Au</c><c>   1</c></rc>
    <rc><c>Au</c><c>   1</c></rc>
    <rc><c>O </c><c>   2</c></rc>
    <rc><c>O </c><c>   2</c></rc>
    <rc><c>O </c><c>   2</c></rc>
    <rc><c>O </c><c>   2</c></rc>
    <rc><c>O </c><c>   2</c></rc>
    <rc><c>O </c><c>   2</c></rc>
    <rc><c>O </c><c>   2</c></rc>
    <rc><c>O </c><c>   2</c></rc>
    <rc><c>Pd</c><c>   3</c></rc>
    <rc><c>Pd</c><c>   3</c></rc>
    <rc><c>Pd</c><c>   3</c></rc>
    <rc><c>Pd</c><c>   3</c></rc>
    <rc><c>Pd</c><c>   3</c></rc>
    <rc><c>Pd</c><c>   3</c></rc>
    <rc><c>Pd</c><c>   3</c></rc>
    <rc><c>Pd</c><c>   3</c></rc>
    <rc><c>Pd</c><c>   3</c></rc>
    <rc><c>Pd</c><c>   3</c></rc>
    <rc><c>Pd</c><c>   3</c></rc>
    <rc><c>Pd</c><c>   3</c></rc>
    <rc><c>Pd</c><c>   3</c></rc>
    <rc><c>Pd</c><c>   3</c></rc>
    <rc><c>Pd</c><c>   3</c></rc>
    <rc><c>Pd</c><c>   3</c></rc>
    <rc><c>Pd</c><c>   3</c></rc>
    <rc><c>Pd</c><c>   3</c></rc>
    <rc><c>Pd</c><c>   3</c></rc>
    <rc><c>Pd</c><c>   3</c></rc>
    <rc><c>Pd</c><c>   3</c></rc>
    <rc><c>Pd</c><c>   3</c></rc>
    <rc><c>Pd</c><c>   3</c></rc>
    <rc><c>Pd</c><c>   3</c></rc>
   </set>
  </array>
  <array name="atomtypes" >
   <dimension dim="1">type</dimension>
   <field type="int">atomspertype</field>
   <field type="string">element</field>
   <field>mass</field>
   <field>valence</field>
   <field type="string">pseudopotential</field>
   <set>
    <rc><c>  24</c><c>Au</c><c>    196.96600000</c><c>     11.00000000</c><c>  PAW_PBE Au 04Oct2007                  </c></rc>
    <rc><c>   8</c><c>O </c><c>     16.00000000</c><c>      6.00000000</c><c>  PAW_PBE O 08Apr2002                   </c></rc>
    <rc><c>  24</c><c>Pd</c><c>    106.42000000</c><c>     10.00000000</c><c>  PAW_PBE Pd 04Jan2005                  </c></rc>
   </set>
  </array>
 </atominfo>
 <structure name="initialpos" >
  <crystal>
   <varray name="basis" >
    <v>      11.00258152       0.00000000       0.00000000 </v>
    <v>       5.50129076       9.52851510       0.00000000 </v>
    <v>       0.00000000       0.00000000      26.19178509 </v>
   </varray>
   <i name="volume">   2745.90128299 </i>
   <varray name="rec_basis" >
    <v>       0.09088776      -0.05247407       0.00000000 </v>
    <v>       0.00000000       0.10494815       0.00000000 </v>
    <v>       0.00000000       0.00000000       0.03817991 </v>
   </varray>
  </crystal>
  <varray name="positions" >
   <v>       0.08333333       0.08333333       0.38179910 </v>
   <v>       0.33333333       0.83333333       0.38179910 </v>
   <v>       0.08333333       0.83333333       0.38179910 </v>
   <v>       0.73291257       0.51445620       0.57118026 </v>
   <v>       0.66939546       0.66670412       0.47453111 </v>
   <v>       0.75886499       0.25374921       0.56245490 </v>
   <v>       0.91688220       0.41358591       0.47483772 </v>
   <v>       0.76675109       0.00089255       0.56576415 </v>
   <v>       0.67102162       0.16360825       0.47183032 </v>
   <v>       0.08333333       0.58333333       0.38179910 </v>
   <v>       0.91704998       0.67105634       0.47606869 </v>
   <v>       0.42123629       0.91558947       0.47448742 </v>
   <v>       0.47391629       0.75643295       0.56850919 </v>
   <v>       0.01050131       0.74326818       0.57225187 </v>
   <v>       0.33333333       0.08333333       0.38179910 </v>
   <v>       0.16787299       0.16381794       0.48111335 </v>
   <v>       0.41960062       0.41379076       0.47289665 </v>
   <v>       0.50368053       0.99160401       0.56035924 </v>
   <v>       0.16897148       0.41325758       0.47509782 </v>
   <v>       0.74692498       0.73704459       0.60253051 </v>
   <v>       0.25659047       0.71748589       0.60580968 </v>
   <v>       0.33333333       0.58333333       0.38179910 </v>
   <v>       0.17022010       0.67068151       0.48274397 </v>
   <v>       0.17244140       0.91518949       0.48189042 </v>
   <v>       0.85617794       0.83316291       0.62834065 </v>
   <v>       0.27997184       0.15979745       0.63177684 </v>
   <v>       0.06232703       0.08870651       0.62666728 </v>
   <v>       0.25556257       0.83805015       0.66235228 </v>
   <v>       0.93497292       0.41456285       0.61859984 </v>
   <v>       0.57805725       0.08590695       0.61170359 </v>
   <v>       0.56686783       0.35717221       0.61118776 </v>
   <v>       0.47996942       0.87760345       0.63054562 </v>
   <v>       0.58333333       0.83333333       0.38179910 </v>
   <v>       0.49041238       0.25769690       0.57091301 </v>
   <v>       0.42064958       0.16545419       0.47438235 </v>
   <v>       0.58333333       0.08333333       0.38179910 </v>
   <v>       0.58333333       0.58333333       0.38179910 </v>
   <v>       0.24849318       0.25107847       0.56737338 </v>
   <v>       0.42232994       0.66532024       0.47615480 </v>
   <v>       0.48972953       0.50882631       0.55938241 </v>
   <v>       0.27181675       0.99168944       0.63700216 </v>
   <v>       0.24801732       0.49656553       0.56528215 </v>
   <v>       0.92173303       0.91742733       0.47692204 </v>
   <v>       0.99536439       0.50264531       0.56661743 </v>
   <v>       0.83333333       0.08333333       0.38179910 </v>
   <v>       0.00630557       0.24334507       0.57687943 </v>
   <v>       0.83333333       0.33333333       0.38179910 </v>
   <v>       0.66825785       0.41664870       0.46948146 </v>
   <v>       0.08333333       0.33333333       0.38179910 </v>
   <v>       0.83333333       0.58333333       0.38179910 </v>
   <v>       0.02418790       0.98999215       0.56948897 </v>
   <v>       0.92037805       0.16384629       0.47508847 </v>
   <v>       0.83333333       0.83333333       0.38179910 </v>
   <v>       0.67208738       0.91650016       0.47086796 </v>
   <v>       0.33333333       0.33333333       0.38179910 </v>
   <v>       0.58333333       0.33333333       0.38179910 </v>
  </varray>
  <varray name="selective"  type="logical" >
   <v type="logical" >  F  F  F </v>
   <v type="logical" >  F  F  F </v>
   <v type="logical" >  F  F  F </v>
   <v type="logical" >  T  T  T </v>
   <v type="logical" >  T  T  T </v>
   <v type="logical" >  T  T  T </v>
   <v type="logical" >  T  T  T </v>
   <v type="logical" >  T  T  T </v>
   <v type="logical" >  T  T  T </v>
   <v type="logical" >  F  F  F </v>
   <v type="logical" >  T  T  T </v>
   <v type="logical" >  T  T  T </v>
   <v type="logical" >  T  T  T </v>
   <v type="logical" >  T  T  T </v>
   <v type="logical" >  F  F  F </v>
   <v type="logical" >  T  T  T </v>
   <v type="logical" >  T  T  T </v>
   <v type="logical" >  T  T  T </v>
   <v type="logical" >  T  T  T </v>
   <v type="logical" >  T  T  T </v>
   <v type="logical" >  T  T  T </v>
   <v type="logical" >  F  F  F </v>
   <v type="logical" >  T  T  T </v>
   <v type="logical" >  T  T  T </v>
   <v type="logical" >  T  T  T </v>
   <v type="logical" >  T  T  T </v>
   <v type="logical" >  T  T  T </v>
   <v type="logical" >  T  T  T </v>
   <v type="logical" >  T  T  T </v>
   <v type="logical" >  T  T  T </v>
   <v type="logical" >  T  T  T </v>
   <v type="logical" >  T  T  T </v>
   <v type="logical" >  F  F  F </v>
   <v type="logical" >  T  T  T </v>
   <v type="logical" >  T  T  T </v>
   <v type="logical" >  F  F  F </v>
   <v type="logical" >  F  F  F </v>
   <v type="logical" >  T  T  T </v>
   <v type="logical" >  T  T  T </v>
   <v type="logical" >  T  T  T </v>
   <v type="logical" >  T  T  T </v>
   <v type="logical" >  T  T  T </v>
   <v type="logical" >  T  T  T </v>
   <v type="logical" >  T  T  T </v>
   <v type="logical" >  F  F  F </v>
   <v type="logical" >  T  T  T </v>
   <v type="logical" >  F  F  F </v>
   <v type="logical" >  T  T  T </v>
   <v type="logical" >  F  F  F </v>
   <v type="logical" >  F  F  F </v>
   <v type="logical" >  T  T  T </v>
   <v type="logical" >  T  T  T </v>
   <v type="logical" >  F  F  F </v>
   <v type="logical" >  T  T  T </v>
   <v type="logical" >  F  F  F </v>
   <v type="logical" >  F  F  F </v>
  </varray>
  <nose>
   <v>      -3.00000000       0.00000000       0.00010000       0.00010000 </v>
  </nose>
 </structure>
 <calculation>
  <scstep>
   <time name="dav">    8.21    8.31</time>
   <time name="total">    8.28    8.41</time>
   <dipole>
    <v name="dipole">      0.00000000       0.00000000       0.00008790 </v>
    <i name="Tr[quadrupol]"> -11030.03051910 </i>
    <i name="Echarged">      0.00000000 </i>
    <i name="Edipol_quadrupol">      0.00000000 </i>
    <i name="Eion">      0.00000000 </i>
   </dipole>
   <energy>
    <i name="alphaZ">    862.57721235 </i>
    <i name="ewald"> 234200.18745073 </i>
    <i name="hartreedc">-279831.63725310 </i>
    <i name="XCdc">   -117.22479970 </i>
    <i name="pawpsdc">  43112.45544455 </i>
    <i name="pawaedc"> -41079.41300390 </i>
    <i name="eentropy">     -0.12641575 </i>
    <i name="bandstr">   1347.50630123 </i>
    <i name="atom">  45117.89144060 </i>
    <i name="e_fr_energy">   3612.21637702 </i>
    <i name="e_wo_entrp">   3612.34279277 </i>
    <i name="e_0_energy">   3612.27958489 </i>
   </energy>
  </scstep>
  <scstep>
   <time name="dav">    9.66    9.69</time>
   <time name="total">    9.67    9.70</time>
   <dipole>
    <v name="dipole">      0.00000000       0.00000000       0.00008790 </v>
    <i name="Tr[quadrupol]"> -11030.03051910 </i>
    <i name="Echarged">      0.00000000 </i>
    <i name="Edipol_quadrupol">      0.00000000 </i>
    <i name="Eion">      0.00000000 </i>
   </dipole>
   <energy>
    <i name="e_fr_energy">     51.83705771 </i>
    <i name="e_wo_entrp">     51.98013036 </i>
    <i name="e_0_energy">     51.90859404 </i>
   </energy>
  </scstep>
  <scstep>
   <time name="dav">    9.73    9.75</time>
   <time name="total">    9.73    9.76</time>
   <dipole>
    <v name="dipole">      0.00000000       0.00000000       0.00008790 </v>
    <i name="Tr[quadrupol]"> -11030.03051910 </i>
    <i name="Echarged">      0.00000000 </i>
    <i name="Edipol_quadrupol">      0.00000000 </i>
    <i name="Eion">      0.00000000 </i>
   </dipole>
   <energy>
    <i name="e_fr_energy">   -253.89041346 </i>
    <i name="e_wo_entrp">   -253.60456564 </i>
    <i name="e_0_energy">   -253.74748955 </i>
   </energy>
  </scstep>
  <scstep>
   <time name="dav">    9.63    9.68</time>
   <time name="total">    9.63    9.69</time>
   <dipole>
    <v name="dipole">      0.00000000       0.00000000       0.00008790 </v>
    <i name="Tr[quadrupol]"> -11030.03051910 </i>
    <i name="Echarged">      0.00000000 </i>
    <i name="Edipol_quadrupol">      0.00000000 </i>
    <i name="Eion">      0.00000000 </i>
   </dipole>
   <energy>
    <i name="e_fr_energy">   -264.40217045 </i>
    <i name="e_wo_entrp">   -264.10182245 </i>
    <i name="e_0_energy">   -264.25199645 </i>
   </energy>
  </scstep>
  <scstep>
   <time name="dav">    9.69    9.79</time>
   <time name="total">    9.97   10.07</time>
   <dipole>
    <v name="dipole">      0.00000000       0.00000000       0.00008790 </v>
    <i name="Tr[quadrupol]"> -11030.03051910 </i>
    <i name="Echarged">      0.00000000 </i>
    <i name="Edipol_quadrupol">      0.00000000 </i>
    <i name="Eion">      0.00000000 </i>
   </dipole>
   <energy>
    <i name="e_fr_energy">   -264.68282665 </i>
    <i name="e_wo_entrp">   -264.38223766 </i>
    <i name="e_0_energy">   -264.53253215 </i>
   </energy>
  </scstep>
  <scstep>
   <time name="diag">    1.49    1.50</time>
   <time name="diis">    4.04    4.05</time>
   <time name="orth">    0.37    0.37</time>
   <time name="total">    6.24    6.26</time>
   <dipole>
    <v name="dipole">      0.00000000       0.00000000       0.52309797 </v>
    <i name="Tr[quadrupol]"> -11023.32080385 </i>
    <i name="Echarged">      0.00000000 </i>
    <i name="Edipol_quadrupol">      0.00000000 </i>
    <i name="Eion">      0.00000000 </i>
   </dipole>
   <energy>
    <i name="e_fr_energy">   -251.61593854 </i>
    <i name="e_wo_entrp">   -251.39374127 </i>
    <i name="e_0_energy">   -251.50483990 </i>
   </energy>
  </scstep>
  <scstep>
   <time name="diag">    1.49    1.50</time>
   <time name="diis">    4.09    4.10</time>
   <time name="orth">    0.37    0.37</time>
   <time name="total">    6.28    6.30</time>
   <dipole>
    <v name="dipole">      0.00000000       0.00000000      -0.52465822 </v>
    <i name="Tr[quadrupol]"> -11029.89693159 </i>
    <i name="Echarged">      0.00000000 </i>
    <i name="Edipol_quadrupol">      0.00000000 </i>
    <i name="Eion">      0.00000000 </i>
   </dipole>
   <energy>
    <i name="e_fr_energy">   -243.37502260 </i>
    <i name="e_wo_entrp">   -243.09598178 </i>
    <i name="e_0_energy">   -243.23550219 </i>
   </energy>
  </scstep>
  <scstep>
   <time name="diag">    1.49    1.49</time>
   <time name="diis">    4.03    4.04</time>
   <time name="orth">    0.37    0.37</time>
   <time name="total">    6.22    6.24</time>
   <dipole>
    <v name="dipole">      0.00000000       0.00000000       2.33882610 </v>
    <i name="Tr[quadrupol]"> -11028.50753703 </i>
    <i name="Echarged">      0.00000000 </i>
    <i name="Edipol_quadrupol">      0.00000000 </i>
    <i name="Eion">      0.00000000 </i>
   </dipole>
   <energy>
    <i name="e_fr_energy">   -279.77479391 </i>
    <i name="e_wo_entrp">   -279.59212430 </i>
    <i name="e_0_energy">   -279.68345911 </i>
   </energy>
  </scstep>
  <scstep>
   <time name="diag">    1.49    1.49</time>
   <time name="diis">    4.03    4.04</time>
   <time name="orth">    0.37    0.37</time>
   <time name="total">    6.22    6.24</time>
   <dipole>
    <v name="dipole">      0.00000000       0.00000000      -1.28937999 </v>
    <i name="Tr[quadrupol]"> -11025.99292172 </i>
    <i name="Echarged">      0.00000000 </i>
    <i name="Edipol_quadrupol">      0.00000000 </i>
    <i name="Eion">      0.00000000 </i>
   </dipole>
   <energy>
    <i name="e_fr_energy">   -287.80209500 </i>
    <i name="e_wo_entrp">   -287.60333714 </i>
    <i name="e_0_energy">   -287.70271607 </i>
   </energy>
  </scstep>
  <scstep>
   <time name="diag">    1.48    1.49</time>
   <time name="diis">    4.06    4.07</time>
   <time name="orth">    0.37    0.37</time>
   <time name="total">    6.24    6.26</time>
   <dipole>
    <v name="dipole">      0.00000000       0.00000000       0.08461530 </v>
    <i name="Tr[quadrupol]"> -11027.97794722 </i>
    <i name="Echarged">      0.00000000 </i>
    <i name="Edipol_quadrupol">      0.00000000 </i>
    <i name="Eion">      0.00000000 </i>
   </dipole>
   <energy>
    <i name="e_fr_energy">   -245.60089527 </i>
    <i name="e_wo_entrp">   -245.35364441 </i>
    <i name="e_0_energy">   -245.47726984 </i>
   </energy>
  </scstep>
  <scstep>
   <time name="diag">    1.50    1.51</time>
   <time name="diis">    4.06    4.10</time>
   <time name="orth">    0.35    0.38</time>
   <time name="total">    6.24    6.34</time>
   <dipole>
    <v name="dipole">      0.00000000       0.00000000       0.00652067 </v>
    <i name="Tr[quadrupol]"> -11028.27467795 </i>
    <i name="Echarged">      0.00000000 </i>
    <i name="Edipol_quadrupol">      0.00000000 </i>
    <i name="Eion">      0.00000000 </i>
   </dipole>
   <energy>
    <i name="e_fr_energy">   -234.54060548 </i>
    <i name="e_wo_entrp">   -234.35792946 </i>
    <i name="e_0_energy">   -234.44926747 </i>
   </energy>
  </scstep>
  <scstep>
   <time name="diag">    1.48    1.49</time>
   <time name="diis">    4.03    4.03</time>
   <time name="orth">    0.37    0.37</time>
   <time name="total">    6.21    6.23</time>
   <dipole>
    <v name="dipole">      0.00000000       0.00000000       0.49868714 </v>
    <i name="Tr[quadrupol]"> -11028.46116013 </i>
    <i name="Echarged">      0.00000000 </i>
    <i name="Edipol_quadrupol">      0.00000000 </i>
    <i name="Eion">      0.00000000 </i>
   </dipole>
   <energy>
    <i name="e_fr_energy">   -231.67025497 </i>
    <i name="e_wo_entrp">   -231.47548201 </i>
    <i name="e_0_energy">   -231.57286849 </i>
   </energy>
  </scstep>
  <scstep>
   <time name="diag">    1.47    1.49</time>
   <time name="diis">    4.02    4.04</time>
   <time name="orth">    0.37    0.37</time>
   <time name="total">    6.18    6.23</time>
   <dipole>
    <v name="dipole">      0.00000000       0.00000000       0.52549748 </v>
    <i name="Tr[quadrupol]"> -11028.51042585 </i>
    <i name="Echarged">      0.00000000 </i>
    <i name="Edipol_quadrupol">      0.00000000 </i>
    <i name="Eion">      0.00000000 </i>
   </dipole>
   <energy>
    <i name="e_fr_energy">   -231.12497754 </i>
    <i name="e_wo_entrp">   -230.93662116 </i>
    <i name="e_0_energy">   -231.03079935 </i>
   </energy>
  </scstep>
  <scstep>
   <time name="diag">    1.48    1.48</time>
   <time name="diis">    4.11    4.12</time>
   <time name="orth">    0.36    0.36</time>
   <time name="total">    6.28    6.30</time>
   <dipole>
    <v name="dipole">      0.00000000       0.00000000       0.60230080 </v>
    <i name="Tr[quadrupol]"> -11028.88089325 </i>
    <i name="Echarged">      0.00000000 </i>
    <i name="Edipol_quadrupol">      0.00000000 </i>
    <i name="Eion">      0.00000000 </i>
   </dipole>
   <energy>
    <i name="e_fr_energy">   -230.98957550 </i>
    <i name="e_wo_entrp">   -230.81443513 </i>
    <i name="e_0_energy">   -230.90200532 </i>
   </energy>
  </scstep>
  <scstep>
   <time name="diag">    1.49    1.50</time>
   <time name="diis">    4.05    4.06</time>
   <time name="orth">    0.36    0.36</time>
   <time name="total">    6.23    6.25</time>
   <dipole>
    <v name="dipole">      0.00000000       0.00000000       0.56560408 </v>
    <i name="Tr[quadrupol]"> -11028.97823653 </i>
    <i name="Echarged">      0.00000000 </i>
    <i name="Edipol_quadrupol">      0.00000000 </i>
    <i name="Eion">      0.00000000 </i>
   </dipole>
   <energy>
    <i name="e_fr_energy">   -230.73999375 </i>
    <i name="e_wo_entrp">   -230.54084539 </i>
    <i name="e_0_energy">   -230.64041957 </i>
   </energy>
  </scstep>
  <scstep>
   <time name="diag">    1.48    1.49</time>
   <time name="diis">    4.08    4.09</time>
   <time name="orth">    0.36    0.36</time>
   <time name="total">    6.24    6.26</time>
   <dipole>
    <v name="dipole">      0.00000000       0.00000000       0.58721444 </v>
    <i name="Tr[quadrupol]"> -11029.43313222 </i>
    <i name="Echarged">      0.00000000 </i>
    <i name="Edipol_quadrupol">      0.00000000 </i>
    <i name="Eion">      0.00000000 </i>
   </dipole>
   <energy>
    <i name="e_fr_energy">   -230.75306812 </i>
    <i name="e_wo_entrp">   -230.53967149 </i>
    <i name="e_0_energy">   -230.64636981 </i>
   </energy>
  </scstep>
  <scstep>
   <time name="diag">    1.48    1.48</time>
   <time name="diis">    4.10    4.11</time>
   <time name="orth">    0.35    0.35</time>
   <time name="total">    6.26    6.28</time>
   <dipole>
    <v name="dipole">      0.00000000       0.00000000       0.57942904 </v>
    <i name="Tr[quadrupol]"> -11029.51116401 </i>
    <i name="Echarged">      0.00000000 </i>
    <i name="Edipol_quadrupol">      0.00000000 </i>
    <i name="Eion">      0.00000000 </i>
   </dipole>
   <energy>
    <i name="e_fr_energy">   -230.61270421 </i>
    <i name="e_wo_entrp">   -230.39499138 </i>
    <i name="e_0_energy">   -230.50384780 </i>
   </energy>
  </scstep>
  <scstep>
   <time name="diag">    1.47    1.49</time>
   <time name="diis">    3.97    4.05</time>
   <time name="orth">    0.35    0.35</time>
   <time name="total">    6.12    6.22</time>
   <dipole>
    <v name="dipole">      0.00000000       0.00000000       0.58474437 </v>
    <i name="Tr[quadrupol]"> -11029.58862536 </i>
    <i name="Echarged">      0.00000000 </i>
    <i name="Edipol_quadrupol">      0.00000000 </i>
    <i name="Eion">      0.00000000 </i>
   </dipole>
   <energy>
    <i name="e_fr_energy">   -230.59563024 </i>
    <i name="e_wo_entrp">   -230.37302176 </i>
    <i name="e_0_energy">   -230.48432600 </i>
   </energy>
  </scstep>
  <scstep>
   <time name="diag">    1.48    1.48</time>
   <time name="diis">    4.10    4.11</time>
   <time name="orth">    0.35    0.35</time>
   <time name="total">    6.26    6.28</time>
   <dipole>
    <v name="dipole">      0.00000000       0.00000000       0.60107911 </v>
    <i name="Tr[quadrupol]"> -11029.67294262 </i>
    <i name="Echarged">      0.00000000 </i>
    <i name="Edipol_quadrupol">      0.00000000 </i>
    <i name="Eion">      0.00000000 </i>
   </dipole>
   <energy>
    <i name="e_fr_energy">   -230.57027449 </i>
    <i name="e_wo_entrp">   -230.34789121 </i>
    <i name="e_0_energy">   -230.45908285 </i>
   </energy>
  </scstep>
  <scstep>
   <time name="diag">    1.47    1.48</time>
   <time name="diis">    4.06    4.07</time>
   <time name="orth">    0.35    0.36</time>
   <time name="total">    6.22    6.24</time>
   <dipole>
    <v name="dipole">      0.00000000       0.00000000       0.61052534 </v>
    <i name="Tr[quadrupol]"> -11029.79411612 </i>
    <i name="Echarged">      0.00000000 </i>
    <i name="Edipol_quadrupol">      0.00000000 </i>
    <i name="Eion">      0.00000000 </i>
   </dipole>
   <energy>
    <i name="e_fr_energy">   -230.55213650 </i>
    <i name="e_wo_entrp">   -230.32915284 </i>
    <i name="e_0_energy">   -230.44064467 </i>
   </energy>
  </scstep>
  <scstep>
   <time name="diag">    1.47    1.47</time>
   <time name="diis">    4.10    4.11</time>
   <time name="orth">    0.35    0.35</time>
   <time name="total">    6.25    6.27</time>
   <dipole>
    <v name="dipole">      0.00000000       0.00000000       0.62605908 </v>
    <i name="Tr[quadrupol]"> -11029.93518953 </i>
    <i name="Echarged">      0.00000000 </i>
    <i name="Edipol_quadrupol">      0.00000000 </i>
    <i name="Eion">      0.00000000 </i>
   </dipole>
   <energy>
    <i name="e_fr_energy">   -230.53875678 </i>
    <i name="e_wo_entrp">   -230.31475478 </i>
    <i name="e_0_energy">   -230.42675578 </i>
   </energy>
  </scstep>
  <scstep>
   <time name="diag">    1.47    1.48</time>
   <time name="diis">    4.04    4.07</time>
   <time name="orth">    0.35    0.35</time>
   <time name="total">    6.20    6.24</time>
   <dipole>
    <v name="dipole">      0.00000000       0.00000000       0.62790511 </v>
    <i name="Tr[quadrupol]"> -11030.02834228 </i>
    <i name="Echarged">      0.00000000 </i>
    <i name="Edipol_quadrupol">      0.00000000 </i>
    <i name="Eion">      0.00000000 </i>
   </dipole>
   <energy>
    <i name="e_fr_energy">   -230.53348658 </i>
    <i name="e_wo_entrp">   -230.30850591 </i>
    <i name="e_0_energy">   -230.42099624 </i>
   </energy>
  </scstep>
  <scstep>
   <time name="diag">    1.47    1.48</time>
   <time name="diis">    4.09    4.10</time>
   <time name="orth">    0.35    0.35</time>
   <time name="total">    6.24    6.26</time>
   <dipole>
    <v name="dipole">      0.00000000       0.00000000       0.63517398 </v>
    <i name="Tr[quadrupol]"> -11030.10978397 </i>
    <i name="Echarged">      0.00000000 </i>
    <i name="Edipol_quadrupol">      0.00000000 </i>
    <i name="Eion">      0.00000000 </i>
   </dipole>
   <energy>
    <i name="e_fr_energy">   -230.53187264 </i>
    <i name="e_wo_entrp">   -230.30689454 </i>
    <i name="e_0_energy">   -230.41938359 </i>
   </energy>
  </scstep>
  <scstep>
   <time name="diag">    1.47    1.49</time>
   <time name="diis">    3.99    4.09</time>
   <time name="orth">    0.35    0.35</time>
   <time name="total">    6.14    6.26</time>
   <dipole>
    <v name="dipole">      0.00000000       0.00000000       0.64085102 </v>
    <i name="Tr[quadrupol]"> -11030.19493351 </i>
    <i name="Echarged">      0.00000000 </i>
    <i name="Edipol_quadrupol">      0.00000000 </i>
    <i name="Eion">      0.00000000 </i>
   </dipole>
   <energy>
    <i name="e_fr_energy">   -230.53147608 </i>
    <i name="e_wo_entrp">   -230.30578390 </i>
    <i name="e_0_energy">   -230.41862999 </i>
   </energy>
  </scstep>
  <scstep>
   <time name="diag">    1.47    1.47</time>
   <time name="diis">    4.05    4.06</time>
   <time name="orth">    0.35    0.35</time>
   <time name="total">    6.20    6.22</time>
   <dipole>
    <v name="dipole">      0.00000000       0.00000000       0.65120481 </v>
    <i name="Tr[quadrupol]"> -11030.28248161 </i>
    <i name="Echarged">      0.00000000 </i>
    <i name="Edipol_quadrupol">      0.00000000 </i>
    <i name="Eion">      0.00000000 </i>
   </dipole>
   <energy>
    <i name="e_fr_energy">   -230.53150999 </i>
    <i name="e_wo_entrp">   -230.30575807 </i>
    <i name="e_0_energy">   -230.41863403 </i>
   </energy>
  </scstep>
  <scstep>
   <time name="diag">    1.47    1.47</time>
   <time name="diis">    4.05    4.06</time>
   <time name="orth">    0.35    0.35</time>
   <time name="total">    6.21    6.23</time>
   <dipole>
    <v name="dipole">      0.00000000       0.00000000       0.65584766 </v>
    <i name="Tr[quadrupol]"> -11030.33183657 </i>
    <i name="Echarged">      0.00000000 </i>
    <i name="Edipol_quadrupol">      0.00000000 </i>
    <i name="Eion">      0.00000000 </i>
   </dipole>
   <energy>
    <i name="e_fr_energy">   -230.53157669 </i>
    <i name="e_wo_entrp">   -230.30575022 </i>
    <i name="e_0_energy">   -230.41866346 </i>
   </energy>
  </scstep>
  <scstep>
   <time name="diag">    1.47    1.47</time>
   <time name="diis">    4.13    4.14</time>
   <time name="orth">    0.35    0.35</time>
   <time name="total">    6.28    6.30</time>
   <dipole>
    <v name="dipole">      0.00000000       0.00000000       0.66142859 </v>
    <i name="Tr[quadrupol]"> -11030.38775599 </i>
    <i name="Echarged">      0.00000000 </i>
    <i name="Edipol_quadrupol">      0.00000000 </i>
    <i name="Eion">      0.00000000 </i>
   </dipole>
   <energy>
    <i name="e_fr_energy">   -230.53182473 </i>
    <i name="e_wo_entrp">   -230.30597100 </i>
    <i name="e_0_energy">   -230.41889787 </i>
   </energy>
  </scstep>
  <scstep>
   <time name="diag">    1.47    1.47</time>
   <time name="diis">    4.08    4.09</time>
   <time name="orth">    0.35    0.35</time>
   <time name="total">    6.22    6.24</time>
   <dipole>
    <v name="dipole">      0.00000000       0.00000000       0.66413955 </v>
    <i name="Tr[quadrupol]"> -11030.41810321 </i>
    <i name="Echarged">      0.00000000 </i>
    <i name="Edipol_quadrupol">      0.00000000 </i>
    <i name="Eion">      0.00000000 </i>
   </dipole>
   <energy>
    <i name="e_fr_energy">   -230.53198031 </i>
    <i name="e_wo_entrp">   -230.30603330 </i>
    <i name="e_0_energy">   -230.41900681 </i>
   </energy>
  </scstep>
  <scstep>
   <time name="diag">    1.47    1.47</time>
   <time name="diis">    4.00    4.01</time>
   <time name="orth">    0.35    0.35</time>
   <time name="total">    6.15    6.16</time>
   <dipole>
    <v name="dipole">      0.00000000       0.00000000       0.66779634 </v>
    <i name="Tr[quadrupol]"> -11030.45137393 </i>
    <i name="Echarged">      0.00000000 </i>
    <i name="Edipol_quadrupol">      0.00000000 </i>
    <i name="Eion">      0.00000000 </i>
   </dipole>
   <energy>
    <i name="e_fr_energy">   -230.53215628 </i>
    <i name="e_wo_entrp">   -230.30620038 </i>
    <i name="e_0_energy">   -230.41917833 </i>
   </energy>
  </scstep>
  <scstep>
   <time name="diag">    1.47    1.48</time>
   <time name="diis">    3.98    3.99</time>
   <time name="orth">    0.35    0.35</time>
   <time name="total">    6.13    6.15</time>
   <dipole>
    <v name="dipole">      0.00000000       0.00000000       0.67339086 </v>
    <i name="Tr[quadrupol]"> -11030.50080588 </i>
    <i name="Echarged">      0.00000000 </i>
    <i name="Edipol_quadrupol">      0.00000000 </i>
    <i name="Eion">      0.00000000 </i>
   </dipole>
   <energy>
    <i name="e_fr_energy">   -230.53244640 </i>
    <i name="e_wo_entrp">   -230.30647553 </i>
    <i name="e_0_energy">   -230.41946096 </i>
   </energy>
  </scstep>
  <scstep>
   <time name="diag">    1.44    1.53</time>
   <time name="diis">    3.72    3.73</time>
   <time name="orth">    0.35    0.35</time>
   <time name="total">    5.84    5.94</time>
   <dipole>
    <v name="dipole">      0.00000000       0.00000000       0.67910836 </v>
    <i name="Tr[quadrupol]"> -11030.54639372 </i>
    <i name="Echarged">      0.00000000 </i>
    <i name="Edipol_quadrupol">      0.00000000 </i>
    <i name="Eion">      0.00000000 </i>
   </dipole>
   <energy>
    <i name="e_fr_energy">   -230.53269743 </i>
    <i name="e_wo_entrp">   -230.30673637 </i>
    <i name="e_0_energy">   -230.41971690 </i>
   </energy>
  </scstep>
  <scstep>
   <time name="diag">    1.46    1.47</time>
   <time name="diis">    3.61    3.62</time>
   <time name="orth">    0.35    0.35</time>
   <time name="total">    5.75    5.77</time>
   <dipole>
    <v name="dipole">      0.00000000       0.00000000       0.68487141 </v>
    <i name="Tr[quadrupol]"> -11030.59060820 </i>
    <i name="Echarged">      0.00000000 </i>
    <i name="Edipol_quadrupol">      0.00000000 </i>
    <i name="Eion">      0.00000000 </i>
   </dipole>
   <energy>
    <i name="e_fr_energy">   -230.53291537 </i>
    <i name="e_wo_entrp">   -230.30692102 </i>
    <i name="e_0_energy">   -230.41991820 </i>
   </energy>
  </scstep>
  <scstep>
   <time name="diag">    1.47    1.47</time>
   <time name="diis">    3.45    3.46</time>
   <time name="orth">    0.35    0.35</time>
   <time name="total">    5.60    5.62</time>
   <dipole>
    <v name="dipole">      0.00000000       0.00000000       0.69107796 </v>
    <i name="Tr[quadrupol]"> -11030.63554218 </i>
    <i name="Echarged">      0.00000000 </i>
    <i name="Edipol_quadrupol">      0.00000000 </i>
    <i name="Eion">      0.00000000 </i>
   </dipole>
   <energy>
    <i name="e_fr_energy">   -230.53308949 </i>
    <i name="e_wo_entrp">   -230.30710361 </i>
    <i name="e_0_energy">   -230.42009655 </i>
   </energy>
  </scstep>
  <scstep>
   <time name="diag">    1.48    1.48</time>
   <time name="diis">    3.14    3.15</time>
   <time name="orth">    0.35    0.35</time>
   <time name="total">    5.30    5.33</time>
   <dipole>
    <v name="dipole">      0.00000000       0.00000000       0.69539249 </v>
    <i name="Tr[quadrupol]"> -11030.66468563 </i>
    <i name="Echarged">      0.00000000 </i>
    <i name="Edipol_quadrupol">      0.00000000 </i>
    <i name="Eion">      0.00000000 </i>
   </dipole>
   <energy>
    <i name="e_fr_energy">   -230.53317517 </i>
    <i name="e_wo_entrp">   -230.30715625 </i>
    <i name="e_0_energy">   -230.42016571 </i>
   </energy>
  </scstep>
  <scstep>
   <time name="diag">    1.48    1.48</time>
   <time name="diis">    2.95    2.96</time>
   <time name="orth">    0.35    0.36</time>
   <time name="total">    5.12    5.13</time>
   <dipole>
    <v name="dipole">      0.00000000       0.00000000       0.69960997 </v>
    <i name="Tr[quadrupol]"> -11030.69048101 </i>
    <i name="Echarged">      0.00000000 </i>
    <i name="Edipol_quadrupol">      0.00000000 </i>
    <i name="Eion">      0.00000000 </i>
   </dipole>
   <energy>
    <i name="e_fr_energy">   -230.53323017 </i>
    <i name="e_wo_entrp">   -230.30719542 </i>
    <i name="e_0_energy">   -230.42021279 </i>
   </energy>
  </scstep>
  <scstep>
   <time name="diag">    1.47    1.47</time>
   <time name="diis">    2.53    2.54</time>
   <time name="orth">    0.35    0.35</time>
   <time name="total">    4.69    4.70</time>
   <dipole>
    <v name="dipole">      0.00000000       0.00000000       0.70122451 </v>
    <i name="Tr[quadrupol]"> -11030.69862191 </i>
    <i name="Echarged">      0.00000000 </i>
    <i name="Edipol_quadrupol">      0.00000000 </i>
    <i name="Eion">      0.00000000 </i>
   </dipole>
   <energy>
    <i name="e_fr_energy">   -230.53324947 </i>
    <i name="e_wo_entrp">   -230.30721849 </i>
    <i name="e_0_energy">   -230.42023398 </i>
   </energy>
  </scstep>
  <scstep>
   <time name="diag">    1.47    1.47</time>
   <time name="diis">    2.49    2.50</time>
   <time name="orth">    0.35    0.35</time>
   <time name="total">    4.65    4.66</time>
   <dipole>
    <v name="dipole">      0.00000000       0.00000000       0.70333443 </v>
    <i name="Tr[quadrupol]"> -11030.70679870 </i>
    <i name="Echarged">      0.00000000 </i>
    <i name="Edipol_quadrupol">      0.00000000 </i>
    <i name="Eion">      0.00000000 </i>
   </dipole>
   <energy>
    <i name="e_fr_energy">   -230.53328164 </i>
    <i name="e_wo_entrp">   -230.30725074 </i>
    <i name="e_0_energy">   -230.42026619 </i>
   </energy>
  </scstep>
  <scstep>
   <time name="diag">    1.47    1.48</time>
   <time name="diis">    2.40    2.48</time>
   <time name="orth">    0.35    0.36</time>
   <time name="total">    4.56    4.66</time>
   <dipole>
    <v name="dipole">      0.00000000       0.00000000       0.70475376 </v>
    <i name="Tr[quadrupol]"> -11030.71128428 </i>
    <i name="Echarged">      0.00000000 </i>
    <i name="Edipol_quadrupol">      0.00000000 </i>
    <i name="Eion">      0.00000000 </i>
   </dipole>
   <energy>
    <i name="e_fr_energy">   -230.53330404 </i>
    <i name="e_wo_entrp">   -230.30726762 </i>
    <i name="e_0_energy">   -230.42028583 </i>
   </energy>
  </scstep>
  <scstep>
   <time name="diag">    1.47    1.48</time>
   <time name="diis">    2.47    2.48</time>
   <time name="orth">    0.35    0.35</time>
   <time name="total">    4.63    4.65</time>
   <dipole>
    <v name="dipole">      0.00000000       0.00000000       0.70667275 </v>
    <i name="Tr[quadrupol]"> -11030.71683941 </i>
    <i name="Echarged">      0.00000000 </i>
    <i name="Edipol_quadrupol">      0.00000000 </i>
    <i name="Eion">      0.00000000 </i>
   </dipole>
   <energy>
    <i name="e_fr_energy">   -230.53333050 </i>
    <i name="e_wo_entrp">   -230.30728824 </i>
    <i name="e_0_energy">   -230.42030937 </i>
   </energy>
  </scstep>
  <scstep>
   <time name="diag">    1.47    1.47</time>
   <time name="diis">    2.41    2.41</time>
   <time name="orth">    0.35    0.35</time>
   <time name="total">    4.56    4.57</time>
   <dipole>
    <v name="dipole">      0.00000000       0.00000000       0.70779743 </v>
    <i name="Tr[quadrupol]"> -11030.72018939 </i>
    <i name="Echarged">      0.00000000 </i>
    <i name="Edipol_quadrupol">      0.00000000 </i>
    <i name="Eion">      0.00000000 </i>
   </dipole>
   <energy>
    <i name="e_fr_energy">   -230.53334149 </i>
    <i name="e_wo_entrp">   -230.30729211 </i>
    <i name="e_0_energy">   -230.42031680 </i>
   </energy>
  </scstep>
  <scstep>
   <time name="diag">    1.47    1.47</time>
   <time name="diis">    2.08    2.09</time>
   <time name="orth">    0.35    0.35</time>
   <time name="total">    4.23    4.25</time>
   <dipole>
    <v name="dipole">      0.00000000       0.00000000       0.70860284 </v>
    <i name="Tr[quadrupol]"> -11030.72257046 </i>
    <i name="Echarged">      0.00000000 </i>
    <i name="Edipol_quadrupol">      0.00000000 </i>
    <i name="Eion">      0.00000000 </i>
   </dipole>
   <energy>
    <i name="e_fr_energy">   -230.53334690 </i>
    <i name="e_wo_entrp">   -230.30729549 </i>
    <i name="e_0_energy">   -230.42032119 </i>
   </energy>
  </scstep>
  <scstep>
   <time name="diag">    1.48    1.48</time>
   <time name="diis">    2.15    2.16</time>
   <time name="orth">    0.35    0.35</time>
   <time name="total">    4.32    4.33</time>
   <dipole>
    <v name="dipole">      0.00000000       0.00000000       0.70905109 </v>
    <i name="Tr[quadrupol]"> -11030.72382303 </i>
    <i name="Echarged">      0.00000000 </i>
    <i name="Edipol_quadrupol">      0.00000000 </i>
    <i name="Eion">      0.00000000 </i>
   </dipole>
   <energy>
    <i name="e_fr_energy">   -230.53334933 </i>
    <i name="e_wo_entrp">   -230.30729515 </i>
    <i name="e_0_energy">   -230.42032224 </i>
   </energy>
  </scstep>
  <scstep>
   <time name="diag">    1.48    1.48</time>
   <time name="diis">    1.81    1.81</time>
   <time name="orth">    0.35    0.35</time>
   <time name="total">    3.69    3.70</time>
   <dipole>
    <v name="dipole">      0.00000000       0.00000000       0.70925263 </v>
    <i name="Tr[quadrupol]"> -11030.72444384 </i>
    <i name="Echarged">      0.00000000 </i>
    <i name="Edipol_quadrupol">      0.00000000 </i>
    <i name="Eion">      0.00000000 </i>
   </dipole>
   <energy>
    <i name="alphaZ">    868.45806173 </i>
    <i name="ewald"> 234200.18745073 </i>
    <i name="hartreedc">-279423.82043321 </i>
    <i name="XCdc">   -129.04896862 </i>
    <i name="pawpsdc">  51972.42146672 </i>
    <i name="pawaedc"> -50062.75354925 </i>
    <i name="eentropy">     -0.22605638 </i>
    <i name="bandstr">  -2773.64276252 </i>
    <i name="atom">  45117.89144060 </i>
    <i name="e_fr_energy">   -230.53335021 </i>
    <i name="e_wo_entrp">   -230.30729383 </i>
    <i name="e_0_energy">   -230.42032202 </i>
   </energy>
  </scstep>
  <structure>
   <crystal>
    <varray name="basis" >
     <v>      11.00258152       0.00000000       0.00000000 </v>
     <v>       5.50129076       9.52851510       0.00000000 </v>
     <v>       0.00000000       0.00000000      26.19178509 </v>
    </varray>
    <i name="volume">   2745.90128299 </i>
    <varray name="rec_basis" >
     <v>       0.09088776      -0.05247407       0.00000000 </v>
     <v>       0.00000000       0.10494815       0.00000000 </v>
     <v>       0.00000000       0.00000000       0.03817991 </v>
    </varray>
   </crystal>
   <varray name="positions" >
    <v>       0.08333333       0.08333333       0.38179910 </v>
    <v>       0.33333333       0.83333333       0.38179910 </v>
    <v>       0.08333333       0.83333333       0.38179910 </v>
    <v>       0.73291257       0.51445620       0.57118026 </v>
    <v>       0.66939546       0.66670412       0.47453111 </v>
    <v>       0.75886499       0.25374921       0.56245490 </v>
    <v>       0.91688220       0.41358591       0.47483772 </v>
    <v>       0.76675109       0.00089255       0.56576415 </v>
    <v>       0.67102162       0.16360825       0.47183032 </v>
    <v>       0.08333333       0.58333333       0.38179910 </v>
    <v>       0.91704998       0.67105634       0.47606869 </v>
    <v>       0.42123629       0.91558947       0.47448742 </v>
    <v>       0.47391629       0.75643295       0.56850919 </v>
    <v>       0.01050131       0.74326818       0.57225187 </v>
    <v>       0.33333333       0.08333333       0.38179910 </v>
    <v>       0.16787299       0.16381794       0.48111335 </v>
    <v>       0.41960062       0.41379076       0.47289665 </v>
    <v>       0.50368053       0.99160401       0.56035924 </v>
    <v>       0.16897148       0.41325758       0.47509782 </v>
    <v>       0.74692498       0.73704459       0.60253051 </v>
    <v>       0.25659047       0.71748589       0.60580968 </v>
    <v>       0.33333333       0.58333333       0.38179910 </v>
    <v>       0.17022010       0.67068151       0.48274397 </v>
    <v>       0.17244140       0.91518949       0.48189042 </v>
    <v>       0.85617794       0.83316291       0.62834065 </v>
    <v>       0.27997184       0.15979745       0.63177684 </v>
    <v>       0.06232703       0.08870651       0.62666728 </v>
    <v>       0.25556257       0.83805015       0.66235228 </v>
    <v>       0.93497292       0.41456285       0.61859984 </v>
    <v>       0.57805725       0.08590695       0.61170359 </v>
    <v>       0.56686783       0.35717221       0.61118776 </v>
    <v>       0.47996942       0.87760345       0.63054562 </v>
    <v>       0.58333333       0.83333333       0.38179910 </v>
    <v>       0.49041238       0.25769690       0.57091301 </v>
    <v>       0.42064958       0.16545419       0.47438235 </v>
    <v>       0.58333333       0.08333333       0.38179910 </v>
    <v>       0.58333333       0.58333333       0.38179910 </v>
    <v>       0.24849318       0.25107847       0.56737338 </v>
    <v>       0.42232994       0.66532024       0.47615480 </v>
    <v>       0.48972953       0.50882631       0.55938241 </v>
    <v>       0.27181675       0.99168944       0.63700216 </v>
    <v>       0.24801732       0.49656553       0.56528215 </v>
    <v>       0.92173303       0.91742733       0.47692204 </v>
    <v>       0.99536439       0.50264531       0.56661743 </v>
    <v>       0.83333333       0.08333333       0.38179910 </v>
    <v>       0.00630557       0.24334507       0.57687943 </v>
    <v>       0.83333333       0.33333333       0.38179910 </v>
    <v>       0.66825785       0.41664870       0.46948146 </v>
    <v>       0.08333333       0.33333333       0.38179910 </v>
    <v>       0.83333333       0.58333333       0.38179910 </v>
    <v>       0.02418790       0.98999215       0.56948897 </v>
    <v>       0.92037805       0.16384629       0.47508847 </v>
    <v>       0.83333333       0.83333333       0.38179910 </v>
    <v>       0.67208738       0.91650016       0.47086796 </v>
    <v>       0.33333333       0.33333333       0.38179910 </v>
    <v>       0.58333333       0.33333333       0.38179910 </v>
   </varray>
  </structure>
  <varray name="forces" >
   <v>      -0.30135601       0.40806181      -0.11258143 </v>
   <v>       0.31472886      -0.27217633      -0.21499320 </v>
   <v>      -0.40694868       0.17950187      -0.09040595 </v>
   <v>      -0.02021631      -0.07571643      -0.04013215 </v>
   <v>      -0.01899182      -0.00308707      -0.03077551 </v>
   <v>      -0.05829871       0.01558686      -0.00288054 </v>
   <v>      -0.00265004      -0.02016001      -0.07745324 </v>
   <v>      -0.11944932       0.00317884      -0.00799689 </v>
   <v>      -0.02169246      -0.01059289      -0.00263474 </v>
   <v>      -0.21684567      -0.14731549      -0.34228854 </v>
   <v>      -0.01727148      -0.02611548      -0.01236618 </v>
   <v>       0.09011088       0.03369593      -0.00057490 </v>
   <v>       0.00568366      -0.00090842      -0.01070782 </v>
   <v>      -0.03694968      -0.00406725      -0.04614565 </v>
   <v>       0.31875612       0.31356176      -0.26138926 </v>
   <v>       0.01381188      -0.02018031      -0.08067355 </v>
   <v>       0.03031640      -0.01076628      -0.01682341 </v>
   <v>      -0.06950556      -0.03297021       0.06430647 </v>
   <v>      -0.00155582       0.01753369      -0.03805567 </v>
   <v>       0.08171468      -0.01532542      -0.07028016 </v>
   <v>       0.07646948       0.04587989       0.13686400 </v>
   <v>       0.21184258      -0.16869241      -0.14131832 </v>
   <v>       0.02040174      -0.04392636      -0.02117945 </v>
   <v>       0.02116332      -0.02455299      -0.03976473 </v>
   <v>      -0.09772645      -0.00023046      -0.09147184 </v>
   <v>      -0.03985848       0.19775141      -0.09655749 </v>
   <v>      -0.22618693       0.12008920      -0.05137422 </v>
   <v>      -0.08377134      -0.07391632      -0.10435698 </v>
   <v>       0.06185678       0.02500487      -0.00106006 </v>
   <v>       0.03663687       0.04937252       0.13163826 </v>
   <v>       0.01511538      -0.00607805      -0.05939643 </v>
   <v>      -0.00288385       0.02290930       0.10218838 </v>
   <v>       0.25575684      -0.12473014       0.07411785 </v>
   <v>       0.08811328       0.13709875      -0.02131428 </v>
   <v>      -0.02310773      -0.01614831       0.07731154 </v>
   <v>       0.05793392       0.02418690       0.04942637 </v>
   <v>       0.10771609      -0.04322172       0.07177723 </v>
   <v>       0.01524163      -0.06513001       0.10948792 </v>
   <v>       0.00943002       0.04910517      -0.13001165 </v>
   <v>       0.08535039      -0.17856735       0.10091349 </v>
   <v>       0.05187634      -0.14404444       0.06408700 </v>
   <v>       0.04476668      -0.05946145       0.01063103 </v>
   <v>       0.01486958      -0.02787250      -0.02018285 </v>
   <v>      -0.00926781       0.02502766      -0.00282269 </v>
   <v>       0.02107837       0.04419849       0.25159824 </v>
   <v>      -0.01319152      -0.01956049       0.00896311 </v>
   <v>       0.03115147      -0.01864318       0.12764535 </v>
   <v>      -0.02762135       0.01425163       0.13122225 </v>
   <v>      -0.05224127       0.08155380       0.17883377 </v>
   <v>      -0.10021049      -0.03101254       0.28403436 </v>
   <v>       0.08048223       0.08332287       0.04693136 </v>
   <v>      -0.02960532       0.01348202       0.01025771 </v>
   <v>      -0.13019004       0.11750853       0.20962093 </v>
   <v>      -0.06344032      -0.00321431      -0.00176545 </v>
   <v>      -0.00482399      -0.22132572       0.10504964 </v>
   <v>       0.03348299      -0.11215345      -0.10517100 </v>
  </varray>
  <energy>
   <i name="e_fr_energy">   -230.53335021 </i>
   <i name="e_wo_entrp">   -230.42032202 </i>
   <i name="e_0_energy">     -0.22605638 </i>
  </energy>
  <time name="totalsc">  268.58  270.12</time>
 </calculation>
 <calculation>
  <scstep>
   <time name="dav">    8.42    8.48</time>
   <time name="total">    8.75    8.81</time>
   <dipole>
    <v name="dipole">      0.00000000       0.00000000       0.70929885 </v>
    <i name="Tr[quadrupol]"> -11034.00206691 </i>
    <i name="Echarged">      0.00000000 </i>
    <i name="Edipol_quadrupol">      0.00000000 </i>
    <i name="Eion">      0.00000000 </i>
   </dipole>
   <energy>
    <i name="alphaZ">    868.45916254 </i>
    <i name="ewald"> 234187.74969612 </i>
    <i name="hartreedc">-279411.19232997 </i>
    <i name="XCdc">   -129.03623009 </i>
    <i name="pawpsdc">  51972.41986442 </i>
    <i name="pawaedc"> -50062.75195985 </i>
    <i name="eentropy">     -0.22396622 </i>
    <i name="bandstr">  -2773.85415087 </i>
    <i name="atom">  45117.89144060 </i>
    <i name="e_fr_energy">   -230.53847333 </i>
    <i name="e_wo_entrp">   -230.31450711 </i>
    <i name="e_0_energy">   -230.42649022 </i>
   </energy>
  </scstep>
  <scstep>
   <time name="diag">    1.47    1.47</time>
   <time name="diis">    4.01    4.04</time>
   <time name="orth">    0.34    0.37</time>
   <time name="total">    6.16    6.25</time>
   <dipole>
    <v name="dipole">      0.00000000       0.00000000       0.69137563 </v>
    <i name="Tr[quadrupol]"> -11034.00481701 </i>
    <i name="Echarged">      0.00000000 </i>
    <i name="Edipol_quadrupol">      0.00000000 </i>
    <i name="Eion">      0.00000000 </i>
   </dipole>
   <energy>
    <i name="e_fr_energy">   -230.55239141 </i>
    <i name="e_wo_entrp">   -230.32381387 </i>
    <i name="e_0_energy">   -230.43810264 </i>
   </energy>
  </scstep>
  <scstep>
   <time name="diag">    1.48    1.48</time>
   <time name="diis">    4.09    4.10</time>
   <time name="orth">    0.35    0.35</time>
   <time name="total">    6.25    6.27</time>
   <dipole>
    <v name="dipole">      0.00000000       0.00000000       0.72415659 </v>
    <i name="Tr[quadrupol]"> -11034.01764031 </i>
    <i name="Echarged">      0.00000000 </i>
    <i name="Edipol_quadrupol">      0.00000000 </i>
    <i name="Eion">      0.00000000 </i>
   </dipole>
   <energy>
    <i name="e_fr_energy">   -230.55057969 </i>
    <i name="e_wo_entrp">   -230.32953506 </i>
    <i name="e_0_energy">   -230.44005738 </i>
   </energy>
  </scstep>
  <scstep>
   <time name="diag">    1.48    1.48</time>
   <time name="diis">    4.06    4.07</time>
   <time name="orth">    0.35    0.35</time>
   <time name="total">    6.21    6.23</time>
   <dipole>
    <v name="dipole">      0.00000000       0.00000000       0.69893246 </v>
    <i name="Tr[quadrupol]"> -11034.01109008 </i>
    <i name="Echarged">      0.00000000 </i>
    <i name="Edipol_quadrupol">      0.00000000 </i>
    <i name="Eion">      0.00000000 </i>
   </dipole>
   <energy>
    <i name="e_fr_energy">   -230.54667731 </i>
    <i name="e_wo_entrp">   -230.32084746 </i>
    <i name="e_0_energy">   -230.43376238 </i>
   </energy>
  </scstep>
  <scstep>
   <time name="diag">    1.47    1.47</time>
   <time name="diis">    4.03    4.04</time>
   <time name="orth">    0.35    0.35</time>
   <time name="total">    6.18    6.20</time>
   <dipole>
    <v name="dipole">      0.00000000       0.00000000       0.70720340 </v>
    <i name="Tr[quadrupol]"> -11034.01825523 </i>
    <i name="Echarged">      0.00000000 </i>
    <i name="Edipol_quadrupol">      0.00000000 </i>
    <i name="Eion">      0.00000000 </i>
   </dipole>
   <energy>
    <i name="e_fr_energy">   -230.54647406 </i>
    <i name="e_wo_entrp">   -230.32092479 </i>
    <i name="e_0_energy">   -230.43369943 </i>
   </energy>
  </scstep>
  <scstep>
   <time name="diag">    1.47    1.47</time>
   <time name="diis">    4.10    4.11</time>
   <time name="orth">    0.35    0.35</time>
   <time name="total">    6.26    6.27</time>
   <dipole>
    <v name="dipole">      0.00000000       0.00000000       0.70371001 </v>
    <i name="Tr[quadrupol]"> -11034.00937756 </i>
    <i name="Echarged">      0.00000000 </i>
    <i name="Edipol_quadrupol">      0.00000000 </i>
    <i name="Eion">      0.00000000 </i>
   </dipole>
   <energy>
    <i name="e_fr_energy">   -230.54602960 </i>
    <i name="e_wo_entrp">   -230.32153187 </i>
    <i name="e_0_energy">   -230.43378074 </i>
   </energy>
  </scstep>
  <scstep>
   <time name="diag">    1.48    1.48</time>
   <time name="diis">    4.05    4.06</time>
   <time name="orth">    0.35    0.35</time>
   <time name="total">    6.21    6.23</time>
   <dipole>
    <v name="dipole">      0.00000000       0.00000000       0.70561954 </v>
    <i name="Tr[quadrupol]"> -11034.03234662 </i>
    <i name="Echarged">      0.00000000 </i>
    <i name="Edipol_quadrupol">      0.00000000 </i>
    <i name="Eion">      0.00000000 </i>
   </dipole>
   <energy>
    <i name="e_fr_energy">   -230.54559774 </i>
    <i name="e_wo_entrp">   -230.32034200 </i>
    <i name="e_0_energy">   -230.43296987 </i>
   </energy>
  </scstep>
  <scstep>
   <time name="diag">    1.47    1.47</time>
   <time name="diis">    4.08    4.09</time>
   <time name="orth">    0.35    0.35</time>
   <time name="total">    6.22    6.24</time>
   <dipole>
    <v name="dipole">      0.00000000       0.00000000       0.70531484 </v>
    <i name="Tr[quadrupol]"> -11034.02210888 </i>
    <i name="Echarged">      0.00000000 </i>
    <i name="Edipol_quadrupol">      0.00000000 </i>
    <i name="Eion">      0.00000000 </i>
   </dipole>
   <energy>
    <i name="e_fr_energy">   -230.54530844 </i>
    <i name="e_wo_entrp">   -230.32062164 </i>
    <i name="e_0_energy">   -230.43296504 </i>
   </energy>
  </scstep>
  <scstep>
   <time name="diag">    1.47    1.48</time>
   <time name="diis">    3.93    4.02</time>
   <time name="orth">    0.35    0.35</time>
   <time name="total">    6.08    6.18</time>
   <dipole>
    <v name="dipole">      0.00000000       0.00000000       0.70566643 </v>
    <i name="Tr[quadrupol]"> -11034.02441623 </i>
    <i name="Echarged">      0.00000000 </i>
    <i name="Edipol_quadrupol">      0.00000000 </i>
    <i name="Eion">      0.00000000 </i>
   </dipole>
   <energy>
    <i name="e_fr_energy">   -230.54529247 </i>
    <i name="e_wo_entrp">   -230.32047996 </i>
    <i name="e_0_energy">   -230.43288621 </i>
   </energy>
  </scstep>
  <scstep>
   <time name="diag">    1.47    1.47</time>
   <time name="diis">    3.97    4.00</time>
   <time name="orth">    0.35    0.36</time>
   <time name="total">    6.12    6.16</time>
   <dipole>
    <v name="dipole">      0.00000000       0.00000000       0.70560755 </v>
    <i name="Tr[quadrupol]"> -11034.02424605 </i>
    <i name="Echarged">      0.00000000 </i>
    <i name="Edipol_quadrupol">      0.00000000 </i>
    <i name="Eion">      0.00000000 </i>
   </dipole>
   <energy>
    <i name="e_fr_energy">   -230.54528592 </i>
    <i name="e_wo_entrp">   -230.32051705 </i>
    <i name="e_0_energy">   -230.43290148 </i>
   </energy>
  </scstep>
  <scstep>
   <time name="diag">    1.46    1.48</time>
   <time name="diis">    3.91    3.92</time>
   <time name="orth">    0.35    0.35</time>
   <time name="total">    5.78    5.81</time>
   <dipole>
    <v name="dipole">      0.00000000       0.00000000       0.70555776 </v>
    <i name="Tr[quadrupol]"> -11034.02412480 </i>
    <i name="Echarged">      0.00000000 </i>
    <i name="Edipol_quadrupol">      0.00000000 </i>
    <i name="Eion">      0.00000000 </i>
   </dipole>
   <energy>
    <i name="alphaZ">    868.42822222 </i>
    <i name="ewald"> 234187.74969612 </i>
    <i name="hartreedc">-279411.93333023 </i>
    <i name="XCdc">   -129.03053602 </i>
    <i name="pawpsdc">  51978.94884606 </i>
    <i name="pawaedc"> -50069.29836271 </i>
    <i name="eentropy">     -0.22483546 </i>
    <i name="bandstr">  -2773.07642650 </i>
    <i name="atom">  45117.89144060 </i>
    <i name="e_fr_energy">   -230.54528592 </i>
    <i name="e_wo_entrp">   -230.32045046 </i>
    <i name="e_0_energy">   -230.43286819 </i>
   </energy>
  </scstep>
  <structure>
   <crystal>
    <varray name="basis" >
     <v>      11.00258152       0.00000000       0.00000000 </v>
     <v>       5.50129076       9.52851510       0.00000000 </v>
     <v>       0.00000000       0.00000000      26.19178509 </v>
    </varray>
    <i name="volume">   2745.90128299 </i>
    <varray name="rec_basis" >
     <v>       0.09088776      -0.05247407       0.00000000 </v>
     <v>       0.00000000       0.10494815       0.00000000 </v>
     <v>       0.00000000       0.00000000       0.03817991 </v>
    </varray>
   </crystal>
   <varray name="positions" >
    <v>       0.08333333       0.08333333       0.38179910 </v>
    <v>       0.33333333       0.83333333       0.38179910 </v>
    <v>       0.08333333       0.83333333       0.38179910 </v>
    <v>       0.73298470       0.51418786       0.57112852 </v>
    <v>       0.66934264       0.66669317       0.47449143 </v>
    <v>       0.75865843       0.25380445       0.56245118 </v>
    <v>       0.91690980       0.41351446       0.47473786 </v>
    <v>       0.76637883       0.00090381       0.56575384 </v>
    <v>       0.67097381       0.16357070       0.47182692 </v>
    <v>       0.08333333       0.58333333       0.38179910 </v>
    <v>       0.91704325       0.67096379       0.47605275 </v>
    <v>       0.42145315       0.91570889       0.47448668 </v>
    <v>       0.47393534       0.75642973       0.56849538 </v>
    <v>       0.01039511       0.74325376       0.57219237 </v>
    <v>       0.33333333       0.08333333       0.38179910 </v>
    <v>       0.16795115       0.16374642       0.48100934 </v>
    <v>       0.41971275       0.41375261       0.47287496 </v>
    <v>       0.50352562       0.99148716       0.56044215 </v>
    <v>       0.16893563       0.41331972       0.47504875 </v>
    <v>       0.74720294       0.73699027       0.60243990 </v>
    <v>       0.25674387       0.71764849       0.60598614 </v>
    <v>       0.33333333       0.58333333       0.38179910 </v>
    <v>       0.17036056       0.67052583       0.48271666 </v>
    <v>       0.17254987       0.91510247       0.48183915 </v>
    <v>       0.85587840       0.83316209       0.62822272 </v>
    <v>       0.27949908       0.16049830       0.63165234 </v>
    <v>       0.06142000       0.08913212       0.62660104 </v>
    <v>       0.25543643       0.83778818       0.66221772 </v>
    <v>       0.93511846       0.41465147       0.61859847 </v>
    <v>       0.57808221       0.08608193       0.61187332 </v>
    <v>       0.56692499       0.35715067       0.61111118 </v>
    <v>       0.47991997       0.87768465       0.63067738 </v>
    <v>       0.58333333       0.83333333       0.38179910 </v>
    <v>       0.49043987       0.25818279       0.57088553 </v>
    <v>       0.42060728       0.16539696       0.47448203 </v>
    <v>       0.58333333       0.08333333       0.38179910 </v>
    <v>       0.58333333       0.58333333       0.38179910 </v>
    <v>       0.24865538       0.25084764       0.56751454 </v>
    <v>       0.42227187       0.66549427       0.47598717 </v>
    <v>       0.49030792       0.50819346       0.55951252 </v>
    <v>       0.27223123       0.99117894       0.63708479 </v>
    <v>       0.24826009       0.49635480       0.56529586 </v>
    <v>       0.92182806       0.91732854       0.47689602 </v>
    <v>       0.99529160       0.50273401       0.56661379 </v>
    <v>       0.83333333       0.08333333       0.38179910 </v>
    <v>       0.00629975       0.24327575       0.57689099 </v>
    <v>       0.83333333       0.33333333       0.38179910 </v>
    <v>       0.66814782       0.41669921       0.46965065 </v>
    <v>       0.08333333       0.33333333       0.38179910 </v>
    <v>       0.83333333       0.58333333       0.38179910 </v>
    <v>       0.02428727       0.99028746       0.56954948 </v>
    <v>       0.92026330       0.16389407       0.47510169 </v>
    <v>       0.83333333       0.83333333       0.38179910 </v>
    <v>       0.67189836       0.91648877       0.47086568 </v>
    <v>       0.33333333       0.33333333       0.38179910 </v>
    <v>       0.58333333       0.33333333       0.38179910 </v>
   </varray>
  </structure>
  <varray name="forces" >
   <v>      -0.30379109       0.40843140      -0.11365083 </v>
   <v>       0.31629384      -0.26864109      -0.21910351 </v>
   <v>      -0.40777591       0.17918931      -0.09244424 </v>
   <v>       0.00960381      -0.04249302      -0.03194923 </v>
   <v>      -0.01299873      -0.01005078      -0.02507439 </v>
   <v>      -0.02097235      -0.02863902      -0.01449603 </v>
   <v>      -0.00142728      -0.01896463      -0.06715713 </v>
   <v>      -0.09496810       0.00936316      -0.02095419 </v>
   <v>      -0.01937203      -0.01966394      -0.00531551 </v>
   <v>      -0.21689823      -0.14548319      -0.34622324 </v>
   <v>      -0.01501598      -0.01600199      -0.01216140 </v>
   <v>       0.05109524       0.01821248      -0.00444050 </v>
   <v>       0.00543370      -0.02890811      -0.01583596 </v>
   <v>       0.01457396      -0.00484163      -0.05522619 </v>
   <v>       0.32128158       0.31420789      -0.26354517 </v>
   <v>       0.01075179      -0.00974683      -0.06328151 </v>
   <v>       0.01931135      -0.00585997      -0.01421893 </v>
   <v>      -0.03260346      -0.00016681       0.08006385 </v>
   <v>       0.00298197       0.00550471      -0.02316142 </v>
   <v>       0.02072376      -0.04722575      -0.08656555 </v>
   <v>       0.00407688      -0.05843123       0.00676646 </v>
   <v>       0.20996642      -0.17083288      -0.14461832 </v>
   <v>       0.01601573      -0.03745940      -0.01185925 </v>
   <v>       0.01587666      -0.01456019      -0.02761813 </v>
   <v>      -0.06526999       0.01783243      -0.06449038 </v>
   <v>      -0.09539064       0.03782893       0.04494621 </v>
   <v>      -0.13045214       0.05751785       0.00798664 </v>
   <v>      -0.05133545      -0.00639598       0.02365095 </v>
   <v>       0.05383635       0.01239472      -0.00005077 </v>
   <v>       0.01893473       0.07667974       0.07477463 </v>
   <v>       0.03580792      -0.02851231       0.04213082 </v>
   <v>       0.00390156       0.00763289       0.09635941 </v>
   <v>       0.25544246      -0.12464263       0.06922262 </v>
   <v>       0.03349276       0.01286136      -0.00729288 </v>
   <v>      -0.01468727       0.00553090       0.07861492 </v>
   <v>       0.05635132       0.02418812       0.05217250 </v>
   <v>       0.10905950      -0.05048627       0.07228753 </v>
   <v>       0.01107871      -0.00016096      -0.02911787 </v>
   <v>       0.00937955       0.01987136      -0.08208861 </v>
   <v>       0.06533903      -0.02366644       0.01701472 </v>
   <v>       0.02360600       0.04077805       0.02112979 </v>
   <v>       0.03230332      -0.01087084       0.01191602 </v>
   <v>       0.00206812      -0.02459351      -0.00693461 </v>
   <v>       0.00091502       0.01091887      -0.02067232 </v>
   <v>       0.02106328       0.04438972       0.25315433 </v>
   <v>      -0.00369031       0.01898875      -0.00616345 </v>
   <v>       0.02302835      -0.01688503       0.13331653 </v>
   <v>      -0.01698290       0.01327032       0.10351848 </v>
   <v>      -0.05119615       0.07998234       0.17327833 </v>
   <v>      -0.10045626      -0.02989906       0.27997496 </v>
   <v>       0.03611859       0.04488031       0.00406358 </v>
   <v>      -0.02306057       0.00307175       0.01267099 </v>
   <v>      -0.13160264       0.11791328       0.21056076 </v>
   <v>      -0.03423505      -0.00375689       0.00097319 </v>
   <v>      -0.00397942      -0.22306537       0.10586152 </v>
   <v>       0.03844869      -0.11053491      -0.10069818 </v>
  </varray>
  <energy>
   <i name="e_fr_energy">   -230.54528592 </i>
   <i name="e_wo_entrp">   -230.43286819 </i>
   <i name="e_0_energy">     -0.22483546 </i>
  </energy>
  <time name="totalsc">   73.10   73.55</time>
 </calculation>
 <calculation>
  <scstep>
   <time name="dav">    8.50    8.52</time>
   <time name="total">    8.83    8.85</time>
   <dipole>
    <v name="dipole">      0.00000000       0.00000000       0.70552045 </v>
    <i name="Tr[quadrupol]"> -11036.00545496 </i>
    <i name="Echarged">      0.00000000 </i>
    <i name="Edipol_quadrupol">      0.00000000 </i>
    <i name="Eion">      0.00000000 </i>
   </dipole>
   <energy>
    <i name="alphaZ">    868.42834464 </i>
    <i name="ewald"> 234180.34008285 </i>
    <i name="hartreedc">-279404.40912830 </i>
    <i name="XCdc">   -129.02202316 </i>
    <i name="pawpsdc">  51978.99663316 </i>
    <i name="pawaedc"> -50069.34617483 </i>
    <i name="eentropy">     -0.22352734 </i>
    <i name="bandstr">  -2773.20062675 </i>
    <i name="atom">  45117.89144060 </i>
    <i name="e_fr_energy">   -230.54497912 </i>
    <i name="e_wo_entrp">   -230.32145179 </i>
    <i name="e_0_energy">   -230.43321546 </i>
   </energy>
  </scstep>
  <scstep>
   <time name="diag">    1.48    1.48</time>
   <time name="diis">    4.06    4.07</time>
   <time name="orth">    0.35    0.35</time>
   <time name="total">    6.21    6.23</time>
   <dipole>
    <v name="dipole">      0.00000000       0.00000000       0.69433159 </v>
    <i name="Tr[quadrupol]"> -11036.00766917 </i>
    <i name="Echarged">      0.00000000 </i>
    <i name="Edipol_quadrupol">      0.00000000 </i>
    <i name="Eion">      0.00000000 </i>
   </dipole>
   <energy>
    <i name="e_fr_energy">   -230.55009622 </i>
    <i name="e_wo_entrp">   -230.32355625 </i>
    <i name="e_0_energy">   -230.43682623 </i>
   </energy>
  </scstep>
  <scstep>
   <time name="diag">    1.48    1.48</time>
   <time name="diis">    4.07    4.09</time>
   <time name="orth">    0.35    0.38</time>
   <time name="total">    6.23    6.31</time>
   <dipole>
    <v name="dipole">      0.00000000       0.00000000       0.71398537 </v>
    <i name="Tr[quadrupol]"> -11036.01530358 </i>
    <i name="Echarged">      0.00000000 </i>
[...]
   <time name="diag">    1.46    1.47</time>
   <time name="diis">    4.06    4.08</time>
   <time name="orth">    0.36    0.36</time>
   <time name="total">    6.21    6.24</time>
   <dipole>
    <v name="dipole">      0.00000000       0.00000000       0.76285753 </v>
    <i name="Tr[quadrupol]"> -11008.22644119 </i>
    <i name="Echarged">      0.00000000 </i>
    <i name="Edipol_quadrupol">      0.00000000 </i>
    <i name="Eion">      0.00000000 </i>
   </dipole>
   <energy>
    <i name="e_fr_energy">   -230.76168192 </i>
    <i name="e_wo_entrp">   -230.53769469 </i>
    <i name="e_0_energy">   -230.64968830 </i>
   </energy>
  </scstep>
  <scstep>
   <time name="diag">    1.48    1.48</time>
   <time name="diis">    4.13    4.14</time>
   <time name="orth">    0.35    0.36</time>
   <time name="total">    6.30    6.31</time>
   <dipole>
    <v name="dipole">      0.00000000       0.00000000       0.75222399 </v>
    <i name="Tr[quadrupol]"> -11008.22164385 </i>
    <i name="Echarged">      0.00000000 </i>
    <i name="Edipol_quadrupol">      0.00000000 </i>
    <i name="Eion">      0.00000000 </i>
   </dipole>
   <energy>
    <i name="e_fr_energy">   -230.76118096 </i>
    <i name="e_wo_entrp">   -230.53477769 </i>
    <i name="e_0_energy">   -230.64797932 </i>
   </energy>
  </scstep>
  <scstep>
   <time name="diag">    1.46    1.46</time>
   <time name="diis">    4.07    4.09</time>
   <time name="orth">    0.35    0.35</time>
   <time name="total">    6.21    6.24</time>
   <dipole>
    <v name="dipole">      0.00000000       0.00000000       0.75481675 </v>
    <i name="Tr[quadrupol]"> -11008.23236759 </i>
    <i name="Echarged">      0.00000000 </i>
    <i name="Edipol_quadrupol">      0.00000000 </i>
    <i name="Eion">      0.00000000 </i>
   </dipole>
   <energy>
    <i name="e_fr_energy">   -230.76091885 </i>
    <i name="e_wo_entrp">   -230.53495042 </i>
    <i name="e_0_energy">   -230.64793463 </i>
   </energy>
  </scstep>
  <scstep>
   <time name="diag">    1.46    1.46</time>
   <time name="diis">    4.06    4.08</time>
   <time name="orth">    0.36    0.36</time>
   <time name="total">    6.21    6.24</time>
   <dipole>
    <v name="dipole">      0.00000000       0.00000000       0.75462091 </v>
    <i name="Tr[quadrupol]"> -11008.22942876 </i>
    <i name="Echarged">      0.00000000 </i>
    <i name="Edipol_quadrupol">      0.00000000 </i>
    <i name="Eion">      0.00000000 </i>
   </dipole>
   <energy>
    <i name="e_fr_energy">   -230.76090851 </i>
    <i name="e_wo_entrp">   -230.53518207 </i>
    <i name="e_0_energy">   -230.64804529 </i>
   </energy>
  </scstep>
  <scstep>
   <time name="diag">    1.48    1.49</time>
   <time name="diis">    4.02    4.03</time>
   <time name="orth">    0.36    0.36</time>
   <time name="total">    6.20    6.22</time>
   <dipole>
    <v name="dipole">      0.00000000       0.00000000       0.75520455 </v>
    <i name="Tr[quadrupol]"> -11008.23377797 </i>
    <i name="Echarged">      0.00000000 </i>
    <i name="Edipol_quadrupol">      0.00000000 </i>
    <i name="Eion">      0.00000000 </i>
   </dipole>
   <energy>
    <i name="e_fr_energy">   -230.76090123 </i>
    <i name="e_wo_entrp">   -230.53513447 </i>
    <i name="e_0_energy">   -230.64801785 </i>
   </energy>
  </scstep>
  <scstep>
   <time name="diag">    1.49    1.49</time>
   <time name="diis">    3.92    4.01</time>
   <time name="orth">    0.36    0.36</time>
   <time name="total">    6.09    6.20</time>
   <dipole>
    <v name="dipole">      0.00000000       0.00000000       0.75493218 </v>
    <i name="Tr[quadrupol]"> -11008.23300438 </i>
    <i name="Echarged">      0.00000000 </i>
    <i name="Edipol_quadrupol">      0.00000000 </i>
    <i name="Eion">      0.00000000 </i>
   </dipole>
   <energy>
    <i name="e_fr_energy">   -230.76087995 </i>
    <i name="e_wo_entrp">   -230.53519439 </i>
    <i name="e_0_energy">   -230.64803717 </i>
   </energy>
  </scstep>
  <scstep>
   <time name="diag">    1.49    1.50</time>
   <time name="diis">    3.72    3.73</time>
   <time name="orth">    0.35    0.35</time>
   <time name="total">    5.89    5.91</time>
   <dipole>
    <v name="dipole">      0.00000000       0.00000000       0.75498435 </v>
    <i name="Tr[quadrupol]"> -11008.23384788 </i>
    <i name="Echarged">      0.00000000 </i>
    <i name="Edipol_quadrupol">      0.00000000 </i>
    <i name="Eion">      0.00000000 </i>
   </dipole>
   <energy>
    <i name="e_fr_energy">   -230.76087742 </i>
    <i name="e_wo_entrp">   -230.53519394 </i>
    <i name="e_0_energy">   -230.64803568 </i>
   </energy>
  </scstep>
  <scstep>
   <time name="diag">    1.46    1.47</time>
   <time name="diis">    2.45    2.46</time>
   <time name="orth">    0.36    0.36</time>
   <time name="total">    4.33    4.35</time>
   <dipole>
    <v name="dipole">      0.00000000       0.00000000       0.75501271 </v>
    <i name="Tr[quadrupol]"> -11008.23394595 </i>
    <i name="Echarged">      0.00000000 </i>
    <i name="Edipol_quadrupol">      0.00000000 </i>
    <i name="Eion">      0.00000000 </i>
   </dipole>
   <energy>
    <i name="alphaZ">    869.12164940 </i>
    <i name="ewald"> 235188.07163081 </i>
    <i name="hartreedc">-280389.27178300 </i>
    <i name="XCdc">   -128.46007258 </i>
    <i name="pawpsdc">  52083.45864720 </i>
    <i name="pawaedc"> -50174.81766966 </i>
    <i name="eentropy">     -0.22567371 </i>
    <i name="bandstr">  -2796.52904564 </i>
    <i name="atom">  45117.89144060 </i>
    <i name="e_fr_energy">   -230.76087658 </i>
    <i name="e_wo_entrp">   -230.53520286 </i>
    <i name="e_0_energy">   -230.64803972 </i>
   </energy>
  </scstep>
  <structure>
   <crystal>
    <varray name="basis" >
     <v>      11.00258152       0.00000000       0.00000000 </v>
     <v>       5.50129076       9.52851510       0.00000000 </v>
     <v>       0.00000000       0.00000000      26.19178509 </v>
    </varray>
    <i name="volume">   2745.90128299 </i>
    <varray name="rec_basis" >
     <v>       0.09088776      -0.05247407       0.00000000 </v>
     <v>       0.00000000       0.10494815       0.00000000 </v>
     <v>       0.00000000       0.00000000       0.03817991 </v>
    </varray>
   </crystal>
   <varray name="positions" >
    <v>       0.08333333       0.08333333       0.38179910 </v>
    <v>       0.33333333       0.83333333       0.38179910 </v>
    <v>       0.08333333       0.83333333       0.38179910 </v>
    <v>       0.73764439       0.50298943       0.56498685 </v>
    <v>       0.66755952       0.66683881       0.47165574 </v>
    <v>       0.75656590       0.24780874       0.56111396 </v>
    <v>       0.91835044       0.41207968       0.47241456 </v>
    <v>       0.76432996       0.00071873       0.56890348 </v>
    <v>       0.67087456       0.16126560       0.47139420 </v>
    <v>       0.08333333       0.58333333       0.38179910 </v>
    <v>       0.91916809       0.66979604       0.47326040 </v>
    <v>       0.42059416       0.91711038       0.47685492 </v>
    <v>       0.47130815       0.75476860       0.57168918 </v>
    <v>       0.01882343       0.74190463       0.57014782 </v>
    <v>       0.33333333       0.08333333       0.38179910 </v>
    <v>       0.16728590       0.16331647       0.48243763 </v>
    <v>       0.42204453       0.41152990       0.47314029 </v>
    <v>       0.48882212       0.99753719       0.56692324 </v>
    <v>       0.17097531       0.41134814       0.47441599 </v>
    <v>       0.74153488       0.74446806       0.56632604 </v>
    <v>       0.26392376       0.70769362       0.60884584 </v>
    <v>       0.33333333       0.58333333       0.38179910 </v>
    <v>       0.17384549       0.66795032       0.48079822 </v>
    <v>       0.17225942       0.91445370       0.48146936 </v>
    <v>       0.84392656       0.81558622       0.61732972 </v>
    <v>       0.24990521       0.17215300       0.63485219 </v>
    <v>       0.03497941       0.09942790       0.63000782 </v>
    <v>       0.22649201       0.84604368       0.66297302 </v>
    <v>       0.93013423       0.42948222       0.61885970 </v>
    <v>       0.57657533       0.08634755       0.61626978 </v>
    <v>       0.57123904       0.35353742       0.61247452 </v>
    <v>       0.45118263       0.88828280       0.63368749 </v>
    <v>       0.58333333       0.83333333       0.38179910 </v>
    <v>       0.49009001       0.25583133       0.57420391 </v>
    <v>       0.42043516       0.16476047       0.47798016 </v>
    <v>       0.58333333       0.08333333       0.38179910 </v>
    <v>       0.58333333       0.58333333       0.38179910 </v>
    <v>       0.24531115       0.25007722       0.56967254 </v>
    <v>       0.42282394       0.66532806       0.47718000 </v>
    <v>       0.49318435       0.50419248       0.56061891 </v>
    <v>       0.24598273      -0.00050006       0.63980083 </v>
    <v>       0.25233199       0.49246838       0.56432296 </v>
    <v>       0.92165318       0.91662071       0.47747099 </v>
    <v>       0.00070532       0.49844166       0.56394689 </v>
    <v>       0.83333333       0.08333333       0.38179910 </v>
    <v>      -0.00400607       0.25210225       0.58152003 </v>
    <v>       0.83333333       0.33333333       0.38179910 </v>
    <v>       0.66766775       0.41597294       0.46984774 </v>
    <v>       0.08333333       0.33333333       0.38179910 </v>
    <v>       0.83333333       0.58333333       0.38179910 </v>
    <v>       0.02160850       0.99651772       0.56896136 </v>
    <v>       0.91948651       0.16344575       0.47468698 </v>
    <v>       0.83333333       0.83333333       0.38179910 </v>
    <v>       0.66957109       0.91714403       0.47190274 </v>
    <v>       0.33333333       0.33333333       0.38179910 </v>
    <v>       0.58333333       0.33333333       0.38179910 </v>
   </varray>
  </structure>
  <varray name="forces" >
   <v>      -0.26875112       0.40638284      -0.09366343 </v>
   <v>       0.36416122      -0.24491218      -0.12881467 </v>
   <v>      -0.40253308       0.22068237      -0.10470812 </v>
   <v>       0.00405449      -0.00630362       0.00438018 </v>
   <v>       0.00900145      -0.02001289       0.03153908 </v>
   <v>       0.01965755      -0.02150727       0.01311283 </v>
   <v>      -0.00680543      -0.00536752       0.00468018 </v>
   <v>       0.03107082       0.02143530       0.03400495 </v>
   <v>      -0.01358623       0.01029770      -0.00194893 </v>
   <v>      -0.15577810      -0.18368349      -0.46119788 </v>
   <v>      -0.01026139       0.00328435       0.02116954 </v>
   <v>      -0.02166271       0.00378256       0.00165356 </v>
   <v>      -0.01161312       0.01169713      -0.03354490 </v>
   <v>      -0.01464111      -0.02711959       0.01564920 </v>
   <v>       0.36115212       0.30337691      -0.10059113 </v>
   <v>      -0.00840976       0.00729772       0.02382264 </v>
   <v>      -0.01232014       0.00495590      -0.00123845 </v>
   <v>      -0.02069773      -0.02095797       0.00869890 </v>
   <v>      -0.00000163      -0.00616788      -0.01280497 </v>
   <v>      -0.03463655       0.01695714       0.00213388 </v>
   <v>      -0.06394270      -0.06492470      -0.03757018 </v>
   <v>       0.23786212      -0.19906506      -0.14741653 </v>
   <v>      -0.03754061       0.00396108       0.00854343 </v>
   <v>      -0.00083404      -0.00825398       0.00571603 </v>
   <v>       0.00109230       0.00517410       0.02520076 </v>
   <v>      -0.04038510      -0.08496113       0.01856847 </v>
   <v>      -0.02665084      -0.00571567       0.04061295 </v>
   <v>      -0.01145990      -0.03586303       0.10563038 </v>
   <v>      -0.00500451       0.04654558       0.03857477 </v>
   <v>      -0.03894609       0.01361563       0.00399545 </v>
   <v>       0.02261641       0.01246198       0.01005741 </v>
   <v>       0.03346609      -0.01986079      -0.01043855 </v>
   <v>       0.19274742      -0.01802887       0.05279794 </v>
   <v>      -0.04449219      -0.00992084      -0.02486963 </v>
   <v>       0.01119052      -0.01680889      -0.02109815 </v>
   <v>      -0.00536980      -0.01487110       0.17009102 </v>
   <v>       0.08033367      -0.03848930       0.03854651 </v>
   <v>       0.00779999      -0.00437476      -0.01544141 </v>
   <v>       0.01027491      -0.00981976       0.00412765 </v>
   <v>      -0.02053890       0.07794939      -0.04962945 </v>
   <v>       0.10383930       0.12061520      -0.06523901 </v>
   <v>      -0.00306617       0.01973802       0.01484407 </v>
   <v>      -0.02851065       0.01987345       0.02385324 </v>
   <v>      -0.00107920       0.00141647      -0.04358371 </v>
   <v>       0.01747582       0.02459125       0.23841948 </v>
   <v>       0.00534900      -0.00917661       0.00621438 </v>
   <v>      -0.01316540      -0.04198943       0.05858654 </v>
   <v>      -0.01330869      -0.00359603      -0.02606766 </v>
   <v>      -0.01231592       0.00622686       0.09652850 </v>
   <v>      -0.09268894      -0.03440641       0.01703588 </v>
   <v>       0.01777118       0.00943811       0.01438303 </v>
   <v>       0.01658678      -0.02097830       0.00016803 </v>
   <v>      -0.15621214       0.19356541       0.17326076 </v>
   <v>      -0.00313047      -0.01559915      -0.01071768 </v>
   <v>       0.00070993      -0.28492972       0.15410903 </v>
   <v>       0.05212727      -0.08765648      -0.09012619 </v>
  </varray>
  <energy>
   <i name="e_fr_energy">   -230.76087658 </i>
   <i name="e_wo_entrp">   -230.64803972 </i>
   <i name="e_0_energy">     -0.22567371 </i>
  </energy>
  <time name="totalsc">   65.31   65.77</time>
 </calculation>
 <calculation>
  <scstep>
   <time name="dav">    8.41    8.46</time>
   <time name="total">    8.73    8.80</time>
   <dipole>
    <v name="dipole">      0.00000000       0.00000000       0.75495442 </v>
    <i name="Tr[quadrupol]"> -11007.51101145 </i>
    <i name="Echarged">      0.00000000 </i>
    <i name="Edipol_quadrupol">      0.00000000 </i>
    <i name="Eion">      0.00000000 </i>
   </dipole>
   <energy>
    <i name="alphaZ">    869.12438221 </i>
    <i name="ewald"> 235158.03600876 </i>
    <i name="hartreedc">-280359.52975945 </i>
    <i name="XCdc">   -128.47767763 </i>
    <i name="pawpsdc">  52083.46308894 </i>
    <i name="pawaedc"> -50174.82209920 </i>
    <i name="eentropy">     -0.22599335 </i>
    <i name="bandstr">  -2796.21336546 </i>
    <i name="atom">  45117.89144060 </i>
    <i name="e_fr_energy">   -230.75397460 </i>
    <i name="e_wo_entrp">   -230.52798124 </i>
    <i name="e_0_energy">   -230.64097792 </i>
   </energy>
  </scstep>
  <scstep>
   <time name="diag">    1.48    1.48</time>
   <time name="diis">    4.08    4.09</time>
   <time name="orth">    0.35    0.36</time>
   <time name="total">    6.24    6.26</time>
   <dipole>
    <v name="dipole">      0.00000000       0.00000000       0.75410132 </v>
    <i name="Tr[quadrupol]"> -11007.52411804 </i>
    <i name="Echarged">      0.00000000 </i>
    <i name="Edipol_quadrupol">      0.00000000 </i>
    <i name="Eion">      0.00000000 </i>
   </dipole>
   <energy>
    <i name="e_fr_energy">   -230.76603139 </i>
    <i name="e_wo_entrp">   -230.53919368 </i>
    <i name="e_0_energy">   -230.65261253 </i>
   </energy>
  </scstep>
  <scstep>
   <time name="diag">    1.48    1.48</time>
   <time name="diis">    4.08    4.10</time>
   <time name="orth">    0.35    0.35</time>
   <time name="total">    6.24    6.27</time>
   <dipole>
    <v name="dipole">      0.00000000       0.00000000       0.76434988 </v>
    <i name="Tr[quadrupol]"> -11007.50070373 </i>
    <i name="Echarged">      0.00000000 </i>
    <i name="Edipol_quadrupol">      0.00000000 </i>
    <i name="Eion">      0.00000000 </i>
   </dipole>
   <energy>
    <i name="e_fr_energy">   -230.76662388 </i>
    <i name="e_wo_entrp">   -230.54335670 </i>
    <i name="e_0_energy">   -230.65499029 </i>
   </energy>
  </scstep>
  <scstep>
   <time name="diag">    1.48    1.48</time>
   <time name="diis">    3.99    4.08</time>
   <time name="orth">    0.35    0.35</time>
   <time name="total">    6.15    6.25</time>
   <dipole>
    <v name="dipole">      0.00000000       0.00000000       0.74394029 </v>
    <i name="Tr[quadrupol]"> -11007.50597829 </i>
    <i name="Echarged">      0.00000000 </i>
    <i name="Edipol_quadrupol">      0.00000000 </i>
    <i name="Eion">      0.00000000 </i>
   </dipole>
   <energy>
    <i name="e_fr_energy">   -230.76669654 </i>
    <i name="e_wo_entrp">   -230.53824128 </i>
    <i name="e_0_energy">   -230.65246891 </i>
   </energy>
  </scstep>
  <scstep>
   <time name="diag">    1.47    1.47</time>
   <time name="diis">    4.06    4.10</time>
   <time name="orth">    0.35    0.35</time>
   <time name="total">    6.21    6.26</time>
   <dipole>
    <v name="dipole">      0.00000000       0.00000000       0.76046829 </v>
    <i name="Tr[quadrupol]"> -11007.52586422 </i>
    <i name="Echarged">      0.00000000 </i>
    <i name="Edipol_quadrupol">      0.00000000 </i>
    <i name="Eion">      0.00000000 </i>
   </dipole>
   <energy>
    <i name="e_fr_energy">   -230.76496127 </i>
    <i name="e_wo_entrp">   -230.53960779 </i>
    <i name="e_0_energy">   -230.65228453 </i>
   </energy>
  </scstep>
  <scstep>
   <time name="diag">    1.48    1.48</time>
   <time name="diis">    4.02    4.04</time>
   <time name="orth">    0.35    0.35</time>
   <time name="total">    6.18    6.20</time>
   <dipole>
    <v name="dipole">      0.00000000       0.00000000       0.75672569 </v>
    <i name="Tr[quadrupol]"> -11007.51199261 </i>
    <i name="Echarged">      0.00000000 </i>
    <i name="Edipol_quadrupol">      0.00000000 </i>
    <i name="Eion">      0.00000000 </i>
   </dipole>
   <energy>
    <i name="e_fr_energy">   -230.76457015 </i>
    <i name="e_wo_entrp">   -230.53902538 </i>
    <i name="e_0_energy">   -230.65179776 </i>
   </energy>
  </scstep>
  <scstep>
   <time name="diag">    1.49    1.50</time>
   <time name="diis">    4.07    4.08</time>
   <time name="orth">    0.36    0.36</time>
   <time name="total">    6.25    6.27</time>
   <dipole>
    <v name="dipole">      0.00000000       0.00000000       0.75593102 </v>
    <i name="Tr[quadrupol]"> -11007.51606034 </i>
    <i name="Echarged">      0.00000000 </i>
    <i name="Edipol_quadrupol">      0.00000000 </i>
    <i name="Eion">      0.00000000 </i>
   </dipole>
   <energy>
    <i name="e_fr_energy">   -230.76444659 </i>
    <i name="e_wo_entrp">   -230.53844350 </i>
    <i name="e_0_energy">   -230.65144505 </i>
   </energy>
  </scstep>
  <scstep>
   <time name="diag">    1.47    1.47</time>
   <time name="diis">    4.07    4.08</time>
   <time name="orth">    0.35    0.36</time>
   <time name="total">    6.21    6.24</time>
   <dipole>
    <v name="dipole">      0.00000000       0.00000000       0.75567100 </v>
    <i name="Tr[quadrupol]"> -11007.51385290 </i>
    <i name="Echarged">      0.00000000 </i>
    <i name="Edipol_quadrupol">      0.00000000 </i>
    <i name="Eion">      0.00000000 </i>
   </dipole>
   <energy>
    <i name="e_fr_energy">   -230.76432536 </i>
    <i name="e_wo_entrp">   -230.53829735 </i>
    <i name="e_0_energy">   -230.65131136 </i>
   </energy>
  </scstep>
  <scstep>
   <time name="diag">    1.46    1.47</time>
   <time name="diis">    4.08    4.09</time>
   <time name="orth">    0.35    0.36</time>
   <time name="total">    6.22    6.24</time>
   <dipole>
    <v name="dipole">      0.00000000       0.00000000       0.75559117 </v>
    <i name="Tr[quadrupol]"> -11007.51416321 </i>
    <i name="Echarged">      0.00000000 </i>
    <i name="Edipol_quadrupol">      0.00000000 </i>
    <i name="Eion">      0.00000000 </i>
   </dipole>
   <energy>
    <i name="e_fr_energy">   -230.76431151 </i>
    <i name="e_wo_entrp">   -230.53828226 </i>
    <i name="e_0_energy">   -230.65129688 </i>
   </energy>
  </scstep>
  <scstep>
   <time name="diag">    1.47    1.47</time>
