  48  48   0   0
  0.5349325E+02  0.1100258E-08  0.1100258E-08  0.2449179E-08  0.3500000E-15
  1.000000000000000E-004
  CAR 
 unknown system                          
      6.39600996     -9.81300491  301     -1.10938285      1.00000000
     -9.813  0.0000E+00  0.0000E+00
     -9.759  0.0000E+00  0.0000E+00
     -9.705  0.0000E+00  0.0000E+00
     -9.651  0.0000E+00  0.0000E+00
     -9.597  0.0000E+00  0.0000E+00
     -9.543  0.0000E+00  0.0000E+00
     -9.489  0.0000E+00  0.0000E+00
     -9.435  0.0000E+00  0.0000E+00
     -9.381  0.7534E-17  0.4071E-18
     -9.327  0.3077E-14  0.1666E-15
     -9.273  0.6896E-12  0.3743E-13
     -9.219  0.8767E-10  0.4774E-11
     -9.165  0.6336E-08  0.3471E-09
     -9.111  0.2609E-06  0.1444E-07
     -9.057  0.6138E-05  0.3461E-06
     -9.003  0.8268E-04  0.4813E-05
     -8.949  0.6396E-03  0.3937E-04
     -8.894  0.2847E-02  0.1932E-03
     -8.840  0.7322E-02  0.5888E-03
     -8.786  0.1101E-01  0.1184E-02
     -8.732  0.1042E-01  0.1747E-02
     -8.678  0.8645E-02  0.2214E-02
     -8.624  0.9706E-02  0.2738E-02
     -8.570  0.1062E-01  0.3312E-02
     -8.516  0.7872E-02  0.3738E-02
     -8.462  0.3638E-02  0.3934E-02
     -8.408  0.1092E-02  0.3993E-02
     -8.354  0.5852E-03  0.4025E-02
     -8.300  0.1558E-02  0.4109E-02
     -8.246  0.3550E-02  0.4301E-02
     -8.192  0.5581E-02  0.4602E-02
     -8.138  0.7177E-02  0.4990E-02
     -8.084  0.8763E-02  0.5464E-02
     -8.030  0.1110E-01  0.6063E-02
     -7.976  0.1533E-01  0.6892E-02
     -7.922  0.1963E-01  0.7953E-02
     -7.868  0.1902E-01  0.8980E-02
     -7.814  0.1327E-01  0.9697E-02
     -7.760  0.8907E-02  0.1018E-01
     -7.706  0.9757E-02  0.1071E-01
     -7.652  0.1170E-01  0.1134E-01
     -7.598  0.1117E-01  0.1194E-01
     -7.544  0.1136E-01  0.1255E-01
     -7.490  0.1417E-01  0.1332E-01
     -7.436  0.1778E-01  0.1428E-01
     -7.382  0.2244E-01  0.1549E-01
     -7.328  0.2712E-01  0.1696E-01
     -7.274  0.2962E-01  0.1856E-01
     -7.220  0.3144E-01  0.2026E-01
     -7.166  0.3395E-01  0.2209E-01
     -7.112  0.3782E-01  0.2414E-01
     -7.057  0.4331E-01  0.2648E-01
     -7.003  0.4782E-01  0.2906E-01
     -6.949  0.5023E-01  0.3177E-01
     -6.895  0.5484E-01  0.3474E-01
     -6.841  0.6396E-01  0.3819E-01
     -6.787  0.7317E-01  0.4215E-01
     -6.733  0.7883E-01  0.4640E-01
     -6.679  0.8208E-01  0.5084E-01
     -6.625  0.8536E-01  0.5545E-01
     -6.571  0.9011E-01  0.6032E-01
     -6.517  0.9732E-01  0.6558E-01
     -6.463  0.1061E+00  0.7131E-01
     -6.409  0.1159E+00  0.7757E-01
     -6.355  0.1287E+00  0.8453E-01
     -6.301  0.1438E+00  0.9230E-01
     -6.247  0.1570E+00  0.1008E+00
     -6.193  0.1651E+00  0.1097E+00
     -6.139  0.1678E+00  0.1188E+00
     -6.085  0.1678E+00  0.1278E+00
     -6.031  0.1672E+00  0.1369E+00
     -5.977  0.1661E+00  0.1458E+00
     -5.923  0.1649E+00  0.1548E+00
     -5.869  0.1618E+00  0.1635E+00
     -5.815  0.1544E+00  0.1718E+00
     -5.761  0.1446E+00  0.1796E+00
     -5.707  0.1360E+00  0.1870E+00
     -5.653  0.1311E+00  0.1941E+00
     -5.599  0.1290E+00  0.2011E+00
     -5.545  0.1263E+00  0.2079E+00
     -5.491  0.1224E+00  0.2145E+00
     -5.437  0.1200E+00  0.2210E+00
     -5.383  0.1241E+00  0.2277E+00
     -5.329  0.1384E+00  0.2352E+00
     -5.274  0.1568E+00  0.2436E+00
     -5.220  0.1690E+00  0.2528E+00
     -5.166  0.1745E+00  0.2622E+00
     -5.112  0.1778E+00  0.2718E+00
     -5.058  0.1810E+00  0.2816E+00
     -5.004  0.1838E+00  0.2915E+00
     -4.950  0.1843E+00  0.3015E+00
     -4.896  0.1812E+00  0.3113E+00
     -4.842  0.1763E+00  0.3208E+00
     -4.788  0.1715E+00  0.3300E+00
     -4.734  0.1679E+00  0.3391E+00
     -4.680  0.1670E+00  0.3481E+00
     -4.626  0.1693E+00  0.3573E+00
     -4.572  0.1729E+00  0.3666E+00
     -4.518  0.1744E+00  0.3760E+00
     -4.464  0.1720E+00  0.3853E+00
     -4.410  0.1681E+00  0.3944E+00
     -4.356  0.1668E+00  0.4034E+00
     -4.302  0.1685E+00  0.4125E+00
     -4.248  0.1702E+00  0.4217E+00
     -4.194  0.1704E+00  0.4309E+00
     -4.140  0.1691E+00  0.4401E+00
     -4.086  0.1675E+00  0.4491E+00
     -4.032  0.1697E+00  0.4583E+00
     -3.978  0.1759E+00  0.4678E+00
     -3.924  0.1807E+00  0.4776E+00
     -3.870  0.1837E+00  0.4875E+00
     -3.816  0.1871E+00  0.4976E+00
     -3.762  0.1883E+00  0.5078E+00
     -3.708  0.1871E+00  0.5179E+00
     -3.654  0.1897E+00  0.5281E+00
     -3.600  0.1985E+00  0.5389E+00
     -3.546  0.2052E+00  0.5499E+00
     -3.491  0.2034E+00  0.5609E+00
     -3.437  0.1973E+00  0.5716E+00
     -3.383  0.1961E+00  0.5822E+00
     -3.329  0.2008E+00  0.5930E+00
     -3.275  0.2037E+00  0.6040E+00
     -3.221  0.1998E+00  0.6148E+00
     -3.167  0.1898E+00  0.6251E+00
     -3.113  0.1801E+00  0.6348E+00
     -3.059  0.1758E+00  0.6443E+00
     -3.005  0.1762E+00  0.6538E+00
     -2.951  0.1788E+00  0.6635E+00
     -2.897  0.1833E+00  0.6734E+00
     -2.843  0.1888E+00  0.6836E+00
     -2.789  0.1923E+00  0.6940E+00
     -2.735  0.1936E+00  0.7045E+00
     -2.681  0.1945E+00  0.7150E+00
     -2.627  0.1945E+00  0.7255E+00
     -2.573  0.1920E+00  0.7358E+00
     -2.519  0.1879E+00  0.7460E+00
     -2.465  0.1856E+00  0.7560E+00
     -2.411  0.1850E+00  0.7660E+00
     -2.357  0.1831E+00  0.7759E+00
     -2.303  0.1794E+00  0.7856E+00
     -2.249  0.1780E+00  0.7952E+00
     -2.195  0.1807E+00  0.8050E+00
     -2.141  0.1854E+00  0.8150E+00
     -2.087  0.1905E+00  0.8253E+00
     -2.033  0.1956E+00  0.8359E+00
     -1.979  0.2008E+00  0.8467E+00
     -1.925  0.2050E+00  0.8578E+00
     -1.871  0.2075E+00  0.8690E+00
     -1.817  0.2088E+00  0.8803E+00
     -1.763  0.2096E+00  0.8916E+00
     -1.708  0.2096E+00  0.9029E+00
     -1.654  0.2057E+00  0.9140E+00
     -1.600  0.1979E+00  0.9247E+00
     -1.546  0.1915E+00  0.9351E+00
     -1.492  0.1889E+00  0.9453E+00
     -1.438  0.1863E+00  0.9554E+00
     -1.384  0.1830E+00  0.9652E+00
     -1.330  0.1813E+00  0.9750E+00
     -1.276  0.1788E+00  0.9847E+00
     -1.222  0.1677E+00  0.9938E+00
     -1.168  0.1433E+00  0.1001E+01
     -1.114  0.1119E+00  0.1008E+01
     -1.060  0.8214E-01  0.1012E+01
     -1.006  0.5752E-01  0.1015E+01
     -0.952  0.3877E-01  0.1017E+01
     -0.898  0.2667E-01  0.1019E+01
     -0.844  0.2056E-01  0.1020E+01
     -0.790  0.1819E-01  0.1021E+01
     -0.736  0.1762E-01  0.1022E+01
     -0.682  0.1888E-01  0.1023E+01
     -0.628  0.2335E-01  0.1024E+01
     -0.574  0.3061E-01  0.1026E+01
     -0.520  0.3911E-01  0.1028E+01
     -0.466  0.4609E-01  0.1030E+01
     -0.412  0.4672E-01  0.1033E+01
     -0.358  0.4120E-01  0.1035E+01
     -0.304  0.3808E-01  0.1037E+01
     -0.250  0.4126E-01  0.1039E+01
     -0.196  0.4262E-01  0.1042E+01
     -0.142  0.3638E-01  0.1044E+01
     -0.088  0.2669E-01  0.1045E+01
     -0.034  0.1875E-01  0.1046E+01
      0.020  0.1571E-01  0.1047E+01
      0.074  0.1952E-01  0.1048E+01
      0.129  0.2827E-01  0.1049E+01
      0.183  0.3573E-01  0.1051E+01
      0.237  0.3841E-01  0.1053E+01
      0.291  0.3798E-01  0.1055E+01
      0.345  0.3590E-01  0.1057E+01
      0.399  0.3461E-01  0.1059E+01
      0.453  0.3664E-01  0.1061E+01
      0.507  0.4089E-01  0.1063E+01
      0.561  0.4528E-01  0.1066E+01
      0.615  0.4910E-01  0.1069E+01
      0.669  0.4981E-01  0.1071E+01
      0.723  0.4522E-01  0.1074E+01
      0.777  0.3777E-01  0.1076E+01
      0.831  0.2948E-01  0.1077E+01
      0.885  0.2276E-01  0.1079E+01
      0.939  0.2098E-01  0.1080E+01
      0.993  0.2368E-01  0.1081E+01
      1.047  0.2712E-01  0.1082E+01
      1.101  0.2650E-01  0.1084E+01
      1.155  0.2061E-01  0.1085E+01
      1.209  0.1307E-01  0.1086E+01
      1.263  0.8739E-02  0.1086E+01
      1.317  0.9527E-02  0.1087E+01
      1.371  0.1194E-01  0.1087E+01
      1.425  0.1365E-01  0.1088E+01
      1.479  0.1925E-01  0.1089E+01
      1.533  0.3017E-01  0.1091E+01
      1.587  0.3788E-01  0.1093E+01
      1.641  0.3642E-01  0.1095E+01
      1.695  0.3074E-01  0.1096E+01
      1.749  0.2889E-01  0.1098E+01
      1.803  0.3232E-01  0.1100E+01
      1.857  0.3419E-01  0.1102E+01
      1.912  0.2927E-01  0.1103E+01
      1.966  0.2272E-01  0.1104E+01
      2.020  0.2104E-01  0.1106E+01
      2.074  0.2388E-01  0.1107E+01
      2.128  0.2919E-01  0.1108E+01
      2.182  0.3537E-01  0.1110E+01
      2.236  0.4017E-01  0.1112E+01
      2.290  0.4229E-01  0.1115E+01
      2.344  0.4321E-01  0.1117E+01
      2.398  0.4450E-01  0.1119E+01
      2.452  0.4481E-01  0.1122E+01
      2.506  0.4365E-01  0.1124E+01
      2.560  0.4316E-01  0.1127E+01
      2.614  0.4481E-01  0.1129E+01
      2.668  0.4792E-01  0.1132E+01
      2.722  0.4671E-01  0.1134E+01
      2.776  0.3626E-01  0.1136E+01
      2.830  0.2261E-01  0.1137E+01
      2.884  0.1485E-01  0.1138E+01
      2.938  0.1337E-01  0.1139E+01
      2.992  0.1194E-01  0.1139E+01
      3.046  0.8490E-02  0.1140E+01
      3.100  0.8249E-02  0.1140E+01
      3.154  0.1472E-01  0.1141E+01
      3.208  0.2397E-01  0.1142E+01
      3.262  0.2777E-01  0.1144E+01
      3.316  0.2202E-01  0.1145E+01
      3.370  0.1277E-01  0.1146E+01
      3.424  0.1017E-01  0.1146E+01
      3.478  0.1783E-01  0.1147E+01
      3.532  0.3030E-01  0.1149E+01
      3.586  0.4046E-01  0.1151E+01
      3.640  0.4588E-01  0.1154E+01
      3.695  0.4520E-01  0.1156E+01
      3.749  0.3769E-01  0.1158E+01
      3.803  0.2692E-01  0.1160E+01
      3.857  0.1974E-01  0.1161E+01
      3.911  0.1972E-01  0.1162E+01
      3.965  0.2488E-01  0.1163E+01
      4.019  0.3037E-01  0.1165E+01
      4.073  0.3060E-01  0.1166E+01
      4.127  0.2571E-01  0.1168E+01
      4.181  0.2271E-01  0.1169E+01
      4.235  0.2278E-01  0.1170E+01
      4.289  0.1980E-01  0.1171E+01
      4.343  0.1536E-01  0.1172E+01
      4.397  0.1749E-01  0.1173E+01
      4.451  0.2594E-01  0.1174E+01
      4.505  0.3351E-01  0.1176E+01
      4.559  0.3910E-01  0.1178E+01
      4.613  0.4581E-01  0.1181E+01
      4.667  0.5054E-01  0.1184E+01
      4.721  0.5030E-01  0.1186E+01
      4.775  0.4982E-01  0.1189E+01
      4.829  0.5334E-01  0.1192E+01
      4.883  0.5832E-01  0.1195E+01
      4.937  0.6121E-01  0.1198E+01
      4.991  0.6239E-01  0.1202E+01
      5.045  0.6299E-01  0.1205E+01
      5.099  0.6164E-01  0.1208E+01
      5.153  0.5855E-01  0.1212E+01
      5.207  0.5761E-01  0.1215E+01
      5.261  0.5709E-01  0.1218E+01
      5.315  0.4938E-01  0.1220E+01
      5.369  0.3431E-01  0.1222E+01
      5.423  0.1922E-01  0.1223E+01
      5.477  0.8492E-02  0.1224E+01
      5.532  0.2683E-02  0.1224E+01
      5.586  0.5468E-03  0.1224E+01
      5.640  0.6766E-04  0.1224E+01
      5.694  0.4935E-05  0.1224E+01
      5.748  0.2092E-06  0.1224E+01
      5.802  0.5112E-08  0.1224E+01
      5.856  0.7155E-10  0.1224E+01
      5.910  0.5712E-12  0.1224E+01
      5.964  0.2592E-14  0.1224E+01
      6.018  0.5480E-17  0.1224E+01
      6.072  0.0000E+00  0.1224E+01
      6.126  0.0000E+00  0.1224E+01
      6.180  0.0000E+00  0.1224E+01
      6.234  0.0000E+00  0.1224E+01
      6.288  0.0000E+00  0.1224E+01
      6.342  0.0000E+00  0.1224E+01
      6.396  0.0000E+00  0.1224E+01
