unknown system                          
           1
    11.002582    0.000000    0.000000
     5.501291    9.528515    0.000000
     0.000000    0.000000   24.491785
   Au   Pd
  24  24
Direct configuration=     1
   0.08333333  0.08333333  0.40830017
   0.83333333  0.83333333  0.40830017
   0.75000000  0.50000000  0.59169983
   0.66666667  0.66666667  0.50000000
   0.66666667  0.41666667  0.50000000
   0.83333333  0.33333333  0.40830017
   0.50000000  0.75000000  0.59169983
   0.41666667  0.66666667  0.50000000
   0.58333333  0.58333333  0.40830017
   0.41666667  0.41666667  0.50000000
   0.50000000  0.00000000  0.59169983
   0.66666667  0.91666667  0.50000000
   0.16666667  0.91666667  0.50000000
   0.25000000  0.50000000  0.59169983
   0.16666667  0.66666667  0.50000000
   0.25000000  0.25000000  0.59169983
   0.75000000  0.75000000  0.59169983
   0.33333333  0.33333333  0.40830017
   0.00000000  0.00000000  0.59169983
   0.16666667  0.16666667  0.50000000
   0.08333333  0.33333333  0.40830017
   0.00000000  0.25000000  0.59169983
   0.08333333  0.83333333  0.40830017
   0.91666667  0.66666667  0.50000000
   0.91666667  0.16666667  0.50000000
   0.83333333  0.58333333  0.40830017
   0.75000000  0.25000000  0.59169983
   0.91666667  0.41666667  0.50000000
   0.75000000  0.00000000  0.59169983
   0.66666667  0.16666667  0.50000000
   0.83333333  0.08333333  0.40830017
   0.08333333  0.58333333  0.40830017
   0.41666667  0.91666667  0.50000000
   0.50000000  0.50000000  0.59169983
   0.16666667  0.41666667  0.50000000
   0.00000000  0.50000000  0.59169983
   0.50000000  0.25000000  0.59169983
   0.58333333  0.33333333  0.40830017
   0.91666667  0.91666667  0.50000000
   0.41666667  0.16666667  0.50000000
   0.58333333  0.08333333  0.40830017
   0.00000000  0.75000000  0.59169983
   0.33333333  0.08333333  0.40830017
   0.33333333  0.83333333  0.40830017
   0.25000000  0.00000000  0.59169983
   0.33333333  0.58333333  0.40830017
   0.58333333  0.83333333  0.40830017
   0.25000000  0.75000000  0.59169983
Direct configuration=     2
   0.08344157  0.08290018  0.40614031
   0.83288406  0.83358448  0.40615850
   0.75061832  0.49887368  0.59389592
   0.66706324  0.66705083  0.49920032
   0.66770245  0.41392933  0.50034756
   0.83313069  0.33311740  0.40641287
   0.49817555  0.75052981  0.59398395
   0.41551929  0.66762994  0.49998491
   0.58256536  0.58420965  0.40582104
   0.41776349  0.41471821  0.50001062
   0.49944633  0.00099997  0.59357810
   0.66539412  0.91939786  0.49957230
   0.16730099  0.91676073  0.50033080
   0.24976522  0.50042061  0.59385859
   0.16577945  0.66666590  0.50003470
   0.25026383  0.25024345  0.59354478
   0.75153647  0.75002494  0.59424528
   0.33380432  0.33308255  0.40648655
  -0.00059701 -0.00047664  0.59348535
   0.16788793  0.16637044  0.50001198
   0.08309780  0.33456554  0.40645284
  -0.00058383  0.25033612  0.59354216
   0.08349201  0.83286750  0.40609277
   0.91866942  0.66468527  0.50000527
   0.91509273  0.16665176  0.50005613
   0.83357900  0.58350928  0.40705299
   0.74919046  0.24951922  0.59260381
   0.91731405  0.41679320  0.50003737
   0.75003419  0.00089647  0.59254533
   0.66734055  0.16600700  0.49998127
   0.83209046  0.08387613  0.40753950
   0.08340783  0.58310648  0.40705668
   0.41622109  0.91753253  0.49949244
   0.50001909  0.49962364  0.59309517
   0.16599773  0.41674745  0.49996886
   0.00015758  0.50012477  0.59275382
   0.50120266  0.24950308  0.59261673
   0.58364826  0.33218974  0.40715482
   0.91544976  0.91833950  0.50027488
   0.41729185  0.16636523  0.49973844
   0.58325170  0.08370189  0.40744843
  -0.00019877  0.75038400  0.59292106
   0.33484855  0.08222900  0.40735861
   0.33398457  0.83343225  0.40707295
   0.25035472 -0.00054348  0.59293554
   0.33331035  0.58331071  0.40682866
   0.58233755  0.83418833  0.40715218
   0.24995296  0.75002411  0.59311685
Direct configuration=     3
   0.08376629  0.08160072  0.39966072
   0.83153624  0.83433792  0.39973350
   0.75247328  0.49549474  0.60048420
   0.66825294  0.66820330  0.49680129
   0.67080982  0.40571731  0.50139024
   0.83252276  0.33246958  0.40075096
   0.49270218  0.75211922  0.60083629
   0.41207716  0.67051974  0.49993964
   0.58026143  0.58683859  0.39838365
   0.42105397  0.40887285  0.50004246
   0.49778531  0.00399989  0.59921289
   0.66157647  0.92759144  0.49828921
   0.16920396  0.91704292  0.50132318
   0.24906088  0.50168243  0.60033488
   0.16311781  0.66666359  0.50013880
   0.25105532  0.25097380  0.59907964
   0.75614588  0.75009975  0.60188162
   0.33521726  0.33233019  0.40104568
  -0.00238803 -0.00190657  0.59884189
   0.17155170  0.16548175  0.50004791
   0.08239119  0.33826216  0.40091083
  -0.00233532  0.25134446  0.59906914
   0.08396805  0.83147001  0.39947058
   0.92467768  0.65874107  0.50002109
   0.91037093  0.16660706  0.50022454
   0.83431601  0.58403710  0.40331146
   0.74676185  0.24807686  0.59531574
   0.91925620  0.41717279  0.50014948
   0.75013676  0.00358586  0.59508181
   0.66936222  0.16402800  0.49992507
   0.82836183  0.08550453  0.40525750
   0.08363131  0.58242591  0.40332622
   0.41488437  0.92013012  0.49796978
   0.50007636  0.49849457  0.59728119
   0.16399092  0.41698981  0.49987544
   0.00063034  0.50049908  0.59591579
   0.50481063  0.24801231  0.59536743
   0.58459305  0.32875896  0.40371879
   0.91179905  0.92335801  0.50109953
   0.41916739  0.16546091  0.49895376
   0.58300680  0.08480758  0.40489323
  -0.00079507  0.75153601  0.59658476
   0.33939419  0.07891598  0.40453393
   0.33593828  0.83372899  0.40339131
   0.25141886 -0.00217394  0.59664267
   0.33324141  0.58324283  0.40241414
   0.57935022  0.83675332  0.40370823
   0.24981184  0.75009644  0.59736790
Direct configuration=     4
   0.08402829  0.08185057  0.39835984
   0.83160763  0.83389520  0.39829870
   0.75022399  0.49819178  0.60178625
   0.66764581  0.66806808  0.49750084
   0.66938850  0.41103462  0.50103241
   0.83209640  0.33340825  0.39945271
   0.49583353  0.75087034  0.60216997
   0.41555644  0.66712677  0.49992772
   0.58074371  0.58549492  0.39671724
   0.41853090  0.41099918  0.50006325
   0.49932493  0.00202789  0.60056925
   0.66439038  0.92249273  0.49884493
   0.16574470  0.91908678  0.50102938
   0.24978155  0.50161790  0.60189724
   0.16470328  0.66695375  0.50004886
   0.25072838  0.25152703  0.60047115
   0.75399132  0.75080346  0.60325700
   0.33472912  0.33268395  0.39953334
  -0.00141177 -0.00146384  0.60044477
   0.16898349  0.16705270  0.49995775
   0.08303794  0.33637658  0.39946393
  -0.00106979  0.24942160  0.60019845
   0.08385561  0.83179377  0.39805335
   0.91960125  0.66380173  0.50001333
   0.91495724  0.16507883  0.50016037
   0.83342122  0.58464834  0.40211843
   0.74723187  0.24784209  0.59678644
   0.91832218  0.41484917  0.50012931
   0.74929660  0.00274219  0.59608919
   0.66850241  0.16422839  0.49980093
   0.82924899  0.08459212  0.40435967
   0.08400898  0.58325491  0.40210737
   0.41714434  0.91846137  0.49875581
   0.49970460  0.49898417  0.59807564
   0.16795734  0.41392656  0.49997487
   0.00091441  0.50021357  0.59701941
   0.50402092  0.24865597  0.59631088
   0.58427548  0.33011737  0.40264410
   0.91372096  0.92080630  0.50061482
   0.41693958  0.16756103  0.49928558
   0.58293602  0.08486641  0.40331024
  -0.00028193  0.75140573  0.59751338
   0.33799566  0.08040160  0.40330518
   0.33475210  0.83386784  0.40231646
   0.24983775 -0.00050881  0.59767959
   0.33362917  0.58280758  0.40167935
   0.58054669  0.83650101  0.40237135
   0.24887182  0.74958054  0.59849997
Direct configuration=     5
   0.08412399  0.08194182  0.39788468
   0.83163371  0.83373349  0.39777463
   0.74940242  0.49917688  0.60226183
   0.66742405  0.66801869  0.49775636
   0.66886936  0.41297679  0.50090172
   0.83194067  0.33375111  0.39897851
   0.49697728  0.75041418  0.60265710
   0.41682727  0.66588746  0.49992337
   0.58091986  0.58500414  0.39610858
   0.41760934  0.41177584  0.50007085
   0.49988728  0.00130761  0.60106467
   0.66541818  0.92063039  0.49904792
   0.16448119  0.91983331  0.50092207
   0.25004477  0.50159434  0.60246791
   0.16528238  0.66705973  0.50001601
   0.25060897  0.25172910  0.60097941
   0.75320435  0.75106049  0.60375937
   0.33455083  0.33281316  0.39898095
  -0.00105519 -0.00130213  0.60103023
   0.16804543  0.16762650  0.49992481
   0.08327417  0.33568785  0.39893543
  -0.00060754  0.24871926  0.60061093
   0.08381454  0.83191202  0.39753569
   0.91774706  0.66565017  0.50001049
   0.91663241  0.16452064  0.50013693
   0.83309440  0.58487160  0.40168267
   0.74740355  0.24775634  0.59732362
   0.91798102  0.41400046  0.50012194
   0.74898973  0.00243403  0.59645714
   0.66818836  0.16430158  0.49975558
   0.82957303  0.08425886  0.40403173
   0.08414692  0.58355770  0.40166218
   0.41796980  0.91785184  0.49904291
   0.49956881  0.49916299  0.59836581
   0.16940610  0.41280769  0.50001118
   0.00101817  0.50010929  0.59742251
   0.50373247  0.24889107  0.59665548
   0.58415949  0.33061354  0.40225156
   0.91442295  0.91987428  0.50043778
   0.41612586  0.16832811  0.49940678
   0.58291017  0.08488790  0.40273204
  -0.00009450  0.75135814  0.59785257
   0.33748483  0.08094424  0.40285637
   0.33431884  0.83391855  0.40192386
   0.24926024  0.00009939  0.59805833
   0.33377080  0.58264860  0.40141097
   0.58098371  0.83640885  0.40188305
   0.24852847  0.74939210  0.59891347
Direct configuration=     6
   0.08404257  0.08221943  0.39750913
   0.83186991  0.83366261  0.39733193
   0.74956682  0.49940327  0.60249633
   0.66729457  0.66715310  0.49816934
   0.66923697  0.41315861  0.50074173
   0.83200831  0.33377407  0.39872607
   0.49715766  0.75056098  0.60289070
   0.41690429  0.66659213  0.49993900
   0.58104246  0.58492823  0.39557860
   0.41750426  0.41280920  0.50003101
   0.49967727  0.00106209  0.60135195
   0.66547078  0.92011871  0.49923820
   0.16587646  0.91851029  0.50068260
   0.25014627  0.50151475  0.60293843
   0.16538851  0.66684775  0.49995291
   0.25087488  0.25134738  0.60141705
   0.75282525  0.75073417  0.60418564
   0.33434785  0.33309750  0.39847057
  -0.00114837 -0.00128579  0.60154218
   0.16798097  0.16717219  0.49983382
   0.08320160  0.33534780  0.39859018
  -0.00120586  0.24941153  0.60089590
   0.08381904  0.83220068  0.39714681
   0.91814250  0.66505659  0.50002738
   0.91618245  0.16542129  0.50010082
   0.83300748  0.58475657  0.40152127
   0.74778454  0.24829916  0.59749922
   0.91784526  0.41444822  0.50013535
   0.74917540  0.00173062  0.59665245
   0.66818294  0.16498952  0.49966518
   0.83040026  0.08400043  0.40386354
   0.08397217  0.58361689  0.40162713
   0.41751446  0.91750279  0.49955003
   0.49952809  0.49937358  0.59843309
   0.16794517  0.41437415  0.50001223
   0.00051255  0.50025289  0.59738783
   0.50299733  0.24922899  0.59688242
   0.58400137  0.33139245  0.40212316
   0.91509412  0.91909353  0.50016279
   0.41678705  0.16700098  0.49961159
   0.58287335  0.08457156  0.40241231
  -0.00024826  0.75105239  0.59794435
   0.33671975  0.08139155  0.40267350
   0.33407184  0.83373734  0.40198980
   0.24965328 -0.00009867  0.59815611
   0.33381604  0.58270314  0.40138423
   0.58121834  0.83611463  0.40156123
   0.24894006  0.74964872  0.59896289
Direct configuration=     7
   0.08399851  0.08236967  0.39730589
   0.83199773  0.83362426  0.39709235
   0.74965580  0.49952579  0.60262324
   0.66722450  0.66668465  0.49839284
   0.66943592  0.41325700  0.50065515
   0.83204491  0.33378650  0.39858944
   0.49725529  0.75064043  0.60301712
   0.41694597  0.66697348  0.49994747
   0.58110880  0.58488716  0.39529179
   0.41744739  0.41336845  0.50000945
   0.49956361  0.00092922  0.60150742
   0.66549924  0.91984179  0.49934118
   0.16663156  0.91779429  0.50055300
   0.25020120  0.50147168  0.60319308
   0.16544594  0.66673302  0.49991876
   0.25101879  0.25114080  0.60165390
   0.75262008  0.75055757  0.60441633
   0.33423799  0.33325138  0.39819435
  -0.00119880 -0.00127695  0.60181924
   0.16794609  0.16692632  0.49978458
   0.08316233  0.33516376  0.39840333
  -0.00152967  0.24978618  0.60105012
   0.08382147  0.83235689  0.39693634
   0.91835650  0.66473535  0.50003652
   0.91593893  0.16590872  0.50008128
   0.83296045  0.58469432  0.40143393
   0.74799073  0.24859293  0.59759426
   0.91777179  0.41469054  0.50014261
   0.74927588  0.00134994  0.59675816
   0.66818000  0.16536183  0.49961625
   0.83084794  0.08386058  0.40377252
   0.08387760  0.58364892  0.40160816
   0.41726804  0.91731389  0.49982448
   0.49950605  0.49948754  0.59846951
   0.16715454  0.41522190  0.50001279
   0.00023891  0.50033061  0.59736906
   0.50259949  0.24941186  0.59700524
   0.58391581  0.33181399  0.40205367
   0.91545735  0.91867100  0.50001397
   0.41714487  0.16628275  0.49972244
   0.58285343  0.08440037  0.40223928
  -0.00033148  0.75088691  0.59799402
   0.33630570  0.08163364  0.40257452
   0.33393817  0.83363927  0.40202548
   0.24986599 -0.00020585  0.59820903
   0.33384053  0.58273266  0.40136976
   0.58134533  0.83595540  0.40138707
   0.24916280  0.74978760  0.59898963
Direct configuration=     8
   0.08393970  0.08240573  0.39707713
   0.83195726  0.83367932  0.39689633
   0.74970732  0.49939053  0.60279138
   0.66738114  0.66666387  0.49849811
   0.66949759  0.41287112  0.50058700
   0.83208682  0.33371602  0.39847165
   0.49705706  0.75063939  0.60321484
   0.41696562  0.66710088  0.49995400
   0.58108419  0.58528316  0.39495364
   0.41750892  0.41301340  0.49998039
   0.49953195  0.00112827  0.60169359
   0.66555025  0.91986027  0.49930918
   0.16648568  0.91768915  0.50047023
   0.25000202  0.50156002  0.60344508
   0.16546053  0.66666035  0.49994640
   0.25075029  0.25116707  0.60179142
   0.75271897  0.75036936  0.60472530
   0.33432954  0.33318050  0.39810000
  -0.00129240 -0.00138034  0.60189905
   0.16804574  0.16698791  0.49978733
   0.08305446  0.33546666  0.39826569
  -0.00146662  0.24998718  0.60114301
   0.08393148  0.83230627  0.39666508
   0.91821746  0.66454954  0.49999540
   0.91591649  0.16564527  0.50012292
   0.83291729  0.58465235  0.40150283
   0.74785863  0.24878303  0.59751520
   0.91809854  0.41494834  0.50009039
   0.74929460  0.00141632  0.59667041
   0.66830414  0.16530996  0.49956909
   0.83098926  0.08398968  0.40376704
   0.08369337  0.58358264  0.40166182
   0.41736936  0.91729665  0.50000810
   0.49966978  0.49952700  0.59838359
   0.16701939  0.41515294  0.50000995
   0.00028544  0.50026704  0.59729678
   0.50264030  0.24938573  0.59698137
   0.58391716  0.33179801  0.40206289
   0.91557001  0.91887528  0.49988995
   0.41727325  0.16632253  0.49976972
   0.58280900  0.08436385  0.40225741
  -0.00040318  0.75074580  0.59792806
   0.33636527  0.08144659  0.40267552
   0.33412619  0.83357141  0.40214271
   0.24969872 -0.00016268  0.59819859
   0.33369897  0.58293966  0.40142002
   0.58110666  0.83586620  0.40151445
   0.24927639  0.74998077  0.59889995
Direct configuration=     9
   0.08387183  0.08244736  0.39681309
   0.83191054  0.83374287  0.39667009
   0.74976680  0.49923441  0.60298543
   0.66756193  0.66663988  0.49861962
   0.66956877  0.41242574  0.50050835
   0.83213519  0.33363466  0.39833569
   0.49682827  0.75063819  0.60344305
   0.41698830  0.66724792  0.49996153
   0.58105578  0.58574022  0.39456336
   0.41757994  0.41260361  0.49994685
   0.49949541  0.00135802  0.60190846
   0.66560912  0.91988160  0.49927223
   0.16631730  0.91756779  0.50037470
   0.24977212  0.50166198  0.60373594
   0.16547737  0.66657648  0.49997831
   0.25044040  0.25119739  0.60195014
   0.75283310  0.75015213  0.60508193
   0.33443519  0.33309870  0.39799110
  -0.00140043 -0.00149967  0.60199118
   0.16816075  0.16705900  0.49979050
   0.08292996  0.33581625  0.39810683
  -0.00139385  0.25021918  0.60125022
   0.08405844  0.83224784  0.39635198
   0.91805698  0.66433508  0.49994794
   0.91589058  0.16534120  0.50017098
   0.83286748  0.58460391  0.40158237
   0.74770616  0.24900244  0.59742395
   0.91847568  0.41524590  0.50003012
   0.74931621  0.00149293  0.59656913
   0.66844742  0.16525009  0.49951465
   0.83115237  0.08413869  0.40376073
   0.08348074  0.58350613  0.40172375
   0.41748631  0.91727676  0.50022003
   0.49985875  0.49957255  0.59828443
   0.16686340  0.41507336  0.50000667
   0.00033914  0.50019368  0.59721336
   0.50268741  0.24935556  0.59695381
   0.58391873  0.33177956  0.40207354
   0.91570004  0.91911107  0.49974680
   0.41742142  0.16636845  0.49982430
   0.58275773  0.08432170  0.40227834
  -0.00048595  0.75058292  0.59785194
   0.33643401  0.08123070  0.40279209
   0.33434322  0.83349308  0.40227801
   0.24950565 -0.00011284  0.59818654
   0.33353559  0.58317857  0.40147802
   0.58083120  0.83576324  0.40166147
   0.24940749  0.75020373  0.59879644
Direct configuration=    10
   0.08400057  0.08247316  0.39656158
   0.83175318  0.83387380  0.39647046
   0.74975175  0.49919254  0.60316798
   0.66753193  0.66650209  0.49876307
   0.66971834  0.41245441  0.50037597
   0.83204255  0.33378756  0.39824777
   0.49682513  0.75073356  0.60371756
   0.41732692  0.66688395  0.49994587
   0.58107119  0.58579133  0.39419449
   0.41740912  0.41249668  0.49994205
   0.49954612  0.00141298  0.60211949
   0.66584519  0.91985748  0.49924919
   0.16608665  0.91786327  0.50026526
   0.24983100  0.50169323  0.60398321
   0.16547404  0.66634454  0.50001530
   0.25036624  0.25126724  0.60208872
   0.75280114  0.75013994  0.60546682
   0.33448342  0.33303621  0.39793240
  -0.00151304 -0.00145913  0.60200305
   0.16816217  0.16695378  0.49976477
   0.08296255  0.33582274  0.39795944
  -0.00140403  0.25010975  0.60129540
   0.08410374  0.83216459  0.39602268
   0.91791272  0.66484006  0.49991894
   0.91618941  0.16525661  0.50023919
   0.83266885  0.58470604  0.40164393
   0.74769501  0.24900301  0.59733849
   0.91853188  0.41496415  0.49996659
   0.74933057  0.00144631  0.59641328
   0.66856933  0.16490833  0.49945122
   0.83116053  0.08417983  0.40373251
   0.08339353  0.58362701  0.40178629
   0.41760153  0.91737445  0.50046981
   0.49977474  0.49961907  0.59813923
   0.16723633  0.41479596  0.50000767
   0.00037042  0.50021373  0.59717257
   0.50260375  0.24946882  0.59692193
   0.58390751  0.33187387  0.40206158
   0.91568347  0.91900046  0.49958930
   0.41744848  0.16643310  0.49989431
   0.58280485  0.08427955  0.40232877
  -0.00058473  0.75056361  0.59770916
   0.33642159  0.08115503  0.40298114
   0.33430096  0.83360189  0.40241370
   0.24921153  0.00004472  0.59815069
   0.33351591  0.58325303  0.40157275
   0.58076849  0.83578229  0.40187753
   0.24930745  0.75021336  0.59866689
Direct configuration=    11
   0.08413832  0.08250077  0.39629245
   0.83158480  0.83401390  0.39625686
   0.74973564  0.49914774  0.60336331
   0.66749984  0.66635466  0.49891658
   0.66987838  0.41248508  0.50023431
   0.83194343  0.33395116  0.39815368
   0.49682177  0.75083560  0.60401130
   0.41768925  0.66649450  0.49992910
   0.58108769  0.58584602  0.39379978
   0.41722634  0.41238226  0.49993692
   0.49960037  0.00147180  0.60234531
   0.66609779  0.91983166  0.49922454
   0.16583985  0.91817944  0.50014815
   0.24989400  0.50172668  0.60424780
   0.16547049  0.66609637  0.50005488
   0.25028689  0.25134198  0.60223700
   0.75276695  0.75012689  0.60587867
   0.33453502  0.33296934  0.39786959
  -0.00163353 -0.00141575  0.60201575
   0.16816369  0.16684119  0.49973724
   0.08299743  0.33582968  0.39780173
  -0.00141492  0.24999267  0.60134374
   0.08415221  0.83207551  0.39567032
   0.91775835  0.66538040  0.49988791
   0.91650918  0.16516610  0.50031218
   0.83245632  0.58481533  0.40170981
   0.74768308  0.24900362  0.59724704
   0.91859201  0.41466267  0.49989861
   0.74934593  0.00139642  0.59624651
   0.66869977  0.16454264  0.49938335
   0.83116926  0.08422385  0.40370232
   0.08330022  0.58375636  0.40185322
   0.41772481  0.91747898  0.50073707
   0.49968486  0.49966884  0.59798386
   0.16763538  0.41449913  0.50000874
   0.00040388  0.50023519  0.59712892
   0.50251424  0.24959000  0.59688781
   0.58389550  0.33197479  0.40204877
   0.91566574  0.91888210  0.49942077
   0.41747743  0.16650227  0.49996923
   0.58285527  0.08423446  0.40238273
  -0.00069043  0.75054294  0.59755638
   0.33640830  0.08107407  0.40318342
   0.33425575  0.83371831  0.40255890
   0.24889681  0.00021330  0.59811233
   0.33349486  0.58333271  0.40167411
   0.58070138  0.83580269  0.40210872
   0.24920041  0.75022368  0.59852827
Direct configuration=    12
   0.08411795  0.08256292  0.39610393
   0.83148047  0.83407348  0.39605788
   0.74968333  0.49922089  0.60347368
   0.66758112  0.66631552  0.49907883
   0.67003478  0.41239474  0.50010587
   0.83196279  0.33400889  0.39809326
   0.49682957  0.75098568  0.60426227
   0.41756203  0.66647204  0.49989223
   0.58092676  0.58575379  0.39352920
   0.41749430  0.41243788  0.49994067
   0.49956742  0.00143727  0.60250633
   0.66597639  0.91961383  0.49929746
   0.16617716  0.91779778  0.50000867
   0.25001030  0.50172320  0.60441128
   0.16568760  0.66617081  0.50005405
   0.25043331  0.25135724  0.60231558
   0.75268870  0.75026636  0.60619269
   0.33448504  0.33298702  0.39787600
  -0.00170357 -0.00144587  0.60193587
   0.16820473  0.16685217  0.49971016
   0.08305640  0.33570422  0.39771704
  -0.00159877  0.24995292  0.60133851
   0.08408203  0.83214481  0.39543420
   0.91778603  0.66526621  0.49988864
   0.91651424  0.16535507  0.50029767
   0.83235465  0.58504136  0.40178595
   0.74765993  0.24893485  0.59713842
   0.91859056  0.41452406  0.49986915
   0.74928197  0.00126627  0.59612074
   0.66869870  0.16475410  0.49933517
   0.83121724  0.08420425  0.40365441
   0.08332498  0.58389951  0.40189683
   0.41785490  0.91728046  0.50102544
   0.49956827  0.49972720  0.59785264
   0.16757881  0.41441788  0.50002694
   0.00030175  0.50031096  0.59705169
   0.50243454  0.24969136  0.59686003
   0.58383316  0.33212142  0.40202444
   0.91590212  0.91868815  0.49922898
   0.41749894  0.16627032  0.50009376
   0.58283908  0.08432394  0.40241711
  -0.00077087  0.75064576  0.59743731
   0.33639136  0.08120040  0.40338157
   0.33414330  0.83376050  0.40269257
   0.24890797  0.00020615  0.59809716
   0.33360779  0.58325286  0.40175359
   0.58077600  0.83587422  0.40235459
   0.24896475  0.75019518  0.59837954
Direct configuration=    13
   0.08410796  0.08259340  0.39601146
   0.83142930  0.83410271  0.39596028
   0.74965767  0.49925676  0.60352782
   0.66762098  0.66629633  0.49915841
   0.67011150  0.41235043  0.50004287
   0.83197228  0.33403721  0.39806361
   0.49683339  0.75105929  0.60438538
   0.41749962  0.66646102  0.49987414
   0.58084783  0.58570856  0.39339648
   0.41762574  0.41246516  0.49994251
   0.49955126  0.00142033  0.60258532
   0.66591683  0.91950698  0.49933323
   0.16634261  0.91761057  0.49994026
   0.25006735  0.50172150  0.60449147
   0.16579410  0.66620732  0.50005364
   0.25050514  0.25136472  0.60235412
   0.75265032  0.75033477  0.60634671
   0.33446053  0.33299569  0.39787914
  -0.00173792 -0.00146065  0.60189669
   0.16822487  0.16685756  0.49969688
   0.08308532  0.33564269  0.39767549
  -0.00168895  0.24993342  0.60133594
   0.08404762  0.83217881  0.39531838
   0.91779960  0.66521020  0.49988900
   0.91651672  0.16544776  0.50029056
   0.83230478  0.58515223  0.40182330
   0.74764857  0.24890111  0.59708514
   0.91858985  0.41445607  0.49985470
   0.74925059  0.00120242  0.59605905
   0.66869817  0.16485781  0.49931154
   0.83124078  0.08419463  0.40363091
   0.08333712  0.58396972  0.40191822
   0.41791871  0.91718308  0.50116689
   0.49951108  0.49975583  0.59778827
   0.16755107  0.41437802  0.50003587
   0.00025165  0.50034813  0.59701380
   0.50239545  0.24974107  0.59684641
   0.58380258  0.33219335  0.40201250
   0.91601807  0.91859301  0.49913490
   0.41750949  0.16615655  0.50015484
   0.58283113  0.08436783  0.40243397
  -0.00081033  0.75069620  0.59737890
   0.33638304  0.08126237  0.40347877
   0.33408815  0.83378119  0.40275813
   0.24891345  0.00020265  0.59808972
   0.33366318  0.58321369  0.40179258
   0.58081260  0.83590931  0.40247520
   0.24884916  0.75018120  0.59830659
Direct configuration=    14
   0.08401271  0.08261093  0.39594644
   0.83140791  0.83415956  0.39580146
   0.74950843  0.49939345  0.60354342
   0.66765828  0.66608801  0.49929027
   0.67012498  0.41255563  0.49995651
   0.83203718  0.33407417  0.39800536
   0.49671618  0.75098164  0.60456014
   0.41777217  0.66648695  0.49985849
   0.58072720  0.58580878  0.39328198
   0.41775574  0.41236858  0.49994104
   0.49948565  0.00147347  0.60271979
   0.66593322  0.91947145  0.49945185
   0.16646990  0.91762425  0.49982871
   0.24998363  0.50173100  0.60454014
   0.16580166  0.66609359  0.49999299
   0.25046101  0.25142071  0.60237448
   0.75266998  0.75038551  0.60655930
   0.33436331  0.33310350  0.39796715
  -0.00174548 -0.00151896  0.60174075
   0.16822357  0.16672048  0.49971546
   0.08304114  0.33574080  0.39765838
  -0.00172866  0.24999562  0.60129380
   0.08396646  0.83228254  0.39517789
   0.91802257  0.66481710  0.49990131
   0.91664586  0.16528685  0.50018902
   0.83229392  0.58518230  0.40188984
   0.74753294  0.24891399  0.59700205
   0.91858995  0.41456680  0.49986352
   0.74911562  0.00121729  0.59595433
   0.66873149  0.16488125  0.49925680
   0.83125230  0.08421378  0.40357400
   0.08339604  0.58398735  0.40194978
   0.41793505  0.91684100  0.50140365
   0.49957594  0.49986893  0.59773802
   0.16744187  0.41455177  0.50006320
   0.00018773  0.50033071  0.59695208
   0.50247179  0.24965739  0.59683262
   0.58377438  0.33219125  0.40194304
   0.91609664  0.91858181  0.49894669
   0.41760303  0.16603797  0.50029872
   0.58281365  0.08453794  0.40248673
  -0.00090920  0.75075110  0.59729920
   0.33644518  0.08132517  0.40364336
   0.33416360  0.83377442  0.40279737
   0.24894255  0.00016944  0.59810233
   0.33366416  0.58314037  0.40180441
   0.58077251  0.83591634  0.40267164
   0.24879423  0.75020602  0.59823047
Direct configuration=    15
   0.08397763  0.08261738  0.39592249
   0.83140003  0.83418051  0.39574295
   0.74945346  0.49944380  0.60354917
   0.66767201  0.66601128  0.49933885
   0.67012995  0.41263122  0.49992470
   0.83206109  0.33408778  0.39798390
   0.49667300  0.75095303  0.60462451
   0.41787257  0.66649650  0.49985273
   0.58068277  0.58584570  0.39323980
   0.41780363  0.41233300  0.49994050
   0.49946148  0.00149305  0.60276933
   0.66593926  0.91945836  0.49949555
   0.16651679  0.91762929  0.49978762
   0.24995280  0.50173449  0.60455807
   0.16580445  0.66605169  0.49997065
   0.25044475  0.25144133  0.60238198
   0.75267722  0.75040420  0.60663760
   0.33432750  0.33314322  0.39799957
  -0.00174826 -0.00154044  0.60168331
   0.16822309  0.16666998  0.49972230
   0.08302486  0.33577694  0.39765208
  -0.00174328  0.25001853  0.60127828
   0.08393657  0.83232076  0.39512614
   0.91810471  0.66467230  0.49990585
   0.91669344  0.16522758  0.50015162
   0.83228991  0.58519338  0.40191435
   0.74749034  0.24891874  0.59697144
   0.91858999  0.41460759  0.49986677
   0.74906590  0.00122277  0.59591576
   0.66874377  0.16488988  0.49923663
   0.83125655  0.08422084  0.40355303
   0.08341774  0.58399384  0.40196141
   0.41794107  0.91671499  0.50149087
   0.49959984  0.49991060  0.59771950
   0.16740165  0.41461578  0.50007327
   0.00016419  0.50032430  0.59692934
   0.50249991  0.24962657  0.59682754
   0.58376399  0.33219048  0.40191746
   0.91612558  0.91857768  0.49887736
   0.41763749  0.16599429  0.50035172
   0.58280721  0.08460061  0.40250616
  -0.00094562  0.75077132  0.59726984
   0.33646807  0.08134830  0.40370399
   0.33419140  0.83377193  0.40281182
   0.24895328  0.00015721  0.59810697
   0.33366451  0.58311336  0.40180877
   0.58075775  0.83591893  0.40274400
   0.24877399  0.75021516  0.59820242
Direct configuration=    16
   0.08398536  0.08264493  0.39590541
   0.83133651  0.83421834  0.39563561
   0.74942600  0.49946291  0.60353265
   0.66789678  0.66599311  0.49944923
   0.67020028  0.41259584  0.49985147
   0.83201451  0.33416771  0.39792580
   0.49652990  0.75092061  0.60479027
   0.41797684  0.66641181  0.49983646
   0.58072738  0.58593728  0.39320669
   0.41779787  0.41225795  0.49995554
   0.49940671  0.00149948  0.60290666
   0.66615679  0.91928542  0.49958712
   0.16645903  0.91761379  0.49969455
   0.24987178  0.50178118  0.60452956
   0.16590837  0.66602447  0.49989222
   0.25029023  0.25149506  0.60237328
   0.75265291  0.75041284  0.60678832
   0.33427070  0.33319104  0.39811490
  -0.00178460 -0.00150280  0.60147954
   0.16824277  0.16669497  0.49976721
   0.08298251  0.33589773  0.39768860
  -0.00178108  0.25008550  0.60120293
   0.08402062  0.83227363  0.39504058
   0.91795531  0.66475319  0.49990522
   0.91673970  0.16512929  0.50000628
   0.83225997  0.58519432  0.40196338
   0.74742207  0.24898229  0.59686643
   0.91869386  0.41449017  0.49987883
   0.74902096  0.00129417  0.59585007
   0.66883783  0.16484260  0.49917313
   0.83116781  0.08433409  0.40345573
   0.08335859  0.58403667  0.40194759
   0.41804922  0.91654250  0.50167974
   0.49958815  0.49991845  0.59771790
   0.16762847  0.41444174  0.50009978
   0.00007715  0.50030661  0.59694089
   0.50253007  0.24961156  0.59684428
   0.58381844  0.33216896  0.40182388
   0.91609526  0.91847768  0.49869553
   0.41759760  0.16599848  0.50049805
   0.58281885  0.08465805  0.40259651
  -0.00100617  0.75075379  0.59720221
   0.33651757  0.08135163  0.40387815
   0.33425947  0.83382902  0.40278239
   0.24888153  0.00017293  0.59816500
   0.33358380  0.58318603  0.40178581
   0.58072939  0.83592798  0.40293582
   0.24878690  0.75023500  0.59815286
Direct configuration=    17
   0.08399044  0.08266304  0.39589418
   0.83129474  0.83424321  0.39556503
   0.74940794  0.49947548  0.60352179
   0.66804459  0.66598117  0.49952181