  48  48   0   0
  0.5349325E+02  0.1100258E-08  0.1100258E-08  0.2449179E-08  0.3500000E-15
  1.000000000000000E-004
  CAR 
 unknown system                          
      6.35904813     -9.87637282  301     -1.08427518      1.00000000
     -9.876  0.0000E+00  0.0000E+00
     -9.822  0.0000E+00  0.0000E+00
     -9.768  0.0000E+00  0.0000E+00
     -9.714  0.0000E+00  0.0000E+00
     -9.660  0.0000E+00  0.0000E+00
     -9.606  0.0000E+00  0.0000E+00
     -9.552  0.0000E+00  0.0000E+00
     -9.498  0.0000E+00  0.0000E+00
     -9.443  0.9574E-17  0.5181E-18
     -9.389  0.3690E-14  0.2002E-15
     -9.335  0.8161E-12  0.4436E-13
     -9.281  0.1020E-09  0.5564E-11
     -9.227  0.7222E-08  0.3964E-09
     -9.173  0.2907E-06  0.1613E-07
     -9.119  0.6672E-05  0.3772E-06
     -9.065  0.8769E-04  0.5123E-05
     -9.010  0.6631E-03  0.4101E-04
     -8.956  0.2901E-02  0.1980E-03
     -8.902  0.7435E-02  0.6004E-03
     -8.848  0.1157E-01  0.1226E-02
     -8.794  0.1235E-01  0.1895E-02
     -8.740  0.1185E-01  0.2536E-02
     -8.686  0.1157E-01  0.3163E-02
     -8.632  0.9063E-02  0.3653E-02
     -8.578  0.4653E-02  0.3905E-02
     -8.523  0.1455E-02  0.3984E-02
     -8.469  0.2773E-03  0.3999E-02
     -8.415  0.1181E-03  0.4005E-02
     -8.361  0.5990E-03  0.4038E-02
     -8.307  0.2370E-02  0.4166E-02
     -8.253  0.5683E-02  0.4473E-02
     -8.199  0.8620E-02  0.4940E-02
     -8.145  0.9088E-02  0.5432E-02
     -8.090  0.8264E-02  0.5879E-02
     -8.036  0.9209E-02  0.6377E-02
     -7.982  0.1236E-01  0.7046E-02
     -7.928  0.1547E-01  0.7884E-02
     -7.874  0.1883E-01  0.8902E-02
     -7.820  0.2151E-01  0.1007E-01
     -7.766  0.1876E-01  0.1108E-01
     -7.712  0.1185E-01  0.1172E-01
     -7.658  0.8206E-02  0.1217E-01
     -7.603  0.1258E-01  0.1285E-01
     -7.549  0.2246E-01  0.1406E-01
     -7.495  0.2951E-01  0.1566E-01
     -7.441  0.2869E-01  0.1721E-01
     -7.387  0.2319E-01  0.1847E-01
     -7.333  0.1824E-01  0.1946E-01
     -7.279  0.1637E-01  0.2034E-01
     -7.225  0.1781E-01  0.2131E-01
     -7.170  0.2186E-01  0.2249E-01
     -7.116  0.2947E-01  0.2408E-01
     -7.062  0.4074E-01  0.2629E-01
     -7.008  0.5218E-01  0.2911E-01
     -6.954  0.6249E-01  0.3249E-01
     -6.900  0.7353E-01  0.3647E-01
     -6.846  0.8572E-01  0.4111E-01
     -6.792  0.9649E-01  0.4633E-01
     -6.738  0.1019E+00  0.5185E-01
     -6.683  0.1009E+00  0.5731E-01
     -6.629  0.9738E-01  0.6258E-01
     -6.575  0.9720E-01  0.6784E-01
     -6.521  0.1020E+00  0.7336E-01
     -6.467  0.1096E+00  0.7929E-01
     -6.413  0.1183E+00  0.8569E-01
     -6.359  0.1247E+00  0.9244E-01
     -6.305  0.1245E+00  0.9917E-01
     -6.250  0.1191E+00  0.1056E+00
     -6.196  0.1154E+00  0.1119E+00
     -6.142  0.1199E+00  0.1184E+00
     -6.088  0.1321E+00  0.1255E+00
     -6.034  0.1416E+00  0.1332E+00
     -5.980  0.1421E+00  0.1409E+00
     -5.926  0.1380E+00  0.1483E+00
     -5.872  0.1378E+00  0.1558E+00
     -5.818  0.1415E+00  0.1634E+00
     -5.763  0.1420E+00  0.1711E+00
     -5.709  0.1381E+00  0.1786E+00
     -5.655  0.1346E+00  0.1859E+00
     -5.601  0.1343E+00  0.1932E+00
     -5.547  0.1366E+00  0.2006E+00
     -5.493  0.1414E+00  0.2082E+00
     -5.439  0.1477E+00  0.2162E+00
     -5.385  0.1532E+00  0.2245E+00
     -5.330  0.1579E+00  0.2330E+00
     -5.276  0.1614E+00  0.2418E+00
     -5.222  0.1643E+00  0.2507E+00
     -5.168  0.1696E+00  0.2598E+00
     -5.114  0.1758E+00  0.2694E+00
     -5.060  0.1767E+00  0.2789E+00
     -5.006  0.1713E+00  0.2882E+00
     -4.952  0.1652E+00  0.2971E+00
     -4.898  0.1617E+00  0.3059E+00
     -4.843  0.1628E+00  0.3147E+00
     -4.789  0.1695E+00  0.3239E+00
     -4.735  0.1778E+00  0.3335E+00
     -4.681  0.1815E+00  0.3433E+00
     -4.627  0.1801E+00  0.3530E+00
     -4.573  0.1792E+00  0.3627E+00
     -4.519  0.1806E+00  0.3725E+00
     -4.465  0.1825E+00  0.3824E+00
     -4.410  0.1859E+00  0.3925E+00
     -4.356  0.1882E+00  0.4026E+00
     -4.302  0.1852E+00  0.4127E+00
     -4.248  0.1805E+00  0.4224E+00
     -4.194  0.1792E+00  0.4321E+00
     -4.140  0.1807E+00  0.4419E+00
     -4.086  0.1818E+00  0.4517E+00
     -4.032  0.1824E+00  0.4616E+00
     -3.978  0.1825E+00  0.4715E+00
     -3.923  0.1805E+00  0.4813E+00
     -3.869  0.1791E+00  0.4910E+00
     -3.815  0.1827E+00  0.5008E+00
     -3.761  0.1886E+00  0.5111E+00
     -3.707  0.1927E+00  0.5215E+00
     -3.653  0.1964E+00  0.5321E+00
     -3.599  0.2015E+00  0.5430E+00
     -3.545  0.2066E+00  0.5542E+00
     -3.490  0.2095E+00  0.5655E+00
     -3.436  0.2107E+00  0.5769E+00
     -3.382  0.2118E+00  0.5884E+00
     -3.328  0.2117E+00  0.5999E+00
     -3.274  0.2098E+00  0.6112E+00
     -3.220  0.2062E+00  0.6224E+00
     -3.166  0.1997E+00  0.6332E+00
     -3.112  0.1908E+00  0.6435E+00
     -3.057  0.1847E+00  0.6535E+00
     -3.003  0.1850E+00  0.6635E+00
     -2.949  0.1887E+00  0.6737E+00
     -2.895  0.1897E+00  0.6840E+00
     -2.841  0.1864E+00  0.6941E+00
     -2.787  0.1830E+00  0.7040E+00
     -2.733  0.1837E+00  0.7139E+00
     -2.679  0.1878E+00  0.7241E+00
     -2.625  0.1916E+00  0.7344E+00
     -2.570  0.1915E+00  0.7448E+00
     -2.516  0.1867E+00  0.7549E+00
     -2.462  0.1800E+00  0.7647E+00
     -2.408  0.1759E+00  0.7742E+00
     -2.354  0.1755E+00  0.7837E+00
     -2.300  0.1774E+00  0.7933E+00
     -2.246  0.1802E+00  0.8030E+00
     -2.192  0.1817E+00  0.8128E+00
     -2.137  0.1795E+00  0.8226E+00
     -2.083  0.1757E+00  0.8321E+00
     -2.029  0.1740E+00  0.8415E+00
     -1.975  0.1727E+00  0.8508E+00
     -1.921  0.1692E+00  0.8600E+00
     -1.867  0.1677E+00  0.8691E+00
     -1.813  0.1729E+00  0.8784E+00
     -1.759  0.1804E+00  0.8882E+00
     -1.705  0.1829E+00  0.8981E+00
     -1.650  0.1815E+00  0.9079E+00
     -1.596  0.1829E+00  0.9178E+00
     -1.542  0.1893E+00  0.9281E+00
     -1.488  0.1967E+00  0.9387E+00
     -1.434  0.2017E+00  0.9496E+00
     -1.380  0.2019E+00  0.9605E+00
     -1.326  0.1941E+00  0.9710E+00
     -1.272  0.1799E+00  0.9808E+00
     -1.217  0.1647E+00  0.9897E+00
     -1.163  0.1504E+00  0.9978E+00
     -1.109  0.1335E+00  0.1005E+01
     -1.055  0.1106E+00  0.1011E+01
     -1.001  0.8105E-01  0.1015E+01
     -0.947  0.5050E-01  0.1018E+01
     -0.893  0.2818E-01  0.1020E+01
     -0.839  0.1790E-01  0.1021E+01
     -0.785  0.1620E-01  0.1022E+01
     -0.730  0.1861E-01  0.1023E+01
     -0.676  0.2426E-01  0.1024E+01
     -0.622  0.3230E-01  0.1026E+01
     -0.568  0.3894E-01  0.1028E+01
     -0.514  0.4176E-01  0.1030E+01
     -0.460  0.4109E-01  0.1032E+01
     -0.406  0.3543E-01  0.1034E+01
     -0.352  0.2532E-01  0.1035E+01
     -0.297  0.2001E-01  0.1037E+01
     -0.243  0.2679E-01  0.1038E+01
     -0.189  0.3841E-01  0.1040E+01
     -0.135  0.4227E-01  0.1042E+01
     -0.081  0.3671E-01  0.1044E+01
     -0.027  0.3052E-01  0.1046E+01
      0.027  0.2907E-01  0.1048E+01
      0.081  0.3097E-01  0.1049E+01
      0.135  0.3510E-01  0.1051E+01
      0.190  0.3785E-01  0.1053E+01
      0.244  0.3588E-01  0.1055E+01
      0.298  0.3387E-01  0.1057E+01
      0.352  0.3538E-01  0.1059E+01
      0.406  0.3785E-01  0.1061E+01
      0.460  0.3963E-01  0.1063E+01
      0.514  0.4129E-01  0.1065E+01
      0.568  0.4320E-01  0.1068E+01
      0.623  0.4340E-01  0.1070E+01
      0.677  0.3985E-01  0.1072E+01
      0.731  0.3599E-01  0.1074E+01
      0.785  0.3274E-01  0.1076E+01
      0.839  0.2528E-01  0.1077E+01
      0.893  0.1686E-01  0.1078E+01
      0.947  0.1500E-01  0.1079E+01
      1.001  0.1884E-01  0.1080E+01
      1.055  0.2335E-01  0.1081E+01
      1.110  0.2608E-01  0.1083E+01
      1.164  0.2669E-01  0.1084E+01
      1.218  0.2501E-01  0.1085E+01
      1.272  0.2035E-01  0.1087E+01
      1.326  0.1460E-01  0.1087E+01
      1.380  0.1198E-01  0.1088E+01
      1.434  0.1358E-01  0.1089E+01
      1.488  0.1850E-01  0.1090E+01
      1.543  0.2535E-01  0.1091E+01
      1.597  0.2942E-01  0.1093E+01
      1.651  0.2916E-01  0.1094E+01
      1.705  0.3177E-01  0.1096E+01
      1.759  0.4075E-01  0.1098E+01
      1.813  0.4634E-01  0.1101E+01
      1.867  0.3907E-01  0.1103E+01
      1.921  0.2667E-01  0.1104E+01
      1.975  0.2182E-01  0.1105E+01
      2.030  0.2433E-01  0.1107E+01
      2.084  0.2799E-01  0.1108E+01
      2.138  0.2954E-01  0.1110E+01
      2.192  0.3065E-01  0.1112E+01
      2.246  0.3440E-01  0.1113E+01
      2.300  0.3877E-01  0.1116E+01
      2.354  0.3981E-01  0.1118E+01
      2.408  0.3670E-01  0.1120E+01
      2.463  0.3171E-01  0.1121E+01
      2.517  0.2904E-01  0.1123E+01
      2.571  0.3349E-01  0.1125E+01
      2.625  0.4408E-01  0.1127E+01
      2.679  0.5181E-01  0.1130E+01
      2.733  0.5131E-01  0.1133E+01
      2.787  0.4393E-01  0.1135E+01
      2.841  0.3284E-01  0.1137E+01
      2.895  0.2290E-01  0.1138E+01
      2.950  0.1693E-01  0.1139E+01
      3.004  0.1349E-01  0.1140E+01
      3.058  0.1196E-01  0.1140E+01
      3.112  0.1398E-01  0.1141E+01
      3.166  0.1929E-01  0.1142E+01
      3.220  0.2426E-01  0.1144E+01
      3.274  0.2504E-01  0.1145E+01
      3.328  0.2113E-01  0.1146E+01
      3.383  0.1600E-01  0.1147E+01
      3.437  0.1439E-01  0.1148E+01
      3.491  0.1949E-01  0.1149E+01
      3.545  0.2903E-01  0.1150E+01
      3.599  0.3629E-01  0.1152E+01
      3.653  0.3798E-01  0.1154E+01
      3.707  0.3663E-01  0.1156E+01
      3.761  0.3430E-01  0.1158E+01
      3.815  0.3182E-01  0.1160E+01
      3.870  0.2947E-01  0.1161E+01
      3.924  0.2593E-01  0.1163E+01
      3.978  0.2334E-01  0.1164E+01
      4.032  0.2338E-01  0.1165E+01
      4.086  0.2374E-01  0.1167E+01
      4.140  0.2389E-01  0.1168E+01
      4.194  0.2297E-01  0.1169E+01
      4.248  0.2023E-01  0.1170E+01
      4.303  0.1814E-01  0.1171E+01
      4.357  0.1932E-01  0.1172E+01
      4.411  0.2437E-01  0.1174E+01
      4.465  0.2978E-01  0.1175E+01
      4.519  0.3468E-01  0.1177E+01
      4.573  0.4335E-01  0.1179E+01
      4.627  0.5242E-01  0.1182E+01
      4.681  0.5388E-01  0.1185E+01
      4.736  0.4925E-01  0.1188E+01
      4.790  0.4607E-01  0.1190E+01
      4.844  0.4798E-01  0.1193E+01
      4.898  0.5389E-01  0.1196E+01
      4.952  0.6038E-01  0.1199E+01
      5.006  0.6541E-01  0.1203E+01
      5.060  0.6909E-01  0.1206E+01
      5.114  0.6992E-01  0.1210E+01
      5.168  0.6726E-01  0.1214E+01
      5.223  0.6190E-01  0.1217E+01
      5.277  0.5183E-01  0.1220E+01
      5.331  0.3707E-01  0.1222E+01
      5.385  0.2187E-01  0.1223E+01
      5.439  0.1004E-01  0.1224E+01
      5.493  0.3269E-02  0.1224E+01
      5.547  0.6928E-03  0.1224E+01
      5.601  0.9004E-04  0.1224E+01
      5.656  0.6920E-05  0.1224E+01
      5.710  0.3080E-06  0.1224E+01
      5.764  0.7843E-08  0.1224E+01
      5.818  0.1134E-09  0.1224E+01
      5.872  0.9276E-12  0.1224E+01
      5.926  0.4273E-14  0.1224E+01
      5.980  0.1231E-16  0.1224E+01
      6.034  0.0000E+00  0.1224E+01
      6.088  0.0000E+00  0.1224E+01
      6.143  0.0000E+00  0.1224E+01
      6.197  0.0000E+00  0.1224E+01
      6.251  0.0000E+00  0.1224E+01
      6.305  0.0000E+00  0.1224E+01
      6.359  0.0000E+00  0.1224E+01
