 vasp.5.4.1 24Jun15 (build Mar 14 2019 10:18:33) complex                        
  
 executed on INTEL-19.0.2+OPENMPI date 2023.01.30  16:52:08
 running on   36 total cores
 distrk:  each k-point on   36 cores,    1 groups
 distr:  one band on NCORES_PER_BAND=   6 cores,    6 groups


--------------------------------------------------------------------------------------------------------


 INCAR:
 POTCAR:    PAW_PBE Au 04Oct2007                  
 POTCAR:    PAW_PBE Pd 04Jan2005                  
 POTCAR:    PAW_PBE Au 04Oct2007                  
  local pseudopotential read in
  partial core-charges read in
  partial kinetic energy density read in
  atomic valenz-charges read in
  non local Contribution for L=           2  read in
    real space projection operators read in
  non local Contribution for L=           2  read in
    real space projection operators read in
  non local Contribution for L=           0  read in
    real space projection operators read in
  non local Contribution for L=           0  read in
    real space projection operators read in
  non local Contribution for L=           1  read in
    real space projection operators read in
  non local Contribution for L=           1  read in
    real space projection operators read in
    PAW grid and wavefunctions read in
 
   number of l-projection  operators is LMAX  =           6
   number of lm-projection operators is LMMAX =          18
 
 POTCAR:    PAW_PBE Pd 04Jan2005                  
  local pseudopotential read in
  partial core-charges read in
  partial kinetic energy density read in
  atomic valenz-charges read in
  non local Contribution for L=           2  read in
    real space projection operators read in
  non local Contribution for L=           2  read in
    real space projection operators read in
  non local Contribution for L=           0  read in
    real space projection operators read in
  non local Contribution for L=           0  read in
    real space projection operators read in
  non local Contribution for L=           1  read in
    real space projection operators read in
  non local Contribution for L=           1  read in
    real space projection operators read in
    PAW grid and wavefunctions read in
 
   number of l-projection  operators is LMAX  =           6
   number of lm-projection operators is LMMAX =          18
 
 Optimization of the real space projectors (new method)

 maximal supplied QI-value         = 15.12
 optimisation between [QCUT,QGAM] = [ 10.13, 20.41] = [ 28.73,116.64] Ry 
 Optimized for a Real-space Cutoff    1.51 Angstroem

   l    n(q)    QCUT    max X(q) W(low)/X(q) W(high)/X(q)  e(spline) 
   2      8    10.129    60.898    0.46E-03    0.46E-03    0.14E-06
   2      8    10.129    58.894    0.47E-03    0.47E-03    0.14E-06
   0      9    10.129   109.617    0.16E-03    0.11E-03    0.54E-07
   0      9    10.129    75.026    0.15E-03    0.11E-03    0.52E-07
   1      9    10.129    16.344    0.96E-04    0.15E-03    0.14E-06
   1      9    10.129    10.160    0.81E-04    0.12E-03    0.11E-06
 Optimization of the real space projectors (new method)

 maximal supplied QI-value         = 14.36
 optimisation between [QCUT,QGAM] = [ 10.20, 20.39] = [ 29.12,116.47] Ry 
 Optimized for a Real-space Cutoff    1.51 Angstroem

   l    n(q)    QCUT    max X(q) W(low)/X(q) W(high)/X(q)  e(spline) 
   2      8    10.197    59.108    0.26E-03    0.14E-03    0.96E-07
   2      8    10.197    58.101    0.27E-03    0.14E-03    0.98E-07
   0      9    10.197   102.235    0.54E-04    0.60E-05    0.72E-07
   0      9    10.197    58.388    0.52E-04    0.60E-05    0.68E-07
   1      9    10.197    22.191    0.18E-03    0.25E-03    0.79E-07
   1      9    10.197    15.590    0.15E-03    0.21E-03    0.69E-07
  PAW_PBE Au 04Oct2007                  :
 energy of atom  1       EATOM= -926.0867
 kinetic energy error for atom=    0.0062 (will be added to EATOM!!)
  PAW_PBE Pd 04Jan2005                  :
 energy of atom  2       EATOM= -809.7530
 kinetic energy error for atom=    0.0091 (will be added to EATOM!!)
 
 
 POSCAR: Au Pd                                   
  positions in cartesian coordinates
  No initial velocities read in
 exchange correlation table for  LEXCH =        8
   RHO(1)=    0.500       N(1)  =     2000
   RHO(2)=  100.500       N(2)  =     4000

 VTST: version 3.2, (02/03/18)

 CHAIN: initializing optimizer
 
 OPT: Using VASP Conjugate-Gradient optimizer
 CHAIN: Read ICHAIN            0
 
 POSCAR: Au Pd                                   
  positions in cartesian coordinates
  No initial velocities read in
 


--------------------------------------------------------------------------------------------------------


 ion  position               nearest neighbor table
   1  0.250  0.750  0.592-  25 2.75  36 2.75  24 2.75   5 2.75  27 2.75  18 2.75   9 2.75  21 2.75
                            17 2.75
   2  0.917  0.417  0.500-  44 2.75  32 2.75  10 2.75  31 2.75  28 2.75  42 2.75  29 2.75  12 2.75
                            14 2.75  41 2.75  30 2.75  13 2.75
   3  0.333  0.083  0.408-  47 2.75  13 2.75  26 2.75  45 2.75  11 2.75  35 2.75  39 2.75  40 2.75
                            28 2.75
   4  0.083  0.583  0.408-  17 2.75  11 2.75  13 2.75   6 2.75  34 2.75  16 2.75  41 2.75  14 2.75
                            31 2.75
   5  0.000  0.000  0.592-  29 2.75  25 2.75   9 2.75   1 2.75   7 2.75  32 2.75  27 2.75  43 2.75
                             8 2.75
   6  0.833  0.833  0.408-   8 2.75   4 2.75  20 2.75  35 2.75  41 2.75  34 2.75  45 2.75  31 2.75
                            33 2.75
   7  0.750  0.250  0.592-  12 2.75  29 2.75   5 2.75  24 2.75  10 2.75  43 2.75  38 2.75  32 2.75
                            19 2.75
   8  0.917  0.917  0.500-   6 2.75   9 2.75  43 2.75  19 2.75  29 2.75  31 2.75  17 2.75  33 2.75
                            25 2.75  20 2.75  34 2.75   5 2.75
   9  0.000  0.750  0.592-   8 2.75  17 2.75   5 2.75  18 2.75  30 2.75  43 2.75   1 2.75  48 2.75
                            31 2.75
  10  0.750  0.500  0.592-  42 2.75   2 2.75  21 2.75  32 2.75   7 2.75  48 2.75  30 2.75  24 2.75
                            12 2.75
  11  0.333  0.333  0.408-  23 2.75   4 2.75  16 2.75   3 2.75  35 2.75  13 2.75  22 2.75  47 2.75
                            14 2.75
  12  0.667  0.417  0.500-  22 2.75   7 2.75  24 2.75  19 2.75  29 2.75  36 2.75  42 2.75   2 2.75
                            23 2.75  46 2.75  44 2.75  10 2.75
  13  0.083  0.333  0.408-  14 2.75   4 2.75   3 2.75  39 2.75  41 2.75  11 2.75  44 2.75  28 2.75
                             2 2.75
  14  0.167  0.417  0.500-  13 2.75  15 2.75  30 2.75  28 2.75  17 2.75  31 2.75  47 2.75   2 2.75
                            23 2.75   4 2.75  18 2.75  11 2.75
  15  0.250  0.250  0.592-  14 2.75  47 2.75  27 2.75  30 2.75  37 2.75  18 2.75  38 2.75  32 2.75
                            28 2.75
  16  0.333  0.583  0.408-  36 2.75  22 2.75  26 2.75  34 2.75  11 2.75   4 2.75  46 2.75  23 2.75
                            17 2.75
  17  0.167  0.667  0.500-   4 2.75  18 2.75   9 2.75  14 2.75   8 2.75  23 2.75  25 2.75  31 2.75
                            36 2.75  34 2.75   1 2.75  16 2.75
  18  0.250  0.500  0.592-  17 2.75  23 2.75  15 2.75   1 2.75   9 2.75  38 2.75  30 2.75  24 2.75
                            14 2.75
  19  0.667  0.167  0.500-  35 2.75  43 2.75  38 2.75  33 2.75   8 2.75  12 2.75  23 2.75  29 2.75
                            47 2.75  22 2.75   7 2.75  20 2.75
  20  0.833  0.083  0.408-  29 2.75  22 2.75   6 2.75  34 2.75  44 2.75  39 2.75  35 2.75   8 2.75
                            19 2.75
  21  0.500  0.750  0.592-  40 2.75  42 2.75  27 2.75  37 2.75  10 2.75  24 2.75   1 2.75  48 2.75
                            36 2.75
  22  0.583  0.333  0.408-  12 2.75  16 2.75  20 2.75  35 2.75  46 2.75  44 2.75  11 2.75  19 2.75
                            23 2.75
  23  0.417  0.417  0.500-  11 2.75  38 2.75  18 2.75  19 2.75  36 2.75  17 2.75  47 2.75  12 2.75
                            14 2.75  16 2.75  24 2.75  22 2.75
  24  0.500  0.500  0.592-  36 2.75  12 2.75   1 2.75  21 2.75   7 2.75  38 2.75  18 2.75  10 2.75
                            23 2.75
  25  0.167  0.917  0.500-  34 2.75   1 2.75   5 2.75  28 2.75  29 2.75  17 2.75  36 2.75   8 2.75
                            40 2.75  39 2.75  26 2.75  27 2.75
  26  0.333  0.833  0.408-  40 2.75  16 2.75  39 2.75   3 2.75  46 2.75  45 2.75  34 2.75  36 2.75
                            25 2.75
  27  0.250  0.000  0.592-  28 2.75  40 2.75  21 2.75   1 2.75  32 2.75  15 2.75  37 2.75   5 2.75
                            25 2.75
  28  0.167  0.167  0.500-  39 2.75  27 2.75  32 2.75   2 2.75  14 2.75  25 2.75  40 2.75  29 2.75
                            47 2.75  13 2.75  15 2.75   3 2.75
  29  0.917  0.167  0.500-  20 2.75   5 2.75   7 2.75   8 2.75  12 2.75   2 2.75  25 2.75  19 2.75
                            28 2.75  44 2.75  39 2.75  32 2.75
  30  0.000  0.500  0.592-  31 2.75  14 2.75  15 2.75   9 2.75  32 2.75  48 2.75  18 2.75  10 2.75
                             2 2.75
  31  0.917  0.667  0.500-  41 2.75  30 2.75  48 2.75   2 2.75  33 2.75   8 2.75  14 2.75  42 2.75
                            17 2.75   6 2.75   9 2.75   4 2.75
  32  0.000  0.250  0.592-   2 2.75  28 2.75  10 2.75  27 2.75   5 2.75  30 2.75  15 2.75   7 2.75
                            29 2.75
  33  0.667  0.917  0.500-  45 2.75  48 2.75  37 2.75  42 2.75  31 2.75  47 2.75  19 2.75   8 2.75
                            40 2.75  35 2.75  43 2.75   6 2.75
  34  0.083  0.833  0.408-  25 2.75  16 2.75  20 2.75   4 2.75  39 2.75  26 2.75   6 2.75  17 2.75
                             8 2.75
  35  0.583  0.083  0.408-  19 2.75  11 2.75   6 2.75  22 2.75  45 2.75   3 2.75  20 2.75  33 2.75
                            47 2.75
  36  0.417  0.667  0.500-  16 2.75  24 2.75   1 2.75  23 2.75  12 2.75  25 2.75  40 2.75  17 2.75
                            42 2.75  26 2.75  21 2.75  46 2.75
  37  0.500  0.000  0.592-  47 2.75  33 2.75  15 2.75  38 2.75  21 2.75  48 2.75  27 2.75  43 2.75
                            40 2.75
  38  0.500  0.250  0.592-  23 2.75  19 2.75  18 2.75  24 2.75  37 2.75  43 2.75   7 2.75  15 2.75
                            47 2.75
  39  0.083  0.083  0.408-  28 2.75  26 2.75  13 2.75  34 2.75  44 2.75   3 2.75  20 2.75  25 2.75
                            29 2.75
  40  0.417  0.917  0.500-  26 2.75  21 2.75  27 2.75  28 2.75  36 2.75  42 2.75  47 2.75  33 2.75
                            25 2.75   3 2.75  45 2.75  37 2.75
  41  0.833  0.583  0.408-  31 2.75  13 2.75   6 2.75  44 2.75  45 2.75   4 2.75  46 2.75   2 2.75
                            42 2.75
  42  0.667  0.667  0.500-  46 2.75  10 2.75  21 2.75   2 2.75  33 2.75  40 2.75  12 2.75  31 2.75
                            36 2.75  45 2.75  41 2.75  48 2.75
  43  0.750  0.000  0.592-  19 2.75   8 2.75   9 2.75   7 2.75  38 2.75  48 2.75   5 2.75  37 2.75
                            33 2.75
  44  0.833  0.333  0.408-   2 2.75  20 2.75  39 2.75  41 2.75  46 2.75  22 2.75  13 2.75  29 2.75
                            12 2.75
  45  0.583  0.833  0.408-  33 2.75   3 2.75  35 2.75  41 2.75  46 2.75   6 2.75  26 2.75  42 2.75
                            40 2.75
  46  0.583  0.583  0.408-  42 2.75  26 2.75  22 2.75  44 2.75  45 2.75  41 2.75  16 2.75  12 2.75
                            36 2.75
  47  0.417  0.167  0.500-   3 2.75  37 2.75  15 2.75  23 2.75  33 2.75  14 2.75  40 2.75  28 2.75
                            19 2.75  11 2.75  38 2.75  35 2.75
  48  0.750  0.750  0.592-  33 2.75  31 2.75  10 2.75  30 2.75  37 2.75  43 2.75  21 2.75   9 2.75
                            42 2.75
 
  LATTYP: Found a hexagonal cell.
 ALAT       =    11.0025815153
 C/A-ratio  =     2.2260035120
  
  Lattice vectors:
  
 A1 = (   5.5012907576,  -9.5285150994,   0.0000000000)
 A2 = ( -11.0025815153,   0.0000000000,   0.0000000000)
 A3 = (   0.0000000000,   0.0000000000, -24.4917850943)


Analysis of symmetry for initial positions (statically):
=====================================================================
 Subroutine PRICEL returns:
 Original cell was already a primitive cell.
 

 Routine SETGRP: Setting up the symmetry group for a 
 hexagonal supercell.


 Subroutine GETGRP returns: Found  1 space group operations
 (whereof  1 operations were pure point group operations)
 out of a pool of 24 trial point group operations.


The static configuration has the point symmetry C_1 .


Analysis of symmetry for dynamics (positions and initial velocities):
=====================================================================
 Subroutine PRICEL returns:
 Original cell was already a primitive cell.
 

 Routine SETGRP: Setting up the symmetry group for a 
 hexagonal supercell.


 Subroutine GETGRP returns: Found  1 space group operations
 (whereof  1 operations were pure point group operations)
 out of a pool of 24 trial point group operations.


The dynamic configuration has the point symmetry C_1 .


Analysis of constrained symmetry for selective dynamics:
=====================================================================
 Subroutine PRICEL returns:
 Original cell was already a primitive cell.
 

 Routine SETGRP: Setting up the symmetry group for a 
 hexagonal supercell.


 Subroutine GETGRP returns: Found  1 space group operations
 (whereof  1 operations were pure point group operations)
 out of a pool of 24 trial point group operations.


The constrained configuration has the point symmetry C_1 .
 
 
 KPOINTS: Automatic mesh                          

Automatic generation of k-mesh.
Space group operators:
 irot       det(A)        alpha          n_x          n_y          n_z        tau_x        tau_y        tau_z
    1     1.000000     0.000000     1.000000     0.000000     0.000000     0.000000     0.000000     0.000000
 
 Subroutine IBZKPT returns following result:
 ===========================================
 
 Found      6 irreducible k-points:
 
 Following reciprocal coordinates:
            Coordinates               Weight
  0.250000  0.250000  0.000000     16.000000
  0.000000  0.250000  0.000000     16.000000
 -0.250000  0.000000  0.000000     16.000000
 -0.250000  0.250000  0.000000     16.000000
  0.500000 -0.250000  0.000000     16.000000
 -0.250000  0.500000  0.000000     16.000000
 
 Following cartesian coordinates:
            Coordinates               Weight
  0.022722  0.013119  0.000000     16.000000
  0.000000  0.026237  0.000000     16.000000
 -0.022722  0.013119  0.000000     16.000000
 -0.022722  0.039356  0.000000     16.000000
  0.045444 -0.052474  0.000000     16.000000
 -0.022722  0.065593  0.000000     16.000000
 


--------------------------------------------------------------------------------------------------------




 Dimension of arrays:
   k-points           NKPTS =      6   k-points in BZ     NKDIM =      6   number of bands    NBANDS=    306
   number of dos      NEDOS =    301   number of ions     NIONS =     48
   non local maximal  LDIM  =      6   non local SUM 2l+1 LMDIM =     18
   total plane-waves  NPLWV = 349920
   max r-space proj   IRMAX =   2009   max aug-charges    IRDMAX=   8532
   dimension x,y,z NGX =    54 NGY =   54 NGZ =  120
   dimension x,y,z NGXF=   108 NGYF=  108 NGZF=  240
   support grid    NGXF=   108 NGYF=  108 NGZF=  240
   ions per type =              24  24
 NGX,Y,Z   is equivalent  to a cutoff of   8.16,  8.16,  8.15 a.u.
 NGXF,Y,Z  is equivalent  to a cutoff of  16.32, 16.32, 16.29 a.u.


 I would recommend the setting:
   dimension x,y,z NGX =    54 NGY =   54 NGZ =  120
 SYSTEM =  unknown system                          
 POSCAR =  Au Pd                                   

 Startparameter for this run:
   NWRITE =      1    write-flag & timer
   PREC   = normal    normal or accurate (medium, high low for compatibility)
   ISTART =      0    job   : 0-new  1-cont  2-samecut
   ICHARG =      2    charge: 1-file 2-atom 10-const
   ISPIN  =      1    spin polarized calculation?
   LNONCOLLINEAR =      F non collinear calculations
   LSORBIT =      F    spin-orbit coupling
   INIWAV =      1    electr: 0-lowe 1-rand  2-diag
   LASPH  =      F    aspherical Exc in radial PAW
   METAGGA=      F    non-selfconsistent MetaGGA calc.

 Electronic Relaxation 1
   ENCUT  =  400.0 eV  29.40 Ry    5.42 a.u.  17.94 17.94 39.94*2*pi/ulx,y,z
   ENINI  =  400.0     initial cutoff
   ENAUG  =  416.2 eV  augmentation charge cutoff
   NELM   =    500;   NELMIN=  2; NELMDL= -5     # of ELM steps 
   EDIFF  = 0.1E-05   stopping-criterion for ELM
   LREAL  =      T    real-space projection
   NLSPLINE    = F    spline interpolate recip. space projectors
   LCOMPAT=      F    compatible to vasp.4.4
   GGA_COMPAT  = T    GGA compatible to vasp.4.4-vasp.4.6
   LMAXPAW     = -100 max onsite density
   LMAXMIX     =    2 max onsite mixed and CHGCAR
   VOSKOWN=      1    Vosko Wilk Nusair interpolation
   ROPT   =   -0.00050  -0.00050
 Ionic relaxation
   EDIFFG = -.2E-01   stopping-criterion for IOM
   NSW    =    500    number of steps for IOM
   NBLOCK =      1;   KBLOCK =    500    inner block; outer block 
   IBRION =      2    ionic relax: 0-MD 1-quasi-New 2-CG
   NFREE  =      2    steps in history (QN), initial steepest desc. (CG)
   ISIF   =      0    stress and relaxation
   IWAVPR =     11    prediction:  0-non 1-charg 2-wave 3-comb
   ISYM   =      2    0-nonsym 1-usesym 2-fastsym
   LCORR  =      T    Harris-Foulkes like correction to forces

   POTIM  = 0.3500    time-step for ionic-motion
   TEIN   =    0.0    initial temperature
   TEBEG  =    0.0;   TEEND  =   0.0 temperature during run
   SMASS  =  -3.00    Nose mass-parameter (am)
   estimated Nose-frequenzy (Omega)   =  0.10E-29 period in steps =****** mass=  -0.277E-26a.u.
   SCALEE = 1.0000    scale energy and forces
   NPACO  =    256;   APACO  = 16.0  distance and # of slots for P.C.
   PSTRESS=    0.0 pullay stress

  Mass of Ions in am
   POMASS = 196.97106.42
  Ionic Valenz
   ZVAL   =  11.00 10.00
  Atomic Wigner-Seitz radii
   RWIGS  =  -1.00 -1.00
  virtual crystal weights 
   VCA    =   1.00  1.00
   NELECT =     504.0000    total number of electrons
   NUPDOWN=      -1.0000    fix difference up-down

 DOS related values:
   EMIN   =  10.00;   EMAX   =-10.00  energy-range for DOS
   EFERMI =   0.00
   ISMEAR =     0;   SIGMA  =   0.10  broadening in eV -4-tet -1-fermi 0-gaus

 Electronic relaxation 2 (details)
   IALGO  =     68    algorithm
   LDIAG  =      T    sub-space diagonalisation (order eigenvalues)
   LSUBROT=      F    optimize rotation matrix (better conditioning)
   TURBO    =      0    0=normal 1=particle mesh
   IRESTART =      0    0=no restart 2=restart with 2 vectors
   NREBOOT  =      0    no. of reboots
   NMIN     =      0    reboot dimension
   EREF     =   0.00    reference energy to select bands
   IMIX   =      4    mixing-type and parameters
     AMIX     =   0.40;   BMIX     =  1.00
     AMIX_MAG =   1.60;   BMIX_MAG =  1.00
     AMIN     =   0.10
     WC   =   100.;   INIMIX=   1;  MIXPRE=   1;  MAXMIX= -45

 Intra band minimization:
   WEIMIN = 0.0010     energy-eigenvalue tresh-hold
   EBREAK =  0.82E-09  absolut break condition
   DEPER  =   0.30     relativ break condition  

   TIME   =   0.40     timestep for ELM

  volume/ion in A,a.u.               =      53.49       360.99
  Fermi-wavevector in a.u.,A,eV,Ry     =   0.951418  1.797920 12.315955  0.905197
  Thomas-Fermi vector in A             =   2.079887
 
 Write flags
   LWAVE  =      F    write WAVECAR
   LCHARG =      F    write CHGCAR
   LVTOT  =      F    write LOCPOT, total local potential
   LVHAR  =      F    write LOCPOT, Hartree potential only
   LELF   =      F    write electronic localiz. function (ELF)
   LORBIT =      0    0 simple, 1 ext, 2 COOP (PROOUT)


 Dipole corrections
   LMONO  =      F    monopole corrections only (constant potential shift)
   LDIPOL =      T    correct potential (dipole corrections)
   IDIPOL =      3    1-x, 2-y, 3-z, 4-all directions 
   EPSILON=  1.0000000 bulk dielectric constant

 Exchange correlation treatment:
   GGA     =    PE    GGA type
   LEXCH   =     8    internal setting for exchange type
   VOSKOWN=      1    Vosko Wilk Nusair interpolation
   LHFCALC =     F    Hartree Fock is set to
   LHFONE  =     F    Hartree Fock one center treatment
   AEXX    =    0.0000 exact exchange contribution

 Linear response parameters
   LEPSILON=     F    determine dielectric tensor
   LRPA    =     F    only Hartree local field effects (RPA)
   LNABLA  =     F    use nabla operator in PAW spheres
   LVEL    =     F    velocity operator in full k-point grid
   LINTERFAST=   F  fast interpolation
   KINTER  =     0    interpolate to denser k-point grid
   CSHIFT  =0.1000    complex shift for real part using Kramers Kronig
   OMEGAMAX=  -1.0    maximum frequency
   DEG_THRESHOLD= 0.2000000E-02 threshold for treating states as degnerate
   RTIME   =    0.100 relaxation time in fs

 Orbital magnetization related:
   ORBITALMAG=     F  switch on orbital magnetization
   LCHIMAG   =     F  perturbation theory with respect to B field
   DQ        =  0.001000  dq finite difference perturbation B field



--------------------------------------------------------------------------------------------------------


 conjugate gradient relaxation of ions
   using selective dynamics as specified on POSCAR
   WARNING: If single coordinates had been selected the selection of coordinates
            is made according to the corresponding   d i r e c t   coordinates!
            Don't support selection of single cartesian coordinates -- sorry ...
  !
 charge density and potential will be updated during run
 non-spin polarized calculation
 RMM-DIIS sequential band-by-band and
  variant of blocked Davidson during initial phase
 perform sub-space diagonalisation
    before iterative eigenvector-optimisation
 modified Broyden-mixing scheme, WC =      100.0
 initial mixing is a Kerker type mixing with AMIX =  0.4000 and BMIX =      1.0000
 Hartree-type preconditioning will be used
 using additional bands           54
 real space projection scheme for non local part
 use partial core corrections
 calculate Harris-corrections to forces 
   (improved forces if not selfconsistent)
 use gradient corrections 
 use of overlap-Matrix (Vanderbilt PP)
 Gauss-broadening in eV      SIGMA  =   0.10


--------------------------------------------------------------------------------------------------------


  energy-cutoff  :      400.00
  volume of cell :     2567.68
      direct lattice vectors                 reciprocal lattice vectors
    11.002581515  0.000000000  0.000000000     0.090887761 -0.052474073  0.000000000
     5.501290758  9.528515099  0.000000000     0.000000000  0.104948147  0.000000000
     0.000000000  0.000000000 24.491785094     0.000000000  0.000000000  0.040830017

  length of vectors
    11.002581515 11.002581515 24.491785094     0.104948147  0.104948147  0.040830017


 
 k-points in units of 2pi/SCALE and weight: Automatic mesh                          
   0.02272194  0.01311852  0.00000000       0.167
   0.00000000  0.02623704  0.00000000       0.167
  -0.02272194  0.01311852  0.00000000       0.167
  -0.02272194  0.03935555  0.00000000       0.167
   0.04544388 -0.05247407  0.00000000       0.167
  -0.02272194  0.06559259  0.00000000       0.167
 
 k-points in reciprocal lattice and weights: Automatic mesh                          
   0.25000000  0.25000000  0.00000000       0.167
   0.00000000  0.25000000  0.00000000       0.167
  -0.25000000  0.00000000  0.00000000       0.167
  -0.25000000  0.25000000  0.00000000       0.167
   0.50000000 -0.25000000  0.00000000       0.167
  -0.25000000  0.50000000  0.00000000       0.167
 
 position of ions in fractional coordinates (direct lattice) 
   0.25000000  0.75000000  0.59169983
   0.91666667  0.41666667  0.50000000
   0.33333333  0.08333333  0.40830017
   0.08333333  0.58333333  0.40830017
   0.00000000  0.00000000  0.59169983
   0.83333333  0.83333333  0.40830017
   0.75000000  0.25000000  0.59169983
   0.91666667  0.91666667  0.50000000
   0.00000000  0.75000000  0.59169983
   0.75000000  0.50000000  0.59169983
   0.33333333  0.33333333  0.40830017
   0.66666667  0.41666667  0.50000000
   0.08333333  0.33333333  0.40830017
   0.16666667  0.41666667  0.50000000
   0.25000000  0.25000000  0.59169983
   0.33333333  0.58333333  0.40830017
   0.16666667  0.66666667  0.50000000
   0.25000000  0.50000000  0.59169983
   0.66666667  0.16666667  0.50000000
   0.83333333  0.08333333  0.40830017
   0.50000000  0.75000000  0.59169983
   0.58333333  0.33333333  0.40830017
   0.41666667  0.41666667  0.50000000
   0.50000000  0.50000000  0.59169983
   0.16666667  0.91666667  0.50000000
   0.33333333  0.83333333  0.40830017
   0.25000000  0.00000000  0.59169983
   0.16666667  0.16666667  0.50000000
   0.91666667  0.16666667  0.50000000
   0.00000000  0.50000000  0.59169983
   0.91666667  0.66666667  0.50000000
   0.00000000  0.25000000  0.59169983
   0.66666667  0.91666667  0.50000000
   0.08333333  0.83333333  0.40830017
   0.58333333  0.08333333  0.40830017
   0.41666667  0.66666667  0.50000000
   0.50000000  0.00000000  0.59169983
   0.50000000  0.25000000  0.59169983
   0.08333333  0.08333333  0.40830017
   0.41666667  0.91666667  0.50000000
   0.83333333  0.58333333  0.40830017
   0.66666667  0.66666667  0.50000000
   0.75000000  0.00000000  0.59169983
   0.83333333  0.33333333  0.40830017
   0.58333333  0.83333333  0.40830017
   0.58333333  0.58333333  0.40830017
   0.41666667  0.16666667  0.50000000
   0.75000000  0.75000000  0.59169983
 
 position of ions in cartesian coordinates  (Angst):
   6.87661345  7.14638632 14.49178509
  12.37790420  3.97021462 12.24589255
   4.12596807  0.79404292 10.00000000
   4.12596807  5.55830047 10.00000000
   0.00000000  0.00000000 14.49178509
  13.75322689  7.94042925 10.00000000
   9.62725883  2.38212877 14.49178509
  15.12854958  8.73447217 12.24589255
   4.12596807  7.14638632 14.49178509
  11.00258152  4.76425755 14.49178509
   5.50129076  3.17617170 10.00000000
   9.62725883  3.97021462 12.24589255
   2.75064538  3.17617170 10.00000000
   4.12596807  3.97021462 12.24589255
   4.12596807  2.38212877 14.49178509
   6.87661345  5.55830047 10.00000000
   5.50129076  6.35234340 12.24589255
   5.50129076  4.76425755 14.49178509
   8.25193614  1.58808585 12.24589255
   9.62725883  0.79404292 10.00000000
   9.62725883  7.14638632 14.49178509
   8.25193614  3.17617170 10.00000000
   6.87661345  3.97021462 12.24589255
   8.25193614  4.76425755 14.49178509
   6.87661345  8.73447217 12.24589255
   8.25193614  7.94042925 10.00000000
   2.75064538  0.00000000 14.49178509
   2.75064538  1.58808585 12.24589255
  11.00258152  1.58808585 12.24589255
   2.75064538  4.76425755 14.49178509
  13.75322689  6.35234340 12.24589255
   1.37532269  2.38212877 14.49178509
  12.37790420  8.73447217 12.24589255
   5.50129076  7.94042925 10.00000000
   6.87661345  0.79404292 10.00000000
   8.25193614  6.35234340 12.24589255
   5.50129076  0.00000000 14.49178509
   6.87661345  2.38212877 14.49178509
   1.37532269  0.79404292 10.00000000
   9.62725883  8.73447217 12.24589255
  12.37790420  5.55830047 10.00000000
  11.00258152  6.35234340 12.24589255
   8.25193614  0.00000000 14.49178509
  11.00258152  3.17617170 10.00000000
  11.00258152  7.94042925 10.00000000
   9.62725883  5.55830047 10.00000000
   5.50129076  1.58808585 12.24589255
  12.37790420  7.14638632 14.49178509
 


--------------------------------------------------------------------------------------------------------


 k-point  1 :   0.2500 0.2500 0.0000  plane waves:   46635
 k-point  2 :   0.0000 0.2500 0.0000  plane waves:   46635
 k-point  3 :  -0.2500 0.0000 0.0000  plane waves:   46635
 k-point  4 :  -0.2500 0.2500 0.0000  plane waves:   46644
 k-point  5 :   0.5000-0.2500 0.0000  plane waves:   46644
 k-point  6 :  -0.2500 0.5000 0.0000  plane waves:   46644

 maximum and minimum number of plane-waves per node :      7818     7732

 maximum number of plane-waves:     46644
 maximum index in each direction: 
   IXMAX=   18   IYMAX=   18   IZMAX=   39
   IXMIN=  -18   IYMIN=  -18   IZMIN=  -39

 WARNING: aliasing errors must be expected set NGX to  74 to avoid them
 WARNING: aliasing errors must be expected set NGY to  74 to avoid them
 WARNING: aliasing errors must be expected set NGZ to 158 to avoid them
 aliasing errors are usually negligible using standard VASP settings
 and one can safely disregard these warnings

 real space projection operators:
  total allocation   :      12803.06 KBytes
  max/ min on nodes  :       2145.66       2127.94


 parallel 3D FFT for wavefunctions:
    minimum data exchange during FFTs selected (reduces bandwidth)
 parallel 3D FFT for charge:
    minimum data exchange during FFTs selected (reduces bandwidth)


 total amount of memory used by VASP on root node    84353. kBytes
========================================================================

   base      :      30000. kBytes
   nonlr-proj:       4285. kBytes
   fftplans  :       4447. kBytes
   grid      :       6721. kBytes
   one-center:        124. kBytes
   wavefun   :      38776. kBytes
 
     INWAV:  cpu time    0.0000: real time    0.0000
 Broyden mixing: mesh for mixing (old mesh)
   NGX = 35   NGY = 35   NGZ = 79
  (NGX  =108   NGY  =108   NGZ  =240)
  gives a total of  96775 points

 initial charge density was supplied:
 charge density of overlapping atoms calculated
 number of electron     504.0000000 magnetization 
 keeping initial charge density in first step


--------------------------------------------------------------------------------------------------------


 Maximum index for non-local projection operator          355
 Maximum index for augmentation-charges          437 (set IRDMAX)


--------------------------------------------------------------------------------------------------------


 First call to EWALD:  gamma=   0.129
 Maximum number of real-space cells 4x 4x 2
 Maximum number of reciprocal cells 2x 2x 5

 FEWALD executed in parallel
    FEWALD:  cpu time    0.0021: real time    0.0021


----------------------------------------- Iteration    1(   1)  ---------------------------------------


    POTLOK:  cpu time    0.0469: real time    0.0471
    SETDIJ:  cpu time    0.0062: real time    0.0063
     EDDAV:  cpu time    6.8918: real time    6.9118
       DOS:  cpu time    0.0014: real time    0.0014
    --------------------------------------------
      LOOP:  cpu time    6.9491: real time    6.9722

 eigenvalue-minimisations  :  3672
 total energy-change (2. order) : 0.3198654E+04  (-0.1898003E+05)
 number of electron     504.0000000 magnetization 
 augmentation part      504.0000000 magnetization 

 DIPCOR: dipole corrections for dipol
 direction  3 min pos     1,
 dipolmoment           0.000000      0.000000     -0.000001 electrons x Angstroem
 Tr[quadrupol]    -10322.718421

 energy correction for charged system         0.000000 eV
 dipol+quadrupol energy correction           -0.000000 eV
 added-field ion interaction          0.000000 eV  (added to PSCEN)


 Free energy of the ion-electron system (eV)
  ---------------------------------------------------
  alpha Z        PSCENC =       805.86936440
  Ewald energy   TEWEN  =    199946.14983019
  -Hartree energ DENC   =   -242360.38367705
  -exchange      EXHF   =         0.00000000
  -V(xc)+E(xc)   XCENC  =      -327.69035478
  PAW double counting   =     40340.05962942   -38292.62782345
  entropy T*S    EENTRO =        -0.13514487
  eigenvalues    EBANDS =      1427.62599539
  atomic energy  EATOM  =     41659.78587232
  Solvation  Ediel_sol  =         0.00000000
  ---------------------------------------------------
  free energy    TOTEN  =      3198.65369157 eV

  energy without entropy =     3198.78883645  energy(sigma->0) =     3198.72126401


--------------------------------------------------------------------------------------------------------




----------------------------------------- Iteration    1(   2)  ---------------------------------------


     EDDAV:  cpu time    8.0196: real time    8.0421
       DOS:  cpu time    0.0015: real time    0.0015
    --------------------------------------------
      LOOP:  cpu time    8.0217: real time    8.0471

 eigenvalue-minimisations  :  4380
 total energy-change (2. order) :-0.3185518E+04  (-0.2924802E+04)
 number of electron     504.0000000 magnetization 
 augmentation part      504.0000000 magnetization 

 DIPCOR: dipole corrections for dipol
 direction  3 min pos     1,
 dipolmoment           0.000000      0.000000     -0.000001 electrons x Angstroem
 Tr[quadrupol]    -10322.718421

 energy correction for charged system         0.000000 eV
 dipol+quadrupol energy correction           -0.000000 eV
 added-field ion interaction          0.000000 eV  (added to PSCEN)


 Free energy of the ion-electron system (eV)
  ---------------------------------------------------
  alpha Z        PSCENC =       805.86936440
  Ewald energy   TEWEN  =    199946.14983019
  -Hartree energ DENC   =   -242360.38367705
  -exchange      EXHF   =         0.00000000
  -V(xc)+E(xc)   XCENC  =      -327.69035478
  PAW double counting   =     40340.05962942   -38292.62782345
  entropy T*S    EENTRO =        -0.13965835
  eigenvalues    EBANDS =     -1757.88777469
  atomic energy  EATOM  =     41659.78587232
  Solvation  Ediel_sol  =         0.00000000
  ---------------------------------------------------
  free energy    TOTEN  =        13.13540802 eV

  energy without entropy =       13.27506638  energy(sigma->0) =       13.20523720


--------------------------------------------------------------------------------------------------------




----------------------------------------- Iteration    1(   3)  ---------------------------------------


     EDDAV:  cpu time    7.9206: real time    7.9993
       DOS:  cpu time    0.0016: real time    0.0016
    --------------------------------------------
      LOOP:  cpu time    7.9235: real time    8.0038

 eigenvalue-minimisations  :  4116
 total energy-change (2. order) :-0.2149741E+03  (-0.1994919E+03)
 number of electron     504.0000000 magnetization 
 augmentation part      504.0000000 magnetization 

 DIPCOR: dipole corrections for dipol
 direction  3 min pos     1,
 dipolmoment           0.000000      0.000000     -0.000001 electrons x Angstroem
 Tr[quadrupol]    -10322.718421

 energy correction for charged system         0.000000 eV
 dipol+quadrupol energy correction           -0.000000 eV
 added-field ion interaction          0.000000 eV  (added to PSCEN)


 Free energy of the ion-electron system (eV)
  ---------------------------------------------------
  alpha Z        PSCENC =       805.86936440
  Ewald energy   TEWEN  =    199946.14983019
  -Hartree energ DENC   =   -242360.38367705
  -exchange      EXHF   =         0.00000000
  -V(xc)+E(xc)   XCENC  =      -327.69035478
  PAW double counting   =     40340.05962942   -38292.62782345
  entropy T*S    EENTRO =        -0.18988779
  eigenvalues    EBANDS =     -1972.81168871
  atomic energy  EATOM  =     41659.78587232
  Solvation  Ediel_sol  =         0.00000000
  ---------------------------------------------------
  free energy    TOTEN  =      -201.83873544 eV

  energy without entropy =     -201.64884765  energy(sigma->0) =     -201.74379155


--------------------------------------------------------------------------------------------------------




----------------------------------------- Iteration    1(   4)  ---------------------------------------


     EDDAV:  cpu time    8.1772: real time    8.2495
       DOS:  cpu time    0.0016: real time    0.0016
    --------------------------------------------
      LOOP:  cpu time    8.1794: real time    8.2547

 eigenvalue-minimisations  :  4296
 total energy-change (2. order) :-0.5795045E+01  (-0.5735455E+01)
 number of electron     504.0000000 magnetization 
 augmentation part      504.0000000 magnetization 

 DIPCOR: dipole corrections for dipol
 direction  3 min pos     1,
 dipolmoment           0.000000      0.000000     -0.000001 electrons x Angstroem
 Tr[quadrupol]    -10322.718421

 energy correction for charged system         0.000000 eV
 dipol+quadrupol energy correction           -0.000000 eV
 added-field ion interaction          0.000000 eV  (added to PSCEN)


 Free energy of the ion-electron system (eV)
  ---------------------------------------------------
  alpha Z        PSCENC =       805.86936440
  Ewald energy   TEWEN  =    199946.14983019
  -Hartree energ DENC   =   -242360.38367705
  -exchange      EXHF   =         0.00000000
  -V(xc)+E(xc)   XCENC  =      -327.69035478
  PAW double counting   =     40340.05962942   -38292.62782345
  entropy T*S    EENTRO =        -0.19749207
  eigenvalues    EBANDS =     -1978.59912913
  atomic energy  EATOM  =     41659.78587232
  Solvation  Ediel_sol  =         0.00000000
  ---------------------------------------------------
  free energy    TOTEN  =      -207.63378014 eV

  energy without entropy =     -207.43628807  energy(sigma->0) =     -207.53503410


--------------------------------------------------------------------------------------------------------




----------------------------------------- Iteration    1(   5)  ---------------------------------------


     EDDAV:  cpu time    8.4140: real time    8.4371
       DOS:  cpu time    0.0016: real time    0.0016
    CHARGE:  cpu time    0.2407: real time    0.2413
    MIXING:  cpu time    0.0021: real time    0.0022
    --------------------------------------------
      LOOP:  cpu time    8.6591: real time    8.6847

 eigenvalue-minimisations  :  4452
 total energy-change (2. order) :-0.1857424E+00  (-0.1851574E+00)
 number of electron     503.9998403 magnetization 
 augmentation part      191.2761904 magnetization 

 DIPCOR: dipole corrections for dipol
 direction  3 min pos     1,
 dipolmoment           0.000000      0.000000     -0.000001 electrons x Angstroem
 Tr[quadrupol]    -10322.718421

 energy correction for charged system         0.000000 eV
 dipol+quadrupol energy correction           -0.000000 eV
 added-field ion interaction          0.000000 eV  (added to PSCEN)


 Broyden mixing:
  rms(total) = 0.62388E+01    rms(broyden)= 0.62388E+01
  rms(prec ) = 0.63989E+01
  weight for this iteration     100.00

 Free energy of the ion-electron system (eV)
  ---------------------------------------------------
  alpha Z        PSCENC =       805.86936440
  Ewald energy   TEWEN  =    199946.14983019
  -Hartree energ DENC   =   -242360.38367705
  -exchange      EXHF   =         0.00000000
  -V(xc)+E(xc)   XCENC  =      -327.69035478
  PAW double counting   =     40340.05962942   -38292.62782345
  entropy T*S    EENTRO =        -0.19717375
  eigenvalues    EBANDS =     -1978.78518988
  atomic energy  EATOM  =     41659.78587232
  Solvation  Ediel_sol  =         0.00000000
  ---------------------------------------------------
  free energy    TOTEN  =      -207.81952257 eV

  energy without entropy =     -207.62234882  energy(sigma->0) =     -207.72093569


--------------------------------------------------------------------------------------------------------




----------------------------------------- Iteration    1(   6)  ---------------------------------------


    POTLOK:  cpu time    0.0425: real time    0.0426
    SETDIJ:  cpu time    0.0055: real time    0.0055
    EDDIAG:  cpu time    1.2224: real time    1.2254
  RMM-DIIS:  cpu time    3.4319: real time    3.4402
    ORTHCH:  cpu time    0.2944: real time    0.2953
       DOS:  cpu time    0.0014: real time    0.0014
    CHARGE:  cpu time    0.2389: real time    0.2395
    MIXING:  cpu time    0.0019: real time    0.0019
    --------------------------------------------
      LOOP:  cpu time    5.2396: real time    5.2559

 eigenvalue-minimisations  :  3678
 total energy-change (2. order) : 0.2899596E+01  (-0.1060517E+02)
 number of electron     503.9998432 magnetization 
 augmentation part      190.6353627 magnetization 

 DIPCOR: dipole corrections for dipol
 direction  3 min pos     1,
 dipolmoment           0.000000      0.000000     -0.335490 electrons x Angstroem
 Tr[quadrupol]    -10324.746102

 energy correction for charged system         0.000000 eV
 dipol+quadrupol energy correction           -0.003966 eV
 added-field ion interaction          0.053101 eV  (added to PSCEN)


 Broyden mixing:
  rms(total) = 0.59424E+01    rms(broyden)= 0.59423E+01
  rms(prec ) = 0.62511E+01
  weight for this iteration     100.00

 eigenvalues of (default mixing * dielectric matrix)
  average eigenvalue GAMMA=   0.5912
  0.5912

 Free energy of the ion-electron system (eV)
  ---------------------------------------------------
  alpha Z        PSCENC =       805.91849899
  Ewald energy   TEWEN  =    199946.14983019
  -Hartree energ DENC   =   -242127.24941054
  -exchange      EXHF   =         0.00000000
  -V(xc)+E(xc)   XCENC  =      -340.40302895
  PAW double counting   =     43907.69671401   -41919.79170342
  entropy T*S    EENTRO =        -0.26797262
  eigenvalues    EBANDS =     -2136.75872615
  atomic energy  EATOM  =     41659.78587232
  Solvation  Ediel_sol  =         0.00000000
  ---------------------------------------------------
  free energy    TOTEN  =      -204.91992617 eV

  energy without entropy =     -204.65195356  energy(sigma->0) =     -204.78593987


--------------------------------------------------------------------------------------------------------




----------------------------------------- Iteration    1(   7)  ---------------------------------------


    POTLOK:  cpu time    0.0417: real time    0.0426
    SETDIJ:  cpu time    0.0054: real time    0.0054
    EDDIAG:  cpu time    1.2263: real time    1.2293
  RMM-DIIS:  cpu time    3.3813: real time    3.3900
    ORTHCH:  cpu time    0.3013: real time    0.3020
       DOS:  cpu time    0.0015: real time    0.0015
    CHARGE:  cpu time    0.2379: real time    0.2385
    MIXING:  cpu time    0.0020: real time    0.0020
    --------------------------------------------
      LOOP:  cpu time    5.1979: real time    5.2145

 eigenvalue-minimisations  :  3680
 total energy-change (2. order) : 0.3144452E+01  (-0.5363273E+01)
 number of electron     503.9998371 magnetization 
 augmentation part      196.1588130 magnetization 

 DIPCOR: dipole corrections for dipol
 direction  3 min pos     1,
 dipolmoment           0.000000      0.000000      0.486021 electrons x Angstroem
 Tr[quadrupol]    -10322.438494

 energy correction for charged system         0.000000 eV
 dipol+quadrupol energy correction           -0.008324 eV
 added-field ion interaction         -0.076927 eV  (added to PSCEN)


 Broyden mixing:
  rms(total) = 0.42263E+01    rms(broyden)= 0.42261E+01
  rms(prec ) = 0.45742E+01
  weight for this iteration     100.00

 eigenvalues of (default mixing * dielectric matrix)
  average eigenvalue GAMMA=   0.8913
  1.4174  0.3653

 Free energy of the ion-electron system (eV)
  ---------------------------------------------------
  alpha Z        PSCENC =       805.78411399
  Ewald energy   TEWEN  =    199946.14983019
  -Hartree energ DENC   =   -241954.40833895
  -exchange      EXHF   =         0.00000000
  -V(xc)+E(xc)   XCENC  =      -342.40186595
  PAW double counting   =     45071.10256395   -43105.90311315
  entropy T*S    EENTRO =        -0.20035747
  eigenvalues    EBANDS =     -2281.68417940
  atomic energy  EATOM  =     41659.78587232
  Solvation  Ediel_sol  =         0.00000000
  ---------------------------------------------------
  free energy    TOTEN  =      -201.77547448 eV

  energy without entropy =     -201.57511701  energy(sigma->0) =     -201.67529574


--------------------------------------------------------------------------------------------------------




----------------------------------------- Iteration    1(   8)  ---------------------------------------


    POTLOK:  cpu time    0.0428: real time    0.0430
    SETDIJ:  cpu time    0.0063: real time    0.0063
    EDDIAG:  cpu time    1.2420: real time    1.2460
  RMM-DIIS:  cpu time    3.4164: real time    3.4264
    ORTHCH:  cpu time    0.2950: real time    0.2957
       DOS:  cpu time    0.0015: real time    0.0015
    CHARGE:  cpu time    0.2398: real time    0.2403
    MIXING:  cpu time    0.0019: real time    0.0020
    --------------------------------------------
      LOOP:  cpu time    5.2463: real time    5.2654

 eigenvalue-minimisations  :  3674
 total energy-change (2. order) :-0.1673669E+02  (-0.8114687E+01)
 number of electron     503.9998364 magnetization 
 augmentation part      196.0404981 magnetization 

 DIPCOR: dipole corrections for dipol
 direction  3 min pos     1,
 dipolmoment           0.000000      0.000000     -1.667261 electrons x Angstroem
 Tr[quadrupol]    -10324.529255

 energy correction for charged system         0.000000 eV
 dipol+quadrupol energy correction           -0.097951 eV
 added-field ion interaction          0.263892 eV  (added to PSCEN)


 Broyden mixing:
  rms(total) = 0.41095E+01    rms(broyden)= 0.41092E+01
  rms(prec ) = 0.49300E+01
  weight for this iteration     100.00

 eigenvalues of (default mixing * dielectric matrix)
  average eigenvalue GAMMA=   0.9063
  1.9942  0.4217  0.3030

 Free energy of the ion-electron system (eV)
  ---------------------------------------------------
  alpha Z        PSCENC =       806.03530456
  Ewald energy   TEWEN  =    199946.14983019
  -Hartree energ DENC   =   -241959.83712462
  -exchange      EXHF   =         0.00000000
  -V(xc)+E(xc)   XCENC  =      -344.37468845
  PAW double counting   =     47046.03158132   -45108.57572621
  entropy T*S    EENTRO =        -0.26995181
  eigenvalues    EBANDS =     -2263.45725712
  atomic energy  EATOM  =     41659.78587232
  Solvation  Ediel_sol  =         0.00000000
  ---------------------------------------------------
  free energy    TOTEN  =      -218.51215982 eV

  energy without entropy =     -218.24220802  energy(sigma->0) =     -218.37718392


--------------------------------------------------------------------------------------------------------




----------------------------------------- Iteration    1(   9)  ---------------------------------------


    POTLOK:  cpu time    0.0413: real time    0.0415
    SETDIJ:  cpu time    0.0054: real time    0.0054
    EDDIAG:  cpu time    1.2180: real time    1.2209
  RMM-DIIS:  cpu time    3.4795: real time    3.4880
    ORTHCH:  cpu time    0.2944: real time    0.2951
       DOS:  cpu time    0.0014: real time    0.0014
    CHARGE:  cpu time    0.2436: real time    0.2442
    MIXING:  cpu time    0.0021: real time    0.0021
    --------------------------------------------
      LOOP:  cpu time    5.2866: real time    5.3029

 eigenvalue-minimisations  :  3675
 total energy-change (2. order) : 0.5350805E+01  (-0.4469580E+01)
 number of electron     503.9998349 magnetization 
 augmentation part      197.1459161 magnetization 

 DIPCOR: dipole corrections for dipol
 direction  3 min pos     1,
 dipolmoment           0.000000      0.000000      1.115889 electrons x Angstroem
 Tr[quadrupol]    -10325.920014

 energy correction for charged system         0.000000 eV
 dipol+quadrupol energy correction           -0.043878 eV
 added-field ion interaction         -0.176621 eV  (added to PSCEN)


 Broyden mixing:
  rms(total) = 0.37945E+01    rms(broyden)= 0.37942E+01
  rms(prec ) = 0.44375E+01
  weight for this iteration     100.00

 eigenvalues of (default mixing * dielectric matrix)
  average eigenvalue GAMMA=   0.8185
  2.2174  0.4623  0.2971  0.2971

 Free energy of the ion-electron system (eV)
  ---------------------------------------------------
  alpha Z        PSCENC =       805.64886524
  Ewald energy   TEWEN  =    199946.14983019
  -Hartree energ DENC   =   -241972.87098911
  -exchange      EXHF   =         0.00000000
  -V(xc)+E(xc)   XCENC  =      -345.84493869
  PAW double counting   =     48417.46289814   -46499.87154479
  entropy T*S    EENTRO =        -0.20572093
  eigenvalues    EBANDS =     -2223.41562760
  atomic energy  EATOM  =     41659.78587232
  Solvation  Ediel_sol  =         0.00000000
  ---------------------------------------------------
  free energy    TOTEN  =      -213.16135524 eV

  energy without entropy =     -212.95563431  energy(sigma->0) =     -213.05849478


--------------------------------------------------------------------------------------------------------




----------------------------------------- Iteration    1(  10)  ---------------------------------------


    POTLOK:  cpu time    0.0411: real time    0.0412
    SETDIJ:  cpu time    0.0054: real time    0.0054
    EDDIAG:  cpu time    1.2200: real time    1.2283
  RMM-DIIS:  cpu time    3.3328: real time    3.4172
    ORTHCH:  cpu time    0.2951: real time    0.2958
       DOS:  cpu time    0.0014: real time    0.0014
    CHARGE:  cpu time    0.2363: real time    0.2369
    MIXING:  cpu time    0.0023: real time    0.0023
    --------------------------------------------
      LOOP:  cpu time    5.1352: real time    5.2320

 eigenvalue-minimisations  :  3682
 total energy-change (2. order) : 0.1638603E+02  (-0.2460023E+01)
 number of electron     503.9998337 magnetization 
 augmentation part      199.0052290 magnetization 

 DIPCOR: dipole corrections for dipol
 direction  3 min pos     1,
 dipolmoment           0.000000      0.000000     -0.376236 electrons x Angstroem
 Tr[quadrupol]    -10325.150966

 energy correction for charged system         0.000000 eV
 dipol+quadrupol energy correction           -0.004988 eV
 added-field ion interaction          0.059550 eV  (added to PSCEN)


 Broyden mixing:
  rms(total) = 0.19425E+01    rms(broyden)= 0.19422E+01
  rms(prec ) = 0.22107E+01
  weight for this iteration     100.00

 eigenvalues of (default mixing * dielectric matrix)
  average eigenvalue GAMMA=   0.7561
  2.2179  0.5073  0.5073  0.3117  0.2363

 Free energy of the ion-electron system (eV)
  ---------------------------------------------------
  alpha Z        PSCENC =       805.92392638
  Ewald energy   TEWEN  =    199946.14983019
  -Hartree energ DENC   =   -241949.02454255
  -exchange      EXHF   =         0.00000000
  -V(xc)+E(xc)   XCENC  =      -345.99980811
  PAW double counting   =     49024.05891273   -47114.03914188
  entropy T*S    EENTRO =        -0.20211848
  eigenvalues    EBANDS =     -2223.42825477
  atomic energy  EATOM  =     41659.78587232
  Solvation  Ediel_sol  =         0.00000000
  ---------------------------------------------------
  free energy    TOTEN  =      -196.77532417 eV

  energy without entropy =     -196.57320569  energy(sigma->0) =     -196.67426493


--------------------------------------------------------------------------------------------------------




----------------------------------------- Iteration    1(  11)  ---------------------------------------


    POTLOK:  cpu time    0.0423: real time    0.0424
    SETDIJ:  cpu time    0.0054: real time    0.0054
    EDDIAG:  cpu time    1.2221: real time    1.2251
  RMM-DIIS:  cpu time    3.4274: real time    3.4356
    ORTHCH:  cpu time    0.2947: real time    0.2954
       DOS:  cpu time    0.0014: real time    0.0014
    CHARGE:  cpu time    0.2358: real time    0.2370
    MIXING:  cpu time    0.0023: real time    0.0023
    --------------------------------------------
      LOOP:  cpu time    5.2321: real time    5.2481

 eigenvalue-minimisations  :  3680
 total energy-change (2. order) : 0.5738618E+01  (-0.1138314E+01)
 number of electron     503.9998348 magnetization 
 augmentation part      198.4391224 magnetization 

 DIPCOR: dipole corrections for dipol
 direction  3 min pos     1,
 dipolmoment           0.000000      0.000000     -0.223741 electrons x Angstroem
 Tr[quadrupol]    -10324.856641

 energy correction for charged system         0.000000 eV
 dipol+quadrupol energy correction           -0.001764 eV
 added-field ion interaction          0.035413 eV  (added to PSCEN)


 Broyden mixing:
  rms(total) = 0.12681E+01    rms(broyden)= 0.12677E+01
  rms(prec ) = 0.14848E+01
  weight for this iteration     100.00

 eigenvalues of (default mixing * dielectric matrix)
  average eigenvalue GAMMA=   0.7225
  2.2447  0.6041  0.6041  0.3169  0.2825  0.2825

 Free energy of the ion-electron system (eV)
  ---------------------------------------------------
  alpha Z        PSCENC =       805.90301368
  Ewald energy   TEWEN  =    199946.14983019
  -Hartree energ DENC   =   -241965.27448365
  -exchange      EXHF   =         0.00000000
  -V(xc)+E(xc)   XCENC  =      -345.24470793
  PAW double counting   =     49146.15449678   -47233.88331166
  entropy T*S    EENTRO =        -0.18619900
  eigenvalues    EBANDS =     -2204.44121714
  atomic energy  EATOM  =     41659.78587232
  Solvation  Ediel_sol  =         0.00000000
  ---------------------------------------------------
  free energy    TOTEN  =      -191.03670641 eV

  energy without entropy =     -190.85050742  energy(sigma->0) =     -190.94360692


--------------------------------------------------------------------------------------------------------




----------------------------------------- Iteration    1(  12)  ---------------------------------------


    POTLOK:  cpu time    0.0412: real time    0.0413
    SETDIJ:  cpu time    0.0055: real time    0.0055
    EDDIAG:  cpu time    1.2276: real time    1.2305
  RMM-DIIS:  cpu time    3.3825: real time    3.3924
    ORTHCH:  cpu time    0.2950: real time    0.2957
       DOS:  cpu time    0.0015: real time    0.0015
    CHARGE:  cpu time    0.2371: real time    0.2376
    MIXING:  cpu time    0.0025: real time    0.0025
    --------------------------------------------
      LOOP:  cpu time    5.1935: real time    5.2103

 eigenvalue-minimisations  :  3680
 total energy-change (2. order) : 0.2224464E+01  (-0.3891682E+00)
 number of electron     503.9998356 magnetization 
 augmentation part      197.6233255 magnetization 

 DIPCOR: dipole corrections for dipol
 direction  3 min pos     1,
 dipolmoment           0.000000      0.000000     -0.049195 electrons x Angstroem
 Tr[quadrupol]    -10325.567913

 energy correction for charged system         0.000000 eV
 dipol+quadrupol energy correction           -0.000085 eV
 added-field ion interaction          0.007786 eV  (added to PSCEN)


 Broyden mixing:
  rms(total) = 0.68604E+00    rms(broyden)= 0.68580E+00
  rms(prec ) = 0.73346E+00
  weight for this iteration     100.00

 eigenvalues of (default mixing * dielectric matrix)
  average eigenvalue GAMMA=   0.7136
  2.2474  0.6230  0.6230  0.6705  0.2884  0.2716  0.2716

 Free energy of the ion-electron system (eV)
  ---------------------------------------------------
  alpha Z        PSCENC =       805.87706545
  Ewald energy   TEWEN  =    199946.14983019
  -Hartree energ DENC   =   -242010.77902140
  -exchange      EXHF   =         0.00000000
  -V(xc)+E(xc)   XCENC  =      -344.68188687
  PAW double counting   =     49256.44747356   -47341.83864896
  entropy T*S    EENTRO =        -0.26277355
  eigenvalues    EBANDS =     -2159.51015278
  atomic energy  EATOM  =     41659.78587232
  Solvation  Ediel_sol  =         0.00000000
  ---------------------------------------------------
  free energy    TOTEN  =      -188.81224204 eV

  energy without entropy =     -188.54946849  energy(sigma->0) =     -188.68085526


--------------------------------------------------------------------------------------------------------




----------------------------------------- Iteration    1(  13)  ---------------------------------------


    POTLOK:  cpu time    0.0411: real time    0.0412
    SETDIJ:  cpu time    0.0054: real time    0.0054
    EDDIAG:  cpu time    1.2179: real time    1.2208
  RMM-DIIS:  cpu time    3.3811: real time    3.3921
    ORTHCH:  cpu time    0.2939: real time    0.2946
       DOS:  cpu time    0.0015: real time    0.0015
    CHARGE:  cpu time    0.2401: real time    0.2416
    MIXING:  cpu time    0.0028: real time    0.0028
    --------------------------------------------
      LOOP:  cpu time    5.1843: real time    5.2033

 eigenvalue-minimisations  :  3682
 total energy-change (2. order) :-0.7466447E-02  (-0.9800676E-01)
 number of electron     503.9998358 magnetization 
 augmentation part      197.3785483 magnetization 

 DIPCOR: dipole corrections for dipol
 direction  3 min pos     1,
 dipolmoment           0.000000      0.000000     -0.016955 electrons x Angstroem
 Tr[quadrupol]    -10325.961192

 energy correction for charged system         0.000000 eV
 dipol+quadrupol energy correction           -0.000010 eV
 added-field ion interaction          0.002684 eV  (added to PSCEN)


 Broyden mixing:
  rms(total) = 0.68000E+00    rms(broyden)= 0.67990E+00
  rms(prec ) = 0.73521E+00
  weight for this iteration     100.00

 eigenvalues of (default mixing * dielectric matrix)
  average eigenvalue GAMMA=   0.7071
  2.2199  0.7740  0.7740  0.7568  0.3091  0.3091  0.2569  0.2569

 Free energy of the ion-electron system (eV)
  ---------------------------------------------------
  alpha Z        PSCENC =       805.87203774
  Ewald energy   TEWEN  =    199946.14983019
  -Hartree energ DENC   =   -242031.76901254
  -exchange      EXHF   =         0.00000000
  -V(xc)+E(xc)   XCENC  =      -344.49762992
  PAW double counting   =     49292.34351806   -47376.62016459
  entropy T*S    EENTRO =        -0.26523450
  eigenvalues    EBANDS =     -2139.81892524
  atomic energy  EATOM  =     41659.78587232
  Solvation  Ediel_sol  =         0.00000000
  ---------------------------------------------------
  free energy    TOTEN  =      -188.81970848 eV

  energy without entropy =     -188.55447398  energy(sigma->0) =     -188.68709123


--------------------------------------------------------------------------------------------------------




----------------------------------------- Iteration    1(  14)  ---------------------------------------


    POTLOK:  cpu time    0.0426: real time    0.0428
    SETDIJ:  cpu time    0.0056: real time    0.0061
    EDDIAG:  cpu time    1.2234: real time    1.2274
  RMM-DIIS:  cpu time    3.4077: real time    3.4160
    ORTHCH:  cpu time    0.2961: real time    0.2968
       DOS:  cpu time    0.0014: real time    0.0014
    CHARGE:  cpu time    0.2367: real time    0.2373
    MIXING:  cpu time    0.0029: real time    0.0029
    --------------------------------------------
      LOOP:  cpu time    5.2171: real time    5.2341

 eigenvalue-minimisations  :  3678
 total energy-change (2. order) : 0.8405510E-01  (-0.4848935E-01)
 number of electron     503.9998357 magnetization 
 augmentation part      197.3039323 magnetization 

 DIPCOR: dipole corrections for dipol
 direction  3 min pos     1,
 dipolmoment           0.000000      0.000000      0.003714 electrons x Angstroem
 Tr[quadrupol]    -10326.092580

 energy correction for charged system         0.000000 eV
 dipol+quadrupol energy correction           -0.000000 eV
 added-field ion interaction         -0.000588 eV  (added to PSCEN)


 Broyden mixing:
  rms(total) = 0.63079E+00    rms(broyden)= 0.63070E+00
  rms(prec ) = 0.69469E+00
  weight for this iteration     100.00

 eigenvalues of (default mixing * dielectric matrix)
  average eigenvalue GAMMA=   0.7007
  2.1904  0.9550  0.9550  0.7034  0.3854  0.3854  0.2556  0.2556  0.2207

 Free energy of the ion-electron system (eV)
  ---------------------------------------------------
  alpha Z        PSCENC =       805.86877589
  Ewald energy   TEWEN  =    199946.14983019
  -Hartree energ DENC   =   -242040.95818546
  -exchange      EXHF   =         0.00000000
  -V(xc)+E(xc)   XCENC  =      -344.31494190
  PAW double counting   =     49296.16242161   -47379.29146092
  entropy T*S    EENTRO =        -0.25740736
  eigenvalues    EBANDS =     -2131.88055775
  atomic energy  EATOM  =     41659.78587232
  Solvation  Ediel_sol  =         0.00000000
  ---------------------------------------------------
  free energy    TOTEN  =      -188.73565339 eV

  energy without entropy =     -188.47824603  energy(sigma->0) =     -188.60694971


--------------------------------------------------------------------------------------------------------




----------------------------------------- Iteration    1(  15)  ---------------------------------------


    POTLOK:  cpu time    0.0419: real time    0.0428
    SETDIJ:  cpu time    0.0059: real time    0.0059
    EDDIAG:  cpu time    1.2227: real time    1.2275
  RMM-DIIS:  cpu time    3.4684: real time    3.4799
    ORTHCH:  cpu time    0.2953: real time    0.2960
       DOS:  cpu time    0.0015: real time    0.0015
    CHARGE:  cpu time    0.2357: real time    0.2362
    MIXING:  cpu time    0.0029: real time    0.0029
    --------------------------------------------
      LOOP:  cpu time    5.2749: real time    5.2966

 eigenvalue-minimisations  :  3678
 total energy-change (2. order) : 0.3656613E-01  (-0.3449656E-01)
 number of electron     503.9998358 magnetization 
 augmentation part      197.2371275 magnetization 

 DIPCOR: dipole corrections for dipol
 direction  3 min pos     1,
 dipolmoment           0.000000      0.000000     -0.015720 electrons x Angstroem
 Tr[quadrupol]    -10326.245063

 energy correction for charged system         0.000000 eV
 dipol+quadrupol energy correction           -0.000009 eV
 added-field ion interaction          0.002488 eV  (added to PSCEN)


 Broyden mixing:
  rms(total) = 0.49273E+00    rms(broyden)= 0.49264E+00
  rms(prec ) = 0.55457E+00
  weight for this iteration     100.00

 eigenvalues of (default mixing * dielectric matrix)
  average eigenvalue GAMMA=   0.7306
  2.0621  1.3148  1.3148  0.6372  0.6372  0.3525  0.2735  0.2735  0.2585  0.1814

 Free energy of the ion-electron system (eV)
  ---------------------------------------------------
  alpha Z        PSCENC =       805.87184365
  Ewald energy   TEWEN  =    199946.14983019
  -Hartree energ DENC   =   -242050.73409445
  -exchange      EXHF   =         0.00000000
  -V(xc)+E(xc)   XCENC  =      -344.14157077
  PAW double counting   =     49298.21976146   -47380.19233246
  entropy T*S    EENTRO =        -0.26732126
  eigenvalues    EBANDS =     -2123.39107593
  atomic energy  EATOM  =     41659.78587232
  Solvation  Ediel_sol  =         0.00000000
  ---------------------------------------------------
  free energy    TOTEN  =      -188.69908726 eV

  energy without entropy =     -188.43176600  energy(sigma->0) =     -188.56542663


--------------------------------------------------------------------------------------------------------




----------------------------------------- Iteration    1(  16)  ---------------------------------------


    POTLOK:  cpu time    0.0412: real time    0.0413
    SETDIJ:  cpu time    0.0056: real time    0.0056
    EDDIAG:  cpu time    1.2288: real time    1.2318
  RMM-DIIS:  cpu time    3.4312: real time    3.4395
    ORTHCH:  cpu time    0.2946: real time    0.2954
       DOS:  cpu time    0.0014: real time    0.0014
    CHARGE:  cpu time    0.2374: real time    0.2380
    MIXING:  cpu time    0.0030: real time    0.0030
    --------------------------------------------
      LOOP:  cpu time    5.2439: real time    5.2586

 eigenvalue-minimisations  :  3680
 total energy-change (2. order) : 0.1160789E+00  (-0.2781232E-01)
 number of electron     503.9998362 magnetization 
 augmentation part      197.0805742 magnetization 

 DIPCOR: dipole corrections for dipol
 direction  3 min pos     1,
 dipolmoment           0.000000      0.000000     -0.069541 electrons x Angstroem
 Tr[quadrupol]    -10326.615552

 energy correction for charged system         0.000000 eV
 dipol+quadrupol energy correction           -0.000170 eV
 added-field ion interaction          0.011007 eV  (added to PSCEN)


 Broyden mixing:
  rms(total) = 0.36580E+00    rms(broyden)= 0.36573E+00
  rms(prec ) = 0.43726E+00
  weight for this iteration     100.00

 eigenvalues of (default mixing * dielectric matrix)
  average eigenvalue GAMMA=   0.7150
  1.9732  1.4668  1.4668  0.6318  0.6318  0.3753  0.3188  0.3188  0.2530  0.2530
  0.1761

 Free energy of the ion-electron system (eV)
  ---------------------------------------------------
  alpha Z        PSCENC =       805.88020067
  Ewald energy   TEWEN  =    199946.14983019
  -Hartree energ DENC   =   -242072.70008222
  -exchange      EXHF   =         0.00000000
  -V(xc)+E(xc)   XCENC  =      -343.80576519
  PAW double counting   =     49308.37736795   -47388.10292325
  entropy T*S    EENTRO =        -0.25799510
  eigenvalues    EBANDS =     -2103.90951370
  atomic energy  EATOM  =     41659.78587232
  Solvation  Ediel_sol  =         0.00000000
  ---------------------------------------------------
  free energy    TOTEN  =      -188.58300832 eV

  energy without entropy =     -188.32501322  energy(sigma->0) =     -188.45401077


--------------------------------------------------------------------------------------------------------




----------------------------------------- Iteration    1(  17)  ---------------------------------------


    POTLOK:  cpu time    0.0415: real time    0.0417
    SETDIJ:  cpu time    0.0054: real time    0.0054
    EDDIAG:  cpu time    1.2170: real time    1.2199
  RMM-DIIS:  cpu time    3.4304: real time    3.4485
    ORTHCH:  cpu time    0.2855: real time    0.3103
       DOS:  cpu time    0.0015: real time    0.0015
    CHARGE:  cpu time    0.2464: real time    0.2673
    MIXING:  cpu time    0.0032: real time    0.0033
    --------------------------------------------
      LOOP:  cpu time    5.2314: real time    5.3015

 eigenvalue-minimisations  :  3678
 total energy-change (2. order) : 0.1191214E+00  (-0.1322496E-01)
 number of electron     503.9998361 magnetization 
 augmentation part      197.0639350 magnetization 

 DIPCOR: dipole corrections for dipol
 direction  3 min pos     1,
 dipolmoment           0.000000      0.000000     -0.051326 electrons x Angstroem
 Tr[quadrupol]    -10326.780543

 energy correction for charged system         0.000000 eV
 dipol+quadrupol energy correction           -0.000093 eV
 added-field ion interaction          0.008124 eV  (added to PSCEN)


 Broyden mixing:
  rms(total) = 0.22694E+00    rms(broyden)= 0.22689E+00
  rms(prec ) = 0.26665E+00
  weight for this iteration     100.00

 eigenvalues of (default mixing * dielectric matrix)
  average eigenvalue GAMMA=   0.7260
  2.1491  1.5635  1.5635  0.6256  0.6256  0.5684  0.3376  0.3376  0.2627  0.2627
  0.2414  0.1741

 Free energy of the ion-electron system (eV)
  ---------------------------------------------------
  alpha Z        PSCENC =       805.87739533
  Ewald energy   TEWEN  =    199946.14983019
  -Hartree energ DENC   =   -242080.25762793
  -exchange      EXHF   =         0.00000000
  -V(xc)+E(xc)   XCENC  =      -343.71967124
  PAW double counting   =     49323.51023698   -47402.67203840
  entropy T*S    EENTRO =        -0.27463159
  eigenvalues    EBANDS =     -2096.86325253
  atomic energy  EATOM  =     41659.78587232
  Solvation  Ediel_sol  =         0.00000000
  ---------------------------------------------------
  free energy    TOTEN  =      -188.46388687 eV

  energy without entropy =     -188.18925528  energy(sigma->0) =     -188.32657108


--------------------------------------------------------------------------------------------------------




----------------------------------------- Iteration    1(  18)  ---------------------------------------


    POTLOK:  cpu time    0.0406: real time    0.0458
    SETDIJ:  cpu time    0.0053: real time    0.0054
    EDDIAG:  cpu time    1.2184: real time    1.2354
  RMM-DIIS:  cpu time    3.4224: real time    3.4308
    ORTHCH:  cpu time    0.2945: real time    0.2952
       DOS:  cpu time    0.0014: real time    0.0014
    CHARGE:  cpu time    0.2357: real time    0.2362
    MIXING:  cpu time    0.0034: real time    0.0034
    --------------------------------------------
      LOOP:  cpu time    5.2224: real time    5.2573

 eigenvalue-minimisations  :  3680
 total energy-change (2. order) : 0.3737091E-01  (-0.5360509E-02)
 number of electron     503.9998361 magnetization 
 augmentation part      197.0896993 magnetization 

 DIPCOR: dipole corrections for dipol
 direction  3 min pos     1,
 dipolmoment           0.000000      0.000000     -0.021678 electrons x Angstroem
 Tr[quadrupol]    -10326.972415

 energy correction for charged system         0.000000 eV
 dipol+quadrupol energy correction           -0.000017 eV
 added-field ion interaction          0.003431 eV  (added to PSCEN)


 Broyden mixing:
  rms(total) = 0.12625E+00    rms(broyden)= 0.12618E+00
  rms(prec ) = 0.14168E+00
  weight for this iteration     100.00

 eigenvalues of (default mixing * dielectric matrix)
  average eigenvalue GAMMA=   0.7157
  2.2090  1.5928  1.5928  0.6591  0.6591  0.5113  0.5113  0.3469  0.2689  0.2689
  0.2838  0.2277  0.1732

 Free energy of the ion-electron system (eV)
  ---------------------------------------------------
  alpha Z        PSCENC =       805.87277892
  Ewald energy   TEWEN  =    199946.14983019
  -Hartree energ DENC   =   -242086.90742338
  -exchange      EXHF   =         0.00000000
  -V(xc)+E(xc)   XCENC  =      -343.70709749
  PAW double counting   =     49348.87916008   -47427.93385378
  entropy T*S    EENTRO =        -0.27988474
  eigenvalues    EBANDS =     -2090.28589808
  atomic energy  EATOM  =     41659.78587232
  Solvation  Ediel_sol  =         0.00000000
  ---------------------------------------------------
  free energy    TOTEN  =      -188.42651596 eV

  energy without entropy =     -188.14663123  energy(sigma->0) =     -188.28657359


--------------------------------------------------------------------------------------------------------




----------------------------------------- Iteration    1(  19)  ---------------------------------------


    POTLOK:  cpu time    0.0415: real time    0.0416
    SETDIJ:  cpu time    0.0055: real time    0.0055
    EDDIAG:  cpu time    1.2189: real time    1.2225
  RMM-DIIS:  cpu time    3.4250: real time    3.4380
    ORTHCH:  cpu time    0.2941: real time    0.2948
       DOS:  cpu time    0.0015: real time    0.0015
    CHARGE:  cpu time    0.2354: real time    0.2359
    MIXING:  cpu time    0.0035: real time    0.0035
    --------------------------------------------
      LOOP:  cpu time    5.2260: real time    5.2468

 eigenvalue-minimisations  :  3680
 total energy-change (2. order) : 0.9350238E-02  (-0.1895744E-02)
 number of electron     503.9998361 magnetization 
 augmentation part      197.0783494 magnetization 

 DIPCOR: dipole corrections for dipol
 direction  3 min pos     1,
 dipolmoment           0.000000      0.000000     -0.015619 electrons x Angstroem
 Tr[quadrupol]    -10327.061118

 energy correction for charged system         0.000000 eV
 dipol+quadrupol energy correction           -0.000009 eV
 added-field ion interaction          0.002472 eV  (added to PSCEN)


 Broyden mixing:
  rms(total) = 0.84289E-01    rms(broyden)= 0.84271E-01
  rms(prec ) = 0.93973E-01
  weight for this iteration     100.00

 eigenvalues of (default mixing * dielectric matrix)
  average eigenvalue GAMMA=   0.7283
  2.2654  1.8504  1.4531  0.7783  0.7783  0.6025  0.6025  0.3440  0.2990  0.2990
  0.2624  0.2624  0.2260  0.1729

 Free energy of the ion-electron system (eV)
  ---------------------------------------------------
  alpha Z        PSCENC =       805.87182789
  Ewald energy   TEWEN  =    199946.14983019
  -Hartree energ DENC   =   -242090.71905496
  -exchange      EXHF   =         0.00000000
  -V(xc)+E(xc)   XCENC  =      -343.68995968
  PAW double counting   =     49356.65627825   -47435.61379544
  entropy T*S    EENTRO =        -0.28052276
  eigenvalues    EBANDS =     -2086.57764152
  atomic energy  EATOM  =     41659.78587232
  Solvation  Ediel_sol  =         0.00000000
  ---------------------------------------------------
  free energy    TOTEN  =      -188.41716572 eV

  energy without entropy =     -188.13664296  energy(sigma->0) =     -188.27690434


--------------------------------------------------------------------------------------------------------




----------------------------------------- Iteration    1(  20)  ---------------------------------------


    POTLOK:  cpu time    0.0411: real time    0.0412
    SETDIJ:  cpu time    0.0053: real time    0.0053
    EDDIAG:  cpu time    1.2251: real time    1.2280
  RMM-DIIS:  cpu time    3.4316: real time    3.4399
    ORTHCH:  cpu time    0.2944: real time    0.2952
       DOS:  cpu time    0.0015: real time    0.0015
    CHARGE:  cpu time    0.2370: real time    0.2376
    MIXING:  cpu time    0.0037: real time    0.0037
    --------------------------------------------
      LOOP:  cpu time    5.2404: real time    5.2551

 eigenvalue-minimisations  :  3681
 total energy-change (2. order) : 0.5854160E-02  (-0.6453632E-03)
 number of electron     503.9998361 magnetization 
 augmentation part      197.0384458 magnetization 

 DIPCOR: dipole corrections for dipol
 direction  3 min pos     1,
 dipolmoment           0.000000      0.000000     -0.007998 electrons x Angstroem
 Tr[quadrupol]    -10327.182750

 energy correction for charged system         0.000000 eV
 dipol+quadrupol energy correction           -0.000002 eV
 added-field ion interaction          0.001266 eV  (added to PSCEN)


 Broyden mixing:
  rms(total) = 0.59038E-01    rms(broyden)= 0.59032E-01
  rms(prec ) = 0.64790E-01
  weight for this iteration     100.00

 eigenvalues of (default mixing * dielectric matrix)
  average eigenvalue GAMMA=   0.7269
  2.3480  1.9071  1.3781  0.8862  0.8862  0.6263  0.6263  0.4096  0.3250  0.3250
  0.2636  0.2636  0.2613  0.2251  0.1728

 Free energy of the ion-electron system (eV)
  ---------------------------------------------------
  alpha Z        PSCENC =       805.87062796
  Ewald energy   TEWEN  =    199946.14983019
  -Hartree energ DENC   =   -242096.28267802
  -exchange      EXHF   =         0.00000000
  -V(xc)+E(xc)   XCENC  =      -343.65210143
  PAW double counting   =     49362.76141962   -47441.52451031
  entropy T*S    EENTRO =        -0.28218545
  eigenvalues    EBANDS =     -2081.23758644
  atomic energy  EATOM  =     41659.78587232
  Solvation  Ediel_sol  =         0.00000000
  ---------------------------------------------------
  free energy    TOTEN  =      -188.41131156 eV

  energy without entropy =     -188.12912611  energy(sigma->0) =     -188.27021884


--------------------------------------------------------------------------------------------------------




----------------------------------------- Iteration    1(  21)  ---------------------------------------


    POTLOK:  cpu time    0.0415: real time    0.0416
    SETDIJ:  cpu time    0.0056: real time    0.0056
    EDDIAG:  cpu time    1.2159: real time    1.2188
  RMM-DIIS:  cpu time    3.4357: real time    3.4478
    ORTHCH:  cpu time    0.2950: real time    0.2957
       DOS:  cpu time    0.0015: real time    0.0015
    CHARGE:  cpu time    0.2408: real time    0.2415
    MIXING:  cpu time    0.0039: real time    0.0039
    --------------------------------------------
      LOOP:  cpu time    5.2406: real time    5.2605

 eigenvalue-minimisations  :  3681
 total energy-change (2. order) : 0.2053744E-02  (-0.3761103E-03)
 number of electron     503.9998362 magnetization 
 augmentation part      197.0157956 magnetization 

 DIPCOR: dipole corrections for dipol
 direction  3 min pos     1,
 dipolmoment           0.000000      0.000000     -0.007923 electrons x Angstroem
 Tr[quadrupol]    -10327.280280

 energy correction for charged system         0.000000 eV
 dipol+quadrupol energy correction           -0.000002 eV
 added-field ion interaction          0.001254 eV  (added to PSCEN)


 Broyden mixing:
  rms(total) = 0.44244E-01    rms(broyden)= 0.44237E-01
  rms(prec ) = 0.49145E-01
  weight for this iteration     100.00

 eigenvalues of (default mixing * dielectric matrix)
  average eigenvalue GAMMA=   0.7471
  2.4542  1.7275  1.7275  0.9937  0.8337  0.8337  0.6264  0.6264  0.3417  0.3417
  0.2682  0.2682  0.2726  0.1728  0.2466  0.2194

 Free energy of the ion-electron system (eV)
  ---------------------------------------------------
  alpha Z        PSCENC =       805.87061611
  Ewald energy   TEWEN  =    199946.14983019
  -Hartree energ DENC   =   -242100.39308793
  -exchange      EXHF   =         0.00000000
  -V(xc)+E(xc)   XCENC  =      -343.63089228
  PAW double counting   =     49367.13415856   -47445.84402676
  entropy T*S    EENTRO =        -0.28179853
  eigenvalues    EBANDS =     -2077.19992950
  atomic energy  EATOM  =     41659.78587232
  Solvation  Ediel_sol  =         0.00000000
  ---------------------------------------------------
  free energy    TOTEN  =      -188.40925782 eV

  energy without entropy =     -188.12745929  energy(sigma->0) =     -188.26835855


--------------------------------------------------------------------------------------------------------




----------------------------------------- Iteration    1(  22)  ---------------------------------------


    POTLOK:  cpu time    0.0418: real time    0.0419
    SETDIJ:  cpu time    0.0055: real time    0.0055
    EDDIAG:  cpu time    1.2202: real time    1.2232
  RMM-DIIS:  cpu time    3.3423: real time    3.3503
    ORTHCH:  cpu time    0.2942: real time    0.2957
       DOS:  cpu time    0.0014: real time    0.0014
    CHARGE:  cpu time    0.2361: real time    0.2366
    MIXING:  cpu time    0.0040: real time    0.0040
    --------------------------------------------
      LOOP:  cpu time    5.1461: real time    5.1625

 eigenvalue-minimisations  :  3682
 total energy-change (2. order) : 0.6611843E-03  (-0.1584380E-03)
 number of electron     503.9998362 magnetization 
 augmentation part      197.0172078 magnetization 

 DIPCOR: dipole corrections for dipol
 direction  3 min pos     1,
 dipolmoment           0.000000      0.000000     -0.012347 electrons x Angstroem
 Tr[quadrupol]    -10327.390379

 energy correction for charged system         0.000000 eV
 dipol+quadrupol energy correction           -0.000005 eV
 added-field ion interaction          0.001954 eV  (added to PSCEN)


 Broyden mixing:
  rms(total) = 0.31677E-01    rms(broyden)= 0.31673E-01
  rms(prec ) = 0.35933E-01
  weight for this iteration     100.00

 eigenvalues of (default mixing * dielectric matrix)
  average eigenvalue GAMMA=   0.7747
  2.4811  1.9658  1.9658  1.4272  0.7325  0.7325  0.6515  0.6515  0.4001  0.4001
  0.2992  0.2992  0.2657  0.2657  0.1728  0.2213  0.2387

 Free energy of the ion-electron system (eV)
  ---------------------------------------------------
  alpha Z        PSCENC =       805.87131315
  Ewald energy   TEWEN  =    199946.14983019
  -Hartree energ DENC   =   -242104.44735404
  -exchange      EXHF   =         0.00000000
  -V(xc)+E(xc)   XCENC  =      -343.62818748
  PAW double counting   =     49370.58711720   -47449.39523472
  entropy T*S    EENTRO =        -0.28335176
  eigenvalues    EBANDS =     -2073.04860150
  atomic energy  EATOM  =     41659.78587232
  Solvation  Ediel_sol  =         0.00000000
  ---------------------------------------------------
  free energy    TOTEN  =      -188.40859663 eV

  energy without entropy =     -188.12524487  energy(sigma->0) =     -188.26692075


--------------------------------------------------------------------------------------------------------




----------------------------------------- Iteration    1(  23)  ---------------------------------------


    POTLOK:  cpu time    0.0417: real time    0.0418
    SETDIJ:  cpu time    0.0053: real time    0.0055
    EDDIAG:  cpu time    1.2207: real time    1.2245
  RMM-DIIS:  cpu time    3.4246: real time    3.4330
[...]
    275       1.7339      0.00000
    276       1.7967      0.00000
    277       2.0159      0.00000
    278       2.1387      0.00000
    279       2.2444      0.00000
    280       2.3265      0.00000
    281       2.5888      0.00000
    282       2.6431      0.00000
    283       2.7221      0.00000
    284       2.9405      0.00000
    285       3.1338      0.00000
    286       3.2161      0.00000
    287       3.5201      0.00000
    288       3.6047      0.00000
    289       3.8365      0.00000
    290       4.0126      0.00000
    291       4.0651      0.00000
    292       4.1609      0.00000
    293       4.4649      0.00000
    294       4.5167      0.00000
    295       4.6066      0.00000
    296       4.6332      0.00000
    297       4.6810      0.00000
    298       4.7919      0.00000
    299       4.8633      0.00000
    300       4.8976      0.00000
    301       4.9528      0.00000
    302       5.0166      0.00000
    303       5.0758      0.00000
    304       5.0862      0.00000
    305       5.1867      0.00000
    306       5.2000      0.00000


--------------------------------------------------------------------------------------------------------


 soft charge-density along one line, spin component           1
         0         1         2         3         4         5         6         7         8         9
 total charge-density along one line
 
 pseudopotential strength for first ion, spin component:           1
 -8.075   0.004  -0.004   0.003  -0.001  -8.221   0.004  -0.004
  0.004  -7.998  -0.001   0.002  -0.008   0.004  -8.146  -0.001
 -0.004  -0.001  -7.993  -0.000   0.000  -0.004  -0.001  -8.141
  0.003   0.002  -0.000  -8.000   0.003   0.003   0.002  -0.000
 -0.001  -0.008   0.000   0.003  -8.073  -0.001  -0.007   0.000
 -8.221   0.004  -0.004   0.003  -0.001  -8.351   0.004  -0.004
  0.004  -8.146  -0.001   0.002  -0.007   0.004  -8.278  -0.001
 -0.004  -0.001  -8.141  -0.000   0.000  -0.004  -0.001  -8.273
  0.003   0.002  -0.000  -8.148   0.003   0.003   0.002  -0.000
 -0.001  -0.007   0.000   0.003  -8.219  -0.001  -0.007   0.000
 -0.002  -0.003  -0.025  -0.002  -0.000  -0.002  -0.003  -0.025
 -0.003  -0.004  -0.036  -0.003  -0.000  -0.003  -0.004  -0.036
 -0.003   0.004   0.002  -0.000   0.003  -0.003   0.004   0.002
 -0.000  -0.003   0.006  -0.003  -0.000  -0.000  -0.003   0.006
 -0.003  -0.000   0.001   0.004  -0.002  -0.003  -0.000   0.001
 -0.003   0.004   0.002  -0.000   0.004  -0.003   0.004   0.002
 -0.000  -0.004   0.007  -0.003  -0.000  -0.000  -0.004   0.006
 -0.004  -0.000   0.002   0.004  -0.003  -0.004  -0.000   0.002
 total augmentation occupancy for first ion, spin component:           1
  4.420   0.051   0.113   0.003   0.101  -2.595  -0.015  -0.131  -0.004  -0.116   0.104  -0.043   0.044   0.009   0.035  -0.005
  0.051   3.992   0.004   0.057   0.005  -0.015  -1.732  -0.046  -0.055  -0.073   0.101  -0.007   0.099   0.012   0.011  -0.002
  0.113   0.004   4.480   0.096  -0.006  -0.131  -0.046  -2.350  -0.111   0.002   1.082  -0.179  -0.003   0.221   0.003   0.002
  0.003   0.057   0.096   4.037  -0.001  -0.003  -0.055  -0.111  -1.782   0.013   0.044   0.018   0.014   0.031   0.124  -0.001
  0.101   0.005  -0.006  -0.001   4.616  -0.116  -0.075   0.002   0.013  -2.749  -0.023   0.037   0.014   0.016  -0.026   0.003
 -2.595  -0.015  -0.131  -0.003  -0.116   2.653  -0.012   0.144   0.004   0.127  -0.097   0.041  -0.035  -0.010  -0.028   0.002
 -0.015  -1.732  -0.046  -0.055  -0.075  -0.012   1.442   0.077   0.053   0.126  -0.092   0.010  -0.092  -0.012  -0.011   0.004
 -0.131  -0.046  -2.350  -0.111   0.002   0.144   0.077   2.165   0.122   0.002  -1.008   0.197  -0.002  -0.228  -0.006  -0.000
 -0.004  -0.055  -0.111  -1.782   0.013   0.004   0.053   0.122   1.497  -0.021  -0.036  -0.016  -0.013  -0.025  -0.115   0.000
 -0.116  -0.073   0.002   0.013  -2.749   0.127   0.126   0.002  -0.021   2.772   0.019  -0.031  -0.017  -0.014   0.025  -0.000
  0.104   0.101   1.082   0.044  -0.023  -0.097  -0.092  -1.008  -0.036   0.019   2.427  -0.530  -0.004  -0.100  -0.001   0.000
 -0.043  -0.007  -0.179   0.018   0.037   0.041   0.010   0.197  -0.016  -0.031  -0.530   0.158   0.013   0.045   0.009  -0.000
  0.044   0.099  -0.003   0.014   0.014  -0.035  -0.092  -0.002  -0.013  -0.017  -0.004   0.013   0.194  -0.007  -0.004  -0.006
  0.009   0.012   0.221   0.031   0.016  -0.010  -0.012  -0.228  -0.025  -0.014  -0.100   0.045  -0.007   0.090  -0.005   0.000
  0.035   0.011   0.003   0.124  -0.026  -0.028  -0.011  -0.006  -0.115   0.025  -0.001   0.009  -0.004  -0.005   0.193   0.000
 -0.005  -0.002   0.002  -0.001   0.003   0.002   0.004  -0.000   0.000  -0.000   0.000  -0.000  -0.006   0.000   0.000   0.000
 -0.000  -0.004   0.001  -0.005  -0.001   0.000   0.001   0.005   0.002   0.000   0.007  -0.002   0.000  -0.003   0.000  -0.000
 -0.005  -0.001   0.001  -0.003  -0.002   0.002   0.000   0.000   0.005  -0.001  -0.000  -0.000   0.000   0.000  -0.006  -0.000


------------------------ aborting loop because EDIFF is reached ----------------------------------------


    CHARGE:  cpu time    0.2309: real time    0.2315
    FORLOC:  cpu time    0.0165: real time    0.0165
    FORNL :  cpu time    1.3328: real time    1.3378
    FORCOR:  cpu time    0.0579: real time    0.0580
    FORHAR:  cpu time    0.0249: real time    0.0250
    MIXING:  cpu time    0.0027: real time    0.0027
    OFIELD:  cpu time    0.0000: real time    0.0000

 VOLUME and BASIS-vectors are now :
 -----------------------------------------------------------------------------
  energy-cutoff  :      400.00
  volume of cell :     2567.68
      direct lattice vectors                 reciprocal lattice vectors
    11.002581515  0.000000000  0.000000000     0.090887761 -0.052474073  0.000000000
     5.501290758  9.528515099  0.000000000     0.000000000  0.104948147  0.000000000
     0.000000000  0.000000000 24.491785094     0.000000000  0.000000000  0.040830017

  length of vectors
    11.002581515 11.002581515 24.491785094     0.104948147  0.104948147  0.040830017


 FORCES acting on ions
    electron-ion (+dipol)            ewald-force                    non-local-force                 convergence-correction
 -----------------------------------------------------------------------------------------------
   -.173E+02 -.247E+02 -.221E+04   0.178E+02 0.253E+02 0.221E+04   -.570E+00 -.597E+00 0.164E+00   0.794E-02 0.182E-01 -.233E-01
   0.109E+02 -.299E+01 0.191E+02   -.110E+02 0.306E+01 -.191E+02   0.898E-01 -.444E-01 -.194E-01   0.120E-01 -.322E-01 0.230E-01
   0.373E+01 0.217E+02 0.222E+04   -.374E+01 -.224E+02 -.222E+04   0.337E-02 0.448E+00 -.677E+00   0.136E-01 0.122E-01 0.172E-01
   0.617E+01 -.917E+01 0.221E+04   -.674E+01 0.971E+01 -.221E+04   0.393E+00 -.360E+00 0.221E+00   0.358E-04 0.643E-03 0.152E-01
   -.110E+02 -.947E+01 -.223E+04   0.116E+02 0.101E+02 0.223E+04   -.572E+00 -.641E+00 0.184E+00   0.146E-01 0.151E-01 -.227E-01
   0.107E+02 0.307E+01 0.222E+04   -.116E+02 -.325E+01 -.222E+04   0.591E+00 0.100E+00 -.280E+00   -.136E-02 0.896E-02 0.143E-01
   -.744E+01 0.132E+02 -.225E+04   0.742E+01 -.136E+02 0.225E+04   -.109E-01 0.400E+00 -.537E-01   0.325E-01 -.101E-02 -.218E-01
   -.979E+01 0.254E+01 -.245E+02   0.988E+01 -.261E+01 0.246E+02   -.972E-01 0.618E-01 -.847E-01   0.111E-01 -.123E-02 0.204E-02
   0.212E+02 -.157E+02 -.228E+04   -.226E+02 0.153E+02 0.228E+04   0.131E+01 0.380E+00 -.309E-01   0.912E-02 0.104E-01 -.132E-01
   -.134E+02 -.109E+02 -.226E+04   0.144E+02 0.111E+02 0.226E+04   -.101E+01 -.194E+00 -.635E-01   0.529E-02 -.113E-01 -.213E-02
   -.766E+01 0.636E+01 0.220E+04   0.806E+01 -.717E+01 -.220E+04   -.274E+00 0.644E+00 0.441E-01   0.614E-03 -.108E-01 0.157E-01
   0.269E+00 -.598E+01 -.465E+00   0.192E+00 0.676E+01 -.733E+00   -.466E+00 -.757E+00 0.120E+01   -.111E-02 -.139E-01 -.527E-02
   0.228E+02 0.229E+01 0.222E+04   -.240E+02 -.253E+01 -.222E+04   0.778E+00 0.197E+00 0.587E-01   0.109E-01 -.390E-02 0.154E-01
   -.935E+01 -.149E+01 -.859E+02   0.897E+01 0.138E+01 0.865E+02   0.388E+00 0.118E+00 -.564E+00   0.202E-02 -.796E-04 -.229E-02
   0.121E+02 0.333E+02 -.226E+04   -.123E+02 -.340E+02 0.226E+04   0.199E+00 0.697E+00 0.393E+00   -.155E-01 -.801E-02 -.331E-01
   -.185E+02 -.196E+02 0.221E+04   0.193E+02 0.206E+02 -.221E+04   -.500E+00 -.682E+00 0.287E+00   -.134E-01 -.711E-02 0.110E-01
   -.453E+01 0.333E+01 -.423E+02   0.495E+01 -.270E+01 0.417E+02   -.395E+00 -.628E+00 0.566E+00   -.207E-01 0.220E-02 -.654E-02
   0.901E+01 0.469E+01 -.237E+04   -.916E+01 -.500E+01 0.237E+04   0.149E+00 0.292E+00 -.313E+00   -.411E-02 0.141E-01 -.643E-01
   -.105E+02 -.818E+01 -.212E+02   0.975E+01 0.752E+01 0.220E+02   0.785E+00 0.683E+00 -.746E+00   0.591E-03 -.149E-01 -.404E-02
   -.173E+02 -.325E+01 0.222E+04   0.182E+02 0.352E+01 -.222E+04   -.592E+00 -.223E+00 -.119E-01   -.955E-02 -.601E-02 0.172E-01
   -.146E+02 -.220E+02 -.217E+04   0.150E+02 0.227E+02 0.217E+04   -.476E+00 -.714E+00 0.484E+00   -.211E-01 0.815E-02 0.649E-02
   -.121E+02 -.582E+01 0.221E+04   0.124E+02 0.562E+01 -.221E+04   -.227E+00 0.218E+00 0.452E+00   -.131E-01 -.150E-01 0.116E-01
   -.244E+01 -.141E+02 -.104E+03   0.236E+01 0.140E+02 0.105E+03   0.842E-01 0.188E+00 -.629E+00   -.810E-02 -.140E-01 -.201E-01
   -.170E+02 -.757E+01 -.229E+04   0.166E+02 0.720E+01 0.229E+04   0.330E+00 0.353E+00 -.811E-01   0.594E-02 0.213E-01 -.307E-01
   0.955E+00 0.365E+01 0.557E+02   -.370E+00 -.335E+01 -.564E+02   -.574E+00 -.323E+00 0.706E+00   -.112E-01 0.188E-01 0.111E-01
   -.181E-01 0.412E+01 0.203E+04   0.562E-01 -.415E+01 -.203E+04   -.387E-01 -.114E-02 -.201E+01   -.616E-02 0.853E-02 0.121E-01
   -.911E+01 -.217E+01 -.191E+04   0.917E+01 0.240E+01 0.191E+04   -.424E-01 -.237E+00 0.186E+01   -.138E-01 0.277E-02 0.315E-02
   0.164E+01 0.125E+00 0.242E+02   -.209E+01 -.996E+00 -.237E+02   0.456E+00 0.876E+00 -.485E+00   -.972E-02 -.464E-02 0.260E-03
   0.271E+01 -.753E+00 0.188E+02   -.182E+01 0.655E+00 -.192E+02   -.909E+00 0.120E+00 0.370E+00   0.151E-01 -.177E-01 0.176E-01
   0.199E+02 -.984E+00 -.199E+04   -.202E+02 0.128E+01 0.198E+04   0.322E+00 -.280E+00 0.147E+01   -.271E-02 -.118E-01 -.127E-01
   -.322E+01 0.122E+01 0.687E+01   0.236E+01 -.115E+01 -.642E+01   0.830E+00 -.737E-01 -.443E+00   0.311E-01 0.973E-03 -.122E-01
   -.579E+01 0.980E+01 -.195E+04   0.602E+01 -.990E+01 0.194E+04   -.232E+00 0.103E+00 0.159E+01   -.154E-02 -.661E-02 -.161E-01
   0.315E+01 0.146E+01 0.586E+02   -.385E+01 -.171E+01 -.582E+02   0.679E+00 0.224E+00 -.381E+00   0.230E-01 0.309E-01 -.225E-01
   -.197E+02 -.106E+02 0.202E+04   0.203E+02 0.111E+02 -.202E+04   -.393E+00 -.319E+00 -.156E+01   -.840E-02 0.195E-02 0.180E-01
   0.620E+01 0.830E+01 0.202E+04   -.648E+01 -.859E+01 -.202E+04   0.196E+00 0.158E+00 -.156E+01   -.275E-02 -.882E-03 0.157E-01
   -.182E+01 0.469E+01 0.198E+02   0.218E+01 -.413E+01 -.207E+02   -.359E+00 -.564E+00 0.962E+00   -.197E-02 0.132E-02 0.633E-02
   0.207E+01 0.972E+01 -.192E+04   -.180E+01 -.971E+01 0.192E+04   -.265E+00 -.163E-01 0.194E+01   -.933E-02 0.608E-02 0.461E-02
   0.417E+01 0.343E+02 -.200E+04   -.429E+01 -.346E+02 0.200E+04   0.130E+00 0.354E+00 0.143E+01   -.110E-01 0.600E-02 -.469E-01
   0.697E+01 0.894E+01 0.202E+04   -.721E+01 -.913E+01 -.202E+04   0.122E+00 0.104E+00 -.188E+01   -.835E-03 0.659E-03 0.257E-01
   0.474E+01 0.729E+01 0.665E+02   -.474E+01 -.742E+01 -.665E+02   -.229E-02 0.104E+00 0.668E-01   -.737E-02 0.201E-01 -.113E-01
   0.243E+02 -.243E+01 0.203E+04   -.248E+02 0.250E+01 -.203E+04   0.248E+00 -.544E-01 -.172E+01   0.144E-01 0.445E-02 0.196E-02
   0.937E+01 0.103E+02 0.603E+02   -.924E+01 -.963E+01 -.613E+02   -.134E+00 -.673E+00 0.908E+00   -.486E-02 -.155E-01 -.402E-04
   0.195E+02 0.539E+01 -.198E+04   -.201E+02 -.557E+01 0.198E+04   0.655E+00 0.186E+00 0.172E+01   0.113E-01 -.599E-02 -.294E-01
   -.288E+01 -.619E+01 0.203E+04   0.315E+01 0.624E+01 -.203E+04   -.192E+00 0.329E-01 -.159E+01   0.140E-02 -.104E-01 0.129E-01
   0.100E+02 0.137E+02 0.204E+04   -.101E+02 -.139E+02 -.203E+04   -.206E-04 0.764E-01 -.214E+01   0.155E-01 0.187E-01 0.816E-03
   -.129E+02 -.126E+02 0.203E+04   0.133E+02 0.130E+02 -.203E+04   -.187E+00 -.244E+00 -.189E+01   -.228E-02 -.337E-02 0.541E-02
   0.440E+01 -.419E+01 0.901E+01   -.429E+01 0.347E+01 -.854E+01   -.122E+00 0.726E+00 -.456E+00   0.423E-03 -.613E-02 -.174E-01
   0.113E+02 -.126E+02 -.192E+04   -.111E+02 0.128E+02 0.192E+04   -.200E+00 -.190E+00 0.175E+01   0.126E-01 0.432E-02 0.172E-01
 -----------------------------------------------------------------------------------------------
   0.200E-01 -.785E-02 0.888E+00   0.158E-12 -.401E-12 0.909E-12   -.105E+00 0.278E-01 -.824E+00   0.494E-01 0.142E-01 -.116E+00
 
 
 POSITION                                       TOTAL-FORCE (eV/Angst)
 -----------------------------------------------------------------------------------
      6.88102      7.15679     14.96305         0.005095     -0.007792      0.003248
     12.36431      3.98480     12.43374        -0.002005     -0.000087     -0.003002
      4.12597      0.79404     10.00000         0.008188     -0.314900     -0.150325
      4.12597      5.55830     10.00000        -0.176911      0.174107     -0.184096
      0.01613      0.01220     14.93906        -0.004126      0.000208     -0.000360
     13.75323      7.94043     10.00000        -0.258777     -0.064783     -0.231429
      9.62858      2.36670     14.98479         0.004243     -0.007016      0.000071
     15.12947      8.73306     12.47723        -0.000103     -0.003716     -0.000882
      4.07844      7.13874     15.03652        -0.003841     -0.001073      0.000738
     11.03733      4.77074     15.00629        -0.002942     -0.002858      0.000454
      5.50129      3.17617     10.00000         0.132257     -0.176920     -0.140325
      9.63690      4.00604     12.43888        -0.005009      0.005815     -0.001923
      2.75065      3.17617     10.00000        -0.383358     -0.047845     -0.282471
      4.11360      3.96002     12.55492         0.008884      0.004467      0.002550
      4.11578      2.33819     14.97012         0.003142      0.002930      0.005642
      6.87661      5.55830     10.00000         0.269087      0.318196     -0.138703
      5.50602      6.37749     12.48864         0.000343      0.001052     -0.000888
      5.48042      4.74152     15.18936        -0.003225      0.000039      0.014752
      8.22060      1.57327     12.48417        -0.001966      0.001110      0.001762
      9.62726      0.79404     10.00000         0.301106      0.045156     -0.221771
      9.64975      7.16938     14.85864        -0.006279     -0.006891     -0.000083
      8.25194      3.17617     10.00000         0.118502      0.007249     -0.295492
      6.87156      3.98410     12.57602        -0.007806      0.004541      0.004212
      8.25594      4.75746     15.07851        -0.002485     -0.000416      0.003582
      6.88949      8.74799     12.38504        -0.000204     -0.004294     -0.003223
      8.25194      7.94043     10.00000        -0.005990     -0.030048      0.243924
      2.76163     -0.00499     14.73173         0.001035     -0.004745     -0.001600
      2.74147      1.55701     12.42518         0.003222     -0.000705     -0.006134
     11.02179      1.58274     12.43078         0.003177      0.003918      0.000599
      2.74105      4.76350     14.86983         0.003388     -0.001739     -0.003469
     13.72585      6.36395     12.44364         0.006595     -0.003244     -0.008127
      1.39013      2.37802     14.79812        -0.004388      0.000339     -0.006341
     12.34828      8.71903     12.38331         0.001665      0.006386     -0.006881
      5.50129      7.94043     10.00000         0.248084      0.140931      0.209848
      6.87661      0.79404     10.00000        -0.089593     -0.130507      0.218946
      8.26500      6.39402     12.41962         0.001263      0.004188      0.002958
      5.51761     -0.01097     14.72707        -0.003467      0.002468      0.000007
      6.86291      2.35999     14.88737        -0.006694      0.003164      0.007971
      1.37532      0.79404     10.00000        -0.115646     -0.091093      0.242585
      9.62063      8.72578     12.37043        -0.004984     -0.000733     -0.007502
     12.37790      5.55830     10.00000        -0.242855      0.018052      0.192860
     10.99718      6.39256     12.37375        -0.012741      0.000747     -0.000298
      8.21774     -0.01269     14.82733         0.001703     -0.006574     -0.000065
     11.00258      3.17617     10.00000         0.086256      0.076365      0.187514
     11.00258      7.94043     10.00000        -0.075857     -0.100238      0.132470
      9.62726      5.55830     10.00000         0.222169      0.187645      0.222770
      5.47868      1.55899     12.44635        -0.009929      0.001481      0.000006
     12.37827      7.15139     14.75323         0.001777     -0.002331     -0.004080
 -----------------------------------------------------------------------------------
    total drift:                               -0.035930      0.034124     -0.051727


--------------------------------------------------------------------------------------------------------



  FREE ENERGIE OF THE ION-ELECTRON SYSTEM (eV)
  ---------------------------------------------------
  free  energy   TOTEN  =      -192.09834949 eV

  energy  without entropy=     -191.81853408  energy(sigma->0) =     -191.95844178
 
 d Force = 0.2903571E-03[ 0.946E-04, 0.486E-03]  d Energy = 0.2720502E-03 0.183E-04
 d Force = 0.2839667E+02[ 0.284E+02, 0.284E+02]  d Ewald  = 0.2839667E+02-0.152E-06


--------------------------------------------------------------------------------------------------------


    POTLOK:  cpu time    0.0487: real time    0.0489


--------------------------------------------------------------------------------------------------------


 stress matrix after NEB project (eV)
      0.00000      0.00000      0.00000
      0.00000      0.00000      0.00000
      0.00000      0.00000      0.00000
  FORCES: max atom, RMS     0.015100    0.006312
  FORCE total and by dimension    0.043728    0.014752
  Stress total and by dimension    0.000000    0.000000
 Conjugate gradient step on ions:
 trial-energy change:   -0.000272  1 .order   -0.000290   -0.000486   -0.000095
  (g-gl).g = 0.175E-03      g.g   = 0.159E-03  gl.gl    = 0.392E-03
 g(Force)  = 0.159E-03   g(Stress)= 0.000E+00 ortho     =-0.997E-05
 gamma     =   0.44661
 trial     =   3.14192
 opt step  =   4.38994  (harmonic =   3.90079) maximal distance =0.00726763
 next E    =  -192.098367   (d E  =  -0.00029)


--------------------------------------------------------------------------------------------------------


  
 reached required accuracy - stopping structural energy minimisation
     LOOP+:  cpu time   44.8140: real time   45.1696
    4ORBIT:  cpu time    0.0000: real time    0.0000

 total amount of memory used by VASP on root node    84353. kBytes
========================================================================

   base      :      30000. kBytes
   nonlr-proj:       4285. kBytes
   fftplans  :       4447. kBytes
   grid      :       6721. kBytes
   one-center:        124. kBytes
   wavefun   :      38776. kBytes
 
  
  
 General timing and accounting informations for this job:
 ========================================================
  
                  Total CPU time used (sec):     1550.475
                            User time (sec):     1472.911
                          System time (sec):       77.564
                         Elapsed time (sec):     1560.299
  
                   Maximum memory used (kb):      850672.
                   Average memory used (kb):           0.
  
                          Minor page faults:       730426
                          Major page faults:            0
                 Voluntary context switches:         9757
