<?xml version="1.0" encoding="ISO-8859-1"?>
<modeling>
 <generator>
  <i name="program" type="string">vasp </i>
  <i name="version" type="string">5.4.1  </i>
  <i name="subversion" type="string">24Jun15 (build Mar 14 2019 10:18:33) complex                          parallel </i>
  <i name="platform" type="string">INTEL-19.0.2+OPENMPI-3.1.3 </i>
  <i name="date" type="string">2023 01 30 </i>
  <i name="time" type="string">16:52:08 </i>
 </generator>
 <incar>
  <i type="int" name="ISTART">     0</i>
  <i type="string" name="PREC">normal</i>
  <i type="string" name="ALGO"> Fast</i>
  <i type="int" name="NELM">   500</i>
  <i type="int" name="IBRION">     2</i>
  <i type="int" name="NFREE">     2</i>
  <i name="EDIFF">      0.00000100</i>
  <i name="EDIFFG">     -0.02000000</i>
  <i type="int" name="NSW">   500</i>
  <i type="int" name="ISIF">     0</i>
  <i type="int" name="ISYM">     2</i>
  <i name="ENCUT">    400.00000000</i>
  <i name="POTIM">      0.35000000</i>
  <i type="string" name="LREAL"> Auto</i>
  <i type="logical" name="LPLANE"> T  </i>
  <i type="int" name="ISMEAR">     0</i>
  <i name="SIGMA">      0.10000000</i>
  <i type="int" name="NWRITE">     1</i>
  <i type="logical" name="LWAVE"> F  </i>
  <i type="logical" name="LCHARG"> F  </i>
  <i type="logical" name="LVTOT"> F  </i>
  <i type="logical" name="LORBIT"> F  </i>
  <i type="logical" name="LAECHG"> F  </i>
  <v type="int" name="KPOINT_BSE">    -1     0     0     0</v>
  <i type="int" name="NELM">   500</i>
  <i type="string" name="GGA"> PE          ! optPBE-vdW XC-functional</i>
  <i type="int" name="VOSKOWN">     1</i>
  <i type="logical" name="LDIPOL"> T  </i>
  <i type="logical" name="LMONO"> F  </i>
  <i type="int" name="IDIPOL">     3</i>
  <v name="DIPOL">      0.00000000      0.00000000      0.50000000</v>
 </incar>
 <kpoints>
  <generation param="Monkhorst-Pack">
   <v type="int" name="divisions">       2        2        1 </v>
   <v name="usershift">      0.00000000       0.00000000       0.00000000 </v>
   <v name="genvec1">      0.50000000      -0.00000000       0.00000000 </v>
   <v name="genvec2">      0.00000000       0.50000000       0.00000000 </v>
   <v name="genvec3">      0.00000000       0.00000000       1.00000000 </v>
   <v name="shift">      0.50000000       0.50000000       0.00000000 </v>
  </generation>
  <varray name="kpointlist" >
   <v>       0.25000000       0.25000000       0.00000000 </v>
   <v>       0.00000000       0.25000000       0.00000000 </v>
   <v>      -0.25000000       0.00000000       0.00000000 </v>
   <v>      -0.25000000       0.25000000       0.00000000 </v>
   <v>       0.50000000      -0.25000000       0.00000000 </v>
   <v>      -0.25000000       0.50000000       0.00000000 </v>
  </varray>
  <varray name="weights" >
   <v>       0.16666667 </v>
   <v>       0.16666667 </v>
   <v>       0.16666667 </v>
   <v>       0.16666667 </v>
   <v>       0.16666667 </v>
   <v>       0.16666667 </v>
  </varray>
 </kpoints>
 <parameters>
  <separator name="general" >
   <i type="string" name="SYSTEM">unknown system</i>
   <i type="logical" name="LCOMPAT"> F  </i>
  </separator>
  <separator name="electronic" >
   <i type="string" name="PREC">normal</i>
   <i name="ENMAX">    400.00000000</i>
   <i name="ENAUG">    416.23000000</i>
   <i name="EDIFF">      0.00000100</i>
   <i type="int" name="IALGO">    68</i>
   <i type="int" name="IWAVPR">    11</i>
   <i type="int" name="NBANDS">   306</i>
   <i name="NELECT">    504.00000000</i>
   <i type="int" name="TURBO">     0</i>
   <i type="int" name="IRESTART">     0</i>
   <i type="int" name="NREBOOT">     0</i>
   <i type="int" name="NMIN">     0</i>
   <i name="EREF">      0.00000000</i>
   <separator name="electronic smearing" >
    <i type="int" name="ISMEAR">     0</i>
    <i name="SIGMA">      0.10000000</i>
    <i name="KSPACING">      0.50000000</i>
    <i type="logical" name="KGAMMA"> T  </i>
   </separator>
   <separator name="electronic projectors" >
    <i type="logical" name="LREAL"> T  </i>
    <v name="ROPT">     -0.00050000     -0.00050000</v>
    <i type="int" name="LMAXPAW">  -100</i>
    <i type="int" name="LMAXMIX">     2</i>
    <i type="logical" name="NLSPLINE"> F  </i>
   </separator>
   <separator name="electronic startup" >
    <i type="int" name="ISTART">     0</i>
    <i type="int" name="ICHARG">     2</i>
    <i type="int" name="INIWAV">     1</i>
   </separator>
   <separator name="electronic spin" >
    <i type="int" name="ISPIN">     1</i>
    <i type="logical" name="LNONCOLLINEAR"> F  </i>
    <v name="MAGMOM">      1.00000000      1.00000000      1.00000000      1.00000000      1.00000000      1.00000000      1.00000000      1.00000000      1.00000000      1.00000000      1.00000000      1.00000000      1.00000000      1.00000000      1.00000000      1.00000000      1.00000000      1.00000000      1.00000000      1.00000000
      1.00000000      1.00000000      1.00000000      1.00000000      1.00000000      1.00000000      1.00000000      1.00000000      1.00000000      1.00000000      1.00000000      1.00000000      1.00000000      1.00000000      1.00000000      1.00000000      1.00000000      1.00000000      1.00000000      1.00000000
      1.00000000      1.00000000      1.00000000      1.00000000      1.00000000      1.00000000      1.00000000      1.00000000</v>
    <i name="NUPDOWN">     -1.00000000</i>
    <i type="logical" name="LSORBIT"> F  </i>
    <v name="SAXIS">      0.00000000      0.00000000      1.00000000</v>
    <i type="logical" name="LSPIRAL"> F  </i>
    <v name="QSPIRAL">      0.00000000      0.00000000      0.00000000</v>
    <i type="logical" name="LZEROZ"> F  </i>
   </separator>
   <separator name="electronic exchange-correlation" >
    <i type="logical" name="LASPH"> F  </i>
    <i type="logical" name="LMETAGGA"> F  </i>
   </separator>
   <separator name="electronic convergence" >
    <i type="int" name="NELM">   500</i>
    <i type="int" name="NELMDL">    -5</i>
    <i type="int" name="NELMIN">     2</i>
    <i name="ENINI">    400.00000000</i>
    <separator name="electronic convergence detail" >
     <i type="logical" name="LDIAG"> T  </i>
     <i type="logical" name="LSUBROT"> F  </i>
     <i name="WEIMIN">      0.00100000</i>
     <i name="EBREAK">      0.00000000</i>
     <i name="DEPER">      0.30000000</i>
     <i type="int" name="NRMM">     4</i>
     <i name="TIME">      0.40000000</i>
    </separator>
   </separator>
   <separator name="electronic mixer" >
    <i name="AMIX">      0.40000000</i>
    <i name="BMIX">      1.00000000</i>
    <i name="AMIN">      0.10000000</i>
    <i name="AMIX_MAG">      1.60000000</i>
    <i name="BMIX_MAG">      1.00000000</i>
    <separator name="electronic mixer details" >
     <i type="int" name="IMIX">     4</i>
     <i type="logical" name="MIXFIRST"> F  </i>
     <i type="int" name="MAXMIX">   -45</i>
     <i name="WC">    100.00000000</i>
     <i type="int" name="INIMIX">     1</i>
     <i type="int" name="MIXPRE">     1</i>
     <i type="int" name="MREMOVE">     5</i>
    </separator>
   </separator>
   <separator name="electronic dipolcorrection" >
    <i type="logical" name="LDIPOL"> T  </i>
    <i type="logical" name="LMONO"> F  </i>
    <i type="int" name="IDIPOL">     3</i>
    <i name="EPSILON">      1.00000000</i>
    <v name="DIPOL">      0.00000000      0.00000000      0.50000000</v>
    <i name="EFIELD">      0.00000000</i>
   </separator>
  </separator>
  <separator name="grids" >
   <i type="int" name="NGX">    54</i>
   <i type="int" name="NGY">    54</i>
   <i type="int" name="NGZ">   120</i>
   <i type="int" name="NGXF">   108</i>
   <i type="int" name="NGYF">   108</i>
   <i type="int" name="NGZF">   240</i>
   <i type="logical" name="ADDGRID"> F  </i>
  </separator>
  <separator name="ionic" >
   <i type="int" name="NSW">   500</i>
   <i type="int" name="IBRION">     2</i>
   <i type="int" name="ISIF">     0</i>
   <i name="PSTRESS">      0.00000000</i>
   <i name="EDIFFG">     -0.02000000</i>
   <i type="int" name="NFREE">     2</i>
   <i name="POTIM">      0.35000000</i>
   <i name="SMASS">     -3.00000000</i>
   <i name="SCALEE">      1.00000000</i>
  </separator>
  <separator name="ionic md" >
   <i name="TEBEG">      0.00010000</i>
   <i name="TEEND">      0.00010000</i>
   <i type="int" name="NBLOCK">     1</i>
   <i type="int" name="KBLOCK">   500</i>
   <i type="int" name="NPACO">   256</i>
   <i name="APACO">     16.00000000</i>
  </separator>
  <separator name="symmetry" >
   <i type="int" name="ISYM">     2</i>
   <i name="SYMPREC">      0.00001000</i>
  </separator>
  <separator name="dos" >
   <i type="logical" name="LORBIT"> F  </i>
   <v name="RWIGS">     -1.00000000     -1.00000000</v>
   <i type="int" name="NEDOS">   301</i>
   <i name="EMIN">     10.00000000</i>
   <i name="EMAX">    -10.00000000</i>
   <i name="EFERMI">      0.00000000</i>
  </separator>
  <separator name="writing" >
   <i type="int" name="NWRITE">     1</i>
   <i type="logical" name="LWAVE"> F  </i>
   <i type="logical" name="LCHARG"> F  </i>
   <i type="logical" name="LPARD"> F  </i>
   <i type="logical" name="LVTOT"> F  </i>
   <i type="logical" name="LVHAR"> F  </i>
   <i type="logical" name="LELF"> F  </i>
   <i type="logical" name="LOPTICS"> F  </i>
   <v name="STM">      0.00000000      0.00000000      0.00000000      0.00000000      0.00000000      0.00000000      0.00000000</v>
  </separator>
  <separator name="performance" >
   <i type="int" name="NPAR">     6</i>
   <i type="int" name="NSIM">     4</i>
   <i type="int" name="NBLK">    -1</i>
   <i type="logical" name="LPLANE"> T  </i>
   <i type="logical" name="LSCALAPACK"> T  </i>
   <i type="logical" name="LSCAAWARE"> F  </i>
   <i type="logical" name="LSCALU"> F  </i>
   <i type="logical" name="LASYNC"> F  </i>
   <i type="logical" name="LORBITALREAL"> F  </i>
  </separator>
  <separator name="miscellaneous" >
   <i type="int" name="IDIOT">     3</i>
   <i type="logical" name="LMUSIC"> F  </i>
   <v name="POMASS">    196.96600000    106.42000000</v>
   <v name="DARWINR">      0.00000000      0.00000000</v>
   <v name="DARWINV">      1.00000000      1.00000000</v>
   <i type="logical" name="LCORR"> T  </i>
  </separator>
  <i type="logical" name="GGA_COMPAT"> T  </i>
  <i type="logical" name="LBERRY"> F  </i>
  <i type="int" name="ICORELEVEL">     0</i>
  <i type="logical" name="LDAU"> F  </i>
  <i type="int" name="I_CONSTRAINED_M">     0</i>
  <separator name="electronic exchange-correlation" >
   <i type="string" name="GGA">PE</i>
   <i type="int" name="VOSKOWN">     1</i>
   <i type="logical" name="LHFCALC"> F  </i>
   <i type="string" name="PRECFOCK"></i>
   <i type="logical" name="LSYMGRAD"> F  </i>
   <i type="logical" name="LHFONE"> F  </i>
   <i type="logical" name="LRHFCALC"> F  </i>
   <i type="logical" name="LTHOMAS"> F  </i>
   <i type="logical" name="LMODELHF"> F  </i>
   <i name="ENCUT4O">     -1.00000000</i>
   <i type="int" name="EXXOEP">     0</i>
   <i type="int" name="FOURORBIT">     0</i>
   <i name="AEXX">      0.00000000</i>
   <i name="HFALPHA">      0.00000000</i>
   <i name="MCALPHA">      0.00000000</i>
   <i name="ALDAX">      1.00000000</i>
   <i name="AGGAX">      1.00000000</i>
   <i name="ALDAC">      1.00000000</i>
   <i name="AGGAC">      1.00000000</i>
   <i type="int" name="NKREDX">     1</i>
   <i type="int" name="NKREDY">     1</i>
   <i type="int" name="NKREDZ">     1</i>
   <i type="logical" name="SHIFTRED"> F  </i>
   <i type="logical" name="ODDONLY"> F  </i>
   <i type="logical" name="EVENONLY"> F  </i>
   <i type="int" name="LMAXFOCK">     0</i>
   <i type="int" name="NMAXFOCKAE">     0</i>
   <i type="logical" name="LFOCKAEDFT"> F  </i>
   <i name="HFSCREEN">      0.00000000</i>
   <i name="HFSCREENC">      0.00000000</i>
   <i type="int" name="NBANDSGWLOW">     0</i>
  </separator>
  <separator name="vdW DFT" >
   <i type="logical" name="LUSE_VDW"> F  </i>
   <i name="Zab_VDW">     -0.84910000</i>
   <i name="PARAM1">      0.12340000</i>
   <i name="PARAM2">      1.00000000</i>
   <i name="PARAM3">      0.00000000</i>
  </separator>
  <separator name="model GW" >
   <i type="int" name="MODEL_GW">     0</i>
   <i name="MODEL_EPS0">     32.09595293</i>
   <i name="MODEL_ALPHA">      1.00000000</i>
  </separator>
  <separator name="linear response parameters" >
   <i type="logical" name="LEPSILON"> F  </i>
   <i type="logical" name="LRPA"> F  </i>
   <i type="logical" name="LNABLA"> F  </i>
   <i type="logical" name="LVEL"> F  </i>
   <i type="int" name="KINTER">     0</i>
   <i name="CSHIFT">      0.10000000</i>
   <i name="OMEGAMAX">     -1.00000000</i>
   <i name="DEG_THRESHOLD">      0.00200000</i>
  </separator>
  <separator name="orbital magnetization" >
   <i type="logical" name="NUCIND"> F  </i>
   <v name="MAGPOS">      0.00000000      0.00000000      0.00000000</v>
   <i type="logical" name="LNICSALL"> T  </i>
   <i type="logical" name="ORBITALMAG"> F  </i>
   <i type="logical" name="LMAGBLOCH"> F  </i>
   <i type="logical" name="LCHIMAG"> F  </i>
   <i type="logical" name="LGAUGE"> T  </i>
   <i type="int" name="MAGATOM">     0</i>
   <v name="MAGDIPOL">      0.00000000      0.00000000      0.00000000</v>
   <v name="AVECCONST">      0.00000000      0.00000000      0.00000000</v>
  </separator>
  <separator name="response functions" >
   <i type="logical" name="LADDER"> F  </i>
   <i type="logical" name="LFXC"> F  </i>
   <i type="logical" name="LHARTREE"> T  </i>
   <i type="int" name="IBSE">     0</i>
   <v type="int" name="KPOINT">    -1     0     0     0</v>
   <i type="logical" name="LTCTE"> F  </i>
   <i type="logical" name="LTETE"> F  </i>
   <i type="logical" name="LTRIPLET"> F  </i>
   <i type="logical" name="LFXCEPS"> F  </i>
   <i type="logical" name="LFXHEG"> F  </i>
   <i type="int" name="NATURALO">     0</i>
   <i type="logical" name="L2ORDER"> F  </i>
   <i type="logical" name="LUSEW"> F  </i>
   <i name="ENCUTGW">     -2.00000000</i>
   <i name="ENCUTGWSOFT">     -2.00000000</i>
   <i name="ENCUTLF">     -1.00000000</i>
   <i type="int" name="LMAXMP2">    -1</i>
   <i name="SCISSOR">      0.00000000</i>
   <i type="int" name="NOMEGA">     0</i>
   <i type="int" name="NOMEGAR">     0</i>
   <i type="int" name="NBANDSGW">    -1</i>
   <i type="int" name="NBANDSO">    -1</i>
   <i type="int" name="NBANDSV">    -1</i>
   <i type="int" name="NELM">   500</i>
   <i type="int" name="NELMHF">     1</i>
   <i type="int" name="DIM">     3</i>
   <i type="int" name="ANTIRES">     0</i>
   <i name="OMEGAMAX">    -30.00000000</i>
   <i name="OMEGAMIN">    -30.00000000</i>
   <i name="OMEGATL">   -200.00000000</i>
   <i type="int" name="OMEGAGRID">     0</i>
   <i name="CSHIFT">     -0.10000000</i>
   <i type="logical" name="SELFENERGY"> F  </i>
   <i type="logical" name="LSPECTRAL"> F  </i>
   <i type="logical" name="LSPECTRALGW"> F  </i>
   <i type="logical" name="LSINGLES"> F  </i>
   <i type="logical" name="LFERMIGW"> F  </i>
   <i type="logical" name="ODDONLYGW"> F  </i>
   <i type="logical" name="EVENONLYGW"> F  </i>
   <i type="int" name="NKREDLFX">     1</i>
   <i type="int" name="NKREDLFY">     1</i>
   <i type="int" name="NKREDLFZ">     1</i>
   <i type="int" name="MAXMEM">  1800</i>
   <i type="int" name="TELESCOPE">     0</i>
   <i type="int" name="TAUPAR">     1</i>
   <i type="int" name="OMEGAPAR">    -1</i>
   <i name="LAMBDA">      1.00000000</i>
  </separator>
  <separator name="External order field" >
   <i name="OFIELD_KAPPA">      0.00000000</i>
   <v name="OFIELD_K">      0.00000000      0.00000000      0.00000000</v>
   <i name="OFIELD_Q6_NEAR">      0.00000000</i>
   <i name="OFIELD_Q6_FAR">      0.00000000</i>
   <i name="OFIELD_A">      0.00000000</i>
  </separator>
 </parameters>
 <atominfo>
  <atoms>      48 </atoms>
  <types>       2 </types>
  <array name="atoms" >
   <dimension dim="1">ion</dimension>
   <field type="string">element</field>
   <field type="int">atomtype</field>
   <set>
    <rc><c>Au</c><c>   1</c></rc>
    <rc><c>Au</c><c>   1</c></rc>
    <rc><c>Au</c><c>   1</c></rc>
    <rc><c>Au</c><c>   1</c></rc>
    <rc><c>Au</c><c>   1</c></rc>
    <rc><c>Au</c><c>   1</c></rc>
    <rc><c>Au</c><c>   1</c></rc>
    <rc><c>Au</c><c>   1</c></rc>
    <rc><c>Au</c><c>   1</c></rc>
    <rc><c>Au</c><c>   1</c></rc>
    <rc><c>Au</c><c>   1</c></rc>
    <rc><c>Au</c><c>   1</c></rc>
    <rc><c>Au</c><c>   1</c></rc>
    <rc><c>Au</c><c>   1</c></rc>
    <rc><c>Au</c><c>   1</c></rc>
    <rc><c>Au</c><c>   1</c></rc>
    <rc><c>Au</c><c>   1</c></rc>
    <rc><c>Au</c><c>   1</c></rc>
    <rc><c>Au</c><c>   1</c></rc>
    <rc><c>Au</c><c>   1</c></rc>
    <rc><c>Au</c><c>   1</c></rc>
    <rc><c>Au</c><c>   1</c></rc>
    <rc><c>Au</c><c>   1</c></rc>
    <rc><c>Au</c><c>   1</c></rc>
    <rc><c>Pd</c><c>   2</c></rc>
    <rc><c>Pd</c><c>   2</c></rc>
    <rc><c>Pd</c><c>   2</c></rc>
    <rc><c>Pd</c><c>   2</c></rc>
    <rc><c>Pd</c><c>   2</c></rc>
    <rc><c>Pd</c><c>   2</c></rc>
    <rc><c>Pd</c><c>   2</c></rc>
    <rc><c>Pd</c><c>   2</c></rc>
    <rc><c>Pd</c><c>   2</c></rc>
    <rc><c>Pd</c><c>   2</c></rc>
    <rc><c>Pd</c><c>   2</c></rc>
    <rc><c>Pd</c><c>   2</c></rc>
    <rc><c>Pd</c><c>   2</c></rc>
    <rc><c>Pd</c><c>   2</c></rc>
    <rc><c>Pd</c><c>   2</c></rc>
    <rc><c>Pd</c><c>   2</c></rc>
    <rc><c>Pd</c><c>   2</c></rc>
    <rc><c>Pd</c><c>   2</c></rc>
    <rc><c>Pd</c><c>   2</c></rc>
    <rc><c>Pd</c><c>   2</c></rc>
    <rc><c>Pd</c><c>   2</c></rc>
    <rc><c>Pd</c><c>   2</c></rc>
    <rc><c>Pd</c><c>   2</c></rc>
    <rc><c>Pd</c><c>   2</c></rc>
   </set>
  </array>
  <array name="atomtypes" >
   <dimension dim="1">type</dimension>
   <field type="int">atomspertype</field>
   <field type="string">element</field>
   <field>mass</field>
   <field>valence</field>
   <field type="string">pseudopotential</field>
   <set>
    <rc><c>  24</c><c>Au</c><c>    196.96600000</c><c>     11.00000000</c><c>  PAW_PBE Au 04Oct2007                  </c></rc>
    <rc><c>  24</c><c>Pd</c><c>    106.42000000</c><c>     10.00000000</c><c>  PAW_PBE Pd 04Jan2005                  </c></rc>
   </set>
  </array>
 </atominfo>
 <structure name="initialpos" >
  <crystal>
   <varray name="basis" >
    <v>      11.00258152       0.00000000       0.00000000 </v>
    <v>       5.50129076       9.52851510       0.00000000 </v>
    <v>       0.00000000       0.00000000      24.49178509 </v>
   </varray>
   <i name="volume">   2567.67623402 </i>
   <varray name="rec_basis" >
    <v>       0.09088776      -0.05247407       0.00000000 </v>
    <v>       0.00000000       0.10494815       0.00000000 </v>
    <v>       0.00000000       0.00000000       0.04083002 </v>
   </varray>
  </crystal>
  <varray name="positions" >
   <v>       0.25000000       0.75000000       0.59169983 </v>
   <v>       0.91666667       0.41666667       0.50000000 </v>
   <v>       0.33333333       0.08333333       0.40830017 </v>
   <v>       0.08333333       0.58333333       0.40830017 </v>
   <v>       0.00000000       0.00000000       0.59169983 </v>
   <v>       0.83333333       0.83333333       0.40830017 </v>
   <v>       0.75000000       0.25000000       0.59169983 </v>
   <v>       0.91666667       0.91666667       0.50000000 </v>
   <v>       0.00000000       0.75000000       0.59169983 </v>
   <v>       0.75000000       0.50000000       0.59169983 </v>
   <v>       0.33333333       0.33333333       0.40830017 </v>
   <v>       0.66666667       0.41666667       0.50000000 </v>
   <v>       0.08333333       0.33333333       0.40830017 </v>
   <v>       0.16666667       0.41666667       0.50000000 </v>
   <v>       0.25000000       0.25000000       0.59169983 </v>
   <v>       0.33333333       0.58333333       0.40830017 </v>
   <v>       0.16666667       0.66666667       0.50000000 </v>
   <v>       0.25000000       0.50000000       0.59169983 </v>
   <v>       0.66666667       0.16666667       0.50000000 </v>
   <v>       0.83333333       0.08333333       0.40830017 </v>
   <v>       0.50000000       0.75000000       0.59169983 </v>
   <v>       0.58333333       0.33333333       0.40830017 </v>
   <v>       0.41666667       0.41666667       0.50000000 </v>
   <v>       0.50000000       0.50000000       0.59169983 </v>
   <v>       0.16666667       0.91666667       0.50000000 </v>
   <v>       0.33333333       0.83333333       0.40830017 </v>
   <v>       0.25000000       0.00000000       0.59169983 </v>
   <v>       0.16666667       0.16666667       0.50000000 </v>
   <v>       0.91666667       0.16666667       0.50000000 </v>
   <v>       0.00000000       0.50000000       0.59169983 </v>
   <v>       0.91666667       0.66666667       0.50000000 </v>
   <v>       0.00000000       0.25000000       0.59169983 </v>
   <v>       0.66666667       0.91666667       0.50000000 </v>
   <v>       0.08333333       0.83333333       0.40830017 </v>
   <v>       0.58333333       0.08333333       0.40830017 </v>
   <v>       0.41666667       0.66666667       0.50000000 </v>
   <v>       0.50000000       0.00000000       0.59169983 </v>
   <v>       0.50000000       0.25000000       0.59169983 </v>
   <v>       0.08333333       0.08333333       0.40830017 </v>
   <v>       0.41666667       0.91666667       0.50000000 </v>
   <v>       0.83333333       0.58333333       0.40830017 </v>
   <v>       0.66666667       0.66666667       0.50000000 </v>
   <v>       0.75000000       0.00000000       0.59169983 </v>
   <v>       0.83333333       0.33333333       0.40830017 </v>
   <v>       0.58333333       0.83333333       0.40830017 </v>
   <v>       0.58333333       0.58333333       0.40830017 </v>
   <v>       0.41666667       0.16666667       0.50000000 </v>
   <v>       0.75000000       0.75000000       0.59169983 </v>
  </varray>
  <varray name="selective"  type="logical" >
   <v type="logical" >  T  T  T </v>
   <v type="logical" >  T  T  T </v>
   <v type="logical" >  F  F  F </v>
   <v type="logical" >  F  F  F </v>
   <v type="logical" >  T  T  T </v>
   <v type="logical" >  F  F  F </v>
   <v type="logical" >  T  T  T </v>
   <v type="logical" >  T  T  T </v>
   <v type="logical" >  T  T  T </v>
   <v type="logical" >  T  T  T </v>
   <v type="logical" >  F  F  F </v>
   <v type="logical" >  T  T  T </v>
   <v type="logical" >  F  F  F </v>
   <v type="logical" >  T  T  T </v>
   <v type="logical" >  T  T  T </v>
   <v type="logical" >  F  F  F </v>
   <v type="logical" >  T  T  T </v>
   <v type="logical" >  T  T  T </v>
   <v type="logical" >  T  T  T </v>
   <v type="logical" >  F  F  F </v>
   <v type="logical" >  T  T  T </v>
   <v type="logical" >  F  F  F </v>
   <v type="logical" >  T  T  T </v>
   <v type="logical" >  T  T  T </v>
   <v type="logical" >  T  T  T </v>
   <v type="logical" >  F  F  F </v>
   <v type="logical" >  T  T  T </v>
   <v type="logical" >  T  T  T </v>
   <v type="logical" >  T  T  T </v>
   <v type="logical" >  T  T  T </v>
   <v type="logical" >  T  T  T </v>
   <v type="logical" >  T  T  T </v>
   <v type="logical" >  T  T  T </v>
   <v type="logical" >  F  F  F </v>
   <v type="logical" >  F  F  F </v>
   <v type="logical" >  T  T  T </v>
   <v type="logical" >  T  T  T </v>
   <v type="logical" >  T  T  T </v>
   <v type="logical" >  F  F  F </v>
   <v type="logical" >  T  T  T </v>
   <v type="logical" >  F  F  F </v>
   <v type="logical" >  T  T  T </v>
   <v type="logical" >  T  T  T </v>
   <v type="logical" >  F  F  F </v>
   <v type="logical" >  F  F  F </v>
   <v type="logical" >  F  F  F </v>
   <v type="logical" >  T  T  T </v>
   <v type="logical" >  T  T  T </v>
  </varray>
  <nose>
   <v>      -3.00000000       0.00000000       0.00010000       0.00010000 </v>
  </nose>
 </structure>
 <calculation>
  <scstep>
   <time name="dav">    6.89    6.91</time>
   <time name="total">    6.95    6.97</time>
   <dipole>
    <v name="dipole">      0.00000000       0.00000000      -0.00000074 </v>
    <i name="Tr[quadrupol]"> -10322.71842150 </i>
    <i name="Echarged">      0.00000000 </i>
    <i name="Edipol_quadrupol">      0.00000000 </i>
    <i name="Eion">      0.00000000 </i>
   </dipole>
   <energy>
    <i name="alphaZ">    805.86936440 </i>
    <i name="ewald"> 199946.14983019 </i>
    <i name="hartreedc">-242360.38367705 </i>
    <i name="XCdc">   -327.69035478 </i>
    <i name="pawpsdc">  40340.05962942 </i>
    <i name="pawaedc"> -38292.62782345 </i>
    <i name="eentropy">     -0.13514487 </i>
    <i name="bandstr">   1427.62599539 </i>
    <i name="atom">  41659.78587232 </i>
    <i name="e_fr_energy">   3198.65369157 </i>
    <i name="e_wo_entrp">   3198.78883645 </i>
    <i name="e_0_energy">   3198.72126401 </i>
   </energy>
  </scstep>
  <scstep>
   <time name="dav">    8.02    8.04</time>
   <time name="total">    8.02    8.05</time>
   <dipole>
    <v name="dipole">      0.00000000       0.00000000      -0.00000074 </v>
    <i name="Tr[quadrupol]"> -10322.71842150 </i>
    <i name="Echarged">      0.00000000 </i>
    <i name="Edipol_quadrupol">      0.00000000 </i>
    <i name="Eion">      0.00000000 </i>
   </dipole>
   <energy>
    <i name="e_fr_energy">     13.13540802 </i>
    <i name="e_wo_entrp">     13.27506638 </i>
    <i name="e_0_energy">     13.20523720 </i>
   </energy>
  </scstep>
  <scstep>
   <time name="dav">    7.92    8.00</time>
   <time name="total">    7.92    8.00</time>
   <dipole>
    <v name="dipole">      0.00000000       0.00000000      -0.00000074 </v>
    <i name="Tr[quadrupol]"> -10322.71842150 </i>
    <i name="Echarged">      0.00000000 </i>
    <i name="Edipol_quadrupol">      0.00000000 </i>
    <i name="Eion">      0.00000000 </i>
   </dipole>
   <energy>
    <i name="e_fr_energy">   -201.83873544 </i>
    <i name="e_wo_entrp">   -201.64884765 </i>
    <i name="e_0_energy">   -201.74379155 </i>
   </energy>
  </scstep>
  <scstep>
   <time name="dav">    8.18    8.25</time>
   <time name="total">    8.18    8.25</time>
   <dipole>
    <v name="dipole">      0.00000000       0.00000000      -0.00000074 </v>
    <i name="Tr[quadrupol]"> -10322.71842150 </i>
    <i name="Echarged">      0.00000000 </i>
    <i name="Edipol_quadrupol">      0.00000000 </i>
    <i name="Eion">      0.00000000 </i>
   </dipole>
   <energy>
    <i name="e_fr_energy">   -207.63378014 </i>
    <i name="e_wo_entrp">   -207.43628807 </i>
    <i name="e_0_energy">   -207.53503410 </i>
   </energy>
  </scstep>
  <scstep>
   <time name="dav">    8.41    8.44</time>
   <time name="total">    8.66    8.68</time>
   <dipole>
    <v name="dipole">      0.00000000       0.00000000      -0.00000074 </v>
    <i name="Tr[quadrupol]"> -10322.71842150 </i>
    <i name="Echarged">      0.00000000 </i>
    <i name="Edipol_quadrupol">      0.00000000 </i>
    <i name="Eion">      0.00000000 </i>
   </dipole>
   <energy>
    <i name="e_fr_energy">   -207.81952257 </i>
    <i name="e_wo_entrp">   -207.62234882 </i>
    <i name="e_0_energy">   -207.72093569 </i>
   </energy>
  </scstep>
  <scstep>
   <time name="diag">    1.22    1.23</time>
   <time name="diis">    3.43    3.44</time>
   <time name="orth">    0.29    0.30</time>
   <time name="total">    5.24    5.26</time>
   <dipole>
    <v name="dipole">      0.00000000       0.00000000      -0.33548954 </v>
    <i name="Tr[quadrupol]"> -10324.74610247 </i>
    <i name="Echarged">      0.00000000 </i>
    <i name="Edipol_quadrupol">      0.00000000 </i>
    <i name="Eion">      0.00000000 </i>
   </dipole>
   <energy>
    <i name="e_fr_energy">   -204.91992617 </i>
    <i name="e_wo_entrp">   -204.65195356 </i>
    <i name="e_0_energy">   -204.78593987 </i>
   </energy>
  </scstep>
  <scstep>
   <time name="diag">    1.23    1.23</time>
   <time name="diis">    3.38    3.39</time>
   <time name="orth">    0.30    0.30</time>
   <time name="total">    5.20    5.21</time>
   <dipole>
    <v name="dipole">      0.00000000       0.00000000       0.48602095 </v>
    <i name="Tr[quadrupol]"> -10322.43849388 </i>
    <i name="Echarged">      0.00000000 </i>
    <i name="Edipol_quadrupol">      0.00000000 </i>
    <i name="Eion">      0.00000000 </i>
   </dipole>
   <energy>
    <i name="e_fr_energy">   -201.77547448 </i>
    <i name="e_wo_entrp">   -201.57511701 </i>
    <i name="e_0_energy">   -201.67529574 </i>
   </energy>
  </scstep>
  <scstep>
   <time name="diag">    1.24    1.25</time>
   <time name="diis">    3.42    3.43</time>
   <time name="orth">    0.29    0.30</time>
   <time name="total">    5.25    5.27</time>
   <dipole>
    <v name="dipole">      0.00000000       0.00000000      -1.66726071 </v>
    <i name="Tr[quadrupol]"> -10324.52925485 </i>
    <i name="Echarged">      0.00000000 </i>
    <i name="Edipol_quadrupol">      0.00000000 </i>
    <i name="Eion">      0.00000000 </i>
   </dipole>
   <energy>
    <i name="e_fr_energy">   -218.51215982 </i>
    <i name="e_wo_entrp">   -218.24220802 </i>
    <i name="e_0_energy">   -218.37718392 </i>
   </energy>
  </scstep>
  <scstep>
   <time name="diag">    1.22    1.22</time>
   <time name="diis">    3.48    3.49</time>
   <time name="orth">    0.29    0.30</time>
   <time name="total">    5.29    5.30</time>
   <dipole>
    <v name="dipole">      0.00000000       0.00000000       1.11588901 </v>
    <i name="Tr[quadrupol]"> -10325.92001427 </i>
    <i name="Echarged">      0.00000000 </i>
    <i name="Edipol_quadrupol">      0.00000000 </i>
    <i name="Eion">      0.00000000 </i>
   </dipole>
   <energy>
    <i name="e_fr_energy">   -213.16135524 </i>
    <i name="e_wo_entrp">   -212.95563431 </i>
    <i name="e_0_energy">   -213.05849478 </i>
   </energy>
  </scstep>
  <scstep>
   <time name="diag">    1.22    1.23</time>
   <time name="diis">    3.33    3.42</time>
   <time name="orth">    0.30    0.30</time>
   <time name="total">    5.14    5.23</time>
   <dipole>
    <v name="dipole">      0.00000000       0.00000000      -0.37623594 </v>
    <i name="Tr[quadrupol]"> -10325.15096564 </i>
    <i name="Echarged">      0.00000000 </i>
    <i name="Edipol_quadrupol">      0.00000000 </i>
    <i name="Eion">      0.00000000 </i>
   </dipole>
   <energy>
    <i name="e_fr_energy">   -196.77532417 </i>
    <i name="e_wo_entrp">   -196.57320569 </i>
    <i name="e_0_energy">   -196.67426493 </i>
   </energy>
  </scstep>
  <scstep>
   <time name="diag">    1.22    1.23</time>
   <time name="diis">    3.43    3.44</time>
   <time name="orth">    0.29    0.30</time>
   <time name="total">    5.23    5.25</time>
   <dipole>
    <v name="dipole">      0.00000000       0.00000000      -0.22374089 </v>
    <i name="Tr[quadrupol]"> -10324.85664083 </i>
    <i name="Echarged">      0.00000000 </i>
    <i name="Edipol_quadrupol">      0.00000000 </i>
    <i name="Eion">      0.00000000 </i>
   </dipole>
   <energy>
    <i name="e_fr_energy">   -191.03670641 </i>
    <i name="e_wo_entrp">   -190.85050742 </i>
    <i name="e_0_energy">   -190.94360692 </i>
   </energy>
  </scstep>
  <scstep>
   <time name="diag">    1.23    1.23</time>
   <time name="diis">    3.38    3.39</time>
   <time name="orth">    0.30    0.30</time>
   <time name="total">    5.19    5.21</time>
   <dipole>
    <v name="dipole">      0.00000000       0.00000000      -0.04919454 </v>
    <i name="Tr[quadrupol]"> -10325.56791279 </i>
    <i name="Echarged">      0.00000000 </i>
    <i name="Edipol_quadrupol">      0.00000000 </i>
    <i name="Eion">      0.00000000 </i>
   </dipole>
   <energy>
    <i name="e_fr_energy">   -188.81224204 </i>
    <i name="e_wo_entrp">   -188.54946849 </i>
    <i name="e_0_energy">   -188.68085526 </i>
   </energy>
  </scstep>
  <scstep>
   <time name="diag">    1.22    1.22</time>
   <time name="diis">    3.38    3.39</time>
   <time name="orth">    0.29    0.29</time>
   <time name="total">    5.18    5.20</time>
   <dipole>
    <v name="dipole">      0.00000000       0.00000000      -0.01695480 </v>
    <i name="Tr[quadrupol]"> -10325.96119241 </i>
    <i name="Echarged">      0.00000000 </i>
    <i name="Edipol_quadrupol">      0.00000000 </i>
    <i name="Eion">      0.00000000 </i>
   </dipole>
   <energy>
    <i name="e_fr_energy">   -188.81970848 </i>
    <i name="e_wo_entrp">   -188.55447398 </i>
    <i name="e_0_energy">   -188.68709123 </i>
   </energy>
  </scstep>
  <scstep>
   <time name="diag">    1.22    1.23</time>
   <time name="diis">    3.41    3.42</time>
   <time name="orth">    0.30    0.30</time>
   <time name="total">    5.22    5.23</time>
   <dipole>
    <v name="dipole">      0.00000000       0.00000000       0.00371442 </v>
    <i name="Tr[quadrupol]"> -10326.09258032 </i>
    <i name="Echarged">      0.00000000 </i>
    <i name="Edipol_quadrupol">      0.00000000 </i>
    <i name="Eion">      0.00000000 </i>
   </dipole>
   <energy>
    <i name="e_fr_energy">   -188.73565339 </i>
    <i name="e_wo_entrp">   -188.47824603 </i>
    <i name="e_0_energy">   -188.60694971 </i>
   </energy>
  </scstep>
  <scstep>
   <time name="diag">    1.22    1.23</time>
   <time name="diis">    3.47    3.48</time>
   <time name="orth">    0.30    0.30</time>
   <time name="total">    5.27    5.30</time>
   <dipole>
    <v name="dipole">      0.00000000       0.00000000      -0.01571958 </v>
    <i name="Tr[quadrupol]"> -10326.24506263 </i>
    <i name="Echarged">      0.00000000 </i>
    <i name="Edipol_quadrupol">      0.00000000 </i>
    <i name="Eion">      0.00000000 </i>
   </dipole>
   <energy>
    <i name="e_fr_energy">   -188.69908726 </i>
    <i name="e_wo_entrp">   -188.43176600 </i>
    <i name="e_0_energy">   -188.56542663 </i>
   </energy>
  </scstep>
  <scstep>
   <time name="diag">    1.23    1.23</time>
   <time name="diis">    3.43    3.44</time>
   <time name="orth">    0.29    0.30</time>
   <time name="total">    5.24    5.26</time>
   <dipole>
    <v name="dipole">      0.00000000       0.00000000      -0.06954067 </v>
    <i name="Tr[quadrupol]"> -10326.61555239 </i>
    <i name="Echarged">      0.00000000 </i>
    <i name="Edipol_quadrupol">      0.00000000 </i>
    <i name="Eion">      0.00000000 </i>
   </dipole>
   <energy>
    <i name="e_fr_energy">   -188.58300832 </i>
    <i name="e_wo_entrp">   -188.32501322 </i>
    <i name="e_0_energy">   -188.45401077 </i>
   </energy>
  </scstep>
  <scstep>
   <time name="diag">    1.22    1.22</time>
   <time name="diis">    3.43    3.45</time>
   <time name="orth">    0.29    0.31</time>
   <time name="total">    5.23    5.30</time>
   <dipole>
    <v name="dipole">      0.00000000       0.00000000      -0.05132646 </v>
    <i name="Tr[quadrupol]"> -10326.78054342 </i>
    <i name="Echarged">      0.00000000 </i>
    <i name="Edipol_quadrupol">      0.00000000 </i>
    <i name="Eion">      0.00000000 </i>
   </dipole>
   <energy>
    <i name="e_fr_energy">   -188.46388687 </i>
    <i name="e_wo_entrp">   -188.18925528 </i>
    <i name="e_0_energy">   -188.32657108 </i>
   </energy>
  </scstep>
  <scstep>
   <time name="diag">    1.22    1.24</time>
   <time name="diis">    3.42    3.43</time>
   <time name="orth">    0.29    0.30</time>
   <time name="total">    5.22    5.26</time>
   <dipole>
    <v name="dipole">      0.00000000       0.00000000      -0.02167822 </v>
    <i name="Tr[quadrupol]"> -10326.97241525 </i>
    <i name="Echarged">      0.00000000 </i>
    <i name="Edipol_quadrupol">      0.00000000 </i>
    <i name="Eion">      0.00000000 </i>
   </dipole>
   <energy>
    <i name="e_fr_energy">   -188.42651596 </i>
    <i name="e_wo_entrp">   -188.14663123 </i>
    <i name="e_0_energy">   -188.28657359 </i>
   </energy>
  </scstep>
  <scstep>
   <time name="diag">    1.22    1.22</time>
   <time name="diis">    3.43    3.44</time>
   <time name="orth">    0.29    0.29</time>
   <time name="total">    5.23    5.25</time>
   <dipole>
    <v name="dipole">      0.00000000       0.00000000      -0.01561930 </v>
    <i name="Tr[quadrupol]"> -10327.06111818 </i>
    <i name="Echarged">      0.00000000 </i>
    <i name="Edipol_quadrupol">      0.00000000 </i>
    <i name="Eion">      0.00000000 </i>
   </dipole>
   <energy>
    <i name="e_fr_energy">   -188.41716572 </i>
    <i name="e_wo_entrp">   -188.13664296 </i>
    <i name="e_0_energy">   -188.27690434 </i>
   </energy>
  </scstep>
  <scstep>
   <time name="diag">    1.23    1.23</time>
   <time name="diis">    3.43    3.44</time>
   <time name="orth">    0.29    0.30</time>
   <time name="total">    5.24    5.26</time>
   <dipole>
    <v name="dipole">      0.00000000       0.00000000      -0.00799810 </v>
    <i name="Tr[quadrupol]"> -10327.18274962 </i>
    <i name="Echarged">      0.00000000 </i>
    <i name="Edipol_quadrupol">      0.00000000 </i>
    <i name="Eion">      0.00000000 </i>
   </dipole>
   <energy>
    <i name="e_fr_energy">   -188.41131156 </i>
    <i name="e_wo_entrp">   -188.12912611 </i>
    <i name="e_0_energy">   -188.27021884 </i>
   </energy>
  </scstep>
  <scstep>
   <time name="diag">    1.22    1.22</time>
   <time name="diis">    3.44    3.45</time>
   <time name="orth">    0.30    0.30</time>
   <time name="total">    5.24    5.26</time>
   <dipole>
    <v name="dipole">      0.00000000       0.00000000      -0.00792300 </v>
    <i name="Tr[quadrupol]"> -10327.28028008 </i>
    <i name="Echarged">      0.00000000 </i>
    <i name="Edipol_quadrupol">      0.00000000 </i>
    <i name="Eion">      0.00000000 </i>
   </dipole>
   <energy>
    <i name="e_fr_energy">   -188.40925782 </i>
    <i name="e_wo_entrp">   -188.12745929 </i>
    <i name="e_0_energy">   -188.26835855 </i>
   </energy>
  </scstep>
  <scstep>
   <time name="diag">    1.22    1.22</time>
   <time name="diis">    3.34    3.35</time>
   <time name="orth">    0.29    0.30</time>
   <time name="total">    5.15    5.16</time>
   <dipole>
    <v name="dipole">      0.00000000       0.00000000      -0.01234683 </v>
    <i name="Tr[quadrupol]"> -10327.39037930 </i>
    <i name="Echarged">      0.00000000 </i>
    <i name="Edipol_quadrupol">      0.00000000 </i>
    <i name="Eion">      0.00000000 </i>
   </dipole>
   <energy>
    <i name="e_fr_energy">   -188.40859663 </i>
    <i name="e_wo_entrp">   -188.12524487 </i>
    <i name="e_0_energy">   -188.26692075 </i>
   </energy>
  </scstep>
  <scstep>
   <time name="diag">    1.22    1.22</time>
   <time name="diis">    3.42    3.43</time>
   <time name="orth">    0.29    0.30</time>
   <time name="total">    5.23    5.25</time>
   <dipole>
    <v name="dipole">      0.00000000       0.00000000      -0.01035872 </v>
    <i name="Tr[quadrupol]"> -10327.48519153 </i>
    <i name="Echarged">      0.00000000 </i>
    <i name="Edipol_quadrupol">      0.00000000 </i>
    <i name="Eion">      0.00000000 </i>
   </dipole>
   <energy>
    <i name="e_fr_energy">   -188.40840450 </i>
    <i name="e_wo_entrp">   -188.12640263 </i>
    <i name="e_0_energy">   -188.26740356 </i>
   </energy>
  </scstep>
  <scstep>
   <time name="diag">    1.23    1.23</time>
   <time name="diis">    3.42    3.42</time>
   <time name="orth">    0.29    0.29</time>
   <time name="total">    5.23    5.24</time>
   <dipole>
    <v name="dipole">      0.00000000       0.00000000      -0.00900870 </v>
    <i name="Tr[quadrupol]"> -10327.54220434 </i>
    <i name="Echarged">      0.00000000 </i>
    <i name="Edipol_quadrupol">      0.00000000 </i>
    <i name="Eion">      0.00000000 </i>
   </dipole>
   <energy>
    <i name="e_fr_energy">   -188.40802655 </i>
    <i name="e_wo_entrp">   -188.12464986 </i>
    <i name="e_0_energy">   -188.26633820 </i>
   </energy>
  </scstep>
  <scstep>
   <time name="diag">    1.23    1.23</time>
   <time name="diis">    3.33    3.42</time>
   <time name="orth">    0.29    0.29</time>
   <time name="total">    5.14    5.25</time>
   <dipole>
    <v name="dipole">      0.00000000       0.00000000      -0.00755781 </v>
    <i name="Tr[quadrupol]"> -10327.58989660 </i>
    <i name="Echarged">      0.00000000 </i>
    <i name="Edipol_quadrupol">      0.00000000 </i>
    <i name="Eion">      0.00000000 </i>
   </dipole>
   <energy>
    <i name="e_fr_energy">   -188.40819713 </i>
    <i name="e_wo_entrp">   -188.12470389 </i>
    <i name="e_0_energy">   -188.26645051 </i>
   </energy>
  </scstep>
  <scstep>
   <time name="diag">    1.22    1.22</time>
   <time name="diis">    3.43    3.44</time>
   <time name="orth">    0.29    0.29</time>
   <time name="total">    5.23    5.25</time>
   <dipole>
    <v name="dipole">      0.00000000       0.00000000      -0.00726820 </v>
    <i name="Tr[quadrupol]"> -10327.66910232 </i>
    <i name="Echarged">      0.00000000 </i>
    <i name="Edipol_quadrupol">      0.00000000 </i>
    <i name="Eion">      0.00000000 </i>
   </dipole>
   <energy>
    <i name="e_fr_energy">   -188.40869965 </i>
    <i name="e_wo_entrp">   -188.12530454 </i>
    <i name="e_0_energy">   -188.26700209 </i>
   </energy>
  </scstep>
  <scstep>
   <time name="diag">    1.20    1.23</time>
   <time name="diis">    3.46    3.47</time>
   <time name="orth">    0.29    0.29</time>
   <time name="total">    5.24    5.28</time>
   <dipole>
    <v name="dipole">      0.00000000       0.00000000      -0.00693590 </v>
    <i name="Tr[quadrupol]"> -10327.70573044 </i>
    <i name="Echarged">      0.00000000 </i>
    <i name="Edipol_quadrupol">      0.00000000 </i>
    <i name="Eion">      0.00000000 </i>
   </dipole>
   <energy>
    <i name="e_fr_energy">   -188.40899603 </i>
    <i name="e_wo_entrp">   -188.12542948 </i>
    <i name="e_0_energy">   -188.26721276 </i>
   </energy>
  </scstep>
  <scstep>
   <time name="diag">    1.22    1.22</time>
   <time name="diis">    3.38    3.38</time>
   <time name="orth">    0.29    0.29</time>
   <time name="total">    5.18    5.19</time>
   <dipole>
    <v name="dipole">      0.00000000       0.00000000      -0.00636135 </v>
    <i name="Tr[quadrupol]"> -10327.75585454 </i>
    <i name="Echarged">      0.00000000 </i>
    <i name="Edipol_quadrupol">      0.00000000 </i>
    <i name="Eion">      0.00000000 </i>
   </dipole>
   <energy>
    <i name="e_fr_energy">   -188.40947859 </i>
    <i name="e_wo_entrp">   -188.12595885 </i>
    <i name="e_0_energy">   -188.26771872 </i>
   </energy>
  </scstep>
  <scstep>
   <time name="diag">    1.22    1.22</time>
   <time name="diis">    3.35    3.36</time>
   <time name="orth">    0.29    0.29</time>
   <time name="total">    5.15    5.17</time>
   <dipole>
    <v name="dipole">      0.00000000       0.00000000      -0.00599991 </v>
    <i name="Tr[quadrupol]"> -10327.80828603 </i>
    <i name="Echarged">      0.00000000 </i>
    <i name="Edipol_quadrupol">      0.00000000 </i>
    <i name="Eion">      0.00000000 </i>
   </dipole>
   <energy>
    <i name="e_fr_energy">   -188.41001257 </i>
    <i name="e_wo_entrp">   -188.12638980 </i>
    <i name="e_0_energy">   -188.26820118 </i>
   </energy>
  </scstep>
  <scstep>
   <time name="diag">    1.22    1.23</time>
   <time name="diis">    3.52    3.53</time>
   <time name="orth">    0.30    0.30</time>
   <time name="total">    5.33    5.36</time>
   <dipole>
    <v name="dipole">      0.00000000       0.00000000      -0.00512550 </v>
    <i name="Tr[quadrupol]"> -10327.88490943 </i>
    <i name="Echarged">      0.00000000 </i>
    <i name="Edipol_quadrupol">      0.00000000 </i>
    <i name="Eion">      0.00000000 </i>
   </dipole>
   <energy>
    <i name="e_fr_energy">   -188.41077482 </i>
    <i name="e_wo_entrp">   -188.12728556 </i>
    <i name="e_0_energy">   -188.26903019 </i>
   </energy>
  </scstep>
  <scstep>
   <time name="diag">    1.22    1.22</time>
   <time name="diis">    3.13    3.13</time>
   <time name="orth">    0.29    0.29</time>
   <time name="total">    4.93    4.94</time>
   <dipole>
    <v name="dipole">      0.00000000       0.00000000      -0.00440231 </v>
    <i name="Tr[quadrupol]"> -10327.91622927 </i>
    <i name="Echarged">      0.00000000 </i>
    <i name="Edipol_quadrupol">      0.00000000 </i>
    <i name="Eion">      0.00000000 </i>
   </dipole>
   <energy>
    <i name="e_fr_energy">   -188.41110996 </i>
    <i name="e_wo_entrp">   -188.12759282 </i>
    <i name="e_0_energy">   -188.26935139 </i>
   </energy>
  </scstep>
  <scstep>
   <time name="diag">    1.22    1.22</time>
   <time name="diis">    2.73    2.73</time>
   <time name="orth">    0.29    0.29</time>
   <time name="total">    4.53    4.54</time>
   <dipole>
    <v name="dipole">      0.00000000       0.00000000      -0.00409159 </v>
    <i name="Tr[quadrupol]"> -10327.93306857 </i>
    <i name="Echarged">      0.00000000 </i>
    <i name="Edipol_quadrupol">      0.00000000 </i>
    <i name="Eion">      0.00000000 </i>
   </dipole>
   <energy>
    <i name="e_fr_energy">   -188.41123164 </i>
    <i name="e_wo_entrp">   -188.12768799 </i>
    <i name="e_0_energy">   -188.26945982 </i>
   </energy>
  </scstep>
  <scstep>
   <time name="diag">    1.22    1.22</time>
   <time name="diis">    2.44    2.53</time>
   <time name="orth">    0.29    0.29</time>
   <time name="total">    4.24    4.35</time>
   <dipole>
    <v name="dipole">      0.00000000       0.00000000      -0.00384231 </v>
    <i name="Tr[quadrupol]"> -10327.94873834 </i>
    <i name="Echarged">      0.00000000 </i>
    <i name="Edipol_quadrupol">      0.00000000 </i>
    <i name="Eion">      0.00000000 </i>
   </dipole>
   <energy>
    <i name="e_fr_energy">   -188.41134721 </i>
    <i name="e_wo_entrp">   -188.12779730 </i>
    <i name="e_0_energy">   -188.26957225 </i>
   </energy>
  </scstep>
  <scstep>
   <time name="diag">    1.22    1.22</time>
   <time name="diis">    2.22    2.22</time>
   <time name="orth">    0.29    0.29</time>
   <time name="total">    4.02    4.03</time>
   <dipole>
    <v name="dipole">      0.00000000       0.00000000      -0.00371391 </v>
    <i name="Tr[quadrupol]"> -10327.95667818 </i>
    <i name="Echarged">      0.00000000 </i>
    <i name="Edipol_quadrupol">      0.00000000 </i>
    <i name="Eion">      0.00000000 </i>
   </dipole>
   <energy>
    <i name="e_fr_energy">   -188.41141261 </i>
    <i name="e_wo_entrp">   -188.12786556 </i>
    <i name="e_0_energy">   -188.26963909 </i>
   </energy>
  </scstep>
  <scstep>
   <time name="diag">    1.22    1.22</time>
   <time name="diis">    2.13    2.13</time>
   <time name="orth">    0.29    0.29</time>
   <time name="total">    3.93    3.94</time>
   <dipole>
    <v name="dipole">      0.00000000       0.00000000      -0.00355200 </v>
    <i name="Tr[quadrupol]"> -10327.96355536 </i>
    <i name="Echarged">      0.00000000 </i>
    <i name="Edipol_quadrupol">      0.00000000 </i>
    <i name="Eion">      0.00000000 </i>
   </dipole>
   <energy>
    <i name="e_fr_energy">   -188.41146264 </i>
    <i name="e_wo_entrp">   -188.12790947 </i>
    <i name="e_0_energy">   -188.26968605 </i>
   </energy>
  </scstep>
  <scstep>
   <time name="diag">    1.22    1.23</time>
   <time name="diis">    2.00    2.01</time>
   <time name="orth">    0.29    0.29</time>
   <time name="total">    3.80    3.82</time>
   <dipole>
    <v name="dipole">      0.00000000       0.00000000      -0.00347780 </v>
    <i name="Tr[quadrupol]"> -10327.96636183 </i>
    <i name="Echarged">      0.00000000 </i>
    <i name="Edipol_quadrupol">      0.00000000 </i>
    <i name="Eion">      0.00000000 </i>
   </dipole>
   <energy>
    <i name="e_fr_energy">   -188.41148377 </i>
    <i name="e_wo_entrp">   -188.12793236 </i>
    <i name="e_0_energy">   -188.26970806 </i>
   </energy>
  </scstep>
  <scstep>
   <time name="diag">    1.22    1.22</time>
   <time name="diis">    2.06    2.07</time>
   <time name="orth">    0.29    0.29</time>
   <time name="total">    3.87    3.88</time>
   <dipole>
    <v name="dipole">      0.00000000       0.00000000      -0.00336719 </v>
    <i name="Tr[quadrupol]"> -10327.97030961 </i>
    <i name="Echarged">      0.00000000 </i>
    <i name="Edipol_quadrupol">      0.00000000 </i>
    <i name="Eion">      0.00000000 </i>
   </dipole>
   <energy>
    <i name="e_fr_energy">   -188.41150673 </i>
    <i name="e_wo_entrp">   -188.12795648 </i>
    <i name="e_0_energy">   -188.26973160 </i>
   </energy>
  </scstep>
  <scstep>
   <time name="diag">    1.22    1.22</time>
   <time name="diis">    1.89    1.90</time>
   <time name="orth">    0.29    0.29</time>
   <time name="total">    3.69    3.70</time>
   <dipole>
    <v name="dipole">      0.00000000       0.00000000      -0.00327767 </v>
    <i name="Tr[quadrupol]"> -10327.97367554 </i>
    <i name="Echarged">      0.00000000 </i>
    <i name="Edipol_quadrupol">      0.00000000 </i>
    <i name="Eion">      0.00000000 </i>
   </dipole>
   <energy>
    <i name="e_fr_energy">   -188.41151940 </i>
    <i name="e_wo_entrp">   -188.12796406 </i>
    <i name="e_0_energy">   -188.26974173 </i>
   </energy>
  </scstep>
  <scstep>
   <time name="diag">    1.22    1.22</time>
   <time name="diis">    1.76    1.77</time>
   <time name="orth">    0.29    0.29</time>
   <time name="total">    3.57    3.58</time>
   <dipole>
    <v name="dipole">      0.00000000       0.00000000      -0.00321517 </v>
    <i name="Tr[quadrupol]"> -10327.97632678 </i>
    <i name="Echarged">      0.00000000 </i>
    <i name="Edipol_quadrupol">      0.00000000 </i>
    <i name="Eion">      0.00000000 </i>
   </dipole>
   <energy>
    <i name="e_fr_energy">   -188.41152385 </i>
    <i name="e_wo_entrp">   -188.12797169 </i>
    <i name="e_0_energy">   -188.26974777 </i>
   </energy>
  </scstep>
  <scstep>
   <time name="diag">    1.22    1.22</time>
   <time name="diis">    1.51    1.52</time>
   <time name="orth">    0.29    0.29</time>
   <time name="total">    3.07    3.08</time>
   <dipole>
    <v name="dipole">      0.00000000       0.00000000      -0.00318539 </v>
    <i name="Tr[quadrupol]"> -10327.97792280 </i>
    <i name="Echarged">      0.00000000 </i>
    <i name="Edipol_quadrupol">      0.00000000 </i>
    <i name="Eion">      0.00000000 </i>
   </dipole>
   <energy>
    <i name="alphaZ">    805.86986811 </i>
    <i name="ewald"> 199946.14983019 </i>
    <i name="hartreedc">-242126.60907054 </i>
    <i name="XCdc">   -343.57281721 </i>
    <i name="pawpsdc">  49364.52859255 </i>
    <i name="pawaedc"> -47443.41199480 </i>
    <i name="eentropy">     -0.28355139 </i>
    <i name="bandstr">  -2050.86825407 </i>
    <i name="atom">  41659.78587232 </i>
    <i name="e_fr_energy">   -188.41152484 </i>
    <i name="e_wo_entrp">   -188.12797345 </i>
    <i name="e_0_energy">   -188.26974914 </i>
   </energy>
  </scstep>
  <structure>
   <crystal>
    <varray name="basis" >
     <v>      11.00258152       0.00000000       0.00000000 </v>
     <v>       5.50129076       9.52851510       0.00000000 </v>
     <v>       0.00000000       0.00000000      24.49178509 </v>
    </varray>
    <i name="volume">   2567.67623402 </i>
    <varray name="rec_basis" >
     <v>       0.09088776      -0.05247407       0.00000000 </v>
     <v>       0.00000000       0.10494815       0.00000000 </v>
     <v>       0.00000000       0.00000000       0.04083002 </v>
    </varray>
   </crystal>
   <varray name="positions" >
    <v>       0.25000000       0.75000000       0.59169983 </v>
    <v>       0.91666667       0.41666667       0.50000000 </v>
    <v>       0.33333333       0.08333333       0.40830017 </v>
    <v>       0.08333333       0.58333333       0.40830017 </v>
    <v>       0.00000000       0.00000000       0.59169983 </v>
    <v>       0.83333333       0.83333333       0.40830017 </v>
    <v>       0.75000000       0.25000000       0.59169983 </v>
    <v>       0.91666667       0.91666667       0.50000000 </v>
    <v>       0.00000000       0.75000000       0.59169983 </v>
    <v>       0.75000000       0.50000000       0.59169983 </v>
    <v>       0.33333333       0.33333333       0.40830017 </v>
    <v>       0.66666667       0.41666667       0.50000000 </v>
    <v>       0.08333333       0.33333333       0.40830017 </v>
    <v>       0.16666667       0.41666667       0.50000000 </v>
    <v>       0.25000000       0.25000000       0.59169983 </v>
    <v>       0.33333333       0.58333333       0.40830017 </v>
    <v>       0.16666667       0.66666667       0.50000000 </v>
    <v>       0.25000000       0.50000000       0.59169983 </v>
    <v>       0.66666667       0.16666667       0.50000000 </v>
    <v>       0.83333333       0.08333333       0.40830017 </v>
    <v>       0.50000000       0.75000000       0.59169983 </v>
    <v>       0.58333333       0.33333333       0.40830017 </v>
    <v>       0.41666667       0.41666667       0.50000000 </v>
    <v>       0.50000000       0.50000000       0.59169983 </v>
    <v>       0.16666667       0.91666667       0.50000000 </v>
    <v>       0.33333333       0.83333333       0.40830017 </v>
    <v>       0.25000000       0.00000000       0.59169983 </v>
    <v>       0.16666667       0.16666667       0.50000000 </v>
    <v>       0.91666667       0.16666667       0.50000000 </v>
    <v>       0.00000000       0.50000000       0.59169983 </v>
    <v>       0.91666667       0.66666667       0.50000000 </v>
    <v>       0.00000000       0.25000000       0.59169983 </v>
    <v>       0.66666667       0.91666667       0.50000000 </v>
    <v>       0.08333333       0.83333333       0.40830017 </v>
    <v>       0.58333333       0.08333333       0.40830017 </v>
    <v>       0.41666667       0.66666667       0.50000000 </v>
    <v>       0.50000000       0.00000000       0.59169983 </v>
    <v>       0.50000000       0.25000000       0.59169983 </v>
    <v>       0.08333333       0.08333333       0.40830017 </v>
    <v>       0.41666667       0.91666667       0.50000000 </v>
    <v>       0.83333333       0.58333333       0.40830017 </v>
    <v>       0.66666667       0.66666667       0.50000000 </v>
    <v>       0.75000000       0.00000000       0.59169983 </v>
    <v>       0.83333333       0.33333333       0.40830017 </v>
    <v>       0.58333333       0.83333333       0.40830017 </v>
    <v>       0.58333333       0.58333333       0.40830017 </v>
    <v>       0.41666667       0.16666667       0.50000000 </v>
    <v>       0.75000000       0.75000000       0.59169983 </v>
   </varray>
  </structure>
  <varray name="forces" >
   <v>       0.27975893       0.33345203       1.39362162 </v>
   <v>      -0.03348669       0.00153368      -0.02445629 </v>
   <v>      -0.00304688      -0.43617465      -1.07626867 </v>
   <v>      -0.29536248       0.31575323      -1.65084727 </v>
   <v>       0.27448061       0.31054233       1.35395202 </v>
   <v>      -0.41522890      -0.10448901      -1.34423651 </v>
   <v>       0.03688945      -0.29122770       1.60989182 </v>
   <v>      -0.02783944       0.02878310      -0.02258596 </v>
   <v>      -0.67431061      -0.06448613       1.59511739 </v>
   <v>       0.50054449       0.15005721       1.60236176 </v>
   <v>       0.10758710      -0.37323616      -1.66785864 </v>
   <v>       0.39505748       0.36810508      -0.56886020 </v>
   <v>      -0.51364602      -0.15855095      -1.62122533 </v>
   <v>      -0.41350913      -0.16301641       0.33815203 </v>
   <v>      -0.11547073      -0.38334063       1.30727461 </v>
   <v>       0.40960882       0.51300923      -1.59826144 </v>
   <v>       0.15032089       0.52265100      -0.31404008 </v>
   <v>      -0.15033502      -0.23534962       1.86495839 </v>
   <v>      -0.54056512      -0.50017073       0.30535551 </v>
   <v>       0.42718263       0.07081186      -1.56891318 </v>
   <v>       0.24583953       0.46054775       1.09857374 </v>
   <v>       0.25563687       0.01835011      -1.84268971 </v>
   <v>       0.03297252      -0.26848884       0.24961206 </v>
   <v>      -0.08663815      -0.05160747       1.66520542 </v>
   <v>       0.43042594       0.25559155      -0.34107981 </v>
   <v>       0.03656176       0.02825102      -0.40520595 </v>
   <v>       0.11026232       0.11155035       0.46163069 </v>
   <v>      -0.22004370      -0.59546461       0.19700366 </v>
   <v>       0.58518344      -0.08926295      -0.13864630 </v>
   <v>      -0.16162698       0.10478247       0.88947379 </v>
   <v>      -0.60041072       0.10316925       0.12997813 </v>
   <v>       0.15155251      -0.13161224       0.71907199 </v>
   <v>      -0.43667828      -0.14780302       0.17831648 </v>
   <v>       0.36122187       0.18088907      -0.85594136 </v>
   <v>      -0.16671429      -0.24883346      -0.71741280 </v>
   <v>       0.35752396       0.53457212      -0.41737458 </v>
   <v>       0.11783889      -0.07575259       0.38885338 </v>
   <v>      -0.10174338      -0.27540787       0.85653727 </v>
   <v>      -0.07427835      -0.12825302      -0.51245116 </v>
   <v>       0.01721732      -0.00880228      -0.04150691 </v>
   <v>      -0.28539326       0.11729009      -0.70869488 </v>
   <v>       0.09467853       0.53063805      -0.39288318 </v>
   <v>      -0.44301092      -0.07781993       0.78556437 </v>
   <v>       0.09420399       0.04460149      -0.85484918 </v>
   <v>      -0.06518390      -0.10278393      -0.37832557 </v>
   <v>       0.27833159       0.25985882      -0.64639127 </v>
   <v>       0.02113495      -0.61289485       0.23045852 </v>
   <v>       0.05250658       0.16003815       0.49004159 </v>
  </varray>
  <energy>
   <i name="e_fr_energy">   -188.41152484 </i>
   <i name="e_wo_entrp">   -188.26974914 </i>
   <i name="e_0_energy">     -0.28355139 </i>
  </energy>
  <time name="totalsc">  212.34  213.51</time>
 </calculation>
 <calculation>
  <scstep>
   <time name="dav">    7.17    7.19</time>
   <time name="total">    7.46    7.48</time>
   <dipole>
    <v name="dipole">      0.00000000       0.00000000      -0.00315507 </v>
    <i name="Tr[quadrupol]"> -10315.45704143 </i>
    <i name="Echarged">      0.00000000 </i>
    <i name="Edipol_quadrupol">      0.00000000 </i>
    <i name="Eion">      0.00000000 </i>
   </dipole>
   <energy>
    <i name="alphaZ">    805.87127460 </i>
    <i name="ewald"> 198562.21508712 </i>
    <i name="hartreedc">-240751.52518132 </i>
    <i name="XCdc">   -344.73571796 </i>
    <i name="pawpsdc">  49364.52653135 </i>
    <i name="pawaedc"> -47443.41002538 </i>
    <i name="eentropy">     -0.28686589 </i>
    <i name="bandstr">  -2041.50307759 </i>
    <i name="atom">  41659.78587232 </i>
    <i name="e_fr_energy">   -189.06210275 </i>
    <i name="e_wo_entrp">   -188.77523686 </i>
    <i name="e_0_energy">   -188.91866980 </i>
   </energy>
  </scstep>
  <scstep>
   <time name="diag">    1.22    1.22</time>
   <time name="diis">    3.34    3.43</time>
   <time name="orth">    0.29    0.29</time>
   <time name="total">    5.13    5.23</time>
   <dipole>
    <v name="dipole">      0.00000000       0.00000000       0.03611531 </v>
    <i name="Tr[quadrupol]"> -10315.30638016 </i>
    <i name="Echarged">      0.00000000 </i>
    <i name="Edipol_quadrupol">      0.00000000 </i>
    <i name="Eion">      0.00000000 </i>
   </dipole>
   <energy>
    <i name="e_fr_energy">   -189.31044272 </i>
    <i name="e_wo_entrp">   -189.02567049 </i>
    <i name="e_0_energy">   -189.16805661 </i>
   </energy>
  </scstep>
  <scstep>
   <time name="diag">    1.21    1.22</time>
   <time name="diis">    3.53    3.53</time>
   <time name="orth">    0.29    0.29</time>
   <time name="total">    5.32    5.33</time>
   <dipole>
    <v name="dipole">      0.00000000       0.00000000      -0.08913184 </v>
    <i name="Tr[quadrupol]"> -10315.54660640 </i>
    <i name="Echarged">      0.00000000 </i>
    <i name="Edipol_quadrupol">      0.00000000 </i>
    <i name="Eion">      0.00000000 </i>
   </dipole>
   <energy>
    <i name="e_fr_energy">   -189.44854391 </i>
    <i name="e_wo_entrp">   -189.16774997 </i>
    <i name="e_0_energy">   -189.30814694 </i>
   </energy>
  </scstep>
  <scstep>
   <time name="diag">    1.22    1.22</time>
   <time name="diis">    3.46    3.47</time>
   <time name="orth">    0.29    0.29</time>
   <time name="total">    5.26    5.27</time>
   <dipole>
    <v name="dipole">      0.00000000       0.00000000       0.02744910 </v>
    <i name="Tr[quadrupol]"> -10315.56608538 </i>
    <i name="Echarged">      0.00000000 </i>
    <i name="Edipol_quadrupol">      0.00000000 </i>
    <i name="Eion">      0.00000000 </i>
   </dipole>
   <energy>
    <i name="e_fr_energy">   -189.32678205 </i>
    <i name="e_wo_entrp">   -189.03822806 </i>
    <i name="e_0_energy">   -189.18250505 </i>
   </energy>
  </scstep>
  <scstep>
   <time name="diag">    1.22    1.22</time>
   <time name="diis">    3.40    3.42</time>
   <time name="orth">    0.29    0.29</time>
   <time name="total">    5.20    5.22</time>
   <dipole>
    <v name="dipole">      0.00000000       0.00000000      -0.02317690 </v>
    <i name="Tr[quadrupol]"> -10315.48129003 </i>
    <i name="Echarged">      0.00000000 </i>
    <i name="Edipol_quadrupol">      0.00000000 </i>
    <i name="Eion">      0.00000000 </i>
   </dipole>
   <energy>
    <i name="e_fr_energy">   -189.29232318 </i>
    <i name="e_wo_entrp">   -189.01079175 </i>
    <i name="e_0_energy">   -189.15155747 </i>
   </energy>
  </scstep>
  <scstep>
   <time name="diag">    1.21    1.22</time>
   <time name="diis">    3.41    3.42</time>
   <time name="orth">    0.29    0.29</time>
   <time name="total">    5.20    5.22</time>
   <dipole>
    <v name="dipole">      0.00000000       0.00000000       0.02621335 </v>
    <i name="Tr[quadrupol]"> -10315.48840873 </i>
    <i name="Echarged">      0.00000000 </i>
    <i name="Edipol_quadrupol">      0.00000000 </i>
    <i name="Eion">      0.00000000 </i>
   </dipole>
   <energy>
    <i name="e_fr_energy">   -189.29442121 </i>
    <i name="e_wo_entrp">   -189.00260238 </i>
    <i name="e_0_energy">   -189.14851180 </i>
   </energy>
  </scstep>
  <scstep>
   <time name="diag">    1.21    1.22</time>
   <time name="diis">    3.44    3.45</time>
   <time name="orth">    0.29    0.29</time>
   <time name="total">    5.23    5.25</time>
   <dipole>
    <v name="dipole">      0.00000000       0.00000000       0.01236055 </v>
    <i name="Tr[quadrupol]"> -10315.48885875 </i>
    <i name="Echarged">      0.00000000 </i>
    <i name="Edipol_quadrupol">      0.00000000 </i>
    <i name="Eion">      0.00000000 </i>
   </dipole>
   <energy>
    <i name="e_fr_energy">   -189.28238844 </i>
    <i name="e_wo_entrp">   -188.99649356 </i>
    <i name="e_0_energy">   -189.13944100 </i>
   </energy>
  </scstep>
  <scstep>
   <time name="diag">    1.22    1.22</time>
   <time name="diis">    3.42    3.43</time>
   <time name="orth">    0.29    0.29</time>
   <time name="total">    5.21    5.23</time>
   <dipole>
    <v name="dipole">      0.00000000       0.00000000       0.00946948 </v>
    <i name="Tr[quadrupol]"> -10315.46985974 </i>
    <i name="Echarged">      0.00000000 </i>
    <i name="Edipol_quadrupol">      0.00000000 </i>
    <i name="Eion">      0.00000000 </i>
   </dipole>
   <energy>
    <i name="e_fr_energy">   -189.28116329 </i>
    <i name="e_wo_entrp">   -188.99441189 </i>
    <i name="e_0_energy">   -189.13778759 </i>
   </energy>
  </scstep>
  <scstep>
   <time name="diag">    1.22    1.22</time>
   <time name="diis">    3.40    3.42</time>
   <time name="orth">    0.28    0.31</time>
   <time name="total">    5.19    5.27</time>
   <dipole>
    <v name="dipole">      0.00000000       0.00000000       0.00295235 </v>
    <i name="Tr[quadrupol]"> -10315.46748301 </i>
    <i name="Echarged">      0.00000000 </i>
    <i name="Edipol_quadrupol">      0.00000000 </i>
    <i name="Eion">      0.00000000 </i>
   </dipole>
   <energy>
    <i name="e_fr_energy">   -189.28046155 </i>
    <i name="e_wo_entrp">   -188.99341465 </i>
    <i name="e_0_energy">   -189.13693810 </i>
   </energy>
  </scstep>
  <scstep>
   <time name="diag">    1.21    1.23</time>
   <time name="diis">    3.41    3.42</time>
   <time name="orth">    0.29    0.29</time>
   <time name="total">    5.20    5.24</time>
   <dipole>
    <v name="dipole">      0.00000000       0.00000000       0.00517878 </v>
    <i name="Tr[quadrupol]"> -10315.46760217 </i>
    <i name="Echarged">      0.00000000 </i>
    <i name="Edipol_quadrupol">      0.00000000 </i>
    <i name="Eion">      0.00000000 </i>
   </dipole>
   <energy>
    <i name="e_fr_energy">   -189.28027132 </i>
    <i name="e_wo_entrp">   -188.99359137 </i>
    <i name="e_0_energy">   -189.13693135 </i>
   </energy>
  </scstep>
  <scstep>
   <time name="diag">    1.21    1.21</time>
   <time name="diis">    3.37    3.39</time>
   <time name="orth">    0.29    0.29</time>
   <time name="total">    5.16    5.19</time>
   <dipole>
    <v name="dipole">      0.00000000       0.00000000       0.00532124 </v>
    <i name="Tr[quadrupol]"> -10315.46367154 </i>
    <i name="Echarged">      0.00000000 </i>
    <i name="Edipol_quadrupol">      0.00000000 </i>
    <i name="Eion">      0.00000000 </i>
   </dipole>
   <energy>
    <i name="e_fr_energy">   -189.28015655 </i>
    <i name="e_wo_entrp">   -188.99332105 </i>
    <i name="e_0_energy">   -189.13673880 </i>
   </energy>
  </scstep>
  <scstep>
   <time name="diag">    1.22    1.22</time>
   <time name="diis">    3.48    3.48</time>
   <time name="orth">    0.29    0.29</time>
   <time name="total">    5.27    5.28</time>
   <dipole>
    <v name="dipole">      0.00000000       0.00000000       0.00550872 </v>
    <i name="Tr[quadrupol]"> -10315.46576859 </i>
    <i name="Echarged">      0.00000000 </i>
    <i name="Edipol_quadrupol">      0.00000000 </i>
    <i name="Eion">      0.00000000 </i>
   </dipole>
   <energy>
    <i name="e_fr_energy">   -189.28013598 </i>
    <i name="e_wo_entrp">   -188.99328385 </i>
    <i name="e_0_energy">   -189.13670991 </i>
   </energy>
  </scstep>
  <scstep>
   <time name="diag">    1.21    1.22</time>
   <time name="diis">    3.46    3.47</time>
   <time name="orth">    0.29    0.29</time>
   <time name="total">    5.25    5.27</time>
   <dipole>
    <v name="dipole">      0.00000000       0.00000000       0.00542535 </v>
    <i name="Tr[quadrupol]"> -10315.46775172 </i>
    <i name="Echarged">      0.00000000 </i>
    <i name="Edipol_quadrupol">      0.00000000 </i>
    <i name="Eion">      0.00000000 </i>
   </dipole>
   <energy>
    <i name="e_fr_energy">   -189.28012926 </i>
    <i name="e_wo_entrp">   -188.99317928 </i>
    <i name="e_0_energy">   -189.13665427 </i>
   </energy>
  </scstep>
  <scstep>
   <time name="diag">    1.21    1.22</time>
   <time name="diis">    2.93    2.94</time>
   <time name="orth">    0.29    0.29</time>
   <time name="total">    4.72    4.74</time>
   <dipole>
    <v name="dipole">      0.00000000       0.00000000       0.00537435 </v>
    <i name="Tr[quadrupol]"> -10315.46921524 </i>
    <i name="Echarged">      0.00000000 </i>
    <i name="Edipol_quadrupol">      0.00000000 </i>
    <i name="Eion">      0.00000000 </i>
   </dipole>
   <energy>
    <i name="e_fr_energy">   -189.28012779 </i>
    <i name="e_wo_entrp">   -188.99320327 </i>
    <i name="e_0_energy">   -189.13666553 </i>
   </energy>
  </scstep>
  <scstep>
   <time name="diag">    1.21    1.21</time>
   <time name="diis">    2.19    2.20</time>
   <time name="orth">    0.29    0.29</time>
   <time name="total">    3.74    3.75</time>
   <dipole>
    <v name="dipole">      0.00000000       0.00000000       0.00542773 </v>
    <i name="Tr[quadrupol]"> -10315.47082257 </i>
    <i name="Echarged">      0.00000000 </i>
    <i name="Edipol_quadrupol">      0.00000000 </i>
    <i name="Eion">      0.00000000 </i>
   </dipole>
   <energy>
    <i name="alphaZ">    805.86607630 </i>
    <i name="ewald"> 198562.21508712 </i>
    <i name="hartreedc">-240752.08348903 </i>
    <i name="XCdc">   -344.70994300 </i>
    <i name="pawpsdc">  49118.07155628 </i>
    <i name="pawaedc"> -47195.48407443 </i>
    <i name="eentropy">     -0.28693322 </i>
    <i name="bandstr">  -2042.65427977 </i>
    <i name="atom">  41659.78587232 </i>
    <i name="e_fr_energy">   -189.28012741 </i>
    <i name="e_wo_entrp">   -188.99319420 </i>
    <i name="e_0_energy">   -189.13666081 </i>
   </energy>
  </scstep>
  <structure>
   <crystal>
    <varray name="basis" >
     <v>      11.00258152       0.00000000       0.00000000 </v>
     <v>       5.50129076       9.52851510       0.00000000 </v>
     <v>       0.00000000       0.00000000      24.49178509 </v>
    </varray>
    <i name="volume">   2567.67623402 </i>
    <varray name="rec_basis" >
     <v>       0.09088776      -0.05247407       0.00000000 </v>
     <v>       0.00000000       0.10494815       0.00000000 </v>
     <v>       0.00000000       0.00000000       0.04083002 </v>
    </varray>
   </crystal>
   <varray name="positions" >
    <v>       0.25026776       0.75118178       0.59362139 </v>
    <v>       0.91656117       0.41667210       0.49996628 </v>
    <v>       0.33333333       0.08333333       0.40830017 </v>
    <v>       0.08333333       0.58333333       0.40830017 </v>
    <v>       0.00029216       0.00110059       0.59356669 </v>
    <v>       0.83333333       0.83333333       0.40830017 </v>
    <v>       0.75062929       0.24896786       0.59391959 </v>
    <v>       0.91653022       0.91676868       0.49996886 </v>
    <v>      -0.00195537       0.74977146       0.59389922 </v>
    <v>       0.75127040       0.50053182       0.59390921 </v>
    <v>       0.33333333       0.33333333       0.40830017 </v>
    <v>       0.66722691       0.41797126       0.49921564 </v>
    <v>       0.08333333       0.33333333       0.40830017 </v>
    <v>       0.16568637       0.41608892       0.50046625 </v>
    <v>       0.25032489       0.24864141       0.59350233 </v>
    <v>       0.33333333       0.58333333       0.40830017 </v>
    <v>       0.16620188       0.66851899       0.49956699 </v>
    <v>       0.24995563       0.49916590       0.59427128 </v>
    <v>       0.66589385       0.16489402       0.50042103 </v>
    <v>       0.83333333       0.08333333       0.40830017 </v>
    <v>       0.49993844       0.75163222       0.59321457 </v>
    <v>       0.58333333       0.33333333       0.40830017 </v>
    <v>       0.41724364       0.41571512       0.50034417 </v>
    <v>       0.49982554       0.49981710       0.59399586 </v>
    <v>       0.16753484       0.91757250       0.49952971 </v>
    <v>       0.33333333       0.83333333       0.40830017 </v>
    <v>       0.25014075       0.00039534       0.59233634 </v>
    <v>       0.16704648       0.16455629       0.50027163 </v>
    <v>       0.91862093       0.16635031       0.49980883 </v>
    <v>      -0.00068176       0.50037136       0.59292626 </v>
    <v>       0.91464103       0.66703231       0.50017922 </v>
    <v>       0.00069838       0.24953356       0.59269130 </v>
    <v>       0.66558830       0.91614284       0.50024587 </v>
    <v>       0.08333333       0.83333333       0.40830017 </v>
    <v>       0.58333333       0.08333333       0.40830017 </v>
    <v>       0.41681672       0.66856124       0.49942451 </v>
    <v>       0.50049592      -0.00026847       0.59223599 </v>
    <v>       0.50017576       0.24902393       0.59288084 </v>
    <v>       0.08333333       0.08333333       0.40830017 </v>
    <v>       0.41673511       0.91663547       0.49994277 </v>
    <v>       0.83333333       0.58333333       0.40830017 </v>
    <v>       0.66601695       0.66854729       0.49945828 </v>
    <v>       0.74877818      -0.00027580       0.59278299 </v>
    <v>       0.83333333       0.33333333       0.40830017 </v>
    <v>       0.58333333       0.83333333       0.40830017 </v>
    <v>       0.58333333       0.58333333       0.40830017 </v>
    <v>       0.41781761       0.16449452       0.50031776 </v>
    <v>       0.74987756       0.75056719       0.59237551 </v>
   </varray>
  </structure>
  <varray name="forces" >
   <v>       0.06426693       0.16566413       0.95263051 </v>
   <v>      -0.07433716       0.02404100       0.25336833 </v>
   <v>      -0.00168011      -0.40521711      -1.07103581 </v>
   <v>      -0.31584496       0.28425525      -1.54683020 </v>
   <v>       0.10766982       0.09006636       0.96161579 </v>
   <v>      -0.42566351      -0.09598148      -1.31430524 </v>
   <v>       0.01888210      -0.08556672       1.04159808 </v>
   <v>       0.03977144       0.00701004       0.38531313 </v>
   <v>      -0.29139916      -0.01623642       1.11902772 </v>
   <v>       0.20976899       0.08440062       1.11225180 </v>
   <v>       0.08555499      -0.37128840      -1.52699059 </v>
   <v>       0.19276186       0.17800024       0.19590806 </v>
   <v>      -0.49077552      -0.18513074      -1.56769698 </v>
   <v>      -0.12970323      -0.09654811       0.56576704 </v>
   <v>      -0.06700799      -0.23072111       1.00060689 </v>
   <v>       0.41123912       0.45112204      -1.55410631 </v>
   <v>       0.07415144       0.24005838       0.35850634 </v>
   <v>      -0.11168360      -0.05949166       1.28382464 </v>
   <v>      -0.14361594      -0.22021436       0.44571419 </v>
   <v>       0.40089786       0.10863381      -1.50008380 </v>
   <v>       0.17971496       0.21021451       0.82166641 </v>
   <v>       0.22947032      -0.03228183      -1.76301313 </v>
   <v>      -0.01351213      -0.03706423       0.55728108 </v>
   <v>       0.06184737      -0.01795641       1.08837532 </v>
   <v>       0.21739869       0.12041229       0.01395605 </v>
   <v>       0.04817022       0.04168552      -0.49611182 </v>
   <v>       0.09471642       0.05982563       0.42093105 </v>
   <v>      -0.05244520      -0.34127637       0.27647830 </v>
   <v>       0.22666789      -0.05188339       0.16974971 </v>
   <v>      -0.07601550       0.01637679       0.71020657 </v>
   <v>      -0.30734942       0.08496425       0.26260265 </v>
   <v>       0.10064969      -0.02139579       0.57938877 </v>
   <v>      -0.27089640      -0.14664308       0.18182997 </v>
   <v>       0.34934822       0.21612324      -0.91124830 </v>
   <v>      -0.16460604      -0.24844795      -0.72128407 </v>
   <v>       0.22093542       0.29126044       0.09001331 </v>
   <v>       0.07675525      -0.04406026       0.40330182 </v>
   <v>      -0.07347951      -0.15059521       0.72086651 </v>
   <v>      -0.06924391      -0.11249468      -0.59083599 </v>
   <v>       0.00401040      -0.03326696       0.08110148 </v>
   <v>      -0.27446244       0.10241114      -0.74158187 </v>
   <v>       0.00229499       0.31459206      -0.02272680 </v>
   <v>      -0.24734472      -0.07705975       0.64500176 </v>
   <v>       0.11775130       0.02049139      -0.92022900 </v>
   <v>      -0.06538472      -0.07590852      -0.44547062 </v>
   <v>       0.27700274       0.28337710      -0.76064812 </v>
   <v>      -0.12682753      -0.33911315       0.29931122 </v>
   <v>      -0.01841971       0.10085746       0.45600416 </v>
  </varray>
  <energy>
   <i name="e_fr_energy">   -189.28012741 </i>
   <i name="e_wo_entrp">   -189.13666081 </i>
   <i name="e_0_energy">     -0.28693322 </i>
  </energy>
  <time name="totalsc">   81.00   81.43</time>
 </calculation>
 <calculation>
  <scstep>
   <time name="dav">    7.12    7.13</time>
   <time name="total">    7.40    7.43</time>
   <dipole>
    <v name="dipole">      0.00000000       0.00000000       0.00531922 </v>
    <i name="Tr[quadrupol]"> -10282.99088774 </i>
    <i name="Echarged">      0.00000000 </i>
    <i name="Edipol_quadrupol">      0.00000000 </i>
    <i name="Eion">      0.00000000 </i>
   </dipole>
   <energy>
    <i name="alphaZ">    805.85982747 </i>
    <i name="ewald"> 194943.52078806 </i>
    <i name="hartreedc">-237152.70784994 </i>
    <i name="XCdc">   -347.20417164 </i>
    <i name="pawpsdc">  49117.97029967 </i>
    <i name="pawaedc"> -47195.38248750 </i>
    <i name="eentropy">     -0.29022440 </i>
    <i name="bandstr">  -2020.06197173 </i>
    <i name="atom">  41659.78587232 </i>
    <i name="e_fr_energy">   -188.50991769 </i>
    <i name="e_wo_entrp">   -188.21969329 </i>
    <i name="e_0_energy">   -188.36480549 </i>
   </energy>
  </scstep>
  <scstep>
   <time name="diag">    1.21    1.28</time>
   <time name="diis">    3.40    3.41</time>
   <time name="orth">    0.29    0.29</time>
   <time name="total">    5.18    5.27</time>
   <dipole>
    <v name="dipole">      0.00000000       0.00000000       0.08913210 </v>
    <i name="Tr[quadrupol]"> -10282.47207059 </i>
    <i name="Echarged">      0.00000000 </i>
    <i name="Edipol_quadrupol">      0.00000000 </i>
    <i name="Eion">      0.00000000 </i>
   </dipole>
   <energy>
    <i name="e_fr_energy">   -190.32190144 </i>
    <i name="e_wo_entrp">   -190.04213312 </i>
    <i name="e_0_energy">   -190.18201728 </i>
   </energy>
  </scstep>
  <scstep>
   <time name="diag">    1.22    1.22</time>
   <time name="diis">    3.47    3.48</time>
   <time name="orth">    0.29    0.29</time>
   <time name="total">    5.27    5.28</time>
   <dipole>
    <v name="dipole">      0.00000000       0.00000000      -0.09741359 </v>
    <i name="Tr[quadrupol]"> -10283.12546144 </i>
    <i name="Echarged">      0.00000000 </i>
    <i name="Edipol_quadrupol">      0.00000000 </i>
    <i name="Eion">      0.00000000 </i>
   </dipole>
   <energy>
    <i name="e_fr_energy">   -190.67076103 </i>
    <i name="e_wo_entrp">   -190.40405804 </i>
    <i name="e_0_energy">   -190.53740954 </i>
   </energy>
  </scstep>
  <scstep>
   <time name="diag">    1.22    1.22</time>
   <time name="diis">    3.44    3.45</time>
   <time name="orth">    0.29    0.29</time>
   <time name="total">    5.23    5.25</time>
   <dipole>
    <v name="dipole">      0.00000000       0.00000000       0.07655335 </v>
    <i name="Tr[quadrupol]"> -10283.04324744 </i>
    <i name="Echarged">      0.00000000 </i>
    <i name="Edipol_quadrupol">      0.00000000 </i>
    <i name="Eion">      0.00000000 </i>
   </dipole>
   <energy>
    <i name="e_fr_energy">   -190.24343026 </i>
    <i name="e_wo_entrp">   -189.95766111 </i>
    <i name="e_0_energy">   -190.10054568 </i>
   </energy>
  </scstep>
  <scstep>
   <time name="diag">    1.21    1.22</time>
   <time name="diis">    3.43    3.44</time>
   <time name="orth">    0.29    0.29</time>
   <time name="total">    5.22    5.24</time>
   <dipole>
    <v name="dipole">      0.00000000       0.00000000      -0.04477418 </v>
    <i name="Tr[quadrupol]"> -10282.97640479 </i>
    <i name="Echarged">      0.00000000 </i>
    <i name="Edipol_quadrupol">      0.00000000 </i>
    <i name="Eion">      0.00000000 </i>
   </dipole>
   <energy>
    <i name="e_fr_energy">   -190.16837548 </i>
    <i name="e_wo_entrp">   -189.88990493 </i>
    <i name="e_0_energy">   -190.02914020 </i>
   </energy>
  </scstep>
  <scstep>
   <time name="diag">    1.22    1.22</time>
   <time name="diis">    3.37    3.38</time>
   <time name="orth">    0.29    0.29</time>
   <time name="total">    5.16    5.18</time>
   <dipole>
    <v name="dipole">      0.00000000       0.00000000       0.10745845 </v>
    <i name="Tr[quadrupol]"> -10283.06128986 </i>
    <i name="Echarged">      0.00000000 </i>
    <i name="Edipol_quadrupol">      0.00000000 </i>
    <i name="Eion">      0.00000000 </i>
   </dipole>
   <energy>
    <i name="e_fr_energy">   -190.22633382 </i>
    <i name="e_wo_entrp">   -189.93210099 </i>
    <i name="e_0_energy">   -190.07921741 </i>
   </energy>
  </scstep>
  <scstep>
   <time name="diag">    1.22    1.22</time>
   <time name="diis">    3.38    3.42</time>
   <time name="orth">    0.29    0.29</time>
   <time name="total">    5.17    5.22</time>
   <dipole>
    <v name="dipole">      0.00000000       0.00000000       0.03575118 </v>
    <i name="Tr[quadrupol]"> -10283.01299757 </i>
    <i name="Echarged">      0.00000000 </i>
    <i name="Edipol_quadrupol">      0.00000000 </i>
    <i name="Eion">      0.00000000 </i>
   </dipole>
   <energy>
[...]
       <r>    -9.3893     0.0000     0.0000 </r>
       <r>    -9.3352     0.0000     0.0000 </r>
       <r>    -9.2811     0.0000     0.0000 </r>
       <r>    -9.2270     0.0000     0.0000 </r>
       <r>    -9.1728     0.0001     0.0000 </r>
       <r>    -9.1187     0.0033     0.0002 </r>
       <r>    -9.0646     0.0438     0.0026 </r>
       <r>    -9.0105     0.3315     0.0205 </r>
       <r>    -8.9564     1.4507     0.0990 </r>
       <r>    -8.9022     3.7175     0.3002 </r>
       <r>    -8.8481     5.7838     0.6132 </r>
       <r>    -8.7940     6.1754     0.9474 </r>
       <r>    -8.7399     5.9274     1.2682 </r>
       <r>    -8.6858     5.7869     1.5814 </r>
       <r>    -8.6317     4.5317     1.8266 </r>
       <r>    -8.5775     2.3263     1.9525 </r>
       <r>    -8.5234     0.7275     1.9919 </r>
       <r>    -8.4693     0.1387     1.9994 </r>
       <r>    -8.4152     0.0590     2.0026 </r>
       <r>    -8.3611     0.2995     2.0188 </r>
       <r>    -8.3069     1.1849     2.0829 </r>
       <r>    -8.2528     2.8413     2.2367 </r>
       <r>    -8.1987     4.3100     2.4699 </r>
       <r>    -8.1446     4.5442     2.7158 </r>
       <r>    -8.0905     4.1320     2.9395 </r>
       <r>    -8.0364     4.6047     3.1887 </r>
       <r>    -7.9822     6.1817     3.5232 </r>
       <r>    -7.9281     7.7356     3.9418 </r>
       <r>    -7.8740     9.4127     4.4512 </r>
       <r>    -7.8199    10.7565     5.0334 </r>
       <r>    -7.7658     9.3788     5.5409 </r>
       <r>    -7.7117     5.9245     5.8615 </r>
       <r>    -7.6575     4.1032     6.0836 </r>
       <r>    -7.6034     6.2902     6.4240 </r>
       <r>    -7.5493    11.2312     7.0318 </r>
       <r>    -7.4952    14.7561     7.8304 </r>
       <r>    -7.4411    14.3455     8.6067 </r>
       <r>    -7.3869    11.5974     9.2344 </r>
       <r>    -7.3328     9.1216     9.7280 </r>
       <r>    -7.2787     8.1869    10.1711 </r>
       <r>    -7.2246     8.9050    10.6530 </r>
       <r>    -7.1705    10.9295    11.2445 </r>
       <r>    -7.1164    14.7368    12.0420 </r>
       <r>    -7.0622    20.3687    13.1443 </r>
       <r>    -7.0081    26.0910    14.5563 </r>
       <r>    -6.9540    31.2443    16.2472 </r>
       <r>    -6.8999    36.7651    18.2368 </r>
       <r>    -6.8458    42.8598    20.5563 </r>
       <r>    -6.7916    48.2438    23.1672 </r>
       <r>    -6.7375    50.9647    25.9253 </r>
       <r>    -6.6834    50.4459    28.6553 </r>
       <r>    -6.6293    48.6887    31.2903 </r>
       <r>    -6.5752    48.5988    33.9204 </r>
       <r>    -6.5211    50.9801    36.6793 </r>
       <r>    -6.4669    54.7783    39.6438 </r>
       <r>    -6.4128    59.1364    42.8441 </r>
       <r>    -6.3587    62.3640    46.2192 </r>
       <r>    -6.3046    62.2314    49.5870 </r>
       <r>    -6.2505    59.5736    52.8110 </r>
       <r>    -6.1963    57.6820    55.9327 </r>
       <r>    -6.1422    59.9729    59.1783 </r>
       <r>    -6.0881    66.0371    62.7521 </r>
       <r>    -6.0340    70.8205    66.5847 </r>
       <r>    -5.9799    71.0596    70.4303 </r>
       <r>    -5.9258    69.0009    74.1645 </r>
       <r>    -5.8716    68.9243    77.8946 </r>
       <r>    -5.8175    70.7536    81.7236 </r>
       <r>    -5.7634    71.0157    85.5669 </r>
       <r>    -5.7093    69.0475    89.3036 </r>
       <r>    -5.6552    67.3051    92.9460 </r>
       <r>    -5.6010    67.1612    96.5806 </r>
       <r>    -5.5469    68.3009   100.2770 </r>
       <r>    -5.4928    70.7042   104.1033 </r>
       <r>    -5.4387    73.8489   108.0999 </r>
       <r>    -5.3846    76.6151   112.2462 </r>
       <r>    -5.3305    78.9483   116.5187 </r>
       <r>    -5.2763    80.6981   120.8859 </r>
       <r>    -5.2222    82.1375   125.3310 </r>
       <r>    -5.1681    84.7800   129.9192 </r>
       <r>    -5.1140    87.9058   134.6765 </r>
       <r>    -5.0599    88.3263   139.4565 </r>
       <r>    -5.0057    85.6276   144.0905 </r>
       <r>    -4.9516    82.5750   148.5593 </r>
       <r>    -4.8975    80.8710   152.9359 </r>
       <r>    -4.8434    81.4182   157.3421 </r>
       <r>    -4.7893    84.7491   161.9285 </r>
       <r>    -4.7352    88.9017   166.7397 </r>
       <r>    -4.6810    90.7409   171.6505 </r>
       <r>    -4.6269    90.0383   176.5232 </r>
       <r>    -4.5728    89.5964   181.3719 </r>
       <r>    -4.5187    90.2796   186.2577 </r>
       <r>    -4.4646    91.2649   191.1968 </r>
       <r>    -4.4104    92.9393   196.2265 </r>
       <r>    -4.3563    94.0925   201.3186 </r>
       <r>    -4.3022    92.6160   206.3308 </r>
       <r>    -4.2481    90.2318   211.2139 </r>
       <r>    -4.1940    89.6206   216.0640 </r>
       <r>    -4.1399    90.3536   220.9538 </r>
       <r>    -4.0857    90.8964   225.8729 </r>
       <r>    -4.0316    91.1798   230.8074 </r>
       <r>    -3.9775    91.2607   235.7463 </r>
       <r>    -3.9234    90.2736   240.6317 </r>
       <r>    -3.8693    89.5680   245.4789 </r>
       <r>    -3.8151    91.3496   250.4226 </r>
       <r>    -3.7610    94.2905   255.5254 </r>
       <r>    -3.7069    96.3480   260.7396 </r>
       <r>    -3.6528    98.1922   266.0536 </r>
       <r>    -3.5987   100.7661   271.5068 </r>
       <r>    -3.5446   103.3084   277.0977 </r>
       <r>    -3.4904   104.7449   282.7663 </r>
       <r>    -3.4363   105.3709   288.4687 </r>
       <r>    -3.3822   105.8823   294.1989 </r>
       <r>    -3.3281   105.8368   299.9266 </r>
       <r>    -3.2740   104.8785   305.6024 </r>
       <r>    -3.2199   103.0935   311.1816 </r>
       <r>    -3.1657    99.8307   316.5843 </r>
       <r>    -3.1116    95.4036   321.7473 </r>
       <r>    -3.0575    92.3404   326.7446 </r>
       <r>    -3.0034    92.4926   331.7501 </r>
       <r>    -2.9493    94.3646   336.8570 </r>
       <r>    -2.8951    94.8722   341.9913 </r>
       <r>    -2.8410    93.2014   347.0351 </r>
       <r>    -2.7869    91.4833   351.9860 </r>
       <r>    -2.7328    91.8322   356.9558 </r>
       <r>    -2.6787    93.9119   362.0382 </r>
       <r>    -2.6246    95.7979   367.2225 </r>
       <r>    -2.5704    95.7692   372.4054 </r>
       <r>    -2.5163    93.3475   377.4572 </r>
       <r>    -2.4622    89.9760   382.3265 </r>
       <r>    -2.4081    87.9304   387.0851 </r>
       <r>    -2.3540    87.7369   391.8333 </r>
       <r>    -2.2998    88.6752   396.6322 </r>
       <r>    -2.2457    90.1022   401.5084 </r>
       <r>    -2.1916    90.8465   406.4248 </r>
       <r>    -2.1375    89.7654   411.2827 </r>
       <r>    -2.0834    87.8298   416.0359 </r>
       <r>    -2.0293    86.9982   420.7441 </r>
       <r>    -1.9751    86.3631   425.4179 </r>
       <r>    -1.9210    84.5872   429.9956 </r>
       <r>    -1.8669    83.8597   434.5339 </r>
       <r>    -1.8128    86.4741   439.2137 </r>
       <r>    -1.7587    90.2149   444.0960 </r>
       <r>    -1.7045    91.4428   449.0447 </r>
       <r>    -1.6504    90.7277   453.9547 </r>
       <r>    -1.5963    91.4582   458.9042 </r>
       <r>    -1.5422    94.6717   464.0277 </r>
       <r>    -1.4881    98.3483   469.3501 </r>
       <r>    -1.4340   100.8551   474.8082 </r>
       <r>    -1.3798   100.9268   480.2702 </r>
       <r>    -1.3257    97.0494   485.5223 </r>
       <r>    -1.2716    89.9687   490.3912 </r>
       <r>    -1.2175    82.3572   494.8482 </r>
       <r>    -1.1634    75.1830   498.9170 </r>
       <r>    -1.1092    66.7640   502.5301 </r>
       <r>    -1.0551    55.2981   505.5227 </r>
       <r>    -1.0010    40.5266   507.7160 </r>
       <r>    -0.9469    25.2521   509.0826 </r>
       <r>    -0.8928    14.0888   509.8450 </r>
       <r>    -0.8387     8.9497   510.3294 </r>
       <r>    -0.7845     8.1019   510.7678 </r>
       <r>    -0.7304     9.3064   511.2715 </r>
       <r>    -0.6763    12.1306   511.9279 </r>
       <r>    -0.6222    16.1509   512.8020 </r>
       <r>    -0.5681    19.4686   513.8556 </r>
       <r>    -0.5139    20.8785   514.9855 </r>
       <r>    -0.4598    20.5453   516.0974 </r>
       <r>    -0.4057    17.7162   517.0562 </r>
       <r>    -0.3516    12.6602   517.7413 </r>
       <r>    -0.2975    10.0060   518.2828 </r>
       <r>    -0.2434    13.3956   519.0078 </r>
       <r>    -0.1892    19.2027   520.0470 </r>
       <r>    -0.1351    21.1353   521.1908 </r>
       <r>    -0.0810    18.3554   522.1841 </r>
       <r>    -0.0269    15.2616   523.0101 </r>
       <r>     0.0272    14.5339   523.7966 </r>
       <r>     0.0814    15.4849   524.6346 </r>
       <r>     0.1355    17.5513   525.5845 </r>
       <r>     0.1896    18.9257   526.6087 </r>
       <r>     0.2437    17.9418   527.5797 </r>
       <r>     0.2978    16.9327   528.4960 </r>
       <r>     0.3519    17.6896   529.4534 </r>
       <r>     0.4061    18.9251   530.4775 </r>
       <r>     0.4602    19.8160   531.5499 </r>
       <r>     0.5143    20.6461   532.6673 </r>
       <r>     0.5684    21.6020   533.8363 </r>
       <r>     0.6225    21.7004   535.0107 </r>
       <r>     0.6767    19.9227   536.0889 </r>
       <r>     0.7308    17.9961   537.0628 </r>
       <r>     0.7849    16.3681   537.9486 </r>
       <r>     0.8390    12.6408   538.6327 </r>
       <r>     0.8931     8.4276   539.0888 </r>
       <r>     0.9472     7.4996   539.4947 </r>
       <r>     1.0014     9.4203   540.0045 </r>
       <r>     1.0555    11.6767   540.6364 </r>
       <r>     1.1096    13.0422   541.3422 </r>
       <r>     1.1637    13.3439   542.0644 </r>
       <r>     1.2178    12.5028   542.7410 </r>
       <r>     1.2719    10.1762   543.2917 </r>
       <r>     1.3261     7.2983   543.6867 </r>
       <r>     1.3802     5.9906   544.0109 </r>
       <r>     1.4343     6.7890   544.3783 </r>
       <r>     1.4884     9.2504   544.8789 </r>
       <r>     1.5425    12.6766   545.5649 </r>
       <r>     1.5967    14.7110   546.3611 </r>
       <r>     1.6508    14.5786   547.1500 </r>
       <r>     1.7049    15.8844   548.0097 </r>
       <r>     1.7590    20.3768   549.1124 </r>
       <r>     1.8131    23.1724   550.3665 </r>
       <r>     1.8672    19.5369   551.4238 </r>
       <r>     1.9214    13.3349   552.1454 </r>
       <r>     1.9755    10.9087   552.7358 </r>
       <r>     2.0296    12.1632   553.3940 </r>
       <r>     2.0837    13.9970   554.1515 </r>
       <r>     2.1378    14.7677   554.9507 </r>
       <r>     2.1920    15.3266   555.7802 </r>
       <r>     2.2461    17.1995   556.7110 </r>
       <r>     2.3002    19.3826   557.7599 </r>
       <r>     2.3543    19.9029   558.8370 </r>
       <r>     2.4084    18.3479   559.8300 </r>
       <r>     2.4625    15.8565   560.6881 </r>
       <r>     2.5167    14.5191   561.4738 </r>
       <r>     2.5708    16.7430   562.3799 </r>
       <r>     2.6249    22.0404   563.5727 </r>
       <r>     2.6790    25.9069   564.9748 </r>
       <r>     2.7331    25.6548   566.3631 </r>
       <r>     2.7873    21.9669   567.5519 </r>
       <r>     2.8414    16.4205   568.4406 </r>
       <r>     2.8955    11.4518   569.0603 </r>
       <r>     2.9496     8.4654   569.5185 </r>
       <r>     3.0037     6.7456   569.8835 </r>
       <r>     3.0578     5.9788   570.2071 </r>
       <r>     3.1120     6.9906   570.5854 </r>
       <r>     3.1661     9.6429   571.1073 </r>
       <r>     3.2202    12.1314   571.7638 </r>
       <r>     3.2743    12.5204   572.4414 </r>
       <r>     3.3284    10.5666   573.0132 </r>
       <r>     3.3826     7.9976   573.4460 </r>
       <r>     3.4367     7.1946   573.8354 </r>
       <r>     3.4908     9.7425   574.3626 </r>
       <r>     3.5449    14.5173   575.1483 </r>
       <r>     3.5990    18.1429   576.1301 </r>
       <r>     3.6531    18.9890   577.1578 </r>
       <r>     3.7073    18.3141   578.1489 </r>
       <r>     3.7614    17.1506   579.0771 </r>
       <r>     3.8155    15.9092   579.9381 </r>
       <r>     3.8696    14.7327   580.7354 </r>
       <r>     3.9237    12.9657   581.4370 </r>
       <r>     3.9779    11.6700   582.0686 </r>
       <r>     4.0320    11.6898   582.7012 </r>
       <r>     4.0861    11.8699   583.3436 </r>
       <r>     4.1402    11.9467   583.9901 </r>
       <r>     4.1943    11.4872   584.6118 </r>
       <r>     4.2484    10.1158   585.1592 </r>
       <r>     4.3026     9.0686   585.6500 </r>
       <r>     4.3567     9.6576   586.1727 </r>
       <r>     4.4108    12.1864   586.8322 </r>
       <r>     4.4649    14.8893   587.6380 </r>
       <r>     4.5190    17.3391   588.5763 </r>
       <r>     4.5732    21.6741   589.7493 </r>
       <r>     4.6273    26.2078   591.1676 </r>
       <r>     4.6814    26.9393   592.6255 </r>
       <r>     4.7355    24.6244   593.9581 </r>
       <r>     4.7896    23.0357   595.2048 </r>
       <r>     4.8437    23.9888   596.5030 </r>
       <r>     4.8979    26.9464   597.9613 </r>
       <r>     4.9520    30.1876   599.5950 </r>
       <r>     5.0061    32.7073   601.3650 </r>
       <r>     5.0602    34.5429   603.2344 </r>
       <r>     5.1143    34.9578   605.1263 </r>
       <r>     5.1685    33.6276   606.9461 </r>
       <r>     5.2226    30.9524   608.6212 </r>
       <r>     5.2767    25.9130   610.0236 </r>
       <r>     5.3308    18.5354   611.0267 </r>
       <r>     5.3849    10.9365   611.6185 </r>
       <r>     5.4390     5.0191   611.8902 </r>
       <r>     5.4932     1.6344   611.9786 </r>
       <r>     5.5473     0.3464   611.9974 </r>
       <r>     5.6014     0.0450   611.9998 </r>
       <r>     5.6555     0.0035   612.0000 </r>
       <r>     5.7096     0.0002   612.0000 </r>
       <r>     5.7637     0.0000   612.0000 </r>
       <r>     5.8179     0.0000   612.0000 </r>
       <r>     5.8720     0.0000   612.0000 </r>
       <r>     5.9261     0.0000   612.0000 </r>
       <r>     5.9802     0.0000   612.0000 </r>
       <r>     6.0343     0.0000   612.0000 </r>
       <r>     6.0885     0.0000   612.0000 </r>
       <r>     6.1426     0.0000   612.0000 </r>
       <r>     6.1967     0.0000   612.0000 </r>
       <r>     6.2508     0.0000   612.0000 </r>
       <r>     6.3049     0.0000   612.0000 </r>
       <r>     6.3590     0.0000   612.0000 </r>
      </set>
     </set>
    </array>
   </total>
  </dos>
 </calculation>
 <structure name="finalpos" >
  <crystal>
   <varray name="basis" >
    <v>      11.00258152       0.00000000       0.00000000 </v>
    <v>       5.50129076       9.52851510       0.00000000 </v>
    <v>       0.00000000       0.00000000      24.49178509 </v>
   </varray>
   <i name="volume">   2567.67623402 </i>
   <varray name="rec_basis" >
    <v>       0.09088776      -0.05247407       0.00000000 </v>
    <v>       0.00000000       0.10494815       0.00000000 </v>
    <v>       0.00000000       0.00000000       0.04083002 </v>
   </varray>
  </crystal>
  <varray name="positions" >
   <v>       0.24985456       0.75109206       0.61094177 </v>
   <v>       0.91466635       0.41819688       0.50766987 </v>
   <v>       0.33333333       0.08333333       0.40830017 </v>
   <v>       0.08333333       0.58333333       0.40830017 </v>
   <v>       0.00082576       0.00128018       0.60996211 </v>
   <v>       0.83333333       0.83333333       0.40830017 </v>
   <v>       0.75092924       0.24838116       0.61182904 </v>
   <v>       0.91682467       0.91651846       0.50944552 </v>
   <v>      -0.00391805       0.74919708       0.61394130 </v>
   <v>       0.75281742       0.50068084       0.61270728 </v>
   <v>       0.33333333       0.33333333       0.40830017 </v>
   <v>       0.66566266       0.42042697       0.50787969 </v>
   <v>       0.08333333       0.33333333       0.40830017 </v>
   <v>       0.16607781       0.41559689       0.51261750 </v>
   <v>       0.25137984       0.24538828       0.61123021 </v>
   <v>       0.33333333       0.58333333       0.40830017 </v>
   <v>       0.16577704       0.66930527       0.50991143 </v>
   <v>       0.24929628       0.49761380       0.62018186 </v>
   <v>       0.66459559       0.16511199       0.50972880 </v>
   <v>       0.83333333       0.08333333       0.40830017 </v>
   <v>       0.50083775       0.75241363       0.60667841 </v>
   <v>       0.58333333       0.33333333       0.40830017 </v>
   <v>       0.41547876       0.41812405       0.51347920 </v>
   <v>       0.50072030       0.49928650       0.61565597 </v>
   <v>       0.16712800       0.91808554       0.50568144 </v>
   <v>       0.33333333       0.83333333       0.40830017 </v>
   <v>       0.25126021      -0.00052344       0.60149688 </v>
   <v>       0.16746388       0.16340517       0.50732032 </v>
   <v>       0.91869265       0.16610551       0.50754910 </v>
   <v>      -0.00083215       0.49992073       0.60713538 </v>
   <v>       0.91356967       0.66788429       0.50807420 </v>
   <v>       0.00156167       0.24956895       0.60420744 </v>
   <v>       0.66478430       0.91504647       0.50561061 </v>
   <v>       0.08333333       0.83333333       0.40830017 </v>
   <v>       0.58333333       0.08333333       0.40830017 </v>
   <v>       0.41566648       0.67104087       0.50709332 </v>
   <v>       0.50205916      -0.00115151       0.60130645 </v>
   <v>       0.49991650       0.24767695       0.60785167 </v>
   <v>       0.08333333       0.08333333       0.40830017 </v>
   <v>       0.41651999       0.91575489       0.50508487 </v>
   <v>       0.83333333       0.58333333       0.40830017 </v>
   <v>       0.66406530       0.67088723       0.50522022 </v>
   <v>       0.74755772      -0.00133178       0.60540019 </v>
   <v>       0.83333333       0.33333333       0.40830017 </v>
   <v>       0.58333333       0.83333333       0.40830017 </v>
   <v>       0.58333333       0.58333333       0.40830017 </v>
   <v>       0.41613863       0.16361293       0.50818448 </v>
   <v>       0.74977102       0.75052488       0.60237446 </v>
  </varray>
  <varray name="selective"  type="logical" >
   <v type="logical" >  T  T  T </v>
   <v type="logical" >  T  T  T </v>
   <v type="logical" >  F  F  F </v>
   <v type="logical" >  F  F  F </v>
   <v type="logical" >  T  T  T </v>
   <v type="logical" >  F  F  F </v>
   <v type="logical" >  T  T  T </v>
   <v type="logical" >  T  T  T </v>
   <v type="logical" >  T  T  T </v>
   <v type="logical" >  T  T  T </v>
   <v type="logical" >  F  F  F </v>
   <v type="logical" >  T  T  T </v>
   <v type="logical" >  F  F  F </v>
   <v type="logical" >  T  T  T </v>
   <v type="logical" >  T  T  T </v>
   <v type="logical" >  F  F  F </v>
   <v type="logical" >  T  T  T </v>
   <v type="logical" >  T  T  T </v>
   <v type="logical" >  T  T  T </v>
   <v type="logical" >  F  F  F </v>
   <v type="logical" >  T  T  T </v>
   <v type="logical" >  F  F  F </v>
   <v type="logical" >  T  T  T </v>
   <v type="logical" >  T  T  T </v>
   <v type="logical" >  T  T  T </v>
   <v type="logical" >  F  F  F </v>
   <v type="logical" >  T  T  T </v>
   <v type="logical" >  T  T  T </v>
   <v type="logical" >  T  T  T </v>
   <v type="logical" >  T  T  T </v>
   <v type="logical" >  T  T  T </v>
   <v type="logical" >  T  T  T </v>
   <v type="logical" >  T  T  T </v>
   <v type="logical" >  F  F  F </v>
   <v type="logical" >  F  F  F </v>
   <v type="logical" >  T  T  T </v>
   <v type="logical" >  T  T  T </v>
   <v type="logical" >  T  T  T </v>
   <v type="logical" >  F  F  F </v>
   <v type="logical" >  T  T  T </v>
   <v type="logical" >  F  F  F </v>
   <v type="logical" >  T  T  T </v>
   <v type="logical" >  T  T  T </v>
   <v type="logical" >  F  F  F </v>
   <v type="logical" >  F  F  F </v>
   <v type="logical" >  F  F  F </v>
   <v type="logical" >  T  T  T </v>
   <v type="logical" >  T  T  T </v>
  </varray>
  <nose>
   <v>      -3.00000000       0.00000000       0.00010000       0.00010000 </v>
  </nose>
 </structure>
</modeling>
