  48  48   0   0
  0.5349325E+02  0.1100258E-08  0.1100258E-08  0.2449179E-08  0.3500000E-15
  1.000000000000000E-004
  CAR 
 unknown system                          
      6.41185456     -9.70156029  301     -1.08702754      1.00000000
     -9.702  0.0000E+00  0.0000E+00
     -9.648  0.0000E+00  0.0000E+00
     -9.594  0.0000E+00  0.0000E+00
     -9.540  0.0000E+00  0.0000E+00
     -9.487  0.0000E+00  0.0000E+00
     -9.433  0.0000E+00  0.0000E+00
     -9.379  0.0000E+00  0.0000E+00
     -9.326  0.0000E+00  0.0000E+00
     -9.272  0.1034E-16  0.5551E-18
     -9.218  0.4116E-14  0.2216E-15
     -9.164  0.8977E-12  0.4844E-13
     -9.111  0.1111E-09  0.6018E-11
     -9.057  0.7823E-08  0.4262E-09
     -9.003  0.3137E-06  0.1728E-07
     -8.950  0.7183E-05  0.4031E-06
     -8.896  0.9412E-04  0.5459E-05
     -8.842  0.7076E-03  0.4346E-04
     -8.788  0.3058E-02  0.2077E-03
     -8.735  0.7618E-02  0.6169E-03
     -8.681  0.1098E-01  0.1207E-02
     -8.627  0.9465E-02  0.1715E-02
     -8.574  0.6369E-02  0.2057E-02
     -8.520  0.7218E-02  0.2445E-02
     -8.466  0.1051E-01  0.3009E-02
     -8.412  0.1024E-01  0.3559E-02
     -8.359  0.5859E-02  0.3874E-02
     -8.305  0.1986E-02  0.3981E-02
     -8.251  0.7727E-03  0.4022E-02
     -8.198  0.2015E-02  0.4130E-02
     -8.144  0.5864E-02  0.4445E-02
     -8.090  0.1128E-01  0.5051E-02
     -8.037  0.1644E-01  0.5934E-02
     -7.983  0.2148E-01  0.7088E-02
     -7.929  0.2390E-01  0.8372E-02
     -7.875  0.1938E-01  0.9412E-02
     -7.822  0.1229E-01  0.1007E-01
     -7.768  0.9858E-02  0.1060E-01
     -7.714  0.1058E-01  0.1117E-01
     -7.661  0.9623E-02  0.1169E-01
     -7.607  0.8423E-02  0.1214E-01
     -7.553  0.1194E-01  0.1278E-01
     -7.499  0.1895E-01  0.1380E-01
     -7.446  0.2251E-01  0.1501E-01
     -7.392  0.2093E-01  0.1613E-01
     -7.338  0.1905E-01  0.1716E-01
     -7.285  0.2033E-01  0.1825E-01
     -7.231  0.2575E-01  0.1963E-01
     -7.177  0.3281E-01  0.2139E-01
     -7.123  0.3716E-01  0.2339E-01
     -7.070  0.4024E-01  0.2555E-01
     -7.016  0.4570E-01  0.2800E-01
     -6.962  0.5332E-01  0.3087E-01
     -6.909  0.6053E-01  0.3412E-01
     -6.855  0.6541E-01  0.3763E-01
     -6.801  0.6882E-01  0.4133E-01
     -6.747  0.7223E-01  0.4521E-01
     -6.694  0.7740E-01  0.4937E-01
     -6.640  0.8532E-01  0.5395E-01
     -6.586  0.9123E-01  0.5885E-01
     -6.533  0.9123E-01  0.6375E-01
     -6.479  0.9204E-01  0.6869E-01
     -6.425  0.1010E+00  0.7412E-01
     -6.371  0.1135E+00  0.8021E-01
     -6.318  0.1215E+00  0.8674E-01
     -6.264  0.1277E+00  0.9360E-01
     -6.210  0.1383E+00  0.1010E+00
     -6.157  0.1504E+00  0.1091E+00
     -6.103  0.1600E+00  0.1177E+00
     -6.049  0.1674E+00  0.1267E+00
     -5.995  0.1722E+00  0.1359E+00
     -5.942  0.1735E+00  0.1453E+00
     -5.888  0.1727E+00  0.1545E+00
     -5.834  0.1689E+00  0.1636E+00
     -5.781  0.1599E+00  0.1722E+00
     -5.727  0.1478E+00  0.1801E+00
     -5.673  0.1392E+00  0.1876E+00
     -5.619  0.1388E+00  0.1951E+00
     -5.566  0.1425E+00  0.2027E+00
     -5.512  0.1426E+00  0.2104E+00
     -5.458  0.1381E+00  0.2178E+00
     -5.405  0.1353E+00  0.2251E+00
     -5.351  0.1382E+00  0.2325E+00
     -5.297  0.1446E+00  0.2403E+00
     -5.244  0.1527E+00  0.2485E+00
     -5.190  0.1603E+00  0.2571E+00
     -5.136  0.1643E+00  0.2659E+00
     -5.082  0.1673E+00  0.2749E+00
     -5.029  0.1730E+00  0.2842E+00
     -4.975  0.1776E+00  0.2937E+00
     -4.921  0.1779E+00  0.3033E+00
     -4.868  0.1790E+00  0.3129E+00
     -4.814  0.1821E+00  0.3227E+00
     -4.760  0.1835E+00  0.3325E+00
     -4.706  0.1816E+00  0.3423E+00
     -4.653  0.1780E+00  0.3518E+00
     -4.599  0.1753E+00  0.3612E+00
     -4.545  0.1746E+00  0.3706E+00
     -4.492  0.1750E+00  0.3800E+00
     -4.438  0.1743E+00  0.3894E+00
     -4.384  0.1707E+00  0.3986E+00
     -4.330  0.1653E+00  0.4074E+00
     -4.277  0.1632E+00  0.4162E+00
     -4.223  0.1675E+00  0.4252E+00
     -4.169  0.1754E+00  0.4346E+00
     -4.116  0.1826E+00  0.4444E+00
     -4.062  0.1870E+00  0.4545E+00
     -4.008  0.1911E+00  0.4647E+00
     -3.954  0.1983E+00  0.4754E+00
     -3.901  0.2044E+00  0.4864E+00
     -3.847  0.2044E+00  0.4973E+00
     -3.793  0.2011E+00  0.5081E+00
     -3.740  0.1976E+00  0.5188E+00
     -3.686  0.1937E+00  0.5292E+00
     -3.632  0.1905E+00  0.5394E+00
     -3.578  0.1887E+00  0.5495E+00
     -3.525  0.1885E+00  0.5597E+00
     -3.471  0.1898E+00  0.5698E+00
     -3.417  0.1896E+00  0.5800E+00
     -3.364  0.1867E+00  0.5901E+00
     -3.310  0.1845E+00  0.6000E+00
     -3.256  0.1858E+00  0.6099E+00
     -3.202  0.1885E+00  0.6201E+00
     -3.149  0.1882E+00  0.6302E+00
     -3.095  0.1830E+00  0.6400E+00
     -3.041  0.1767E+00  0.6495E+00
     -2.988  0.1759E+00  0.6589E+00
     -2.934  0.1817E+00  0.6687E+00
     -2.880  0.1882E+00  0.6788E+00
     -2.827  0.1897E+00  0.6890E+00
     -2.773  0.1866E+00  0.6990E+00
     -2.719  0.1842E+00  0.7089E+00
     -2.665  0.1851E+00  0.7189E+00
     -2.612  0.1866E+00  0.7289E+00
     -2.558  0.1868E+00  0.7389E+00
     -2.504  0.1881E+00  0.7490E+00
     -2.451  0.1889E+00  0.7592E+00
     -2.397  0.1862E+00  0.7692E+00
     -2.343  0.1813E+00  0.7789E+00
     -2.289  0.1772E+00  0.7884E+00
     -2.236  0.1756E+00  0.7978E+00
     -2.182  0.1772E+00  0.8074E+00
     -2.128  0.1810E+00  0.8171E+00
     -2.075  0.1853E+00  0.8270E+00
     -2.021  0.1889E+00  0.8372E+00
     -1.967  0.1910E+00  0.8474E+00
     -1.913  0.1923E+00  0.8578E+00
     -1.860  0.1945E+00  0.8682E+00
     -1.806  0.1982E+00  0.8789E+00
     -1.752  0.2032E+00  0.8898E+00
     -1.699  0.2080E+00  0.9009E+00
     -1.645  0.2103E+00  0.9122E+00
     -1.591  0.2053E+00  0.9233E+00
     -1.537  0.1943E+00  0.9337E+00
     -1.484  0.1872E+00  0.9438E+00
     -1.430  0.1881E+00  0.9539E+00
     -1.376  0.1913E+00  0.9641E+00
     -1.323  0.1913E+00  0.9744E+00
     -1.269  0.1839E+00  0.9843E+00
     -1.215  0.1651E+00  0.9932E+00
     -1.161  0.1358E+00  0.1000E+01
     -1.108  0.1059E+00  0.1006E+01
     -1.054  0.8453E-01  0.1011E+01
     -1.000  0.6896E-01  0.1014E+01
     -0.947  0.5170E-01  0.1017E+01
     -0.893  0.3345E-01  0.1019E+01
     -0.839  0.2092E-01  0.1020E+01
     -0.785  0.1744E-01  0.1021E+01
     -0.732  0.1927E-01  0.1022E+01
     -0.678  0.2011E-01  0.1023E+01
     -0.624  0.1917E-01  0.1024E+01
     -0.571  0.2201E-01  0.1025E+01
     -0.517  0.3122E-01  0.1027E+01
     -0.463  0.4207E-01  0.1029E+01
     -0.409  0.4815E-01  0.1032E+01
     -0.356  0.4815E-01  0.1034E+01
     -0.302  0.4715E-01  0.1037E+01
     -0.248  0.4722E-01  0.1040E+01
     -0.195  0.4227E-01  0.1042E+01
     -0.141  0.3084E-01  0.1043E+01
     -0.087  0.2171E-01  0.1045E+01
     -0.034  0.2017E-01  0.1046E+01
      0.020  0.2329E-01  0.1047E+01
      0.074  0.2771E-01  0.1048E+01
      0.128  0.3182E-01  0.1050E+01
      0.181  0.3406E-01  0.1052E+01
      0.235  0.3279E-01  0.1054E+01
      0.289  0.3012E-01  0.1055E+01
      0.342  0.3137E-01  0.1057E+01
      0.396  0.3679E-01  0.1059E+01
      0.450  0.4139E-01  0.1061E+01
      0.504  0.4196E-01  0.1063E+01
      0.557  0.3970E-01  0.1066E+01
      0.611  0.3876E-01  0.1068E+01
      0.665  0.4219E-01  0.1070E+01
      0.718  0.4692E-01  0.1072E+01
      0.772  0.4725E-01  0.1075E+01
      0.826  0.4164E-01  0.1077E+01
      0.880  0.3252E-01  0.1079E+01
      0.933  0.2339E-01  0.1080E+01
      0.987  0.1662E-01  0.1081E+01
      1.041  0.1250E-01  0.1082E+01
      1.094  0.1197E-01  0.1082E+01
      1.148  0.1464E-01  0.1083E+01
      1.202  0.1664E-01  0.1084E+01
      1.256  0.1649E-01  0.1085E+01
      1.309  0.1621E-01  0.1086E+01
      1.363  0.1753E-01  0.1087E+01
      1.417  0.2111E-01  0.1088E+01
      1.470  0.2715E-01  0.1089E+01
      1.524  0.3278E-01  0.1091E+01
      1.578  0.3272E-01  0.1093E+01
      1.632  0.2865E-01  0.1095E+01
      1.685  0.2785E-01  0.1096E+01
      1.739  0.3220E-01  0.1098E+01
      1.793  0.3710E-01  0.1100E+01
      1.846  0.3614E-01  0.1102E+01
      1.900  0.2714E-01  0.1103E+01
      1.954  0.1726E-01  0.1104E+01
      2.008  0.1372E-01  0.1105E+01
      2.061  0.1384E-01  0.1106E+01
      2.115  0.1433E-01  0.1106E+01
      2.169  0.1909E-01  0.1107E+01
      2.222  0.3059E-01  0.1109E+01
      2.276  0.4450E-01  0.1111E+01
      2.330  0.5502E-01  0.1114E+01
      2.384  0.5838E-01  0.1117E+01
      2.437  0.5381E-01  0.1120E+01
      2.491  0.4623E-01  0.1123E+01
      2.545  0.4202E-01  0.1125E+01
      2.598  0.4354E-01  0.1127E+01
      2.652  0.4811E-01  0.1130E+01
      2.706  0.4913E-01  0.1133E+01
      2.759  0.4240E-01  0.1135E+01
      2.813  0.3053E-01  0.1137E+01
      2.867  0.1929E-01  0.1138E+01
      2.921  0.1351E-01  0.1138E+01
      2.974  0.1284E-01  0.1139E+01
      3.028  0.1217E-01  0.1140E+01
      3.082  0.1132E-01  0.1140E+01
      3.135  0.1482E-01  0.1141E+01
      3.189  0.2177E-01  0.1142E+01
      3.243  0.2640E-01  0.1144E+01
      3.297  0.2530E-01  0.1145E+01
      3.350  0.2072E-01  0.1146E+01
      3.404  0.1704E-01  0.1147E+01
      3.458  0.1608E-01  0.1148E+01
      3.511  0.1775E-01  0.1149E+01
      3.565  0.2224E-01  0.1150E+01
      3.619  0.2893E-01  0.1152E+01
      3.673  0.3561E-01  0.1154E+01
      3.726  0.3994E-01  0.1156E+01
      3.780  0.4014E-01  0.1158E+01
      3.834  0.3486E-01  0.1160E+01
      3.887  0.2613E-01  0.1161E+01
      3.941  0.2077E-01  0.1162E+01
      3.995  0.2410E-01  0.1164E+01
      4.049  0.3052E-01  0.1165E+01
      4.102  0.3030E-01  0.1167E+01
      4.156  0.2574E-01  0.1168E+01
      4.210  0.2425E-01  0.1169E+01
      4.263  0.2335E-01  0.1171E+01
      4.317  0.1929E-01  0.1172E+01
      4.371  0.1868E-01  0.1173E+01
      4.425  0.2658E-01  0.1174E+01
      4.478  0.3696E-01  0.1176E+01
      4.532  0.4398E-01  0.1179E+01
      4.586  0.4928E-01  0.1181E+01
      4.639  0.5337E-01  0.1184E+01
      4.693  0.5187E-01  0.1187E+01
      4.747  0.4495E-01  0.1189E+01
      4.801  0.4058E-01  0.1191E+01
      4.854  0.4251E-01  0.1194E+01
      4.908  0.4677E-01  0.1196E+01
      4.962  0.5275E-01  0.1199E+01
      5.015  0.6296E-01  0.1202E+01
      5.069  0.7233E-01  0.1206E+01
      5.123  0.7160E-01  0.1210E+01
      5.176  0.6336E-01  0.1214E+01
      5.230  0.5737E-01  0.1217E+01
      5.284  0.5166E-01  0.1219E+01
      5.338  0.3967E-01  0.1222E+01
      5.391  0.2487E-01  0.1223E+01
      5.445  0.1310E-01  0.1224E+01
      5.499  0.5553E-02  0.1224E+01
      5.552  0.1687E-02  0.1224E+01
      5.606  0.3340E-03  0.1224E+01
      5.660  0.4076E-04  0.1224E+01
      5.714  0.2975E-05  0.1224E+01
      5.767  0.1274E-06  0.1224E+01
      5.821  0.3167E-08  0.1224E+01
      5.875  0.4525E-10  0.1224E+01
      5.928  0.3698E-12  0.1224E+01
      5.982  0.1721E-14  0.1224E+01
      6.036  0.5512E-17  0.1224E+01
      6.090  0.0000E+00  0.1224E+01
      6.143  0.0000E+00  0.1224E+01
      6.197  0.0000E+00  0.1224E+01
      6.251  0.0000E+00  0.1224E+01
      6.304  0.0000E+00  0.1224E+01
      6.358  0.0000E+00  0.1224E+01
      6.412  0.0000E+00  0.1224E+01
