unknown system                          
           1
    11.002582    0.000000    0.000000
     5.501291    9.528515    0.000000
     0.000000    0.000000   24.491785
   Au   Pd
  24  24
Direct configuration=     1
   0.25000000  0.75000000  0.59169983
   0.41666667  0.91666667  0.50000000
   0.41666667  0.41666667  0.50000000
   0.58333333  0.33333333  0.40830017
   0.58333333  0.08333333  0.40830017
   0.66666667  0.91666667  0.50000000
   0.33333333  0.83333333  0.40830017
   0.83333333  0.33333333  0.40830017
   0.33333333  0.58333333  0.40830017
   0.75000000  0.25000000  0.59169983
   0.58333333  0.83333333  0.40830017
   0.16666667  0.16666667  0.50000000
   0.33333333  0.33333333  0.40830017
   0.00000000  0.75000000  0.59169983
   0.91666667  0.16666667  0.50000000
   0.91666667  0.91666667  0.50000000
   0.08333333  0.83333333  0.40830017
   0.00000000  0.00000000  0.59169983
   0.00000000  0.50000000  0.59169983
   0.75000000  0.50000000  0.59169983
   0.08333333  0.33333333  0.40830017
   0.08333333  0.58333333  0.40830017
   0.83333333  0.83333333  0.40830017
   0.91666667  0.41666667  0.50000000
   0.50000000  0.75000000  0.59169983
   0.66666667  0.16666667  0.50000000
   0.66666667  0.66666667  0.50000000
   0.75000000  0.00000000  0.59169983
   0.66666667  0.41666667  0.50000000
   0.83333333  0.58333333  0.40830017
   0.83333333  0.08333333  0.40830017
   0.50000000  0.50000000  0.59169983
   0.08333333  0.08333333  0.40830017
   0.58333333  0.58333333  0.40830017
   0.50000000  0.25000000  0.59169983
   0.50000000  0.00000000  0.59169983
   0.41666667  0.16666667  0.50000000
   0.16666667  0.91666667  0.50000000
   0.25000000  0.50000000  0.59169983
   0.16666667  0.66666667  0.50000000
   0.25000000  0.25000000  0.59169983
   0.16666667  0.41666667  0.50000000
   0.25000000  0.00000000  0.59169983
   0.33333333  0.08333333  0.40830017
   0.91666667  0.66666667  0.50000000
   0.00000000  0.25000000  0.59169983
   0.41666667  0.66666667  0.50000000
   0.75000000  0.75000000  0.59169983
Direct configuration=     2
   0.25147057  0.74935745  0.59324367
   0.41627831  0.91656998  0.50075162
   0.41663270  0.41669023  0.50115257
   0.58460328  0.33307229  0.40641388
   0.58303628  0.08390999  0.40634553
   0.66649329  0.91672576  0.50121184
   0.33312965  0.83366312  0.40646862
   0.83261410  0.33370958  0.40615609
   0.33387446  0.58395601  0.40644184
   0.74875831  0.25021406  0.59361808
   0.58358339  0.83200587  0.40613339
   0.16814834  0.16582651  0.50041696
   0.33313031  0.33230923  0.40639951
  -0.00041038  0.74933908  0.59357050
   0.91665754  0.16612543  0.49966557
   0.91628855  0.91699816  0.49999476
   0.08324145  0.83450093  0.40645424
   0.00055007  0.00037387  0.59395767
   0.00102760  0.49967560  0.59356010
   0.74861457  0.50116436  0.59357843
   0.08364774  0.33285251  0.40612767
   0.08253991  0.58331796  0.40672666
   0.83360365  0.83276587  0.40611172
   0.91578327  0.41848468  0.50001232
   0.50013399  0.75014851  0.59261109
   0.66611609  0.16697073  0.50034518
   0.66654305  0.66595759  0.50008583
   0.74870251  0.00032866  0.59287325
   0.66514674  0.41821725  0.50005140
   0.83268034  0.58357469  0.40725904
   0.83345813  0.08359328  0.40706364
   0.49969919  0.50013795  0.59256916
   0.08351329  0.08300296  0.40705057
   0.58380525  0.58336090  0.40747339
   0.49955650  0.24971521  0.59253505
   0.50008730  0.00014845  0.59277896
   0.41632082  0.16714232  0.50061896
   0.16740600  0.91626857  0.50003265
   0.25079340  0.49896542  0.59254859
   0.16713511  0.66598006  0.50028733
   0.25049589  0.24967216  0.59267602
   0.16727675  0.41689794  0.50050816
   0.25040305  0.00038265  0.59282060
   0.33292347  0.08363419  0.40705601
   0.91660870  0.66600239  0.50005113
   0.00117514  0.24942125  0.59316271
   0.41753439  0.66620500  0.50034262
   0.74918793  0.75066334  0.59268540
Direct configuration=     3
   0.25588229  0.74742980  0.59787519
   0.41511326  0.91627991  0.50300647
   0.41653080  0.41676090  0.50461030
   0.58841313  0.33228914  0.40075502
   0.58214512  0.08563996  0.40048160
   0.66597317  0.91690306  0.50484735
   0.33251862  0.83465248  0.40097398
   0.83045642  0.33483832  0.39972384
   0.33549783  0.58582403  0.40086685
   0.74503326  0.25085626  0.59937284
   0.58433355  0.82802348  0.39963307
   0.17259335  0.16330605  0.50166782
   0.33252122  0.32923691  0.40069752
  -0.00164154  0.74735633  0.59918250
   0.91663015  0.16450174  0.49866226
   0.91515421  0.91799263  0.49997906
   0.08296581  0.83800373  0.40091646
   0.00220026  0.00149549  0.60073120
   0.00411039  0.49870240  0.59914089
   0.74445827  0.50465745  0.59921424
   0.08459098  0.33141002  0.39961018
   0.08015965  0.58327183  0.40200613
   0.83441459  0.83106350  0.39954638
   0.91313309  0.42393873  0.50004929
   0.50053598  0.75059403  0.59534488
   0.66446436  0.16788292  0.50138074
   0.66617220  0.66383035  0.50034333
   0.74481003  0.00131466  0.59639349
   0.66058696  0.42286902  0.50020559
   0.83072135  0.58429877  0.40413566
   0.83383252  0.08437310  0.40335406
   0.49879676  0.50055180  0.59517716
   0.08405317  0.08201183  0.40330178
   0.58522101  0.58344358  0.40499304
   0.49822600  0.24886085  0.59504071
   0.50034920  0.00059380  0.59601636
   0.41528328  0.16856929  0.50247583
   0.16962399  0.91507429  0.50013059
   0.25317360  0.49586167  0.59509487
   0.16854045  0.66392024  0.50114934
   0.25198355  0.24868863  0.59560461
   0.16910699  0.41759178  0.50203263
   0.25161220  0.00153062  0.59618290
   0.33169386  0.08453676  0.40332355
   0.91643481  0.66400956  0.50020452
   0.00470057  0.24768498  0.59755136
   0.42013755  0.66482001  0.50137047
   0.74675171  0.75265334  0.59564212
Direct configuration=     4
   0.25444262  0.74815691  0.59913493
   0.41773361  0.91450744  0.50198572
   0.41701791  0.41655318  0.50284811
   0.58582089  0.33313282  0.39970553
   0.58314926  0.08349375  0.39953873
   0.66563676  0.91639614  0.50328081
   0.33346717  0.83521112  0.39978261
   0.83272206  0.33456593  0.39827020
   0.33554649  0.58396557  0.39992718
   0.74622399  0.25080719  0.60062015
   0.58360525  0.83027607  0.39851818
   0.16885396  0.16666803  0.50104632
   0.33316377  0.33129954  0.39973706
  -0.00135396  0.74878211  0.60041630
   0.91610877  0.16722755  0.49904760
   0.91637046  0.91598497  0.50012205
   0.08252943  0.83703765  0.39981264
   0.00177461  0.00083925  0.60220750
   0.00308627  0.49794140  0.60075512
   0.74609962  0.50333543  0.60079678
   0.08289202  0.33121769  0.39840023
   0.08170407  0.58296002  0.40113118
   0.83284675  0.83273268  0.39826914
   0.91498220  0.41997527  0.50021060
   0.50043474  0.75133373  0.59666897
   0.66431055  0.16867813  0.50089189
   0.66513621  0.66603035  0.50025339
   0.74624138  0.00150194  0.59794850
   0.66291989  0.42042502  0.50019233
   0.83153281  0.58318246  0.40322051
   0.83372073  0.08363239  0.40248713
   0.49930810  0.50026469  0.59672393
   0.08380706  0.08353309  0.40258247
   0.58450592  0.58348183  0.40427148
   0.49833230  0.24811071  0.59674326
   0.49941038  0.00097713  0.59788384
   0.41633401  0.16825543  0.50158190
   0.16905082  0.91356774  0.50024849
   0.25277514  0.49650691  0.59681486
   0.16759324  0.66559000  0.50080780
   0.25202669  0.24842448  0.59706215
   0.16795359  0.41743677  0.50132447
   0.25183615  0.00123655  0.59776854
   0.33281495  0.08261615  0.40279491
   0.91674927  0.66589121  0.50022388
   0.00317435  0.24897607  0.59814153
   0.41811806  0.66605909  0.50082401
   0.74748969  0.75122046  0.59697511
Direct configuration=     5
   0.25393056  0.74841552  0.59958299
   0.41866562  0.91387700  0.50162266
   0.41719117  0.41647930  0.50222134
   0.58489887  0.33343290  0.39933224
   0.58350642  0.08273038  0.39920336
   0.66551711  0.91621583  0.50272362
   0.33380455  0.83540982  0.39935886
   0.83352791  0.33446904  0.39775316
   0.33556380  0.58330455  0.39959296
   0.74664751  0.25078974  0.60106379
   0.58334621  0.83107727  0.39812163
   0.16752392  0.16786383  0.50082526
   0.33339231  0.33203319  0.39939545
  -0.00125168  0.74928923  0.60085514
   0.91592333  0.16819707  0.49918466
   0.91680306  0.91527087  0.50017291
   0.08237421  0.83669403  0.39942003
   0.00162321  0.00060583  0.60273259
   0.00272201  0.49767073  0.60132927
   0.74668342  0.50286521  0.60135966
   0.08228773  0.33114928  0.39796988
   0.08225339  0.58284911  0.40081997
   0.83228910  0.83332638  0.39781485
   0.91563989  0.41856553  0.50026797
   0.50039873  0.75159683  0.59713993
   0.66425584  0.16896097  0.50071802
   0.66476772  0.66681284  0.50022140
   0.74675049  0.00156856  0.59850160
   0.66374968  0.41955574  0.50018761
   0.83182143  0.58278540  0.40289501
   0.83368096  0.08336894  0.40217877
   0.49948998  0.50016257  0.59727408
   0.08371953  0.08407418  0.40232662
   0.58425158  0.58349544  0.40401483
   0.49837011  0.24784389  0.59734882
   0.49907646  0.00111347  0.59854807
   0.41670773  0.16814380  0.50126394
   0.16884695  0.91303188  0.50029042
   0.25263342  0.49673641  0.59742663
   0.16725633  0.66618390  0.50068632
   0.25204203  0.24833053  0.59758057
   0.16754334  0.41738163  0.50107259
   0.25191581  0.00113196  0.59833253
   0.33321370  0.08193302  0.40260688
   0.91686112  0.66656048  0.50023076
   0.00263150  0.24943529  0.59835144
   0.41739976  0.66649981  0.50062965
   0.74775217  0.75071080  0.59744923
Direct configuration=     6
   0.25343888  0.74854670  0.59997296
   0.41711601  0.91537971  0.50125097
   0.41669847  0.41699608  0.50168671
   0.58531972  0.33295501  0.39900724
   0.58330776  0.08274353  0.39895161
   0.66605041  0.91670212  0.50224466
   0.33338436  0.83492545  0.39898752
   0.83280255  0.33411042  0.39721246
   0.33487103  0.58390691  0.39930492
   0.74741659  0.25055033  0.60140241
   0.58379465  0.83122563  0.39767858
   0.16835185  0.16685119  0.50065150
   0.33327270  0.33172510  0.39913288
  -0.00109706  0.74936759  0.60124103
   0.91550895  0.16731436  0.49944976
   0.91648002  0.91626821  0.50030068
   0.08274361  0.83612427  0.39913506
   0.00126980  0.00084723  0.60312212
   0.00227907  0.49808764  0.60179711
   0.74734076  0.50228870  0.60184935
   0.08323566  0.33136345  0.39748468
   0.08219466  0.58305064  0.40067713
   0.83249050  0.83300647  0.39743302
   0.91496015  0.41975843  0.50037419
   0.50019332  0.75173225  0.59759957
   0.66528272  0.16829265  0.50053481
   0.66601842  0.66580634  0.50024184
   0.74728779  0.00120110  0.59875606
   0.66470674  0.41908840  0.50025166
   0.83220801  0.58298872  0.40286410
   0.83357014  0.08376136  0.40219366
   0.49949043  0.49997616  0.59763476
   0.08366073  0.08369413  0.40232008
   0.58410449  0.58345812  0.40391589
   0.49840834  0.24808653  0.59782030
   0.49935863  0.00080516  0.59903775
   0.41670728  0.16774347  0.50080113
   0.16829482  0.91378284  0.50040363
   0.25252293  0.49701261  0.59776334
   0.16731684  0.66600011  0.50060978
   0.25181721  0.24834165  0.59792003
   0.16693854  0.41790172  0.50077245
   0.25170940  0.00121763  0.59853499
   0.33322544  0.08255129  0.40266061
   0.91706137  0.66611944  0.50031281
   0.00188726  0.24941909  0.59850742
   0.41663532  0.66638880  0.50043516
   0.74836275  0.75053525  0.59775964
Direct configuration=     7
   0.25334320  0.74857223  0.60004885
   0.41681445  0.91567215  0.50117863
   0.41660259  0.41709665  0.50158267
   0.58540162  0.33286201  0.39894400
   0.58326910  0.08274608  0.39890262
   0.66615420  0.91679675  0.50215145
   0.33330258  0.83483119  0.39891525
   0.83266139  0.33404063  0.39710724
   0.33473621  0.58402413  0.39924886
   0.74756625  0.25050374  0.60146830
   0.58388192  0.83125450  0.39759236
   0.16851297  0.16665412  0.50061768
   0.33324942  0.33166514  0.39908178
  -0.00106698  0.74938284  0.60131613
   0.91542830  0.16714258  0.49950135
   0.91641715  0.91646229  0.50032554
   0.08281549  0.83601339  0.39907961
   0.00120102  0.00089421  0.60319792
   0.00219287  0.49816877  0.60188815
   0.74746868  0.50217651  0.60194464
   0.08342014  0.33140513  0.39739026
   0.08218323  0.58308986  0.40064933
   0.83252969  0.83294422  0.39735872
   0.91482787  0.41999058  0.50039486
   0.50015334  0.75175861  0.59768901
   0.66548255  0.16816260  0.50049916
   0.66626181  0.66561047  0.50024582
   0.74739235  0.00112959  0.59880558
   0.66489299  0.41899746  0.50026412
   0.83228324  0.58302829  0.40285808
   0.83354857  0.08383773  0.40219656
   0.49949052  0.49993988  0.59770494
   0.08364928  0.08362017  0.40231880
   0.58407586  0.58345086  0.40389663
   0.49841578  0.24813375  0.59791205
   0.49941355  0.00074516  0.59913304
   0.41670720  0.16766556  0.50071107
   0.16818737  0.91392898  0.50042567
   0.25250143  0.49706636  0.59782887
   0.16732862  0.66596434  0.50059488
   0.25177346  0.24834382  0.59798609
   0.16682085  0.41800293  0.50071404
   0.25166923  0.00123431  0.59857439
   0.33322772  0.08267161  0.40267106
   0.91710034  0.66603361  0.50032877
   0.00174242  0.24941594  0.59853777
   0.41648656  0.66636719  0.50039731
   0.74848158  0.75050109  0.59782005
Direct configuration=     8
   0.25333196  0.74857972  0.60020625
   0.41684050  0.91552056  0.50114935
   0.41668528  0.41682139  0.50153079
   0.58544404  0.33274277  0.39878678
   0.58324444  0.08299532  0.39870878
   0.66617276  0.91682108  0.50211168
   0.33326626  0.83470063  0.39872721
   0.83255877  0.33402450  0.39686405
   0.33463027  0.58408161  0.39900940
   0.74751807  0.25039238  0.60164456
   0.58392210  0.83088522  0.39736124
   0.16823899  0.16678635  0.50064472
   0.33336306  0.33150627  0.39890930
  -0.00092948  0.74921423  0.60150169
   0.91564444  0.16697879  0.49965079
   0.91652766  0.91644472  0.50042443
   0.08259190  0.83608834  0.39898951
   0.00123835  0.00095939  0.60346945
   0.00238085  0.49827888  0.60210000
   0.74731691  0.50228324  0.60222969
   0.08355014  0.33146269  0.39712864
   0.08197638  0.58329689  0.40058962
   0.83301171  0.83274305  0.39715259
   0.91495437  0.41999966  0.50040758
   0.50013130  0.75165059  0.59770045
   0.66529669  0.16829028  0.50054406
   0.66604336  0.66575840  0.50038010
   0.74735613  0.00092659  0.59880087
   0.66491082  0.41906184  0.50037242
   0.83248281  0.58288722  0.40292180
   0.83370613  0.08373143  0.40226887
   0.49948403  0.49981543  0.59767056
   0.08356878  0.08346163  0.40243067
   0.58411844  0.58350148  0.40395468
   0.49844372  0.24838126  0.59788059
   0.49988107  0.00042258  0.59910585
   0.41672671  0.16787020  0.50065369
   0.16788259  0.91433191  0.50054124
   0.25253572  0.49696292  0.59776969
   0.16705825  0.66602634  0.50064622
   0.25154172  0.24852896  0.59794549
   0.16667459  0.41802980  0.50068508
   0.25149389  0.00133216  0.59855103
   0.33308932  0.08286254  0.40265916
   0.91721789  0.66611145  0.50046891
   0.00175576  0.24924028  0.59850128
   0.41656394  0.66643014  0.50043307
   0.74855661  0.75077686  0.59781614
Direct configuration=     9
   0.25332064  0.74858726  0.60036471
   0.41686672  0.91536796  0.50111988
   0.41676854  0.41654428  0.50147857
   0.58548674  0.33262274  0.39862851
   0.58321960  0.08324624  0.39851365
   0.66619146  0.91684557  0.50207163
   0.33322969  0.83456920  0.39853790
   0.83245547  0.33400826  0.39661923
   0.33452363  0.58413947  0.39876833
   0.74746957  0.25028027  0.60182200
   0.58396254  0.83051346  0.39712858
   0.16796317  0.16691946  0.50067194
   0.33347746  0.33134633  0.39873566
  -0.00079107  0.74904448  0.60168850
   0.91586202  0.16681391  0.49980124
   0.91663891  0.91642703  0.50052398
   0.08236680  0.83616380  0.39889881
   0.00127594  0.00102502  0.60374280
   0.00257010  0.49838973  0.60231327
   0.74716413  0.50239069  0.60251666
   0.08368102  0.33152063  0.39686526
   0.08176813  0.58350532  0.40052951
   0.83349697  0.83254054  0.39694507
   0.91508171  0.42000881  0.50042038
   0.50010911  0.75154186  0.59771196
   0.66510958  0.16841883  0.50058926
   0.66582345  0.66590733  0.50051528
   0.74731967  0.00072223  0.59879612
   0.66492876  0.41912665  0.50048145
   0.83268372  0.58274520  0.40298595
   0.83386475  0.08362441  0.40234166
   0.49947750  0.49969015  0.59763595
   0.08348774  0.08330202  0.40254328
   0.58416131  0.58355244  0.40401312
   0.49847184  0.24863043  0.59784891
   0.50035173  0.00009784  0.59907848
   0.41674635  0.16807621  0.50059593
   0.16757576  0.91473755  0.50065759
   0.25257024  0.49685878  0.59771011
   0.16678607  0.66608876  0.50069789
   0.25130842  0.24871534  0.59790461
   0.16652736  0.41805684  0.50065592
   0.25131737  0.00143067  0.59852750
   0.33294999  0.08305476  0.40264718
   0.91733623  0.66618982  0.50061000
   0.00176919  0.24906344  0.59846453
   0.41664184  0.66649350  0.50046907
   0.74863215  0.75105449  0.59781219
Direct configuration=    10
   0.25340982  0.74850233  0.60051818
   0.41693610  0.91534581  0.50108222
   0.41667771  0.41672213  0.50137062
   0.58545155  0.33280349  0.39846316
   0.58359795  0.08276813  0.39826654
   0.66608480  0.91684032  0.50190292
   0.33309251  0.83466827  0.39837690
   0.83261714  0.33401239  0.39638409
   0.33459563  0.58393567  0.39849952
   0.74736625  0.25015624  0.60204497
   0.58409283  0.83046348  0.39686555
   0.16798190  0.16720071  0.50067378
   0.33339378  0.33163276  0.39850464
  -0.00057122  0.74905943  0.60195503
   0.91557308  0.16718724  0.49995391
   0.91661816  0.91634889  0.50067671
   0.08241413  0.83625631  0.39884348
   0.00126989  0.00089382  0.60419231
   0.00257726  0.49829897  0.60255978
   0.74710517  0.50259421  0.60286952
   0.08349212  0.33146168  0.39651961
   0.08195698  0.58331696  0.40047867
   0.83321731  0.83271817  0.39672494
   0.91499101  0.42004133  0.50044262
   0.50005465  0.75149393  0.59768287
   0.66508837  0.16852840  0.50065056
   0.66570434  0.66607037  0.50071715
   0.74735730  0.00067545  0.59876156
   0.66499512  0.41913916  0.50061706
   0.83279499  0.58252292  0.40315218
   0.83390630  0.08354305  0.40251252
   0.49944471  0.49963616  0.59751060
   0.08343688  0.08335341  0.40272064
   0.58424679  0.58334900  0.40416074
   0.49845056  0.24868436  0.59773898
   0.50045252  0.00005397  0.59889885
   0.41660863  0.16806710  0.50059266
   0.16764508  0.91464377  0.50080496
   0.25272292  0.49673551  0.59753790
   0.16684091  0.66612705  0.50077050
   0.25139406  0.24862722  0.59776175
   0.16651410  0.41798704  0.50060339
   0.25144283  0.00144987  0.59846032
   0.33293243  0.08282791  0.40265975
   0.91722974  0.66635299  0.50080086
   0.00168105  0.24926249  0.59843743
   0.41642222  0.66654180  0.50049757
   0.74869167  0.75109832  0.59777953
Direct configuration=    11
   0.25349342  0.74842269  0.60066207
   0.41700115  0.91532504  0.50104691
   0.41659255  0.41688888  0.50126940
   0.58541855  0.33297297  0.39830814
   0.58395269  0.08231985  0.39803485
   0.66598481  0.91683540  0.50174473
   0.33296389  0.83476116  0.39822595
   0.83276873  0.33401627  0.39616361
   0.33466314  0.58374460  0.39824747
   0.74726938  0.25003994  0.60225402
   0.58421498  0.83041662  0.39661894
   0.16799947  0.16746441  0.50067550
   0.33331531  0.33190131  0.39828804
  -0.00036510  0.74907343  0.60220494
   0.91530216  0.16753729  0.50009706
   0.91659870  0.91627563  0.50081991
   0.08245851  0.83634306  0.39879159
   0.00126421  0.00077080  0.60461378
   0.00258398  0.49821387  0.60279092
   0.74704989  0.50278503  0.60320036
   0.08331500  0.33140641  0.39619552
   0.08213405  0.58314034  0.40043100
   0.83295510  0.83288472  0.39651854
   0.91490597  0.42007183  0.50046348
   0.50000359  0.75144900  0.59765560
   0.66506848  0.16863115  0.50070803
   0.66559267  0.66622323  0.50090642
   0.74739257  0.00063159  0.59872915
   0.66505734  0.41915089  0.50074421
   0.83289931  0.58231450  0.40330803
   0.83394526  0.08346677  0.40267272
   0.49941397  0.49958554  0.59739307
   0.08338918  0.08340159  0.40288694
   0.58432693  0.58315826  0.40429915
   0.49843061  0.24873493  0.59763591
   0.50054703  0.00001284  0.59873043
   0.41647950  0.16805857  0.50058959
   0.16771007  0.91455583  0.50094313
   0.25286607  0.49661993  0.59737644
   0.16689232  0.66616295  0.50083858
   0.25147435  0.24854460  0.59762780
   0.16650166  0.41792159  0.50055414
   0.25156047  0.00146787  0.59839732
   0.33291596  0.08261522  0.40267153
   0.91712989  0.66650597  0.50097982
   0.00159842  0.24944913  0.59841203
   0.41621631  0.66658707  0.50052430
   0.74874747  0.75113942  0.59774891
Direct configuration=    12
   0.25360271  0.74840661  0.60079367
   0.41682182  0.91540569  0.50088810
   0.41652349  0.41706840  0.50098977
   0.58564090  0.33273647  0.39821332
   0.58371055  0.08246071  0.39781605
   0.66596169  0.91696468  0.50144968
   0.33314637  0.83460827  0.39817426
   0.83285936  0.33384180  0.39596654
   0.33471994  0.58395989  0.39801056
   0.74731138  0.25009451  0.60250138
   0.58418213  0.83025294  0.39638949
   0.16799955  0.16747601  0.50055523
   0.33353257  0.33139260  0.39810957
  -0.00018332  0.74893238  0.60249926
   0.91508044  0.16765859  0.50026432
   0.91656792  0.91640456  0.50095133
   0.08254781  0.83616326  0.39886077
   0.00134096  0.00078946  0.60518388
   0.00255725  0.49816516  0.60298655
   0.74712215  0.50270131  0.60353100
   0.08338893  0.33122488  0.39586203
   0.08198302  0.58325727  0.40047290
   0.83308902  0.83252292  0.39634820
   0.91462057  0.42041930  0.50054645
   0.49994340  0.75158729  0.59764155
   0.66503805  0.16865922  0.50067913
   0.66568253  0.66611489  0.50105420
   0.74745898  0.00065209  0.59867278
   0.66498200  0.41928226  0.50087622
   0.83284447  0.58244004  0.40357682
   0.83380783  0.08366218  0.40296403
   0.49951140  0.49956816  0.59726641
   0.08330272  0.08357704  0.40313713
   0.58428644  0.58318586  0.40454604
   0.49839538  0.24853732  0.59747809
   0.50034176  0.00019256  0.59850149
   0.41653216  0.16805363  0.50043319
   0.16771925  0.91449870  0.50110415
   0.25287067  0.49659329  0.59719365
   0.16695076  0.66624997  0.50084196
   0.25175264  0.24834124  0.59749766
   0.16636844  0.41810930  0.50041003
   0.25166263  0.00141171  0.59832267
   0.33309331  0.08256179  0.40268232
   0.91714165  0.66645934  0.50111235
   0.00139771  0.24966350  0.59844197
   0.41595641  0.66668103  0.50045187
   0.74883220  0.75100989  0.59774996
Direct configuration=    13
   0.25367452  0.74839605  0.60088012
   0.41670400  0.91545868  0.50078376
   0.41647813  0.41718635  0.50080606
   0.58578698  0.33258109  0.39815103
   0.58355147  0.08255325  0.39767231
   0.66594650  0.91704961  0.50125583
   0.33326626  0.83450782  0.39814029
   0.83291890  0.33372718  0.39583707
   0.33475725  0.58410134  0.39785492
   0.74733898  0.25013036  0.60266390
   0.58416054  0.83014541  0.39623874
   0.16799961  0.16748363  0.50047622
   0.33367531  0.33105838  0.39799233
  -0.00006389  0.74883971  0.60269263
   0.91493477  0.16773829  0.50037421
   0.91654770  0.91648926  0.50103767
   0.08260649  0.83604514  0.39890622
   0.00139139  0.00080171  0.60555842
   0.00253968  0.49813316  0.60311508
   0.74716962  0.50264631  0.60374823
   0.08343750  0.33110562  0.39564294
   0.08188379  0.58333409  0.40050043
   0.83317700  0.83228522  0.39623629
   0.91443307  0.42064759  0.50060096
   0.49990386  0.75167814  0.59763233
   0.66501806  0.16867766  0.50066013
   0.66574157  0.66604371  0.50115129
   0.74750260  0.00066556  0.59863575
   0.66493251  0.41936858  0.50096295
   0.83280843  0.58252252  0.40375340
   0.83371753  0.08379057  0.40315542
   0.49957540  0.49955674  0.59718320
   0.08324591  0.08369231  0.40330150
   0.58425984  0.58320399  0.40470824
   0.49837224  0.24840749  0.59737440
   0.50020691  0.00031063  0.59835108
   0.41656676  0.16805039  0.50033043
   0.16772528  0.91446117  0.50120993
   0.25287370  0.49657578  0.59707356
   0.16698916  0.66630714  0.50084418
   0.25193548  0.24820764  0.59741216
   0.16628091  0.41823261  0.50031536
   0.25172975  0.00137482  0.59827362
   0.33320982  0.08252669  0.40268942
   0.91714937  0.66642871  0.50119942
   0.00126584  0.24980434  0.59846165
   0.41578565  0.66674276  0.50040429
   0.74888786  0.75092480  0.59775066
Direct configuration=    14
   0.25371058  0.74843227  0.60098629
   0.41678405  0.91531280  0.50056092
   0.41648805  0.41709120  0.50041165
   0.58583093  0.33251029  0.39813180
   0.58356244  0.08248307  0.39743940
   0.66612465  0.91696419  0.50097375
   0.33324789  0.83460750  0.39817913
   0.83282155  0.33383255  0.39572451
   0.33482291  0.58390486  0.39765167
   0.74738339  0.25017667  0.60289741
   0.58413168  0.83003934  0.39604870
   0.16756547  0.16775140  0.50036635
   0.33359116  0.33099090  0.39783742
  -0.00005959  0.74877249  0.60293503
   0.91506462  0.16770898  0.50065212
   0.91670472  0.91645121  0.50120870
   0.08248299  0.83613060  0.39913658
   0.00144574  0.00089414  0.60616127
   0.00280727  0.49798648  0.60321799
   0.74716845  0.50250812  0.60405611
   0.08352491  0.33122301  0.39541641
   0.08209612  0.58304729  0.40061047
   0.83324863  0.83225470  0.39613405
   0.91454025  0.42050007  0.50073139
   0.50000482  0.75180125  0.59757601
   0.66479003  0.16888639  0.50060982
   0.66554337  0.66621689  0.50128002
   0.74765434  0.00058026  0.59853598
   0.66479417  0.41942575  0.50108688
   0.83272422  0.58247118  0.40399273
   0.83369340  0.08359579  0.40346984
   0.49964867  0.49950421  0.59706662
   0.08336439  0.08349384  0.40356065
   0.58441281  0.58303049  0.40496114
   0.49844504  0.24832634  0.59713436
   0.50024806  0.00021670  0.59809592
   0.41665664  0.16828792  0.50001770
   0.16739547  0.91463169  0.50139089
   0.25287096  0.49656508  0.59688028
   0.16677282  0.66652512  0.50082167
   0.25176531  0.24832483  0.59725814
   0.16614410  0.41838118  0.50009827
   0.25153628  0.00142835  0.59820286
   0.33332711  0.08240057  0.40260864
   0.91728236  0.66662929  0.50133569
   0.00134247  0.24972392  0.59850222
   0.41565695  0.66696387  0.50031031
   0.74883734  0.75101499  0.59773422
Direct configuration=    15
   0.25371579  0.74843750  0.60100162
   0.41679560  0.91529174  0.50052876
   0.41648949  0.41707746  0.50035472
   0.58583727  0.33250007  0.39812903
   0.58356402  0.08247294  0.39740578
   0.66615037  0.91695186  0.50093303
   0.33324524  0.83462189  0.39818474
   0.83280749  0.33384776  0.39570826
   0.33483239  0.58387650  0.39762233
   0.74738981  0.25018335  0.60293112
   0.58412751  0.83002403  0.39602127
   0.16750280  0.16779005  0.50035050
   0.33357901  0.33098116  0.39781506
  -0.00005897  0.74876279  0.60297002
   0.91508337  0.16770475  0.50069224
   0.91672738  0.91644572  0.50123339
   0.08246516  0.83614294  0.39916983
   0.00145358  0.00090748  0.60624829
   0.00284590  0.49796531  0.60323285
   0.74716828  0.50248817  0.60410056
   0.08353753  0.33123996  0.39538371
   0.08212677  0.58300589  0.40062636
   0.83325897  0.83225030  0.39611930
   0.91455572  0.42047877  0.50075021
   0.50001940  0.75181902  0.59756788
   0.66475712  0.16891652  0.50060256
   0.66551476  0.66624189  0.50129860
   0.74767625  0.00056795  0.59852157
   0.66477420  0.41943401  0.50110477
   0.83271207  0.58246377  0.40402728
   0.83368992  0.08356767  0.40351523
   0.49965925  0.49949662  0.59704979
   0.08338149  0.08346519  0.40359806
   0.58443489  0.58300544  0.40499765
   0.49845555  0.24831462  0.59709971
   0.50025400  0.00020315  0.59805909
   0.41666962  0.16832220  0.49997255
   0.16734786  0.91465630  0.50141701
   0.25287056  0.49656353  0.59685238
   0.16674159  0.66655659  0.50081842
   0.25174074  0.24834174  0.59723591
   0.16612436  0.41840262  0.50006693
   0.25150835  0.00143607  0.59819264
   0.33334404  0.08238236  0.40259698
   0.91730155  0.66665824  0.50135536
   0.00135353  0.24971232  0.59850808
   0.41563837  0.66699578  0.50029675
   0.74883005  0.75102801  0.59773185
Direct configuration=    16
   0.25366554  0.74844385  0.60100173
   0.41672156  0.91557650  0.50044637
   0.41629720  0.41729099  0.50023456
   0.58578701  0.33251898  0.39815108
   0.58380683  0.08223876  0.39724493
   0.66624686  0.91687343  0.50085653
   0.33304920  0.83457120  0.39826214
   0.83288542  0.33381880  0.39577945
   0.33480696  0.58373659  0.39753884
   0.74740926  0.25006574  0.60300504
   0.58428602  0.82996012  0.39595298
   0.16767214  0.16782487  0.50033105
   0.33349044  0.33121553  0.39768972
  -0.00014423  0.74887783  0.60304928
   0.91497345  0.16769449  0.50090433
   0.91668488  0.91652321  0.50142803
   0.08248553  0.83611356  0.39939605
   0.00137921  0.00087991  0.60653413
   0.00294496  0.49794253  0.60317933
   0.74722770  0.50254347  0.60419322
   0.08337055  0.33127478  0.39537516
   0.08220989  0.58296537  0.40069139
   0.83327125  0.83232577  0.39613131
   0.91453708  0.42046101  0.50085569
   0.50004352  0.75176589  0.59749672
   0.66486586  0.16894065  0.50058708
   0.66557266  0.66628109  0.50135270
   0.74775830  0.00051155  0.59843609
   0.66486264  0.41931883  0.50117662
   0.83278896  0.58232082  0.40412407
   0.83378826  0.08338328  0.40366126
   0.49948766  0.49949182  0.59697115
   0.08337419  0.08338683  0.40367506
   0.58446666  0.58290432  0.40504633
   0.49851844  0.24846348  0.59689575
   0.50041219  0.00008070  0.59786477
   0.41649790  0.16829856  0.49973700
   0.16721502  0.91486627  0.50157047
   0.25299947  0.49656941  0.59670572
   0.16673827  0.66656661  0.50081324
   0.25160174  0.24843186  0.59706741
   0.16614514  0.41832793  0.49997838
   0.25137412  0.00156806  0.59812800
   0.33320022  0.08240418  0.40244864
   0.91735911  0.66670073  0.50141914
   0.00159099  0.24948308  0.59860098
   0.41546236  0.66706664  0.50030786
   0.74881161  0.75113012  0.59770321
Direct configuration=    17
   0.25364990  0.74844582  0.60100176
   0.41669851  0.91566515  0.50042072
   0.41623735  0.41735747  0.50019715
   0.58577136  0.33252486  0.39815795