       N       E                     dE             d eps       ncg     rms          rms(c)
DAV:   1     0.320077864165E+04    0.32008E+04   -0.18981E+05  3672   0.112E+03
DAV:   2     0.156088515268E+02   -0.31852E+04   -0.29298E+04  4368   0.263E+02
DAV:   3    -0.200588637398E+03   -0.21620E+03   -0.20093E+03  4140   0.651E+01
DAV:   4    -0.206393953974E+03   -0.58053E+01   -0.57323E+01  4248   0.108E+01
DAV:   5    -0.206586754283E+03   -0.19280E+00   -0.19226E+00  4464   0.199E+00    0.628E+01
RMM:   6    -0.227046668119E+03   -0.20460E+02   -0.11687E+02  3678   0.163E+01    0.716E+01
RMM:   7    -0.205049977791E+03    0.21997E+02   -0.49976E+01  3679   0.106E+01    0.485E+01
RMM:   8    -0.213181791383E+03   -0.81318E+01   -0.92204E+01  3678   0.148E+01    0.418E+01
RMM:   9    -0.216962836138E+03   -0.37810E+01   -0.47640E+01  3679   0.108E+01    0.468E+01
RMM:  10    -0.204724819797E+03    0.12238E+02   -0.32710E+01  3680   0.910E+00    0.292E+01
RMM:  11    -0.195165665658E+03    0.95592E+01   -0.15152E+01  3682   0.622E+00    0.166E+01
RMM:  12    -0.190399104158E+03    0.47666E+01   -0.10259E+01  3681   0.494E+00    0.135E+01
RMM:  13    -0.188752557260E+03    0.16465E+01   -0.30849E+00  3680   0.274E+00    0.830E+00
RMM:  14    -0.188440025458E+03    0.31253E+00   -0.64957E-01  3682   0.122E+00    0.665E+00
RMM:  15    -0.188338920998E+03    0.10110E+00   -0.45942E-01  3679   0.100E+00    0.590E+00
RMM:  16    -0.188339047504E+03   -0.12651E-03   -0.33757E-01  3682   0.865E-01    0.534E+00
RMM:  17    -0.188228670734E+03    0.11038E+00   -0.38670E-01  3679   0.927E-01    0.428E+00
RMM:  18    -0.188063732573E+03    0.16494E+00   -0.25244E-01  3679   0.759E-01    0.297E+00
RMM:  19    -0.187957561011E+03    0.10617E+00   -0.94873E-02  3683   0.466E-01    0.111E+00
RMM:  20    -0.187950149046E+03    0.74120E-02   -0.21016E-02  3680   0.215E-01    0.828E-01
RMM:  21    -0.187945368546E+03    0.47805E-02   -0.76494E-03  3683   0.134E-01    0.655E-01
RMM:  22    -0.187942320913E+03    0.30476E-02   -0.45176E-03  3680   0.103E-01    0.498E-01
RMM:  23    -0.187940091297E+03    0.22296E-02   -0.29380E-03  3682   0.824E-02    0.338E-01
RMM:  24    -0.187939236199E+03    0.85510E-03   -0.96878E-04  3682   0.470E-02    0.213E-01
RMM:  25    -0.187939057323E+03    0.17888E-03   -0.57248E-04  3682   0.373E-02    0.158E-01
RMM:  26    -0.187939044667E+03    0.12656E-04   -0.36368E-04  3679   0.286E-02    0.120E-01
RMM:  27    -0.187939192677E+03   -0.14801E-03   -0.26621E-04  3681   0.238E-02    0.493E-02
RMM:  28    -0.187939459531E+03   -0.26685E-03   -0.81784E-05  3674   0.127E-02    0.376E-02
RMM:  29    -0.187939928419E+03   -0.46889E-03   -0.48847E-05  3672   0.936E-03    0.356E-02
RMM:  30    -0.187940288176E+03   -0.35976E-03   -0.28606E-05  3644   0.740E-03    0.297E-02
RMM:  31    -0.187941059083E+03   -0.77091E-03   -0.46672E-05  3667   0.860E-03    0.211E-02
RMM:  32    -0.187941513962E+03   -0.45488E-03   -0.30200E-05  3510   0.702E-03    0.176E-02
RMM:  33    -0.187941830480E+03   -0.31652E-03   -0.19664E-05  3131   0.561E-03    0.115E-02
RMM:  34    -0.187941973353E+03   -0.14287E-03   -0.71258E-06  2724   0.343E-03    0.778E-03
RMM:  35    -0.187942104099E+03   -0.13075E-03   -0.53420E-06  2650   0.292E-03    0.535E-03
RMM:  36    -0.187942171347E+03   -0.67248E-04   -0.20017E-06  2327   0.182E-03    0.398E-03
RMM:  37    -0.187942206445E+03   -0.35098E-04   -0.71653E-07  2147   0.112E-03    0.284E-03
RMM:  38    -0.187942247774E+03   -0.41329E-04   -0.79173E-07  2161   0.107E-03    0.231E-03
RMM:  39    -0.187942260633E+03   -0.12859E-04   -0.33305E-07  1625   0.726E-04    0.167E-03
RMM:  40    -0.187942270233E+03   -0.95999E-05   -0.29889E-07  1886   0.716E-04    0.115E-03
RMM:  41    -0.187942273844E+03   -0.36110E-05   -0.10866E-07  1206   0.414E-04    0.811E-04
RMM:  42    -0.187942276338E+03   -0.24932E-05   -0.53964E-08   885   0.359E-04    0.606E-04
RMM:  43    -0.187942279281E+03   -0.29439E-05   -0.96515E-08  1186   0.425E-04    0.439E-04
RMM:  44    -0.187942280301E+03   -0.10192E-05   -0.78487E-09   503   0.325E-04    0.373E-04
RMM:  45    -0.187942281288E+03   -0.98762E-06   -0.10438E-08   524   0.344E-04
   1 F= -.18794228E+03 E0= -.18783059E+03  d E =-.187942E+03
       N       E                     dE             d eps       ncg     rms          rms(c)
DAV:   1    -0.189092409077E+03   -0.11501E+01   -0.40249E+02  3672   0.308E+01    0.398E+00
RMM:   2    -0.189508064935E+03   -0.41566E+00   -0.42448E+00  3678   0.446E+00    0.246E+00
RMM:   3    -0.189632917707E+03   -0.12485E+00   -0.40912E-01  3700   0.111E+00    0.380E+00
RMM:   4    -0.189499466421E+03    0.13345E+00   -0.18556E-01  3686   0.715E-01    0.178E+00
RMM:   5    -0.189527496757E+03   -0.28030E-01   -0.95365E-02  3685   0.489E-01    0.217E+00
RMM:   6    -0.189484465328E+03    0.43031E-01   -0.48637E-02  3684   0.358E-01    0.820E-01
RMM:   7    -0.189479288041E+03    0.51773E-02   -0.13473E-02  3682   0.176E-01    0.601E-01
RMM:   8    -0.189475661875E+03    0.36262E-02   -0.54479E-03  3683   0.115E-01    0.314E-01
RMM:   9    -0.189474496400E+03    0.11655E-02   -0.21834E-03  3686   0.730E-02    0.116E-01
RMM:  10    -0.189474443798E+03    0.52602E-04   -0.56391E-04  3687   0.371E-02    0.951E-02
RMM:  11    -0.189474392814E+03    0.50984E-04   -0.15960E-04  3688   0.200E-02    0.610E-02
RMM:  12    -0.189474380899E+03    0.11915E-04   -0.59333E-05  3677   0.123E-02    0.446E-02
RMM:  13    -0.189474369185E+03    0.11714E-04   -0.30818E-05  3674   0.900E-03    0.227E-02
RMM:  14    -0.189474366085E+03    0.30994E-05   -0.10773E-05  3547   0.534E-03    0.924E-03
RMM:  15    -0.189474366546E+03   -0.46058E-06   -0.27306E-06  2439   0.272E-03
   2 F= -.18947437E+03 E0= -.18936371E+03  d E =-.153209E+01
       N       E                     dE             d eps       ncg     rms          rms(c)
DAV:   1    -0.187786754413E+03    0.16876E+01   -0.37823E+03  3672   0.971E+01    0.937E+00
RMM:   2    -0.191471636189E+03   -0.36849E+01   -0.37679E+01  3678   0.134E+01    0.584E+00
RMM:   3    -0.192005603820E+03   -0.53397E+00   -0.26302E+00  3703   0.280E+00    0.926E+00
RMM:   4    -0.191297561628E+03    0.70804E+00   -0.94676E-01  3684   0.165E+00    0.407E+00
RMM:   5    -0.191765147461E+03   -0.46759E+00   -0.65272E-01  3686   0.123E+00    0.761E+00
RMM:   6    -0.191373779233E+03    0.39137E+00   -0.50814E-01  3683   0.107E+00    0.383E+00
RMM:   7    -0.191205344596E+03    0.16843E+00   -0.23769E-01  3682   0.770E-01    0.181E+00
RMM:   8    -0.191175777983E+03    0.29567E-01   -0.65129E-02  3683   0.400E-01    0.117E+00
RMM:   9    -0.191160193686E+03    0.15584E-01   -0.23226E-02  3683   0.240E-01    0.434E-01
RMM:  10    -0.191159083006E+03    0.11107E-02   -0.60610E-03  3685   0.120E-01    0.338E-01
RMM:  11    -0.191158329298E+03    0.75371E-03   -0.23062E-03  3686   0.752E-02    0.211E-01
RMM:  12    -0.191158249588E+03    0.79710E-04   -0.82980E-04  3684   0.470E-02    0.152E-01
RMM:  13    -0.191158099494E+03    0.15009E-03   -0.43067E-04  3680   0.336E-02    0.835E-02
RMM:  14    -0.191158050642E+03    0.48853E-04   -0.11789E-04  3680   0.173E-02    0.433E-02
RMM:  15    -0.191158044665E+03    0.59765E-05   -0.34757E-05  3678   0.942E-03    0.248E-02
RMM:  16    -0.191158047467E+03   -0.28012E-05   -0.11231E-05  3446   0.536E-03    0.138E-02
RMM:  17    -0.191158052964E+03   -0.54971E-05   -0.39232E-06  2733   0.320E-03    0.890E-03
RMM:  18    -0.191158061358E+03   -0.83943E-05   -0.14872E-06  2137   0.212E-03    0.540E-03
RMM:  19    -0.191158067607E+03   -0.62495E-05   -0.76269E-07  2085   0.151E-03    0.335E-03
RMM:  20    -0.191158074384E+03   -0.67766E-05   -0.36366E-07  2058   0.962E-04    0.149E-03
RMM:  21    -0.191158080096E+03   -0.57116E-05   -0.20557E-07  1604   0.649E-04    0.135E-03
RMM:  22    -0.191158089452E+03   -0.93562E-05   -0.30535E-07  1776   0.658E-04    0.104E-03
RMM:  23    -0.191158097675E+03   -0.82229E-05   -0.39111E-07  1830   0.699E-04    0.104E-03
RMM:  24    -0.191158103385E+03   -0.57102E-05   -0.39357E-07  1806   0.681E-04    0.526E-04
RMM:  25    -0.191158105414E+03   -0.20293E-05   -0.16785E-07  1142   0.450E-04    0.514E-04
RMM:  26    -0.191158106390E+03   -0.97568E-06   -0.71680E-08   854   0.395E-04
   3 F= -.19115811E+03 E0= -.19104890E+03  d E =-.321583E+01
       N       E                     dE             d eps       ncg     rms          rms(c)
DAV:   1    -0.191325573863E+03   -0.16747E+00   -0.31963E+02  3684   0.277E+01    0.264E+00
RMM:   2    -0.191668792999E+03   -0.34322E+00   -0.36636E+00  3682   0.406E+00    0.157E+00
RMM:   3    -0.191752225534E+03   -0.83433E-01   -0.24371E-01  3706   0.854E-01    0.320E+00
RMM:   4    -0.191665218276E+03    0.87007E-01   -0.75373E-02  3685   0.450E-01    0.127E+00
RMM:   5    -0.191672807586E+03   -0.75893E-02   -0.46569E-02  3682   0.333E-01    0.139E+00
RMM:   6    -0.191654644334E+03    0.18163E-01   -0.40389E-02  3683   0.316E-01    0.686E-01
RMM:   7    -0.191650578266E+03    0.40661E-02   -0.11348E-02  3681   0.168E-01    0.437E-01
RMM:   8    -0.191648645482E+03    0.19328E-02   -0.37585E-03  3682   0.973E-02    0.246E-01
RMM:   9    -0.191647913335E+03    0.73215E-03   -0.11899E-03  3683   0.547E-02    0.952E-02
RMM:  10    -0.191647887267E+03    0.26068E-04   -0.32818E-04  3685   0.275E-02    0.758E-02
RMM:  11    -0.191647826729E+03    0.60537E-04   -0.11000E-04  3685   0.165E-02    0.328E-02
RMM:  12    -0.191647834555E+03   -0.78258E-05   -0.39010E-05  3678   0.986E-03    0.344E-02
RMM:  13    -0.191647825760E+03    0.87947E-05   -0.15863E-05  3667   0.649E-03    0.122E-02
RMM:  14    -0.191647827208E+03   -0.14474E-05   -0.36567E-06  2652   0.317E-03    0.744E-03
RMM:  15    -0.191647829070E+03   -0.18622E-05   -0.13823E-06  2081   0.206E-03    0.436E-03
RMM:  16    -0.191647830188E+03   -0.11176E-05   -0.43734E-07  1992   0.121E-03    0.193E-03
RMM:  17    -0.191647833158E+03   -0.29702E-05   -0.21540E-07  2039   0.749E-04    0.186E-03
RMM:  18    -0.191647835169E+03   -0.20110E-05   -0.11240E-07  1447   0.580E-04    0.142E-03
RMM:  19    -0.191647836962E+03   -0.17932E-05   -0.52962E-08  1045   0.448E-04    0.102E-03
RMM:  20    -0.191647838861E+03   -0.18986E-05   -0.67548E-08  1122   0.444E-04    0.750E-04
RMM:  21    -0.191647841305E+03   -0.24444E-05   -0.13312E-07  1267   0.459E-04    0.510E-04
RMM:  22    -0.191647843138E+03   -0.18331E-05   -0.13921E-07  1183   0.435E-04    0.499E-04
RMM:  23    -0.191647843930E+03   -0.79155E-06   -0.36250E-08   677   0.376E-04
   4 F= -.19164784E+03 E0= -.19154310E+03  d E =-.489738E+00
       N       E                     dE             d eps       ncg     rms          rms(c)
DAV:   1    -0.191620103255E+03    0.27740E-01   -0.84857E+01  3720   0.142E+01    0.124E+00
RMM:   2    -0.191713453071E+03   -0.93350E-01   -0.98807E-01  3682   0.211E+00    0.828E-01
RMM:   3    -0.191742135823E+03   -0.28683E-01   -0.72316E-02  3705   0.460E-01    0.180E+00
RMM:   4    -0.191711191708E+03    0.30944E-01   -0.21215E-02  3685   0.238E-01    0.628E-01
RMM:   5    -0.191710911803E+03    0.27990E-03   -0.93344E-03  3682   0.152E-01    0.581E-01
RMM:   6    -0.191708788569E+03    0.21232E-02   -0.11538E-02  3683   0.168E-01    0.380E-01
RMM:   7    -0.191707601370E+03    0.11872E-02   -0.34194E-03  3680   0.921E-02    0.223E-01
RMM:   8    -0.191707103102E+03    0.49827E-03   -0.10313E-03  3681   0.506E-02    0.135E-01
RMM:   9    -0.191706865823E+03    0.23728E-03   -0.34458E-04  3682   0.295E-02    0.475E-02
RMM:  10    -0.191706855890E+03    0.99332E-05   -0.97999E-05  3682   0.149E-02    0.360E-02
RMM:  11    -0.191706841790E+03    0.14100E-04   -0.34763E-05  3679   0.911E-03    0.161E-02
RMM:  12    -0.191706844036E+03   -0.22455E-05   -0.11272E-05  3663   0.527E-03    0.167E-02
RMM:  13    -0.191706842218E+03    0.18175E-05   -0.41210E-06  2748   0.339E-03    0.595E-03
RMM:  14    -0.191706842631E+03   -0.41207E-06   -0.96609E-07  1992   0.178E-03
   5 F= -.19170684E+03 E0= -.19160400E+03  d E =-.548736E+00
       N       E                     dE             d eps       ncg     rms          rms(c)
DAV:   1    -0.191710695504E+03   -0.38533E-02   -0.48180E+01  3672   0.107E+01    0.853E-01
RMM:   2    -0.191760918114E+03   -0.50223E-01   -0.54225E-01  3683   0.156E+00    0.517E-01
RMM:   3    -0.191769595149E+03   -0.86770E-02   -0.31403E-02  3704   0.309E-01    0.974E-01
RMM:   4    -0.191760274086E+03    0.93211E-02   -0.79509E-03  3683   0.146E-01    0.414E-01
RMM:   5    -0.191760539925E+03   -0.26584E-03   -0.60091E-03  3682   0.121E-01    0.422E-01
RMM:   6    -0.191758932599E+03    0.16073E-02   -0.51172E-03  3682   0.114E-01    0.194E-01
RMM:   7    -0.191758756443E+03    0.17616E-03   -0.11495E-03  3681   0.543E-02    0.154E-01
RMM:   8    -0.191758468767E+03    0.28768E-03   -0.42063E-04  3680   0.327E-02    0.725E-02
RMM:   9    -0.191758407843E+03    0.60924E-04   -0.13775E-04  3680   0.186E-02    0.377E-02
RMM:  10    -0.191758395540E+03    0.12303E-04   -0.35402E-05  3683   0.893E-03    0.202E-02
RMM:  11    -0.191758391901E+03    0.36389E-05   -0.15195E-05  3677   0.605E-03    0.141E-02
RMM:  12    -0.191758391080E+03    0.82116E-06   -0.66719E-06  3645   0.403E-03
   6 F= -.19175839E+03 E0= -.19165664E+03  d E =-.515484E-01
       N       E                     dE             d eps       ncg     rms          rms(c)
DAV:   1    -0.191758394385E+03   -0.24836E-05   -0.31644E-02  3882   0.275E-01    0.217E-02
RMM:   2    -0.191758428953E+03   -0.34569E-04   -0.35668E-04  3682   0.403E-02    0.203E-02
RMM:   3    -0.191758431229E+03   -0.22757E-05   -0.27659E-05  3710   0.910E-03    0.235E-02
RMM:   4    -0.191758427067E+03    0.41615E-05   -0.62574E-06  3267   0.414E-03    0.159E-02
RMM:   5    -0.191758425438E+03    0.16293E-05   -0.31245E-06  2466   0.290E-03    0.103E-02
RMM:   6    -0.191758425462E+03   -0.23763E-07   -0.48093E-06  2921   0.364E-03
   7 F= -.19175843E+03 E0= -.19165673E+03  d E =-.515828E-01
       N       E                     dE             d eps       ncg     rms          rms(c)
DAV:   1    -0.191763152867E+03   -0.47274E-02   -0.56774E+00  3672   0.365E+00    0.220E-01
RMM:   2    -0.191769082319E+03   -0.59295E-02   -0.61963E-02  3680   0.537E-01    0.188E-01
RMM:   3    -0.191769302020E+03   -0.21970E-03   -0.36729E-03  3736   0.109E-01    0.199E-01
RMM:   4    -0.191769143877E+03    0.15814E-03   -0.73679E-04  3676   0.445E-02    0.194E-01
RMM:   5    -0.191768860848E+03    0.28303E-03   -0.40765E-04  3682   0.320E-02    0.129E-01
RMM:   6    -0.191768871399E+03   -0.10551E-04   -0.71785E-04  3680   0.416E-02    0.127E-01
RMM:   7    -0.191768739705E+03    0.13169E-03   -0.37678E-04  3684   0.305E-02    0.607E-02
RMM:   8    -0.191768713522E+03    0.26183E-04   -0.70251E-05  3682   0.136E-02    0.332E-02
RMM:   9    -0.191768700206E+03    0.13316E-04   -0.25931E-05  3676   0.803E-03    0.260E-02
RMM:  10    -0.191768689463E+03    0.10744E-04   -0.17802E-05  3673   0.646E-03    0.110E-02
RMM:  11    -0.191768687969E+03    0.14936E-05   -0.85804E-06  3673   0.435E-03    0.639E-03
RMM:  12    -0.191768687604E+03    0.36501E-06   -0.29599E-06  2121   0.277E-03
   8 F= -.19176869E+03 E0= -.19166678E+03  d E =-.102621E-01
       N       E                     dE             d eps       ncg     rms          rms(c)
DAV:   1    -0.191761976367E+03    0.67116E-02   -0.13025E+01  3672   0.553E+00    0.329E-01
RMM:   2    -0.191775567540E+03   -0.13591E-01   -0.14192E-01  3680   0.813E-01    0.280E-01
RMM:   3    -0.191776039669E+03   -0.47213E-03   -0.82863E-03  3735   0.164E-01    0.290E-01
RMM:   4    -0.191775758266E+03    0.28140E-03   -0.16486E-03  3676   0.663E-02    0.298E-01
RMM:   5    -0.191775026814E+03    0.73145E-03   -0.92055E-04  3682   0.482E-02    0.189E-01
RMM:   6    -0.191774978294E+03    0.48520E-04   -0.17364E-03  3680   0.650E-02    0.169E-01
RMM:   7    -0.191774775444E+03    0.20285E-03   -0.75440E-04  3684   0.432E-02    0.940E-02
RMM:   8    -0.191774705511E+03    0.69932E-04   -0.15091E-04  3682   0.198E-02    0.502E-02
RMM:   9    -0.191774675036E+03    0.30475E-04   -0.59573E-05  3680   0.121E-02    0.397E-02
RMM:  10    -0.191774651276E+03    0.23760E-04   -0.38127E-05  3679   0.947E-03    0.170E-02
RMM:  11    -0.191774647815E+03    0.34615E-05   -0.19842E-05  3675   0.663E-03    0.994E-03
RMM:  12    -0.191774646971E+03    0.84326E-06   -0.79219E-06  3667   0.423E-03
   9 F= -.19177465E+03 E0= -.19167244E+03  d E =-.162215E-01
       N       E                     dE             d eps       ncg     rms          rms(c)
DAV:   1    -0.191777312026E+03   -0.26642E-02   -0.53107E+00  3672   0.352E+00    0.181E-01
RMM:   2    -0.191782872040E+03   -0.55600E-02   -0.57431E-02  3680   0.520E-01    0.189E-01
RMM:   3    -0.191782866345E+03    0.56948E-05   -0.34057E-03  3823   0.106E-01    0.158E-01
RMM:   4    -0.191782761988E+03    0.10436E-03   -0.42898E-04  3674   0.352E-02    0.157E-01
RMM:   5    -0.191782680584E+03    0.81404E-04   -0.27073E-04  3684   0.258E-02    0.142E-01
RMM:   6    -0.191782601801E+03    0.78782E-04   -0.69739E-04  3680   0.400E-02    0.122E-01
RMM:   7    -0.191782493856E+03    0.10795E-03   -0.54361E-04  3684   0.360E-02    0.638E-02
RMM:   8    -0.191782473922E+03    0.19934E-04   -0.83159E-05  3682   0.147E-02    0.408E-02
RMM:   9    -0.191782458997E+03    0.14925E-04   -0.19310E-05  3678   0.701E-03    0.338E-02
RMM:  10    -0.191782441662E+03    0.17335E-04   -0.24781E-05  3679   0.760E-03    0.173E-02
RMM:  11    -0.191782437235E+03    0.44268E-05   -0.19746E-05  3673   0.657E-03    0.933E-03
RMM:  12    -0.191782436571E+03    0.66381E-06   -0.77100E-06  3622   0.413E-03
  10 F= -.19178244E+03 E0= -.19167986E+03  d E =-.778960E-02
       N       E                     dE             d eps       ncg     rms          rms(c)
DAV:   1    -0.191772260961E+03    0.10176E-01   -0.18549E+01  3672   0.658E+00    0.335E-01
RMM:   2    -0.191791737018E+03   -0.19476E-01   -0.20022E-01  3680   0.970E-01    0.351E-01
RMM:   3    -0.191791742481E+03   -0.54638E-05   -0.11845E-02  3810   0.197E-01    0.295E-01
RMM:   4    -0.191791340810E+03    0.40167E-03   -0.14659E-03  3674   0.654E-02    0.287E-01
RMM:   5    -0.191791080243E+03    0.26057E-03   -0.91739E-04  3684   0.476E-02    0.265E-01
RMM:   6    -0.191790761481E+03    0.31876E-03   -0.24238E-03  3680   0.744E-02    0.227E-01
RMM:   7    -0.191790362907E+03    0.39857E-03   -0.18926E-03  3684   0.672E-02    0.119E-01
RMM:   8    -0.191790292467E+03    0.70440E-04   -0.29021E-04  3682   0.274E-02    0.762E-02
RMM:   9    -0.191790240238E+03    0.52228E-04   -0.68297E-05  3681   0.132E-02    0.631E-02
RMM:  10    -0.191790179535E+03    0.60704E-04   -0.85702E-05  3681   0.141E-02    0.326E-02
RMM:  11    -0.191790163810E+03    0.15725E-04   -0.64847E-05  3680   0.119E-02    0.181E-02
RMM:  12    -0.191790160796E+03    0.30146E-05   -0.29054E-05  3680   0.797E-03    0.732E-03
RMM:  13    -0.191790161192E+03   -0.39640E-06   -0.36504E-06  2585   0.315E-03
  11 F= -.19179016E+03 E0= -.19168688E+03  d E =-.155142E-01
       N       E                     dE             d eps       ncg     rms          rms(c)
DAV:   1    -0.191788602093E+03    0.15587E-02   -0.21684E+00  3672   0.225E+00    0.113E-01
RMM:   2    -0.191790862161E+03   -0.22601E-02   -0.23402E-02  3680   0.332E-01    0.120E-01
RMM:   3    -0.191790849998E+03    0.12163E-04   -0.13814E-03  3818   0.673E-02    0.990E-02
RMM:   4    -0.191790805410E+03    0.44589E-04   -0.16385E-04  3674   0.219E-02    0.971E-02
RMM:   5    -0.191790781203E+03    0.24206E-04   -0.10495E-04  3684   0.161E-02    0.917E-02
RMM:   6    -0.191790750200E+03    0.31003E-04   -0.28660E-04  3680   0.256E-02    0.787E-02
RMM:   7    -0.191790707221E+03    0.42979E-04   -0.22874E-04  3684   0.234E-02    0.411E-02
RMM:   8    -0.191790699571E+03    0.76504E-05   -0.34718E-05  3678   0.949E-03    0.265E-02
RMM:   9    -0.191790693451E+03    0.61204E-05   -0.76798E-06  3326   0.445E-03    0.220E-02
RMM:  10    -0.191790686184E+03    0.72661E-05   -0.10348E-05  3672   0.496E-03    0.115E-02
RMM:  11    -0.191790684252E+03    0.19324E-05   -0.86940E-06  3661   0.436E-03    0.605E-03
RMM:  12    -0.191790684023E+03    0.22915E-06   -0.29734E-06  2119   0.275E-03
  12 F= -.19179068E+03 E0= -.19168717E+03  d E =-.160371E-01
       N       E                     dE             d eps       ncg     rms          rms(c)
DAV:   1    -0.191787803577E+03    0.28807E-02   -0.99011E+00  3672   0.483E+00    0.256E-01
RMM:   2    -0.191798390215E+03   -0.10587E-01   -0.10892E-01  3680   0.712E-01    0.272E-01
RMM:   3    -0.191798332862E+03    0.57354E-04   -0.66441E-03  3747   0.146E-01    0.220E-01
RMM:   4    -0.191797952899E+03    0.37996E-03   -0.79272E-04  3679   0.489E-02    0.178E-01
RMM:   5    -0.191798058975E+03   -0.10608E-03   -0.58680E-04  3684   0.375E-02    0.217E-01
RMM:   6    -0.191797805061E+03    0.25391E-03   -0.11610E-03  3680   0.516E-02    0.193E-01
RMM:   7    -0.191797574591E+03    0.23047E-03   -0.99120E-04  3682   0.491E-02    0.806E-02
RMM:   8    -0.191797552679E+03    0.21912E-04   -0.14028E-04  3682   0.192E-02    0.546E-02
RMM:   9    -0.191797526303E+03    0.26376E-04   -0.32374E-05  3679   0.907E-03    0.421E-02
RMM:  10    -0.191797498408E+03    0.27894E-04   -0.43330E-05  3682   0.997E-03    0.229E-02
RMM:  11    -0.191797491143E+03    0.72657E-05   -0.26796E-05  3673   0.770E-03    0.137E-02
RMM:  12    -0.191797489396E+03    0.17463E-05   -0.14255E-05  3677   0.557E-03    0.589E-03
RMM:  13    -0.191797489554E+03   -0.15762E-06   -0.21945E-06  2080   0.248E-03
  13 F= -.19179749E+03 E0= -.19169368E+03  d E =-.680553E-02
       N       E                     dE             d eps       ncg     rms          rms(c)
DAV:   1    -0.191794075692E+03    0.34137E-02   -0.51896E+00  3672   0.350E+00    0.184E-01
RMM:   2    -0.191799604137E+03   -0.55284E-02   -0.57029E-02  3680   0.516E-01    0.196E-01
RMM:   3    -0.191799568096E+03    0.36041E-04   -0.34664E-03  3747   0.105E-01    0.158E-01
RMM:   4    -0.191799377205E+03    0.19089E-03   -0.41026E-04  3679   0.352E-02    0.130E-01
RMM:   5    -0.191799430009E+03   -0.52803E-04   -0.29598E-04  3684   0.266E-02    0.156E-01
RMM:   6    -0.191799299211E+03    0.13080E-03   -0.61176E-04  3680   0.375E-02    0.138E-01
RMM:   7    -0.191799188244E+03    0.11097E-03   -0.52775E-04  3682   0.358E-02    0.585E-02
RMM:   8    -0.191799177509E+03    0.10735E-04   -0.74156E-05  3682   0.139E-02    0.397E-02
RMM:   9    -0.191799163764E+03    0.13745E-04   -0.16827E-05  3672   0.655E-03    0.308E-02
RMM:  10    -0.191799148981E+03    0.14784E-04   -0.22780E-05  3676   0.723E-03    0.168E-02
RMM:  11    -0.191799145175E+03    0.38059E-05   -0.14643E-05  3674   0.569E-03    0.100E-02
RMM:  12    -0.191799144324E+03    0.85065E-06   -0.75504E-06  3606   0.406E-03
  14 F= -.19179914E+03 E0= -.19169512E+03  d E =-.846030E-02
       N       E                     dE             d eps       ncg     rms          rms(c)
DAV:   1    -0.191798437511E+03    0.70766E-03   -0.36281E+00  3672   0.294E+00    0.162E-01
RMM:   2    -0.191802386115E+03   -0.39486E-02   -0.40851E-02  3681   0.432E-01    0.169E-01
RMM:   3    -0.191802410674E+03   -0.24560E-04   -0.25873E-03  3710   0.888E-02    0.171E-01
RMM:   4    -0.191802190554E+03    0.22012E-03   -0.31268E-04  3676   0.309E-02    0.103E-01
RMM:   5    -0.191802180242E+03    0.10311E-04   -0.14707E-04  3685   0.190E-02    0.108E-01
RMM:   6    -0.191802134814E+03    0.45428E-04   -0.36767E-04  3681   0.293E-02    0.936E-02
RMM:   7    -0.191802076094E+03    0.58720E-04   -0.36763E-04  3682   0.296E-02    0.399E-02
RMM:   8    -0.191802076280E+03   -0.18597E-06   -0.42179E-05  3675   0.105E-02    0.340E-02
RMM:   9    -0.191802064032E+03    0.12248E-04   -0.11882E-05  3644   0.560E-03    0.193E-02
RMM:  10    -0.191802059155E+03    0.48770E-05   -0.84611E-06  3638   0.448E-03    0.123E-02
RMM:  11    -0.191802057065E+03    0.20902E-05   -0.63072E-06  3462   0.378E-03    0.657E-03
RMM:  12    -0.191802056887E+03    0.17761E-06   -0.38830E-06  2576   0.310E-03
  15 F= -.19180206E+03 E0= -.19169791E+03  d E =-.291256E-02
       N       E                     dE             d eps       ncg     rms          rms(c)
DAV:   1    -0.191801839102E+03    0.21796E-03   -0.54865E-01  3696   0.114E+00    0.628E-02
RMM:   2    -0.191802432222E+03   -0.59312E-03   -0.61669E-03  3682   0.168E-01    0.665E-02
RMM:   3    -0.191802433213E+03   -0.99077E-06   -0.39046E-04  3714   0.345E-02    0.672E-02
RMM:   4    -0.191802399769E+03    0.33444E-04   -0.46558E-05  3677   0.119E-02    0.406E-02
RMM:   5    -0.191802398940E+03    0.82901E-06   -0.21962E-05  3678   0.735E-03    0.417E-02
RMM:   6    -0.191802395687E+03    0.32532E-05   -0.57412E-05  3680   0.116E-02    0.369E-02
RMM:   7    -0.191802388217E+03    0.74697E-05   -0.57194E-05  3673   0.117E-02    0.157E-02
RMM:   8    -0.191802388421E+03   -0.20409E-06   -0.63926E-06  3026   0.413E-03
  16 F= -.19180239E+03 E0= -.19169816E+03  d E =-.324410E-02
       N       E                     dE             d eps       ncg     rms          rms(c)
DAV:   1    -0.191801997890E+03    0.39033E-03   -0.25916E+00  3672   0.249E+00    0.129E-01
RMM:   2    -0.191804947394E+03   -0.29495E-02   -0.29473E-02  3681   0.367E-01    0.170E-01
RMM:   3    -0.191804900189E+03    0.47205E-04   -0.19777E-03  3716   0.770E-02    0.144E-01
RMM:   4    -0.191804748404E+03    0.15179E-03   -0.23611E-04  3675   0.261E-02    0.972E-02
RMM:   5    -0.191804684167E+03    0.64237E-04   -0.69149E-05  3684   0.136E-02    0.746E-02
RMM:   6    -0.191804683556E+03    0.61078E-06   -0.25738E-04  3679   0.247E-02    0.799E-02
RMM:   7    -0.191804647512E+03    0.36043E-04   -0.32493E-04  3683   0.276E-02    0.326E-02
RMM:   8    -0.191804650419E+03   -0.29063E-05   -0.31588E-05  3672   0.901E-03    0.299E-02
RMM:   9    -0.191804642010E+03    0.84092E-05   -0.66677E-06  3122   0.429E-03    0.178E-02
RMM:  10    -0.191804639016E+03    0.29934E-05   -0.42019E-06  2738   0.330E-03    0.133E-02
RMM:  11    -0.191804636152E+03    0.28639E-05   -0.10189E-05  3668   0.490E-03    0.552E-03
RMM:  12    -0.191804636069E+03    0.83048E-07   -0.24606E-06  2091   0.253E-03
  17 F= -.19180464E+03 E0= -.19170030E+03  d E =-.224765E-02
       N       E                     dE             d eps       ncg     rms          rms(c)
DAV:   1    -0.191802896922E+03    0.17392E-02   -0.29547E+00  3672   0.266E+00    0.135E-01
RMM:   2    -0.191806253897E+03   -0.33570E-02   -0.33393E-02  3681   0.391E-01    0.185E-01
RMM:   3    -0.191806162922E+03    0.90975E-04   -0.22229E-03  3717   0.818E-02    0.149E-01
RMM:   4    -0.191806001387E+03    0.16153E-03   -0.25164E-04  3675   0.271E-02    0.103E-01
RMM:   5    -0.191805932330E+03    0.69057E-04   -0.74420E-05  3683   0.142E-02    0.823E-02
RMM:   6    -0.191805932258E+03    0.71574E-07   -0.30678E-04  3678   0.270E-02    0.913E-02
RMM:   7    -0.191805880034E+03    0.52224E-04   -0.40932E-04  3682   0.309E-02    0.366E-02
RMM:   8    -0.191805882191E+03   -0.21573E-05   -0.39083E-05  3673   0.100E-02    0.324E-02
RMM:   9    -0.191805872142E+03    0.10049E-04   -0.79402E-06  3365   0.466E-03    0.195E-02
RMM:  10    -0.191805868595E+03    0.35468E-05   -0.49833E-06  2891   0.354E-03    0.145E-02
RMM:  11    -0.191805865137E+03    0.34580E-05   -0.12891E-05  3672   0.547E-03    0.583E-03
RMM:  12    -0.191805865083E+03    0.53653E-07   -0.29114E-06  2280   0.271E-03
  18 F= -.19180587E+03 E0= -.19170138E+03  d E =-.347666E-02
       N       E                     dE             d eps       ncg     rms          rms(c)
DAV:   1    -0.191805413485E+03    0.45165E-03   -0.61305E-01  3672   0.121E+00    0.614E-02
RMM:   2    -0.191806104723E+03   -0.69124E-03   -0.69164E-03  3681   0.178E-01    0.848E-02
RMM:   3    -0.191806080515E+03    0.24208E-04   -0.45934E-04  3717   0.372E-02    0.674E-02
RMM:   4    -0.191806048437E+03    0.32077E-04   -0.51249E-05  3675   0.122E-02    0.471E-02
RMM:   5    -0.191806035989E+03    0.12448E-04   -0.15157E-05  3678   0.639E-03    0.378E-02
RMM:   6    -0.191806040255E+03   -0.42653E-05   -0.65481E-05  3680   0.125E-02    0.420E-02
RMM:   7    -0.191806031749E+03    0.85057E-05   -0.86797E-05  3678   0.142E-02    0.169E-02
RMM:   8    -0.191806032311E+03   -0.56171E-06   -0.80779E-06  3223   0.459E-03
  19 F= -.19180603E+03 E0= -.19170144E+03  d E =-.364389E-02
       N       E                     dE             d eps       ncg     rms          rms(c)
DAV:   1    -0.191805794782E+03    0.23697E-03   -0.17370E+00  3672   0.203E+00    0.102E-01
RMM:   2    -0.191807758369E+03   -0.19636E-02   -0.19855E-02  3681   0.301E-01    0.130E-01
RMM:   3    -0.191807708545E+03    0.49824E-04   -0.13115E-03  3735   0.632E-02    0.980E-02
RMM:   4    -0.191807648428E+03    0.60117E-04   -0.13731E-04  3674   0.204E-02    0.761E-02
RMM:   5    -0.191807624593E+03    0.23835E-04   -0.45233E-05  3684   0.108E-02    0.663E-02
RMM:   6    -0.191807620058E+03    0.45346E-05   -0.15292E-04  3681   0.189E-02    0.672E-02
RMM:   7    -0.191807593840E+03    0.26218E-04   -0.23042E-04  3680   0.232E-02    0.276E-02
RMM:   8    -0.191807598230E+03   -0.43900E-05   -0.25347E-05  3672   0.797E-03    0.256E-02
RMM:   9    -0.191807592378E+03    0.58516E-05   -0.44585E-06  2818   0.355E-03    0.163E-02
RMM:  10    -0.191807589809E+03    0.25690E-05   -0.30280E-06  2404   0.288E-03    0.122E-02
RMM:  11    -0.191807587252E+03    0.25570E-05   -0.96874E-06  3661   0.477E-03    0.480E-03
RMM:  12    -0.191807587163E+03    0.89574E-07   -0.18928E-06  1978   0.224E-03
  20 F= -.19180759E+03 E0= -.19170293E+03  d E =-.155485E-02
       N       E                     dE             d eps       ncg     rms          rms(c)
DAV:   1    -0.191805937596E+03    0.16497E-02   -0.28015E+00  3672   0.258E+00    0.125E-01
RMM:   2    -0.191809099497E+03   -0.31619E-02   -0.31666E-02  3680   0.381E-01    0.170E-01
RMM:   3    -0.191808981204E+03    0.11829E-03   -0.20675E-03  3739   0.795E-02    0.120E-01
RMM:   4    -0.191808887819E+03    0.93385E-04   -0.19899E-04  3675   0.246E-02    0.971E-02
RMM:   5    -0.191808850794E+03    0.37025E-04   -0.66747E-05  3685   0.132E-02    0.879E-02
RMM:   6    -0.191808838181E+03    0.12613E-04   -0.27971E-04  3680   0.255E-02    0.924E-02
RMM:   7    -0.191808779187E+03    0.58995E-04   -0.41945E-04  3682   0.313E-02    0.378E-02
RMM:   8    -0.191808784961E+03   -0.57743E-05   -0.44893E-05  3673   0.106E-02    0.336E-02
RMM:   9    -0.191808774803E+03    0.10158E-04   -0.76611E-06  3253   0.461E-03    0.219E-02
RMM:  10    -0.191808770221E+03    0.45824E-05   -0.55579E-06  3017   0.374E-03    0.162E-02
RMM:  11    -0.191808765715E+03    0.45058E-05   -0.17404E-05  3672   0.629E-03    0.622E-03
RMM:  12    -0.191808765636E+03    0.79119E-07   -0.36337E-06  2556   0.297E-03
  21 F= -.19180877E+03 E0= -.19170397E+03  d E =-.273333E-02
       N       E                     dE             d eps       ncg     rms          rms(c)
DAV:   1    -0.191797107640E+03    0.11658E-01   -0.11207E+01  3672   0.517E+00    0.251E-01
RMM:   2    -0.191809860670E+03   -0.12753E-01   -0.12679E-01  3681   0.762E-01    0.341E-01
RMM:   3    -0.191809428680E+03    0.43199E-03   -0.82902E-03  3739   0.159E-01    0.240E-01
RMM:   4    -0.191809028092E+03    0.40059E-03   -0.79769E-04  3674   0.493E-02    0.194E-01
RMM:   5    -0.191808866467E+03    0.16162E-03   -0.27188E-04  3686   0.266E-02    0.176E-01
RMM:   6    -0.191808759137E+03    0.10733E-03   -0.11197E-03  3680   0.511E-02    0.184E-01
RMM:   7    -0.191808479381E+03    0.27976E-03   -0.16609E-03  3684   0.622E-02    0.753E-02
RMM:   8    -0.191808496006E+03   -0.16624E-04   -0.17539E-04  3678   0.210E-02    0.667E-02
RMM:   9    -0.191808455523E+03    0.40482E-04   -0.30632E-05  3682   0.916E-03    0.434E-02
RMM:  10    -0.191808437901E+03    0.17622E-04   -0.22161E-05  3673   0.727E-03    0.322E-02
RMM:  11    -0.191808420635E+03    0.17266E-04   -0.67289E-05  3677   0.121E-02    0.124E-02
RMM:  12    -0.191808420453E+03    0.18217E-06   -0.15271E-05  3672   0.580E-03    0.556E-03
RMM:  13    -0.191808420981E+03   -0.52828E-06   -0.17916E-06  2067   0.228E-03
  22 F= -.19180842E+03 E0= -.19170333E+03  d E =-.238867E-02
       N       E                     dE             d eps       ncg     rms          rms(c)
DAV:   1    -0.191804622758E+03    0.37977E-02   -0.43721E+00  3672   0.323E+00    0.157E-01
RMM:   2    -0.191809530890E+03   -0.49081E-02   -0.49482E-02  3681   0.476E-01    0.205E-01
RMM:   3    -0.191809388582E+03    0.14231E-03   -0.32088E-03  3737   0.991E-02    0.149E-01
RMM:   4    -0.191809239633E+03    0.14895E-03   -0.31669E-04  3674   0.311E-02    0.119E-01
RMM:   5    -0.191809185839E+03    0.53794E-04   -0.10847E-04  3686   0.167E-02    0.109E-01
RMM:   6    -0.191809162940E+03    0.22898E-04   -0.42247E-04  3680   0.313E-02    0.114E-01
RMM:   7    -0.191809061480E+03    0.10146E-03   -0.61307E-04  3683   0.378E-02    0.464E-02
RMM:   8    -0.191809071129E+03   -0.96490E-05   -0.69252E-05  3676   0.132E-02    0.420E-02
RMM:   9    -0.191809054923E+03    0.16205E-04   -0.12243E-05  3658   0.580E-03    0.267E-02
RMM:  10    -0.191809048194E+03    0.67296E-05   -0.85848E-06  3454   0.454E-03    0.197E-02
RMM:  11    -0.191809041708E+03    0.64863E-05   -0.25489E-05  3678   0.750E-03    0.740E-03
RMM:  12    -0.191809041560E+03    0.14749E-06   -0.54880E-06  3059   0.355E-03
  23 F= -.19180904E+03 E0= -.19170412E+03  d E =-.300925E-02
       N       E                     dE             d eps       ncg     rms          rms(c)
DAV:   1    -0.191808569562E+03    0.47215E-03   -0.13637E+00  3672   0.180E+00    0.859E-02
RMM:   2    -0.191810066516E+03   -0.14970E-02   -0.15241E-02  3681   0.265E-01    0.105E-01
RMM:   3    -0.191810035442E+03    0.31073E-04   -0.97027E-04  3746   0.547E-02    0.765E-02
RMM:   4    -0.191809991811E+03    0.43632E-04   -0.96817E-05  3674   0.172E-02    0.643E-02
RMM:   5    -0.191809980432E+03    0.11379E-04   -0.34546E-05  3683   0.941E-03    0.629E-02
RMM:   6    -0.191809969979E+03    0.10453E-04   -0.13409E-04  3681   0.178E-02    0.628E-02
RMM:   7    -0.191809947869E+03    0.22110E-04   -0.16398E-04  3679   0.197E-02    0.257E-02
RMM:   8    -0.191809951228E+03   -0.33583E-05   -0.21159E-05  3672   0.728E-03    0.229E-02
RMM:   9    -0.191809946454E+03    0.47738E-05   -0.36298E-06  2711   0.321E-03    0.147E-02
RMM:  10    -0.191809944156E+03    0.22980E-05   -0.28382E-06  2268   0.282E-03    0.109E-02
RMM:  11    -0.191809942087E+03    0.20689E-05   -0.87726E-06  3671   0.455E-03    0.354E-03
RMM:  12    -0.191809942089E+03   -0.22992E-08   -0.12961E-06  1948   0.187E-03
  24 F= -.19180994E+03 E0= -.19170491E+03  d E =-.900529E-03
       N       E                     dE             d eps       ncg     rms          rms(c)
DAV:   1    -0.191809024871E+03    0.91722E-03   -0.12085E+00  3672   0.170E+00    0.801E-02
RMM:   2    -0.191810350652E+03   -0.13258E-02   -0.13463E-02  3681   0.250E-01    0.101E-01
RMM:   3    -0.191810314349E+03    0.36303E-04   -0.85295E-04  3749   0.514E-02    0.717E-02
RMM:   4    -0.191810275920E+03    0.38428E-04   -0.81156E-05  3674   0.158E-02    0.604E-02
RMM:   5    -0.191810267591E+03    0.83297E-05   -0.30134E-05  3683   0.880E-03    0.605E-02
RMM:   6    -0.191810258429E+03    0.91618E-05   -0.12540E-04  3682   0.172E-02    0.613E-02
RMM:   7    -0.191810237563E+03    0.20865E-04   -0.15497E-04  3679   0.192E-02    0.248E-02
RMM:   8    -0.191810240255E+03   -0.26921E-05   -0.19375E-05  3672   0.697E-03    0.217E-02
RMM:   9    -0.191810235987E+03    0.42684E-05   -0.32644E-06  2609   0.305E-03    0.143E-02
RMM:  10    -0.191810233910E+03    0.20774E-05   -0.24614E-06  2101   0.267E-03    0.107E-02
RMM:  11    -0.191810231949E+03    0.19608E-05   -0.83498E-06  3667   0.445E-03    0.367E-03
RMM:  12    -0.191810231933E+03    0.16254E-07   -0.13354E-06  1949   0.189E-03
  25 F= -.19181023E+03 E0= -.19170509E+03  d E =-.119037E-02
       N       E                     dE             d eps       ncg     rms          rms(c)
DAV:   1    -0.191809765537E+03    0.46641E-03   -0.11296E+00  3672   0.164E+00    0.745E-02
RMM:   2    -0.191810964900E+03   -0.11994E-02   -0.12342E-02  3681   0.240E-01    0.808E-02
RMM:   3    -0.191810972509E+03   -0.76097E-05   -0.75005E-04  3757   0.485E-02    0.755E-02
RMM:   4    -0.191810923536E+03    0.48974E-04   -0.80061E-05  3673   0.153E-02    0.586E-02
RMM:   5    -0.191810905126E+03    0.18410E-04   -0.24347E-05  3685   0.804E-03    0.513E-02
RMM:   6    -0.191810890589E+03    0.14537E-04   -0.11499E-04  3681   0.166E-02    0.476E-02
RMM:   7    -0.191810880178E+03    0.10410E-04   -0.12732E-04  3681   0.174E-02    0.224E-02
RMM:   8    -0.191810882303E+03   -0.21244E-05   -0.15595E-05  3671   0.632E-03    0.202E-02
RMM:   9    -0.191810878685E+03    0.36174E-05   -0.29947E-06  2520   0.291E-03    0.129E-02
RMM:  10    -0.191810876980E+03    0.17057E-05   -0.23186E-06  2053   0.259E-03    0.989E-03
RMM:  11    -0.191810875479E+03    0.15003E-05   -0.60211E-06  3440   0.385E-03    0.339E-03
RMM:  12    -0.191810875489E+03   -0.93933E-08   -0.12832E-06  1945   0.191E-03
  26 F= -.19181088E+03 E0= -.19170565E+03  d E =-.643556E-03
