 vasp.5.4.1 24Jun15 (build Mar 14 2019 10:18:33) complex                        
  
 executed on INTEL-19.0.2+OPENMPI date 2023.01.31  01:21:27
 running on   36 total cores
 distrk:  each k-point on   36 cores,    1 groups
 distr:  one band on NCORES_PER_BAND=   6 cores,    6 groups


--------------------------------------------------------------------------------------------------------


 INCAR:
 POTCAR:    PAW_PBE Au 04Oct2007                  
 POTCAR:    PAW_PBE Pd 04Jan2005                  
 POTCAR:    PAW_PBE Au 04Oct2007                  
  local pseudopotential read in
  partial core-charges read in
  partial kinetic energy density read in
  atomic valenz-charges read in
  non local Contribution for L=           2  read in
    real space projection operators read in
  non local Contribution for L=           2  read in
    real space projection operators read in
  non local Contribution for L=           0  read in
    real space projection operators read in
  non local Contribution for L=           0  read in
    real space projection operators read in
  non local Contribution for L=           1  read in
    real space projection operators read in
  non local Contribution for L=           1  read in
    real space projection operators read in
    PAW grid and wavefunctions read in
 
   number of l-projection  operators is LMAX  =           6
   number of lm-projection operators is LMMAX =          18
 
 POTCAR:    PAW_PBE Pd 04Jan2005                  
  local pseudopotential read in
  partial core-charges read in
  partial kinetic energy density read in
  atomic valenz-charges read in
  non local Contribution for L=           2  read in
    real space projection operators read in
  non local Contribution for L=           2  read in
    real space projection operators read in
  non local Contribution for L=           0  read in
    real space projection operators read in
  non local Contribution for L=           0  read in
    real space projection operators read in
  non local Contribution for L=           1  read in
    real space projection operators read in
  non local Contribution for L=           1  read in
    real space projection operators read in
    PAW grid and wavefunctions read in
 
   number of l-projection  operators is LMAX  =           6
   number of lm-projection operators is LMMAX =          18
 
 Optimization of the real space projectors (new method)

 maximal supplied QI-value         = 15.12
 optimisation between [QCUT,QGAM] = [ 10.13, 20.41] = [ 28.73,116.64] Ry 
 Optimized for a Real-space Cutoff    1.51 Angstroem

   l    n(q)    QCUT    max X(q) W(low)/X(q) W(high)/X(q)  e(spline) 
   2      8    10.129    60.898    0.46E-03    0.46E-03    0.14E-06
   2      8    10.129    58.894    0.47E-03    0.47E-03    0.14E-06
   0      9    10.129   109.617    0.16E-03    0.11E-03    0.54E-07
   0      9    10.129    75.026    0.15E-03    0.11E-03    0.52E-07
   1      9    10.129    16.344    0.96E-04    0.15E-03    0.14E-06
   1      9    10.129    10.160    0.81E-04    0.12E-03    0.11E-06
 Optimization of the real space projectors (new method)

 maximal supplied QI-value         = 14.36
 optimisation between [QCUT,QGAM] = [ 10.20, 20.39] = [ 29.12,116.47] Ry 
 Optimized for a Real-space Cutoff    1.51 Angstroem

   l    n(q)    QCUT    max X(q) W(low)/X(q) W(high)/X(q)  e(spline) 
   2      8    10.197    59.108    0.26E-03    0.14E-03    0.96E-07
   2      8    10.197    58.101    0.27E-03    0.14E-03    0.98E-07
   0      9    10.197   102.235    0.54E-04    0.60E-05    0.72E-07
   0      9    10.197    58.388    0.52E-04    0.60E-05    0.68E-07
   1      9    10.197    22.191    0.18E-03    0.25E-03    0.79E-07
   1      9    10.197    15.590    0.15E-03    0.21E-03    0.69E-07
  PAW_PBE Au 04Oct2007                  :
 energy of atom  1       EATOM= -926.0867
 kinetic energy error for atom=    0.0062 (will be added to EATOM!!)
  PAW_PBE Pd 04Jan2005                  :
 energy of atom  2       EATOM= -809.7530
 kinetic energy error for atom=    0.0091 (will be added to EATOM!!)
 
 
 POSCAR: Au Pd                                   
  positions in cartesian coordinates
  No initial velocities read in
 exchange correlation table for  LEXCH =        8
   RHO(1)=    0.500       N(1)  =     2000
   RHO(2)=  100.500       N(2)  =     4000

 VTST: version 3.2, (02/03/18)

 CHAIN: initializing optimizer
 
 OPT: Using VASP Conjugate-Gradient optimizer
 CHAIN: Read ICHAIN            0
 
 POSCAR: Au Pd                                   
  positions in cartesian coordinates
  No initial velocities read in
 


--------------------------------------------------------------------------------------------------------


 ion  position               nearest neighbor table
   1  0.250  0.750  0.592-  32 2.75  44 2.75  19 2.75  21 2.75   9 2.75  12 2.75  17 2.75  27 2.75
                            18 2.75
   2  0.083  0.833  0.408-  32 2.75  30 2.75  16 2.75  36 2.75  47 2.75  45 2.75  31 2.75  18 2.75
                            25 2.75
   3  0.750  0.250  0.592-  13 2.75  10 2.75   8 2.75   9 2.75  21 2.75  24 2.75   5 2.75   6 2.75
                            43 2.75
   4  0.833  0.583  0.408-  35 2.75  20 2.75  11 2.75  38 2.75  45 2.75  42 2.75  47 2.75  37 2.75
                            41 2.75
   5  0.500  0.250  0.592-  14 2.75  43 2.75  21 2.75  23 2.75  24 2.75  19 2.75  34 2.75   3 2.75
                            22 2.75
   6  0.000  0.250  0.592-  37 2.75  46 2.75  12 2.75  33 2.75   8 2.75   9 2.75   3 2.75  34 2.75
                            10 2.75
   7  0.333  0.083  0.408-  22 2.75  20 2.75  28 2.75  31 2.75  38 2.75  36 2.75  39 2.75  40 2.75
                            46 2.75
   8  0.750  0.500  0.592-  41 2.75  37 2.75  17 2.75   3 2.75   6 2.75  48 2.75  33 2.75  21 2.75
                            13 2.75
   9  0.000  0.000  0.592-  10 2.75  32 2.75   6 2.75   1 2.75  27 2.75   3 2.75  12 2.75  24 2.75
                            25 2.75
  10  0.917  0.167  0.500-  16 2.75   9 2.75   3 2.75  13 2.75  25 2.75  32 2.75  37 2.75  43 2.75
                            46 2.75  11 2.75  36 2.75   6 2.75
  11  0.833  0.333  0.408-  37 2.75  16 2.75  36 2.75   4 2.75  42 2.75  38 2.75  26 2.75  10 2.75
                            13 2.75
  12  0.250  0.000  0.592-  46 2.75  40 2.75  17 2.75  34 2.75   1 2.75   6 2.75  23 2.75   9 2.75
                            32 2.75
  13  0.667  0.417  0.500-  26 2.75   3 2.75  21 2.75  10 2.75  41 2.75  43 2.75  44 2.75  37 2.75
                            14 2.75  42 2.75   8 2.75  11 2.75
  14  0.417  0.417  0.500-  28 2.75   5 2.75  19 2.75  22 2.75  18 2.75  43 2.75  44 2.75  13 2.75
                            15 2.75  30 2.75  21 2.75  26 2.75
  15  0.167  0.417  0.500-  38 2.75  34 2.75  33 2.75  22 2.75  35 2.75  18 2.75  46 2.75  14 2.75
                            37 2.75  47 2.75  28 2.75  19 2.75
  16  0.833  0.083  0.408-  10 2.75   2 2.75  11 2.75  26 2.75  45 2.75  39 2.75  36 2.75  25 2.75
                            43 2.75
  17  0.500  0.750  0.592-  40 2.75  41 2.75  21 2.75  23 2.75   8 2.75  12 2.75   1 2.75  48 2.75
                            44 2.75
  18  0.167  0.667  0.500-  47 2.75  19 2.75  27 2.75  25 2.75  15 2.75  32 2.75  14 2.75  44 2.75
                            35 2.75   2 2.75   1 2.75  30 2.75
  19  0.250  0.500  0.592-  18 2.75  14 2.75   1 2.75   5 2.75  27 2.75  34 2.75  33 2.75  21 2.75
                            15 2.75
  20  0.583  0.833  0.408-  29 2.75   7 2.75   4 2.75  39 2.75  42 2.75  31 2.75  45 2.75  41 2.75
                            40 2.75
  21  0.500  0.500  0.592-  44 2.75  13 2.75   5 2.75   1 2.75  17 2.75   3 2.75  19 2.75   8 2.75
                            14 2.75
  22  0.417  0.167  0.500-   7 2.75  23 2.75  34 2.75  14 2.75  29 2.75  15 2.75  40 2.75  43 2.75
                            46 2.75  28 2.75  39 2.75   5 2.75
  23  0.500  0.000  0.592-  22 2.75  29 2.75   5 2.75  17 2.75  34 2.75  48 2.75  24 2.75  12 2.75
                            40 2.75
  24  0.750  0.000  0.592-  43 2.75  25 2.75   3 2.75  27 2.75   5 2.75  48 2.75   9 2.75  23 2.75
                            29 2.75
  25  0.917  0.917  0.500-  45 2.75  27 2.75  24 2.75  18 2.75  35 2.75  43 2.75  10 2.75  32 2.75
                            29 2.75  16 2.75   2 2.75   9 2.75
  26  0.583  0.333  0.408-  13 2.75  16 2.75  30 2.75  39 2.75  42 2.75  28 2.75  11 2.75  43 2.75
                            14 2.75
  27  0.000  0.750  0.592-  25 2.75  18 2.75  19 2.75  24 2.75   9 2.75  33 2.75   1 2.75  48 2.75
                            35 2.75
  28  0.333  0.333  0.408-  14 2.75   7 2.75  30 2.75  39 2.75  47 2.75  26 2.75  38 2.75  22 2.75
                            15 2.75
  29  0.667  0.917  0.500-  20 2.75  48 2.75  23 2.75  35 2.75  41 2.75  43 2.75  22 2.75  40 2.75
                            25 2.75  39 2.75  45 2.75  24 2.75
  30  0.333  0.583  0.408-  44 2.75  26 2.75  28 2.75  31 2.75   2 2.75  42 2.75  47 2.75  14 2.75
                            18 2.75
  31  0.333  0.833  0.408-  40 2.75  30 2.75  36 2.75   7 2.75  42 2.75   2 2.75  20 2.75  44 2.75
                            32 2.75
  32  0.167  0.917  0.500-   2 2.75   1 2.75   9 2.75  10 2.75  18 2.75  44 2.75  46 2.75  25 2.75
                            40 2.75  36 2.75  12 2.75  31 2.75
  33  0.000  0.500  0.592-  35 2.75  15 2.75  27 2.75  34 2.75   6 2.75  48 2.75   8 2.75  19 2.75
                            37 2.75
  34  0.250  0.250  0.592-  15 2.75  22 2.75  19 2.75  12 2.75  23 2.75  33 2.75   5 2.75   6 2.75
                            46 2.75
  35  0.917  0.667  0.500-   4 2.75  33 2.75  48 2.75  29 2.75  15 2.75  37 2.75  25 2.75  41 2.75
                            18 2.75  45 2.75  47 2.75  27 2.75
  36  0.083  0.083  0.408-  46 2.75  11 2.75  31 2.75  38 2.75   2 2.75  16 2.75   7 2.75  32 2.75
                            10 2.75
  37  0.917  0.417  0.500-  11 2.75   6 2.75   8 2.75  10 2.75  35 2.75  41 2.75  46 2.75  15 2.75
                            13 2.75   4 2.75  33 2.75  38 2.75
  38  0.083  0.333  0.408-  15 2.75   7 2.75   4 2.75  36 2.75  47 2.75  11 2.75  28 2.75  46 2.75
                            37 2.75
  39  0.583  0.083  0.408-  43 2.75  26 2.75  28 2.75  20 2.75  45 2.75  16 2.75   7 2.75  29 2.75
                            22 2.75
  40  0.417  0.917  0.500-  31 2.75  17 2.75  12 2.75  22 2.75  41 2.75  44 2.75  46 2.75  32 2.75
                            29 2.75   7 2.75  20 2.75  23 2.75
  41  0.667  0.667  0.500-  42 2.75   8 2.75  17 2.75  29 2.75  37 2.75  40 2.75  13 2.75  35 2.75
                            44 2.75  20 2.75   4 2.75  48 2.75
  42  0.583  0.583  0.408-  41 2.75  20 2.75  26 2.75  31 2.75  11 2.75   4 2.75  30 2.75  13 2.75
                            44 2.75
  43  0.667  0.167  0.500-  39 2.75  24 2.75   5 2.75  13 2.75  25 2.75  29 2.75  14 2.75  10 2.75
                            22 2.75  26 2.75   3 2.75  16 2.75
  44  0.417  0.667  0.500-  30 2.75  21 2.75   1 2.75  13 2.75  14 2.75  32 2.75  40 2.75  18 2.75
                            41 2.75  31 2.75  17 2.75  42 2.75
  45  0.833  0.833  0.408-  25 2.75  16 2.75   4 2.75  39 2.75  47 2.75  20 2.75   2 2.75  35 2.75
                            29 2.75
  46  0.167  0.167  0.500-  36 2.75  12 2.75   6 2.75  32 2.75  15 2.75  37 2.75  40 2.75  10 2.75
                            22 2.75  38 2.75   7 2.75  34 2.75
  47  0.083  0.583  0.408-  18 2.75   2 2.75  28 2.75  38 2.75  45 2.75   4 2.75  30 2.75  15 2.75
                            35 2.75
  48  0.750  0.750  0.592-  29 2.75  35 2.75  24 2.75   8 2.75  33 2.75  23 2.75  27 2.75  17 2.75
                            41 2.75
 
  LATTYP: Found a hexagonal cell.
 ALAT       =    11.0025815153
 C/A-ratio  =     2.2260035120
  
  Lattice vectors:
  
 A1 = (   5.5012907576,  -9.5285150994,   0.0000000000)
 A2 = ( -11.0025815153,   0.0000000000,   0.0000000000)
 A3 = (   0.0000000000,   0.0000000000, -24.4917850943)


Analysis of symmetry for initial positions (statically):
=====================================================================
 Subroutine PRICEL returns:
 Original cell was already a primitive cell.
 

 Routine SETGRP: Setting up the symmetry group for a 
 hexagonal supercell.


 Subroutine GETGRP returns: Found  1 space group operations
 (whereof  1 operations were pure point group operations)
 out of a pool of 24 trial point group operations.


The static configuration has the point symmetry C_1 .


Analysis of symmetry for dynamics (positions and initial velocities):
=====================================================================
 Subroutine PRICEL returns:
 Original cell was already a primitive cell.
 

 Routine SETGRP: Setting up the symmetry group for a 
 hexagonal supercell.


 Subroutine GETGRP returns: Found  1 space group operations
 (whereof  1 operations were pure point group operations)
 out of a pool of 24 trial point group operations.


The dynamic configuration has the point symmetry C_1 .


Analysis of constrained symmetry for selective dynamics:
=====================================================================
 Subroutine PRICEL returns:
 Original cell was already a primitive cell.
 

 Routine SETGRP: Setting up the symmetry group for a 
 hexagonal supercell.


 Subroutine GETGRP returns: Found  1 space group operations
 (whereof  1 operations were pure point group operations)
 out of a pool of 24 trial point group operations.


The constrained configuration has the point symmetry C_1 .
 
 
 KPOINTS: Automatic mesh                          

Automatic generation of k-mesh.
Space group operators:
 irot       det(A)        alpha          n_x          n_y          n_z        tau_x        tau_y        tau_z
    1     1.000000     0.000000     1.000000     0.000000     0.000000     0.000000     0.000000     0.000000
 
 Subroutine IBZKPT returns following result:
 ===========================================
 
 Found      6 irreducible k-points:
 
 Following reciprocal coordinates:
            Coordinates               Weight
  0.250000  0.250000  0.000000     16.000000
  0.000000  0.250000  0.000000     16.000000
 -0.250000  0.000000  0.000000     16.000000
 -0.250000  0.250000  0.000000     16.000000
  0.500000 -0.250000  0.000000     16.000000
 -0.250000  0.500000  0.000000     16.000000
 
 Following cartesian coordinates:
            Coordinates               Weight
  0.022722  0.013119  0.000000     16.000000
  0.000000  0.026237  0.000000     16.000000
 -0.022722  0.013119  0.000000     16.000000
 -0.022722  0.039356  0.000000     16.000000
  0.045444 -0.052474  0.000000     16.000000
 -0.022722  0.065593  0.000000     16.000000
 


--------------------------------------------------------------------------------------------------------




 Dimension of arrays:
   k-points           NKPTS =      6   k-points in BZ     NKDIM =      6   number of bands    NBANDS=    306
   number of dos      NEDOS =    301   number of ions     NIONS =     48
   non local maximal  LDIM  =      6   non local SUM 2l+1 LMDIM =     18
   total plane-waves  NPLWV = 349920
   max r-space proj   IRMAX =   2009   max aug-charges    IRDMAX=   8532
   dimension x,y,z NGX =    54 NGY =   54 NGZ =  120
   dimension x,y,z NGXF=   108 NGYF=  108 NGZF=  240
   support grid    NGXF=   108 NGYF=  108 NGZF=  240
   ions per type =              24  24
 NGX,Y,Z   is equivalent  to a cutoff of   8.16,  8.16,  8.15 a.u.
 NGXF,Y,Z  is equivalent  to a cutoff of  16.32, 16.32, 16.29 a.u.


 I would recommend the setting:
   dimension x,y,z NGX =    54 NGY =   54 NGZ =  120
 SYSTEM =  unknown system                          
 POSCAR =  Au Pd                                   

 Startparameter for this run:
   NWRITE =      1    write-flag & timer
   PREC   = normal    normal or accurate (medium, high low for compatibility)
   ISTART =      0    job   : 0-new  1-cont  2-samecut
   ICHARG =      2    charge: 1-file 2-atom 10-const
   ISPIN  =      1    spin polarized calculation?
   LNONCOLLINEAR =      F non collinear calculations
   LSORBIT =      F    spin-orbit coupling
   INIWAV =      1    electr: 0-lowe 1-rand  2-diag
   LASPH  =      F    aspherical Exc in radial PAW
   METAGGA=      F    non-selfconsistent MetaGGA calc.

 Electronic Relaxation 1
   ENCUT  =  400.0 eV  29.40 Ry    5.42 a.u.  17.94 17.94 39.94*2*pi/ulx,y,z
   ENINI  =  400.0     initial cutoff
   ENAUG  =  416.2 eV  augmentation charge cutoff
   NELM   =    500;   NELMIN=  2; NELMDL= -5     # of ELM steps 
   EDIFF  = 0.1E-05   stopping-criterion for ELM
   LREAL  =      T    real-space projection
   NLSPLINE    = F    spline interpolate recip. space projectors
   LCOMPAT=      F    compatible to vasp.4.4
   GGA_COMPAT  = T    GGA compatible to vasp.4.4-vasp.4.6
   LMAXPAW     = -100 max onsite density
   LMAXMIX     =    2 max onsite mixed and CHGCAR
   VOSKOWN=      1    Vosko Wilk Nusair interpolation
   ROPT   =   -0.00050  -0.00050
 Ionic relaxation
   EDIFFG = -.2E-01   stopping-criterion for IOM
   NSW    =    500    number of steps for IOM
   NBLOCK =      1;   KBLOCK =    500    inner block; outer block 
   IBRION =      2    ionic relax: 0-MD 1-quasi-New 2-CG
   NFREE  =      2    steps in history (QN), initial steepest desc. (CG)
   ISIF   =      0    stress and relaxation
   IWAVPR =     11    prediction:  0-non 1-charg 2-wave 3-comb
   ISYM   =      2    0-nonsym 1-usesym 2-fastsym
   LCORR  =      T    Harris-Foulkes like correction to forces

   POTIM  = 0.3500    time-step for ionic-motion
   TEIN   =    0.0    initial temperature
   TEBEG  =    0.0;   TEEND  =   0.0 temperature during run
   SMASS  =  -3.00    Nose mass-parameter (am)
   estimated Nose-frequenzy (Omega)   =  0.10E-29 period in steps =****** mass=  -0.277E-26a.u.
   SCALEE = 1.0000    scale energy and forces
   NPACO  =    256;   APACO  = 16.0  distance and # of slots for P.C.
   PSTRESS=    0.0 pullay stress

  Mass of Ions in am
   POMASS = 196.97106.42
  Ionic Valenz
   ZVAL   =  11.00 10.00
  Atomic Wigner-Seitz radii
   RWIGS  =  -1.00 -1.00
  virtual crystal weights 
   VCA    =   1.00  1.00
   NELECT =     504.0000    total number of electrons
   NUPDOWN=      -1.0000    fix difference up-down

 DOS related values:
   EMIN   =  10.00;   EMAX   =-10.00  energy-range for DOS
   EFERMI =   0.00
   ISMEAR =     0;   SIGMA  =   0.10  broadening in eV -4-tet -1-fermi 0-gaus

 Electronic relaxation 2 (details)
   IALGO  =     68    algorithm
   LDIAG  =      T    sub-space diagonalisation (order eigenvalues)
   LSUBROT=      F    optimize rotation matrix (better conditioning)
   TURBO    =      0    0=normal 1=particle mesh
   IRESTART =      0    0=no restart 2=restart with 2 vectors
   NREBOOT  =      0    no. of reboots
   NMIN     =      0    reboot dimension
   EREF     =   0.00    reference energy to select bands
   IMIX   =      4    mixing-type and parameters
     AMIX     =   0.40;   BMIX     =  1.00
     AMIX_MAG =   1.60;   BMIX_MAG =  1.00
     AMIN     =   0.10
     WC   =   100.;   INIMIX=   1;  MIXPRE=   1;  MAXMIX= -45

 Intra band minimization:
   WEIMIN = 0.0010     energy-eigenvalue tresh-hold
   EBREAK =  0.82E-09  absolut break condition
   DEPER  =   0.30     relativ break condition  

   TIME   =   0.40     timestep for ELM

  volume/ion in A,a.u.               =      53.49       360.99
  Fermi-wavevector in a.u.,A,eV,Ry     =   0.951418  1.797920 12.315955  0.905197
  Thomas-Fermi vector in A             =   2.079887
 
 Write flags
   LWAVE  =      F    write WAVECAR
   LCHARG =      F    write CHGCAR
   LVTOT  =      F    write LOCPOT, total local potential
   LVHAR  =      F    write LOCPOT, Hartree potential only
   LELF   =      F    write electronic localiz. function (ELF)
   LORBIT =      0    0 simple, 1 ext, 2 COOP (PROOUT)


 Dipole corrections
   LMONO  =      F    monopole corrections only (constant potential shift)
   LDIPOL =      T    correct potential (dipole corrections)
   IDIPOL =      3    1-x, 2-y, 3-z, 4-all directions 
   EPSILON=  1.0000000 bulk dielectric constant

 Exchange correlation treatment:
   GGA     =    PE    GGA type
   LEXCH   =     8    internal setting for exchange type
   VOSKOWN=      1    Vosko Wilk Nusair interpolation
   LHFCALC =     F    Hartree Fock is set to
   LHFONE  =     F    Hartree Fock one center treatment
   AEXX    =    0.0000 exact exchange contribution

 Linear response parameters
   LEPSILON=     F    determine dielectric tensor
   LRPA    =     F    only Hartree local field effects (RPA)
   LNABLA  =     F    use nabla operator in PAW spheres
   LVEL    =     F    velocity operator in full k-point grid
   LINTERFAST=   F  fast interpolation
   KINTER  =     0    interpolate to denser k-point grid
   CSHIFT  =0.1000    complex shift for real part using Kramers Kronig
   OMEGAMAX=  -1.0    maximum frequency
   DEG_THRESHOLD= 0.2000000E-02 threshold for treating states as degnerate
   RTIME   =    0.100 relaxation time in fs

 Orbital magnetization related:
   ORBITALMAG=     F  switch on orbital magnetization
   LCHIMAG   =     F  perturbation theory with respect to B field
   DQ        =  0.001000  dq finite difference perturbation B field



--------------------------------------------------------------------------------------------------------


 conjugate gradient relaxation of ions
   using selective dynamics as specified on POSCAR
   WARNING: If single coordinates had been selected the selection of coordinates
            is made according to the corresponding   d i r e c t   coordinates!
            Don't support selection of single cartesian coordinates -- sorry ...
  !
 charge density and potential will be updated during run
 non-spin polarized calculation
 RMM-DIIS sequential band-by-band and
  variant of blocked Davidson during initial phase
 perform sub-space diagonalisation
    before iterative eigenvector-optimisation
 modified Broyden-mixing scheme, WC =      100.0
 initial mixing is a Kerker type mixing with AMIX =  0.4000 and BMIX =      1.0000
 Hartree-type preconditioning will be used
 using additional bands           54
 real space projection scheme for non local part
 use partial core corrections
 calculate Harris-corrections to forces 
   (improved forces if not selfconsistent)
 use gradient corrections 
 use of overlap-Matrix (Vanderbilt PP)
 Gauss-broadening in eV      SIGMA  =   0.10


--------------------------------------------------------------------------------------------------------


  energy-cutoff  :      400.00
  volume of cell :     2567.68
      direct lattice vectors                 reciprocal lattice vectors
    11.002581515  0.000000000  0.000000000     0.090887761 -0.052474073  0.000000000
     5.501290758  9.528515099  0.000000000     0.000000000  0.104948147  0.000000000
     0.000000000  0.000000000 24.491785094     0.000000000  0.000000000  0.040830017

  length of vectors
    11.002581515 11.002581515 24.491785094     0.104948147  0.104948147  0.040830017


 
 k-points in units of 2pi/SCALE and weight: Automatic mesh                          
   0.02272194  0.01311852  0.00000000       0.167
   0.00000000  0.02623704  0.00000000       0.167
  -0.02272194  0.01311852  0.00000000       0.167
  -0.02272194  0.03935555  0.00000000       0.167
   0.04544388 -0.05247407  0.00000000       0.167
  -0.02272194  0.06559259  0.00000000       0.167
 
 k-points in reciprocal lattice and weights: Automatic mesh                          
   0.25000000  0.25000000  0.00000000       0.167
   0.00000000  0.25000000  0.00000000       0.167
  -0.25000000  0.00000000  0.00000000       0.167
  -0.25000000  0.25000000  0.00000000       0.167
   0.50000000 -0.25000000  0.00000000       0.167
  -0.25000000  0.50000000  0.00000000       0.167
 
 position of ions in fractional coordinates (direct lattice) 
   0.25000000  0.75000000  0.59169983
   0.08333333  0.83333333  0.40830017
   0.75000000  0.25000000  0.59169983
   0.83333333  0.58333333  0.40830017
   0.50000000  0.25000000  0.59169983
   0.00000000  0.25000000  0.59169983
   0.33333333  0.08333333  0.40830017
   0.75000000  0.50000000  0.59169983
   0.00000000  0.00000000  0.59169983
   0.91666667  0.16666667  0.50000000
   0.83333333  0.33333333  0.40830017
   0.25000000  0.00000000  0.59169983
   0.66666667  0.41666667  0.50000000
   0.41666667  0.41666667  0.50000000
   0.16666667  0.41666667  0.50000000
   0.83333333  0.08333333  0.40830017
   0.50000000  0.75000000  0.59169983
   0.16666667  0.66666667  0.50000000
   0.25000000  0.50000000  0.59169983
   0.58333333  0.83333333  0.40830017
   0.50000000  0.50000000  0.59169983
   0.41666667  0.16666667  0.50000000
   0.50000000  0.00000000  0.59169983
   0.75000000  0.00000000  0.59169983
   0.91666667  0.91666667  0.50000000
   0.58333333  0.33333333  0.40830017
   0.00000000  0.75000000  0.59169983
   0.33333333  0.33333333  0.40830017
   0.66666667  0.91666667  0.50000000
   0.33333333  0.58333333  0.40830017
   0.33333333  0.83333333  0.40830017
   0.16666667  0.91666667  0.50000000
   0.00000000  0.50000000  0.59169983
   0.25000000  0.25000000  0.59169983
   0.91666667  0.66666667  0.50000000
   0.08333333  0.08333333  0.40830017
   0.91666667  0.41666667  0.50000000
   0.08333333  0.33333333  0.40830017
   0.58333333  0.08333333  0.40830017
   0.41666667  0.91666667  0.50000000
   0.66666667  0.66666667  0.50000000
   0.58333333  0.58333333  0.40830017
   0.66666667  0.16666667  0.50000000
   0.41666667  0.66666667  0.50000000
   0.83333333  0.83333333  0.40830017
   0.16666667  0.16666667  0.50000000
   0.08333333  0.58333333  0.40830017
   0.75000000  0.75000000  0.59169983
 
 position of ions in cartesian coordinates  (Angst):
   6.87661345  7.14638632 14.49178509
   5.50129076  7.94042925 10.00000000
   9.62725883  2.38212877 14.49178509
  12.37790420  5.55830047 10.00000000
   6.87661345  2.38212877 14.49178509
   1.37532269  2.38212877 14.49178509
   4.12596807  0.79404292 10.00000000
  11.00258152  4.76425755 14.49178509
   0.00000000  0.00000000 14.49178509
  11.00258152  1.58808585 12.24589255
  11.00258152  3.17617170 10.00000000
   2.75064538  0.00000000 14.49178509
   9.62725883  3.97021462 12.24589255
   6.87661345  3.97021462 12.24589255
   4.12596807  3.97021462 12.24589255
   9.62725883  0.79404292 10.00000000
   9.62725883  7.14638632 14.49178509
   5.50129076  6.35234340 12.24589255
   5.50129076  4.76425755 14.49178509
  11.00258152  7.94042925 10.00000000
   8.25193614  4.76425755 14.49178509
   5.50129076  1.58808585 12.24589255
   5.50129076  0.00000000 14.49178509
   8.25193614  0.00000000 14.49178509
  15.12854958  8.73447217 12.24589255
   8.25193614  3.17617170 10.00000000
   4.12596807  7.14638632 14.49178509
   5.50129076  3.17617170 10.00000000
  12.37790420  8.73447217 12.24589255
   6.87661345  5.55830047 10.00000000
   8.25193614  7.94042925 10.00000000
   6.87661345  8.73447217 12.24589255
   2.75064538  4.76425755 14.49178509
   4.12596807  2.38212877 14.49178509
  13.75322689  6.35234340 12.24589255
   1.37532269  0.79404292 10.00000000
  12.37790420  3.97021462 12.24589255
   2.75064538  3.17617170 10.00000000
   6.87661345  0.79404292 10.00000000
   9.62725883  8.73447217 12.24589255
  11.00258152  6.35234340 12.24589255
   9.62725883  5.55830047 10.00000000
   8.25193614  1.58808585 12.24589255
   8.25193614  6.35234340 12.24589255
  13.75322689  7.94042925 10.00000000
   2.75064538  1.58808585 12.24589255
   4.12596807  5.55830047 10.00000000
  12.37790420  7.14638632 14.49178509
 


--------------------------------------------------------------------------------------------------------


 k-point  1 :   0.2500 0.2500 0.0000  plane waves:   46635
 k-point  2 :   0.0000 0.2500 0.0000  plane waves:   46635
 k-point  3 :  -0.2500 0.0000 0.0000  plane waves:   46635
 k-point  4 :  -0.2500 0.2500 0.0000  plane waves:   46644
 k-point  5 :   0.5000-0.2500 0.0000  plane waves:   46644
 k-point  6 :  -0.2500 0.5000 0.0000  plane waves:   46644

 maximum and minimum number of plane-waves per node :      7818     7732

 maximum number of plane-waves:     46644
 maximum index in each direction: 
   IXMAX=   18   IYMAX=   18   IZMAX=   39
   IXMIN=  -18   IYMIN=  -18   IZMIN=  -39

 WARNING: aliasing errors must be expected set NGX to  74 to avoid them
 WARNING: aliasing errors must be expected set NGY to  74 to avoid them
 WARNING: aliasing errors must be expected set NGZ to 158 to avoid them
 aliasing errors are usually negligible using standard VASP settings
 and one can safely disregard these warnings

 real space projection operators:
  total allocation   :      12803.06 KBytes
  max/ min on nodes  :       2145.66       2127.94


 parallel 3D FFT for wavefunctions:
    minimum data exchange during FFTs selected (reduces bandwidth)
 parallel 3D FFT for charge:
    minimum data exchange during FFTs selected (reduces bandwidth)


 total amount of memory used by VASP on root node    84353. kBytes
========================================================================

   base      :      30000. kBytes
   nonlr-proj:       4285. kBytes
   fftplans  :       4447. kBytes
   grid      :       6721. kBytes
   one-center:        124. kBytes
   wavefun   :      38776. kBytes
 
     INWAV:  cpu time    0.0000: real time    0.0000
 Broyden mixing: mesh for mixing (old mesh)
   NGX = 35   NGY = 35   NGZ = 79
  (NGX  =108   NGY  =108   NGZ  =240)
  gives a total of  96775 points

 initial charge density was supplied:
 charge density of overlapping atoms calculated
 number of electron     504.0000000 magnetization 
 keeping initial charge density in first step


--------------------------------------------------------------------------------------------------------


 Maximum index for non-local projection operator          355
 Maximum index for augmentation-charges          437 (set IRDMAX)


--------------------------------------------------------------------------------------------------------


 First call to EWALD:  gamma=   0.129
 Maximum number of real-space cells 4x 4x 2
 Maximum number of reciprocal cells 2x 2x 5

 FEWALD executed in parallel
    FEWALD:  cpu time    0.0026: real time    0.0029


----------------------------------------- Iteration    1(   1)  ---------------------------------------


    POTLOK:  cpu time    0.0472: real time    0.0474
    SETDIJ:  cpu time    0.0060: real time    0.0061
     EDDAV:  cpu time    6.8804: real time    6.9752
       DOS:  cpu time    0.0014: real time    0.0014
    --------------------------------------------
      LOOP:  cpu time    6.9399: real time    7.0370

 eigenvalue-minimisations  :  3672
 total energy-change (2. order) : 0.3199953E+04  (-0.1898186E+05)
 number of electron     504.0000000 magnetization 
 augmentation part      504.0000000 magnetization 

 DIPCOR: dipole corrections for dipol
 direction  3 min pos     1,
 dipolmoment           0.000000      0.000000     -0.000004 electrons x Angstroem
 Tr[quadrupol]    -10310.108343

 energy correction for charged system         0.000000 eV
 dipol+quadrupol energy correction           -0.000000 eV
 added-field ion interaction          0.000004 eV  (added to PSCEN)


 Free energy of the ion-electron system (eV)
  ---------------------------------------------------
  alpha Z        PSCENC =       805.86936850
  Ewald energy   TEWEN  =    199711.44509449
  -Hartree energ DENC   =   -242124.23566649
  -exchange      EXHF   =         0.00000000
  -V(xc)+E(xc)   XCENC  =      -327.75518879
  PAW double counting   =     40340.05962942   -38292.62782345
  entropy T*S    EENTRO =        -0.12904286
  eigenvalues    EBANDS =      1427.54038592
  atomic energy  EATOM  =     41659.78587232
  Solvation  Ediel_sol  =         0.00000000
  ---------------------------------------------------
  free energy    TOTEN  =      3199.95262907 eV

  energy without entropy =     3200.08167193  energy(sigma->0) =     3200.01715050


--------------------------------------------------------------------------------------------------------




----------------------------------------- Iteration    1(   2)  ---------------------------------------


     EDDAV:  cpu time    8.2883: real time    8.3107
       DOS:  cpu time    0.0015: real time    0.0015
    --------------------------------------------
      LOOP:  cpu time    8.2906: real time    8.3170

 eigenvalue-minimisations  :  4368
 total energy-change (2. order) :-0.3186269E+04  (-0.2926003E+04)
 number of electron     504.0000000 magnetization 
 augmentation part      504.0000000 magnetization 

 DIPCOR: dipole corrections for dipol
 direction  3 min pos     1,
 dipolmoment           0.000000      0.000000     -0.000004 electrons x Angstroem
 Tr[quadrupol]    -10310.108343

 energy correction for charged system         0.000000 eV
 dipol+quadrupol energy correction           -0.000000 eV
 added-field ion interaction          0.000004 eV  (added to PSCEN)


 Free energy of the ion-electron system (eV)
  ---------------------------------------------------
  alpha Z        PSCENC =       805.86936850
  Ewald energy   TEWEN  =    199711.44509449
  -Hartree energ DENC   =   -242124.23566649
  -exchange      EXHF   =         0.00000000
  -V(xc)+E(xc)   XCENC  =      -327.75518879
  PAW double counting   =     40340.05962942   -38292.62782345
  entropy T*S    EENTRO =        -0.12932794
  eigenvalues    EBANDS =     -1758.72838686
  atomic energy  EATOM  =     41659.78587232
  Solvation  Ediel_sol  =         0.00000000
  ---------------------------------------------------
  free energy    TOTEN  =        13.68357121 eV

  energy without entropy =       13.81289914  energy(sigma->0) =       13.74823517


--------------------------------------------------------------------------------------------------------




----------------------------------------- Iteration    1(   3)  ---------------------------------------


     EDDAV:  cpu time    7.8869: real time    7.9062
       DOS:  cpu time    0.0015: real time    0.0015
    --------------------------------------------
      LOOP:  cpu time    7.8892: real time    7.9119

 eigenvalue-minimisations  :  4116
 total energy-change (2. order) :-0.2157635E+03  (-0.2002338E+03)
 number of electron     504.0000000 magnetization 
 augmentation part      504.0000000 magnetization 

 DIPCOR: dipole corrections for dipol
 direction  3 min pos     1,
 dipolmoment           0.000000      0.000000     -0.000004 electrons x Angstroem
 Tr[quadrupol]    -10310.108343

 energy correction for charged system         0.000000 eV
 dipol+quadrupol energy correction           -0.000000 eV
 added-field ion interaction          0.000004 eV  (added to PSCEN)


 Free energy of the ion-electron system (eV)
  ---------------------------------------------------
  alpha Z        PSCENC =       805.86936850
  Ewald energy   TEWEN  =    199711.44509449
  -Hartree energ DENC   =   -242124.23566649
  -exchange      EXHF   =         0.00000000
  -V(xc)+E(xc)   XCENC  =      -327.75518879
  PAW double counting   =     40340.05962942   -38292.62782345
  entropy T*S    EENTRO =        -0.16917734
  eigenvalues    EBANDS =     -1974.45206515
  atomic energy  EATOM  =     41659.78587232
  Solvation  Ediel_sol  =         0.00000000
  ---------------------------------------------------
  free energy    TOTEN  =      -202.07995648 eV

  energy without entropy =     -201.91077914  energy(sigma->0) =     -201.99536781


--------------------------------------------------------------------------------------------------------




----------------------------------------- Iteration    1(   4)  ---------------------------------------


     EDDAV:  cpu time    8.0477: real time    8.0704
       DOS:  cpu time    0.0015: real time    0.0015
    --------------------------------------------
      LOOP:  cpu time    8.0500: real time    8.0752

 eigenvalue-minimisations  :  4212
 total energy-change (2. order) :-0.5828529E+01  (-0.5767597E+01)
 number of electron     504.0000000 magnetization 
 augmentation part      504.0000000 magnetization 

 DIPCOR: dipole corrections for dipol
 direction  3 min pos     1,
 dipolmoment           0.000000      0.000000     -0.000004 electrons x Angstroem
 Tr[quadrupol]    -10310.108343

 energy correction for charged system         0.000000 eV
 dipol+quadrupol energy correction           -0.000000 eV
 added-field ion interaction          0.000004 eV  (added to PSCEN)


 Free energy of the ion-electron system (eV)
  ---------------------------------------------------
  alpha Z        PSCENC =       805.86936850
  Ewald energy   TEWEN  =    199711.44509449
  -Hartree energ DENC   =   -242124.23566649
  -exchange      EXHF   =         0.00000000
  -V(xc)+E(xc)   XCENC  =      -327.75518879
  PAW double counting   =     40340.05962942   -38292.62782345
  entropy T*S    EENTRO =        -0.17793515
  eigenvalues    EBANDS =     -1980.27183611
  atomic energy  EATOM  =     41659.78587232
  Solvation  Ediel_sol  =         0.00000000
  ---------------------------------------------------
  free energy    TOTEN  =      -207.90848525 eV

  energy without entropy =     -207.73055010  energy(sigma->0) =     -207.81951768


--------------------------------------------------------------------------------------------------------




----------------------------------------- Iteration    1(   5)  ---------------------------------------


     EDDAV:  cpu time    8.3299: real time    8.3559
       DOS:  cpu time    0.0016: real time    0.0016
    CHARGE:  cpu time    0.2374: real time    0.2380
    MIXING:  cpu time    0.0021: real time    0.0022
    --------------------------------------------
      LOOP:  cpu time    8.5716: real time    8.6016

 eigenvalue-minimisations  :  4416
 total energy-change (2. order) :-0.1910433E+00  (-0.1904216E+00)
 number of electron     503.9998402 magnetization 
 augmentation part      191.2507526 magnetization 

 DIPCOR: dipole corrections for dipol
 direction  3 min pos     1,
 dipolmoment           0.000000      0.000000     -0.000004 electrons x Angstroem
 Tr[quadrupol]    -10310.108343

 energy correction for charged system         0.000000 eV
 dipol+quadrupol energy correction           -0.000000 eV
 added-field ion interaction          0.000004 eV  (added to PSCEN)


 Broyden mixing:
  rms(total) = 0.62216E+01    rms(broyden)= 0.62215E+01
  rms(prec ) = 0.63934E+01
  weight for this iteration     100.00

 Free energy of the ion-electron system (eV)
  ---------------------------------------------------
  alpha Z        PSCENC =       805.86936850
  Ewald energy   TEWEN  =    199711.44509449
  -Hartree energ DENC   =   -242124.23566649
  -exchange      EXHF   =         0.00000000
  -V(xc)+E(xc)   XCENC  =      -327.75518879
  PAW double counting   =     40340.05962942   -38292.62782345
  entropy T*S    EENTRO =        -0.17874026
  eigenvalues    EBANDS =     -1980.46207431
  atomic energy  EATOM  =     41659.78587232
  Solvation  Ediel_sol  =         0.00000000
  ---------------------------------------------------
  free energy    TOTEN  =      -208.09952857 eV

  energy without entropy =     -207.92078831  energy(sigma->0) =     -208.01015844


--------------------------------------------------------------------------------------------------------




----------------------------------------- Iteration    1(   6)  ---------------------------------------


    POTLOK:  cpu time    0.0428: real time    0.0430
    SETDIJ:  cpu time    0.0063: real time    0.0064
    EDDIAG:  cpu time    1.2211: real time    1.2240
  RMM-DIIS:  cpu time    3.4193: real time    3.4277
    ORTHCH:  cpu time    0.2893: real time    0.2899
       DOS:  cpu time    0.0016: real time    0.0016
    CHARGE:  cpu time    0.2380: real time    0.2430
    MIXING:  cpu time    0.0020: real time    0.0023
    --------------------------------------------
      LOOP:  cpu time    5.2209: real time    5.2421

 eigenvalue-minimisations  :  3672
 total energy-change (2. order) :-0.9067238E+01  (-0.1198915E+02)
 number of electron     503.9998454 magnetization 
 augmentation part      189.2549340 magnetization 

 DIPCOR: dipole corrections for dipol
 direction  3 min pos     1,
 dipolmoment           0.000000      0.000000     -2.011871 electrons x Angstroem
 Tr[quadrupol]    -10312.882484

 energy correction for charged system         0.000000 eV
 dipol+quadrupol energy correction           -0.142627 eV
 added-field ion interaction          1.910615 eV  (added to PSCEN)


 Broyden mixing:
  rms(total) = 0.62508E+01    rms(broyden)= 0.62506E+01
  rms(prec ) = 0.68569E+01
  weight for this iteration     100.00

 eigenvalues of (default mixing * dielectric matrix)
  average eigenvalue GAMMA=   0.5099
  0.5099

 Free energy of the ion-electron system (eV)
  ---------------------------------------------------
  alpha Z        PSCENC =       807.63735203
  Ewald energy   TEWEN  =    199711.44509449
  -Hartree energ DENC   =   -241916.63746754
  -exchange      EXHF   =         0.00000000
  -V(xc)+E(xc)   XCENC  =      -340.64289480
  PAW double counting   =     43895.56718096   -41907.68516123
  entropy T*S    EENTRO =        -0.31384533
  eigenvalues    EBANDS =     -2126.32289711
  atomic energy  EATOM  =     41659.78587232
  Solvation  Ediel_sol  =         0.00000000
  ---------------------------------------------------
  free energy    TOTEN  =      -217.16676623 eV

  energy without entropy =     -216.85292089  energy(sigma->0) =     -217.00984356


--------------------------------------------------------------------------------------------------------




----------------------------------------- Iteration    1(   7)  ---------------------------------------


    POTLOK:  cpu time    0.0418: real time    0.0471
    SETDIJ:  cpu time    0.0055: real time    0.0056
    EDDIAG:  cpu time    1.1989: real time    1.2711
  RMM-DIIS:  cpu time    3.3651: real time    3.3750
    ORTHCH:  cpu time    0.2896: real time    0.2911
       DOS:  cpu time    0.0015: real time    0.0015
    CHARGE:  cpu time    0.2405: real time    0.2411
    MIXING:  cpu time    0.0021: real time    0.0021
    --------------------------------------------
      LOOP:  cpu time    5.1457: real time    5.2381

 eigenvalue-minimisations  :  3678
 total energy-change (2. order) : 0.5489807E+01  (-0.5480973E+01)
 number of electron     503.9998372 magnetization 
 augmentation part      194.5528413 magnetization 

 DIPCOR: dipole corrections for dipol
 direction  3 min pos     1,
 dipolmoment           0.000000      0.000000      1.102946 electrons x Angstroem
 Tr[quadrupol]    -10311.492311

 energy correction for charged system         0.000000 eV
 dipol+quadrupol energy correction           -0.042866 eV
 added-field ion interaction         -1.047436 eV  (added to PSCEN)


 Broyden mixing:
  rms(total) = 0.51384E+01    rms(broyden)= 0.51381E+01
  rms(prec ) = 0.60424E+01
  weight for this iteration     100.00

 eigenvalues of (default mixing * dielectric matrix)
  average eigenvalue GAMMA=   0.6612
  1.0278  0.2946

 Free energy of the ion-electron system (eV)
  ---------------------------------------------------
  alpha Z        PSCENC =       804.77906258
  Ewald energy   TEWEN  =    199711.44509449
  -Hartree energ DENC   =   -241780.04774931
  -exchange      EXHF   =         0.00000000
  -V(xc)+E(xc)   XCENC  =      -342.79235465
  PAW double counting   =     44823.41082355   -42856.22672510
  entropy T*S    EENTRO =        -0.17920793
  eigenvalues    EBANDS =     -2231.85177529
  atomic energy  EATOM  =     41659.78587232
  Solvation  Ediel_sol  =         0.00000000
  ---------------------------------------------------
  free energy    TOTEN  =      -211.67695933 eV

  energy without entropy =     -211.49775140  energy(sigma->0) =     -211.58735537


--------------------------------------------------------------------------------------------------------




----------------------------------------- Iteration    1(   8)  ---------------------------------------


    POTLOK:  cpu time    0.0417: real time    0.0418
    SETDIJ:  cpu time    0.0063: real time    0.0063
    EDDIAG:  cpu time    1.2386: real time    1.2440
  RMM-DIIS:  cpu time    3.4136: real time    3.4234
    ORTHCH:  cpu time    0.2855: real time    0.2862
       DOS:  cpu time    0.0014: real time    0.0014
    CHARGE:  cpu time    0.2441: real time    0.2447
    MIXING:  cpu time    0.0021: real time    0.0021
    --------------------------------------------
      LOOP:  cpu time    5.2340: real time    5.2523

 eigenvalue-minimisations  :  3672
 total energy-change (2. order) :-0.2185595E+01  (-0.9700240E+01)
 number of electron     503.9998361 magnetization 
 augmentation part      197.1262485 magnetization 

 DIPCOR: dipole corrections for dipol
 direction  3 min pos     1,
 dipolmoment           0.000000      0.000000     -1.292593 electrons x Angstroem
 Tr[quadrupol]    -10311.330547

 energy correction for charged system         0.000000 eV
 dipol+quadrupol energy correction           -0.058874 eV
 added-field ion interaction          1.227538 eV  (added to PSCEN)


 Broyden mixing:
  rms(total) = 0.39622E+01    rms(broyden)= 0.39619E+01
  rms(prec ) = 0.43756E+01
  weight for this iteration     100.00

 eigenvalues of (default mixing * dielectric matrix)
  average eigenvalue GAMMA=   0.8319
  1.8285  0.4566  0.2105

 Free energy of the ion-electron system (eV)
  ---------------------------------------------------
  alpha Z        PSCENC =       807.03802783
  Ewald energy   TEWEN  =    199711.44509449
  -Hartree energ DENC   =   -241702.71107239
  -exchange      EXHF   =         0.00000000
  -V(xc)+E(xc)   XCENC  =      -344.60598658
  PAW double counting   =     46142.44016900   -44198.15761022
  entropy T*S    EENTRO =        -0.23640511
  eigenvalues    EBANDS =     -2288.86064375
  atomic energy  EATOM  =     41659.78587232
  Solvation  Ediel_sol  =         0.00000000
  ---------------------------------------------------
  free energy    TOTEN  =      -213.86255441 eV

  energy without entropy =     -213.62614930  energy(sigma->0) =     -213.74435185


--------------------------------------------------------------------------------------------------------




----------------------------------------- Iteration    1(   9)  ---------------------------------------


    POTLOK:  cpu time    0.0422: real time    0.0424
    SETDIJ:  cpu time    0.0059: real time    0.0061
    EDDIAG:  cpu time    1.2187: real time    1.2227
  RMM-DIIS:  cpu time    3.4424: real time    3.4509
    ORTHCH:  cpu time    0.2859: real time    0.2866
       DOS:  cpu time    0.0016: real time    0.0016
    CHARGE:  cpu time    0.2388: real time    0.2394
    MIXING:  cpu time    0.0022: real time    0.0022
    --------------------------------------------
      LOOP:  cpu time    5.2384: real time    5.2550

 eigenvalue-minimisations  :  3672
 total energy-change (2. order) : 0.1356377E+01  (-0.2190306E+01)
 number of electron     503.9998348 magnetization 
 augmentation part      197.3337457 magnetization 

 DIPCOR: dipole corrections for dipol
 direction  3 min pos     1,
 dipolmoment           0.000000      0.000000     -0.453092 electrons x Angstroem
 Tr[quadrupol]    -10312.073792

 energy correction for charged system         0.000000 eV
 dipol+quadrupol energy correction           -0.007234 eV
 added-field ion interaction          0.430289 eV  (added to PSCEN)


 Broyden mixing:
  rms(total) = 0.34833E+01    rms(broyden)= 0.34830E+01
  rms(prec ) = 0.38948E+01
  weight for this iteration     100.00

 eigenvalues of (default mixing * dielectric matrix)
  average eigenvalue GAMMA=   0.7865
  2.0647  0.2470  0.4171  0.4171

 Free energy of the ion-electron system (eV)
  ---------------------------------------------------
  alpha Z        PSCENC =       806.29241905
  Ewald energy   TEWEN  =    199711.44509449
  -Hartree energ DENC   =   -241695.30914222
  -exchange      EXHF   =         0.00000000
  -V(xc)+E(xc)   XCENC  =      -346.03391992
  PAW double counting   =     48120.94051819   -46203.32480292
  entropy T*S    EENTRO =        -0.21752775
  eigenvalues    EBANDS =     -2266.08468816
  atomic energy  EATOM  =     41659.78587232
  Solvation  Ediel_sol  =         0.00000000
  ---------------------------------------------------
  free energy    TOTEN  =      -212.50617693 eV

  energy without entropy =     -212.28864917  energy(sigma->0) =     -212.39741305


--------------------------------------------------------------------------------------------------------




----------------------------------------- Iteration    1(  10)  ---------------------------------------


    POTLOK:  cpu time    0.0411: real time    0.0419
    SETDIJ:  cpu time    0.0055: real time    0.0055
    EDDIAG:  cpu time    1.2178: real time    1.2208
  RMM-DIIS:  cpu time    3.4169: real time    3.4275
    ORTHCH:  cpu time    0.2855: real time    0.2862
       DOS:  cpu time    0.0016: real time    0.0016
    CHARGE:  cpu time    0.2398: real time    0.2404
    MIXING:  cpu time    0.0022: real time    0.0022
    --------------------------------------------
      LOOP:  cpu time    5.2111: real time    5.2297

 eigenvalue-minimisations  :  3678
 total energy-change (2. order) : 0.7492446E+01  (-0.2046458E+01)
 number of electron     503.9998349 magnetization 
 augmentation part      197.8122859 magnetization 

 DIPCOR: dipole corrections for dipol
 direction  3 min pos     1,
 dipolmoment           0.000000      0.000000     -0.771297 electrons x Angstroem
 Tr[quadrupol]    -10312.019044

 energy correction for charged system         0.000000 eV
 dipol+quadrupol energy correction           -0.020963 eV
 added-field ion interaction          0.732479 eV  (added to PSCEN)


 Broyden mixing:
  rms(total) = 0.24736E+01    rms(broyden)= 0.24733E+01
  rms(prec ) = 0.29755E+01
  weight for this iteration     100.00

 eigenvalues of (default mixing * dielectric matrix)
  average eigenvalue GAMMA=   0.8100
  2.2728  0.6373  0.6373  0.2258  0.2771

 Free energy of the ion-electron system (eV)
  ---------------------------------------------------
  alpha Z        PSCENC =       806.58088036
  Ewald energy   TEWEN  =    199711.44509449
  -Hartree energ DENC   =   -241694.81756450
  -exchange      EXHF   =         0.00000000
  -V(xc)+E(xc)   XCENC  =      -346.12411566
  PAW double counting   =     48703.14386257   -46792.41740846
  entropy T*S    EENTRO =        -0.21865672
  eigenvalues    EBANDS =     -2252.39169512
  atomic energy  EATOM  =     41659.78587232
  Solvation  Ediel_sol  =         0.00000000
  ---------------------------------------------------
  free energy    TOTEN  =      -205.01373072 eV

  energy without entropy =     -204.79507400  energy(sigma->0) =     -204.90440236


--------------------------------------------------------------------------------------------------------




----------------------------------------- Iteration    1(  11)  ---------------------------------------


    POTLOK:  cpu time    0.0408: real time    0.0409
    SETDIJ:  cpu time    0.0055: real time    0.0055
    EDDIAG:  cpu time    1.2119: real time    1.2165
  RMM-DIIS:  cpu time    3.4081: real time    3.4166
    ORTHCH:  cpu time    0.2858: real time    0.2865
       DOS:  cpu time    0.0016: real time    0.0016
    CHARGE:  cpu time    0.2389: real time    0.2395
    MIXING:  cpu time    0.0024: real time    0.0024
    --------------------------------------------
      LOOP:  cpu time    5.1956: real time    5.2130

 eigenvalue-minimisations  :  3679
 total energy-change (2. order) : 0.4014120E+01  (-0.1653768E+01)
 number of electron     503.9998344 magnetization 
 augmentation part      197.5047532 magnetization 

 DIPCOR: dipole corrections for dipol
 direction  3 min pos     1,
 dipolmoment           0.000000      0.000000     -0.401742 electrons x Angstroem
 Tr[quadrupol]    -10312.764039

 energy correction for charged system         0.000000 eV
 dipol+quadrupol energy correction           -0.005687 eV
 added-field ion interaction          0.381523 eV  (added to PSCEN)


 Broyden mixing:
  rms(total) = 0.31527E+01    rms(broyden)= 0.31525E+01
  rms(prec ) = 0.37366E+01
  weight for this iteration     100.00

 eigenvalues of (default mixing * dielectric matrix)
  average eigenvalue GAMMA=   0.7268
  2.3262  0.6766  0.6766  0.2542  0.2138  0.2138

 Free energy of the ion-electron system (eV)
  ---------------------------------------------------
  alpha Z        PSCENC =       806.24519969
  Ewald energy   TEWEN  =    199711.44509449
  -Hartree energ DENC   =   -241733.88471874
  -exchange      EXHF   =         0.00000000
  -V(xc)+E(xc)   XCENC  =      -345.91531996
  PAW double counting   =     49116.81075629   -47209.10123989
  entropy T*S    EENTRO =        -0.16407289
  eigenvalues    EBANDS =     -2206.22118170
  atomic energy  EATOM  =     41659.78587232
  Solvation  Ediel_sol  =         0.00000000
  ---------------------------------------------------
  free energy    TOTEN  =      -200.99961039 eV

  energy without entropy =     -200.83553750  energy(sigma->0) =     -200.91757394


--------------------------------------------------------------------------------------------------------




----------------------------------------- Iteration    1(  12)  ---------------------------------------


    POTLOK:  cpu time    0.0420: real time    0.0421
    SETDIJ:  cpu time    0.0055: real time    0.0055
    EDDIAG:  cpu time    1.2174: real time    1.2203
  RMM-DIIS:  cpu time    3.4172: real time    3.4270
    ORTHCH:  cpu time    0.2856: real time    0.2862
       DOS:  cpu time    0.0016: real time    0.0016
    CHARGE:  cpu time    0.2421: real time    0.2427
    MIXING:  cpu time    0.0026: real time    0.0027
    --------------------------------------------
      LOOP:  cpu time    5.2147: real time    5.2328

 eigenvalue-minimisations  :  3678
 total energy-change (2. order) : 0.7325093E+01  (-0.8658480E+00)
 number of electron     503.9998347 magnetization 
 augmentation part      198.2652460 magnetization 

 DIPCOR: dipole corrections for dipol
 direction  3 min pos     1,
 dipolmoment           0.000000      0.000000     -0.250455 electrons x Angstroem
 Tr[quadrupol]    -10312.733660

 energy correction for charged system         0.000000 eV
 dipol+quadrupol energy correction           -0.002210 eV
 added-field ion interaction          0.237850 eV  (added to PSCEN)


 Broyden mixing:
  rms(total) = 0.14570E+01    rms(broyden)= 0.14568E+01
  rms(prec ) = 0.16508E+01
  weight for this iteration     100.00

 eigenvalues of (default mixing * dielectric matrix)
  average eigenvalue GAMMA=   0.6515
  2.2944  0.6745  0.6745  0.2908  0.2192  0.2036  0.2036

 Free energy of the ion-electron system (eV)
  ---------------------------------------------------
  alpha Z        PSCENC =       806.10500420
  Ewald energy   TEWEN  =    199711.44509449
  -Hartree energ DENC   =   -241742.06965521
  -exchange      EXHF   =         0.00000000
  -V(xc)+E(xc)   XCENC  =      -345.72863832
  PAW double counting   =     49229.91347271   -47322.55387922
  entropy T*S    EENTRO =        -0.23819008
  eigenvalues    EBANDS =     -2190.33359785
  atomic energy  EATOM  =     41659.78587232
  Solvation  Ediel_sol  =         0.00000000
  ---------------------------------------------------
  free energy    TOTEN  =      -193.67451695 eV

  energy without entropy =     -193.43632687  energy(sigma->0) =     -193.55542191


--------------------------------------------------------------------------------------------------------




----------------------------------------- Iteration    1(  13)  ---------------------------------------


    POTLOK:  cpu time    0.0418: real time    0.0419
    SETDIJ:  cpu time    0.0054: real time    0.0054
    EDDIAG:  cpu time    1.2119: real time    1.2149
  RMM-DIIS:  cpu time    3.4052: real time    3.4135
    ORTHCH:  cpu time    0.2851: real time    0.2858
       DOS:  cpu time    0.0015: real time    0.0015
    CHARGE:  cpu time    0.2365: real time    0.2371
    MIXING:  cpu time    0.0028: real time    0.0028
    --------------------------------------------
      LOOP:  cpu time    5.1909: real time    5.2066

 eigenvalue-minimisations  :  3678
 total energy-change (2. order) : 0.2735815E+01  (-0.1784447E+00)
 number of electron     503.9998350 magnetization 
 augmentation part      198.2600738 magnetization 

 DIPCOR: dipole corrections for dipol
 direction  3 min pos     1,
 dipolmoment           0.000000      0.000000     -0.251406 electrons x Angstroem
 Tr[quadrupol]    -10312.587396

 energy correction for charged system         0.000000 eV
 dipol+quadrupol energy correction           -0.002227 eV
 added-field ion interaction          0.238753 eV  (added to PSCEN)


 Broyden mixing:
  rms(total) = 0.99309E+00    rms(broyden)= 0.99303E+00
  rms(prec ) = 0.11037E+01
  weight for this iteration     100.00

 eigenvalues of (default mixing * dielectric matrix)
  average eigenvalue GAMMA=   0.6129
  2.2653  0.6273  0.6273  0.3144  0.3144  0.3284  0.2131  0.2131

 Free energy of the ion-electron system (eV)
  ---------------------------------------------------
  alpha Z        PSCENC =       806.10588980
  Ewald energy   TEWEN  =    199711.44509449
  -Hartree energ DENC   =   -241744.95698477
  -exchange      EXHF   =         0.00000000
  -V(xc)+E(xc)   XCENC  =      -345.48096756
  PAW double counting   =     49218.80711844   -47309.94350016
  entropy T*S    EENTRO =        -0.21748253
  eigenvalues    EBANDS =     -2186.48374206
  atomic energy  EATOM  =     41659.78587232
  Solvation  Ediel_sol  =         0.00000000
  ---------------------------------------------------
  free energy    TOTEN  =      -190.93870202 eV

  energy without entropy =     -190.72121949  energy(sigma->0) =     -190.82996076


--------------------------------------------------------------------------------------------------------




----------------------------------------- Iteration    1(  14)  ---------------------------------------


    POTLOK:  cpu time    0.0414: real time    0.0416
    SETDIJ:  cpu time    0.0063: real time    0.0064
    EDDIAG:  cpu time    1.2175: real time    1.2215
  RMM-DIIS:  cpu time    3.3613: real time    3.4621
    ORTHCH:  cpu time    0.2838: real time    0.2845
       DOS:  cpu time    0.0014: real time    0.0014
    CHARGE:  cpu time    0.2383: real time    0.2418
    MIXING:  cpu time    0.0029: real time    0.0030
    --------------------------------------------
      LOOP:  cpu time    5.1537: real time    5.2665

 eigenvalue-minimisations  :  3678
 total energy-change (2. order) : 0.3520570E+00  (-0.7141495E-01)
 number of electron     503.9998353 magnetization 
 augmentation part      197.9234958 magnetization 

 DIPCOR: dipole corrections for dipol
 direction  3 min pos     1,
 dipolmoment           0.000000      0.000000     -0.229328 electrons x Angstroem
 Tr[quadrupol]    -10312.978156

 energy correction for charged system         0.000000 eV
 dipol+quadrupol energy correction           -0.001853 eV
 added-field ion interaction          0.217786 eV  (added to PSCEN)


 Broyden mixing:
  rms(total) = 0.89230E+00    rms(broyden)= 0.89227E+00
  rms(prec ) = 0.10110E+01
  weight for this iteration     100.00

 eigenvalues of (default mixing * dielectric matrix)
  average eigenvalue GAMMA=   0.5954
  2.2290  0.6671  0.6671  0.4350  0.4350  0.3001  0.2129  0.2129  0.1992

 Free energy of the ion-electron system (eV)
  ---------------------------------------------------
  alpha Z        PSCENC =       806.08529699
  Ewald energy   TEWEN  =    199711.44509449
  -Hartree energ DENC   =   -241766.70017859
  -exchange      EXHF   =         0.00000000
  -V(xc)+E(xc)   XCENC  =      -345.28426963
  PAW double counting   =     49201.73585949   -47290.82618619
  entropy T*S    EENTRO =        -0.23683750
  eigenvalues    EBANDS =     -2166.59129639
  atomic energy  EATOM  =     41659.78587232
  Solvation  Ediel_sol  =         0.00000000
  ---------------------------------------------------
  free energy    TOTEN  =      -190.58664500 eV

  energy without entropy =     -190.34980750  energy(sigma->0) =     -190.46822625


--------------------------------------------------------------------------------------------------------




----------------------------------------- Iteration    1(  15)  ---------------------------------------


    POTLOK:  cpu time    0.0415: real time    0.0416
    SETDIJ:  cpu time    0.0058: real time    0.0059
    EDDIAG:  cpu time    1.2117: real time    1.2169
  RMM-DIIS:  cpu time    3.3951: real time    3.4036
    ORTHCH:  cpu time    0.2846: real time    0.2853
       DOS:  cpu time    0.0015: real time    0.0015
    CHARGE:  cpu time    0.2353: real time    0.2359
    MIXING:  cpu time    0.0032: real time    0.0032
    --------------------------------------------
      LOOP:  cpu time    5.1793: real time    5.1962

 eigenvalue-minimisations  :  3678
 total energy-change (2. order) : 0.4608039E+00  (-0.2377683E-01)
 number of electron     503.9998357 magnetization 
 augmentation part      197.6880731 magnetization 

 DIPCOR: dipole corrections for dipol
 direction  3 min pos     1,
 dipolmoment           0.000000      0.000000     -0.275540 electrons x Angstroem
 Tr[quadrupol]    -10313.023156

 energy correction for charged system         0.000000 eV
 dipol+quadrupol energy correction           -0.002675 eV
 added-field ion interaction          0.261673 eV  (added to PSCEN)


 Broyden mixing:
  rms(total) = 0.73639E+00    rms(broyden)= 0.73637E+00
  rms(prec ) = 0.84234E+00
  weight for this iteration     100.00

 eigenvalues of (default mixing * dielectric matrix)
  average eigenvalue GAMMA=   0.6597
  2.2232  0.9987  0.9987  0.5176  0.5176  0.4491  0.2415  0.2415  0.2048  0.2048

 Free energy of the ion-electron system (eV)
  ---------------------------------------------------
  alpha Z        PSCENC =       806.12836175
  Ewald energy   TEWEN  =    199711.44509449
  -Hartree energ DENC   =   -241776.14271075
  -exchange      EXHF   =         0.00000000
  -V(xc)+E(xc)   XCENC  =      -345.04267622
  PAW double counting   =     49182.02427475   -47269.26567135
  entropy T*S    EENTRO =        -0.21673141
  eigenvalues    EBANDS =     -2158.84165471
  atomic energy  EATOM  =     41659.78587232
  Solvation  Ediel_sol  =         0.00000000
  ---------------------------------------------------
  free energy    TOTEN  =      -190.12584113 eV

  energy without entropy =     -189.90910972  energy(sigma->0) =     -190.01747542


--------------------------------------------------------------------------------------------------------




----------------------------------------- Iteration    1(  16)  ---------------------------------------


    POTLOK:  cpu time    0.0411: real time    0.0412
    SETDIJ:  cpu time    0.0064: real time    0.0064
    EDDIAG:  cpu time    1.2157: real time    1.2195
  RMM-DIIS:  cpu time    3.3969: real time    3.4232
    ORTHCH:  cpu time    0.2840: real time    0.2847
       DOS:  cpu time    0.0015: real time    0.0015
    CHARGE:  cpu time    0.2411: real time    0.2417
    MIXING:  cpu time    0.0031: real time    0.0031
    --------------------------------------------
      LOOP:  cpu time    5.1906: real time    5.2242

 eigenvalue-minimisations  :  3679
 total energy-change (2. order) : 0.1572440E+00  (-0.3835361E-01)
 number of electron     503.9998358 magnetization 
 augmentation part      197.4546757 magnetization 

 DIPCOR: dipole corrections for dipol
 direction  3 min pos     1,
 dipolmoment           0.000000      0.000000     -0.276678 electrons x Angstroem
 Tr[quadrupol]    -10313.447735

 energy correction for charged system         0.000000 eV
 dipol+quadrupol energy correction           -0.002697 eV
 added-field ion interaction          0.262753 eV  (added to PSCEN)


 Broyden mixing:
  rms(total) = 0.66541E+00    rms(broyden)= 0.66537E+00
  rms(prec ) = 0.77270E+00
  weight for this iteration     100.00

 eigenvalues of (default mixing * dielectric matrix)
  average eigenvalue GAMMA=   0.7292
  2.1736  1.4509  1.4509  0.7629  0.5149  0.5149  0.2491  0.2491  0.2352  0.2096
  0.2096

 Free energy of the ion-electron system (eV)
  ---------------------------------------------------
  alpha Z        PSCENC =       806.12941970
  Ewald energy   TEWEN  =    199711.44509449
  -Hartree energ DENC   =   -241800.03954057
  -exchange      EXHF   =         0.00000000
  -V(xc)+E(xc)   XCENC  =      -344.70890973
  PAW double counting   =     49194.63316496   -47279.30172873
  entropy T*S    EENTRO =        -0.21874679
  eigenvalues    EBANDS =     -2137.69322281
  atomic energy  EATOM  =     41659.78587232
  Solvation  Ediel_sol  =         0.00000000
  ---------------------------------------------------
  free energy    TOTEN  =      -189.96859716 eV

  energy without entropy =     -189.74985036  energy(sigma->0) =     -189.85922376


--------------------------------------------------------------------------------------------------------




----------------------------------------- Iteration    1(  17)  ---------------------------------------


    POTLOK:  cpu time    0.0412: real time    0.0431
    SETDIJ:  cpu time    0.0055: real time    0.0055
    EDDIAG:  cpu time    1.2137: real time    1.2166
  RMM-DIIS:  cpu time    3.3775: real time    3.3860
    ORTHCH:  cpu time    0.2848: real time    0.2855
       DOS:  cpu time    0.0015: real time    0.0015
    CHARGE:  cpu time    0.2361: real time    0.2367
    MIXING:  cpu time    0.0032: real time    0.0032
    --------------------------------------------
      LOOP:  cpu time    5.1641: real time    5.1806

 eigenvalue-minimisations  :  3679
 total energy-change (2. order) : 0.5538811E+00  (-0.8400827E-01)
 number of electron     503.9998361 magnetization 
 augmentation part      197.0933418 magnetization 

 DIPCOR: dipole corrections for dipol
 direction  3 min pos     1,
 dipolmoment           0.000000      0.000000     -0.248735 electrons x Angstroem
 Tr[quadrupol]    -10313.986523

 energy correction for charged system         0.000000 eV
 dipol+quadrupol energy correction           -0.002180 eV
 added-field ion interaction          0.236216 eV  (added to PSCEN)


 Broyden mixing:
  rms(total) = 0.41314E+00    rms(broyden)= 0.41303E+00
  rms(prec ) = 0.49030E+00
  weight for this iteration     100.00

 eigenvalues of (default mixing * dielectric matrix)
  average eigenvalue GAMMA=   0.7279
  2.2166  1.5630  1.5630  0.6797  0.6797  0.5771  0.3058  0.2438  0.2438  0.2527
  0.2049  0.2049

 Free energy of the ion-electron system (eV)
  ---------------------------------------------------
  alpha Z        PSCENC =       806.10340066
  Ewald energy   TEWEN  =    199711.44509449
  -Hartree energ DENC   =   -241838.79171729
  -exchange      EXHF   =         0.00000000
  -V(xc)+E(xc)   XCENC  =      -343.98696137
  PAW double counting   =     49217.31765367   -47296.81088322
  entropy T*S    EENTRO =        -0.23274073
  eigenvalues    EBANDS =     -2104.24443458
  atomic energy  EATOM  =     41659.78587232
  Solvation  Ediel_sol  =         0.00000000
  ---------------------------------------------------
  free energy    TOTEN  =      -189.41471605 eV

  energy without entropy =     -189.18197531  energy(sigma->0) =     -189.29834568


--------------------------------------------------------------------------------------------------------




----------------------------------------- Iteration    1(  18)  ---------------------------------------


    POTLOK:  cpu time    0.0414: real time    0.0416
    SETDIJ:  cpu time    0.0056: real time    0.0056
    EDDIAG:  cpu time    1.2168: real time    1.2197
  RMM-DIIS:  cpu time    3.3925: real time    3.4024
    ORTHCH:  cpu time    0.2839: real time    0.2846
       DOS:  cpu time    0.0017: real time    0.0017
    CHARGE:  cpu time    0.2375: real time    0.2380
    MIXING:  cpu time    0.0033: real time    0.0033
    --------------------------------------------
      LOOP:  cpu time    5.1833: real time    5.2007

 eigenvalue-minimisations  :  3679
 total energy-change (2. order) : 0.2293261E+00  (-0.2887050E-01)
 number of electron     503.9998362 magnetization 
 augmentation part      196.9859897 magnetization 

 DIPCOR: dipole corrections for dipol
 direction  3 min pos     1,
 dipolmoment           0.000000      0.000000     -0.160026 electrons x Angstroem
 Tr[quadrupol]    -10314.330307

 energy correction for charged system         0.000000 eV
 dipol+quadrupol energy correction           -0.000902 eV
 added-field ion interaction          0.151972 eV  (added to PSCEN)


 Broyden mixing:
  rms(total) = 0.18814E+00    rms(broyden)= 0.18803E+00
  rms(prec ) = 0.20223E+00
  weight for this iteration     100.00

 eigenvalues of (default mixing * dielectric matrix)
  average eigenvalue GAMMA=   0.7167
  2.2592  1.5878  1.5878  0.7524  0.7524  0.5540  0.3423  0.3423  0.2405  0.2405
  0.2483  0.2047  0.2047

 Free energy of the ion-electron system (eV)
  ---------------------------------------------------
  alpha Z        PSCENC =       806.02043411
  Ewald energy   TEWEN  =    199711.44509449
  -Hartree energ DENC   =   -241856.76876754
  -exchange      EXHF   =         0.00000000
  -V(xc)+E(xc)   XCENC  =      -343.77184038
  PAW double counting   =     49250.45529158   -47328.39023605
  entropy T*S    EENTRO =        -0.23001383
  eigenvalues    EBANDS =     -2087.73122464
  atomic energy  EATOM  =     41659.78587232
  Solvation  Ediel_sol  =         0.00000000
  ---------------------------------------------------
  free energy    TOTEN  =      -189.18538993 eV

  energy without entropy =     -188.95537611  energy(sigma->0) =     -189.07038302


--------------------------------------------------------------------------------------------------------




----------------------------------------- Iteration    1(  19)  ---------------------------------------


    POTLOK:  cpu time    0.0411: real time    0.0412
    SETDIJ:  cpu time    0.0055: real time    0.0055
    EDDIAG:  cpu time    1.2100: real time    1.2130
  RMM-DIIS:  cpu time    3.3970: real time    3.4053
    ORTHCH:  cpu time    0.2840: real time    0.2847
       DOS:  cpu time    0.0015: real time    0.0015
    CHARGE:  cpu time    0.2357: real time    0.2363
    MIXING:  cpu time    0.0035: real time    0.0035
    --------------------------------------------
      LOOP:  cpu time    5.1790: real time    5.1935

 eigenvalue-minimisations  :  3682
 total energy-change (2. order) : 0.1829436E-01  (-0.4794625E-02)
 number of electron     503.9998363 magnetization 
 augmentation part      196.9271942 magnetization 

 DIPCOR: dipole corrections for dipol
 direction  3 min pos     1,
 dipolmoment           0.000000      0.000000     -0.130113 electrons x Angstroem
 Tr[quadrupol]    -10314.458695

 energy correction for charged system         0.000000 eV
 dipol+quadrupol energy correction           -0.000597 eV
 added-field ion interaction          0.123565 eV  (added to PSCEN)


 Broyden mixing:
  rms(total) = 0.15424E+00    rms(broyden)= 0.15422E+00
  rms(prec ) = 0.16353E+00
  weight for this iteration     100.00

 eigenvalues of (default mixing * dielectric matrix)
  average eigenvalue GAMMA=   0.6972
  2.2908  1.5830  1.5830  0.7828  0.7828  0.5776  0.3835  0.3835  0.2470  0.2470
  0.2595  0.2076  0.2076  0.2256

 Free energy of the ion-electron system (eV)
  ---------------------------------------------------
  alpha Z        PSCENC =       805.99233264
  Ewald energy   TEWEN  =    199711.44509449
  -Hartree energ DENC   =   -241863.10853249
  -exchange      EXHF   =         0.00000000
  -V(xc)+E(xc)   XCENC  =      -343.72777134
  PAW double counting   =     49267.74888017   -47345.35674679
  entropy T*S    EENTRO =        -0.23389901
  eigenvalues    EBANDS =     -2081.71232556
  atomic energy  EATOM  =     41659.78587232
  Solvation  Ediel_sol  =         0.00000000
  ---------------------------------------------------
  free energy    TOTEN  =      -189.16709557 eV

  energy without entropy =     -188.93319656  energy(sigma->0) =     -189.05014607


--------------------------------------------------------------------------------------------------------




----------------------------------------- Iteration    1(  20)  ---------------------------------------


    POTLOK:  cpu time    0.0412: real time    0.0413
    SETDIJ:  cpu time    0.0055: real time    0.0055
    EDDIAG:  cpu time    1.2166: real time    1.2196
  RMM-DIIS:  cpu time    3.3709: real time    3.3793
    ORTHCH:  cpu time    0.2835: real time    0.2841
       DOS:  cpu time    0.0015: real time    0.0015
    CHARGE:  cpu time    0.2407: real time    0.2412
    MIXING:  cpu time    0.0037: real time    0.0037
    --------------------------------------------
      LOOP:  cpu time    5.1642: real time    5.1791

 eigenvalue-minimisations  :  3684
 total energy-change (2. order) : 0.3974377E-02  (-0.8895740E-03)
 number of electron     503.9998363 magnetization 
 augmentation part      196.9137418 magnetization 

 DIPCOR: dipole corrections for dipol
 direction  3 min pos     1,
 dipolmoment           0.000000      0.000000     -0.128716 electrons x Angstroem
 Tr[quadrupol]    -10314.525580

 energy correction for charged system         0.000000 eV
 dipol+quadrupol energy correction           -0.000584 eV
 added-field ion interaction          0.122238 eV  (added to PSCEN)


 Broyden mixing:
  rms(total) = 0.13930E+00    rms(broyden)= 0.13929E+00
  rms(prec ) = 0.15074E+00
  weight for this iteration     100.00

 eigenvalues of (default mixing * dielectric matrix)
  average eigenvalue GAMMA=   0.7245
  2.3605  1.5637  1.5637  1.0054  1.0054  0.6690  0.5057  0.5057  0.2838  0.2838
  0.2395  0.2395  0.2054  0.2054  0.2315

 Free energy of the ion-electron system (eV)
  ---------------------------------------------------
  alpha Z        PSCENC =       805.99101830
  Ewald energy   TEWEN  =    199711.44509449
  -Hartree energ DENC   =   -241865.42484266
  -exchange      EXHF   =         0.00000000
  -V(xc)+E(xc)   XCENC  =      -343.73270819
  PAW double counting   =     49279.80011647   -47357.48853490
  entropy T*S    EENTRO =        -0.23290807
  eigenvalues    EBANDS =     -2079.30622896
  atomic energy  EATOM  =     41659.78587232
  Solvation  Ediel_sol  =         0.00000000
  ---------------------------------------------------
  free energy    TOTEN  =      -189.16312120 eV

  energy without entropy =     -188.93021313  energy(sigma->0) =     -189.04666716


--------------------------------------------------------------------------------------------------------




----------------------------------------- Iteration    1(  21)  ---------------------------------------


    POTLOK:  cpu time    0.0415: real time    0.0416
    SETDIJ:  cpu time    0.0055: real time    0.0055
    EDDIAG:  cpu time    1.2125: real time    1.2155
  RMM-DIIS:  cpu time    3.4205: real time    3.4287
    ORTHCH:  cpu time    0.2838: real time    0.2844
       DOS:  cpu time    0.0015: real time    0.0015
    CHARGE:  cpu time    0.2363: real time    0.2368
    MIXING:  cpu time    0.0039: real time    0.0040
    --------------------------------------------
      LOOP:  cpu time    5.2061: real time    5.2215

 eigenvalue-minimisations  :  3678
 total energy-change (2. order) : 0.6045887E-02  (-0.1703077E-02)
 number of electron     503.9998363 magnetization 
 augmentation part      196.9412475 magnetization 

 DIPCOR: dipole corrections for dipol
 direction  3 min pos     1,
 dipolmoment           0.000000      0.000000     -0.127150 electrons x Angstroem
 Tr[quadrupol]    -10314.635151

 energy correction for charged system         0.000000 eV
 dipol+quadrupol energy correction           -0.000570 eV
 added-field ion interaction          0.120751 eV  (added to PSCEN)


 Broyden mixing:
  rms(total) = 0.12252E+00    rms(broyden)= 0.12251E+00
  rms(prec ) = 0.14025E+00
  weight for this iteration     100.00

 eigenvalues of (default mixing * dielectric matrix)
  average eigenvalue GAMMA=   0.7432
  2.3903  1.5727  1.5727  1.1744  1.1744  0.8919  0.5707  0.5707  0.3220  0.3220
  0.2442  0.2442  0.2354  0.2062  0.2062  0.1936

 Free energy of the ion-electron system (eV)
  ---------------------------------------------------
  alpha Z        PSCENC =       805.98954543
  Ewald energy   TEWEN  =    199711.44509449
  -Hartree energ DENC   =   -241868.03801315
  -exchange      EXHF   =         0.00000000
  -V(xc)+E(xc)   XCENC  =      -343.77940398
  PAW double counting   =     49298.33463188   -47376.47775739
  entropy T*S    EENTRO =        -0.22231130
  eigenvalues    EBANDS =     -2076.19473362
  atomic energy  EATOM  =     41659.78587232
  Solvation  Ediel_sol  =         0.00000000
  ---------------------------------------------------
  free energy    TOTEN  =      -189.15707531 eV

  energy without entropy =     -188.93476401  energy(sigma->0) =     -189.04591966


--------------------------------------------------------------------------------------------------------




----------------------------------------- Iteration    1(  22)  ---------------------------------------


    POTLOK:  cpu time    0.0413: real time    0.0414
    SETDIJ:  cpu time    0.0054: real time    0.0054
    EDDIAG:  cpu time    1.2157: real time    1.2187
  RMM-DIIS:  cpu time    3.3465: real time    3.4450
    ORTHCH:  cpu time    0.2843: real time    0.2850
       DOS:  cpu time    0.0015: real time    0.0015
    CHARGE:  cpu time    0.2368: real time    0.2374
    MIXING:  cpu time    0.0041: real time    0.0041
    --------------------------------------------
      LOOP:  cpu time    5.1362: real time    5.2420

 eigenvalue-minimisations  :  3680
 total energy-change (2. order) : 0.1323670E-01  (-0.1688815E-02)
 number of electron     503.9998363 magnetization 
 augmentation part      196.9828542 magnetization 

 DIPCOR: dipole corrections for dipol
 direction  3 min pos     1,
 dipolmoment           0.000000      0.000000     -0.120654 electrons x Angstroem
 Tr[quadrupol]    -10314.760766

 energy correction for charged system         0.000000 eV
 dipol+quadrupol energy correction           -0.000513 eV
 added-field ion interaction          0.114581 eV  (added to PSCEN)


 Broyden mixing:
  rms(total) = 0.66684E-01    rms(broyden)= 0.66665E-01
  rms(prec ) = 0.78370E-01
  weight for this iteration     100.00

 eigenvalues of (default mixing * dielectric matrix)
  average eigenvalue GAMMA=   0.7317
  2.3490  1.5537  1.5537  1.1806  1.1806  1.0305  0.6018  0.6018  0.3855  0.3855
  0.2763  0.2443  0.2443  0.2459  0.2060  0.2060  0.1941

 Free energy of the ion-electron system (eV)
  ---------------------------------------------------
  alpha Z        PSCENC =       805.98343252
  Ewald energy   TEWEN  =    199711.44509449
  -Hartree energ DENC   =   -241871.72367090
  -exchange      EXHF   =         0.00000000
  -V(xc)+E(xc)   XCENC  =      -343.80318991
  PAW double counting   =     49307.43670614   -47385.90836064
  entropy T*S    EENTRO =        -0.22729446
  eigenvalues    EBANDS =     -2072.13242817
  atomic energy  EATOM  =     41659.78587232
  Solvation  Ediel_sol  =         0.00000000
  ---------------------------------------------------
  free energy    TOTEN  =      -189.14383861 eV

  energy without entropy =     -188.91654415  energy(sigma->0) =     -189.03019138


--------------------------------------------------------------------------------------------------------




----------------------------------------- Iteration    1(  23)  ---------------------------------------


    POTLOK:  cpu time    0.0416: real time    0.0417
    SETDIJ:  cpu time    0.0056: real time    0.0056
    EDDIAG:  cpu time    1.2117: real time    1.2148
  RMM-DIIS:  cpu time    3.4311: real time    3.4410
[...]
    275       1.7421      0.00000
    276       1.8213      0.00000
    277       2.1994      0.00000
    278       2.2630      0.00000
    279       2.2756      0.00000
    280       2.4113      0.00000
    281       2.4805      0.00000
    282       2.5516      0.00000
    283       2.7617      0.00000
    284       3.0173      0.00000
    285       3.0951      0.00000
    286       3.2230      0.00000
    287       3.5787      0.00000
    288       3.6275      0.00000
    289       3.7561      0.00000
    290       3.9555      0.00000
    291       4.0795      0.00000
    292       4.2110      0.00000
    293       4.5125      0.00000
    294       4.5419      0.00000
    295       4.6036      0.00000
    296       4.6310      0.00000
    297       4.6418      0.00000
    298       4.7562      0.00000
    299       4.8413      0.00000
    300       4.8962      0.00000
    301       4.9376      0.00000
    302       5.0252      0.00000
    303       5.0632      0.00000
    304       5.0801      0.00000
    305       5.1621      0.00000
    306       5.2398      0.00000


--------------------------------------------------------------------------------------------------------


 soft charge-density along one line, spin component           1
         0         1         2         3         4         5         6         7         8         9
 total charge-density along one line
 
 pseudopotential strength for first ion, spin component:           1
 -8.078  -0.002  -0.001   0.001  -0.002  -8.224  -0.002  -0.001
 -0.002  -8.005   0.001   0.001  -0.005  -0.002  -8.153   0.001
 -0.001   0.001  -7.997  -0.001  -0.003  -0.001   0.001  -8.145
  0.001   0.001  -0.001  -7.999  -0.003   0.001   0.001  -0.001
 -0.002  -0.005  -0.003  -0.003  -8.076  -0.002  -0.005  -0.003
 -8.224  -0.002  -0.001   0.001  -0.002  -8.354  -0.002  -0.001
 -0.002  -8.153   0.001   0.001  -0.005  -0.002  -8.284   0.001
 -0.001   0.001  -8.145  -0.001  -0.003  -0.001   0.001  -8.276
  0.001   0.001  -0.001  -8.147  -0.003   0.001   0.001  -0.001
 -0.002  -0.005  -0.003  -0.003  -8.222  -0.001  -0.005  -0.003
 -0.001  -0.002  -0.025   0.001  -0.002  -0.001  -0.002  -0.025
 -0.002  -0.003  -0.036   0.002  -0.003  -0.002  -0.003  -0.036
  0.002   0.005   0.000  -0.000   0.000   0.002   0.005   0.000
 -0.000  -0.001   0.007   0.001  -0.000  -0.000  -0.001   0.007
 -0.001  -0.000  -0.001   0.005   0.002  -0.001  -0.000  -0.001
  0.002   0.005   0.000  -0.000   0.000   0.002   0.005   0.000
 -0.000  -0.001   0.008   0.002  -0.000  -0.000  -0.001   0.008
 -0.001  -0.000  -0.002   0.005   0.003  -0.001  -0.000  -0.002
 total augmentation occupancy for first ion, spin component:           1
  4.795  -0.008   0.085   0.016  -0.019  -2.966   0.008  -0.092  -0.032  -0.005   0.050   0.005   0.021   0.015   0.028   0.001
 -0.008   4.001   0.059   0.052   0.036   0.008  -1.768  -0.059  -0.045  -0.080   0.059  -0.002   0.100   0.013   0.009  -0.001
  0.085   0.059   4.534   0.099   0.170  -0.092  -0.060  -2.421  -0.089  -0.173   1.120  -0.200   0.003   0.224   0.031  -0.000
  0.016   0.052   0.099   4.092  -0.000  -0.031  -0.045  -0.089  -1.832  -0.020  -0.065   0.035   0.008   0.032   0.144  -0.001
 -0.019   0.036   0.170  -0.000   4.544  -0.005  -0.081  -0.173  -0.020  -2.698   0.134  -0.056   0.029   0.019  -0.045  -0.000
 -2.966   0.008  -0.092  -0.031  -0.005   3.023  -0.007   0.099   0.044   0.024  -0.051  -0.000  -0.019  -0.013  -0.026   0.000
  0.008  -1.768  -0.060  -0.045  -0.081  -0.007   1.503   0.059   0.038   0.114  -0.053   0.003  -0.092  -0.010  -0.008   0.004
 -0.092  -0.059  -2.421  -0.089  -0.173   0.099   0.059   2.253   0.080   0.175  -1.050   0.219  -0.002  -0.232  -0.025   0.000
 -0.032  -0.045  -0.089  -1.832  -0.020   0.044   0.038   0.080   1.543   0.035   0.057  -0.031  -0.007  -0.027  -0.134   0.000
 -0.005  -0.080  -0.173  -0.020  -2.698   0.024   0.114   0.175   0.035   2.743  -0.125   0.054  -0.027  -0.020   0.037   0.001
  0.050   0.059   1.120  -0.065   0.134  -0.051  -0.053  -1.050   0.057  -0.125   2.493  -0.555   0.001  -0.104   0.005  -0.000
  0.005  -0.002  -0.200   0.035  -0.056  -0.000   0.003   0.219  -0.031   0.054  -0.555   0.166   0.001   0.046  -0.008  -0.000
  0.021   0.100   0.003   0.008   0.029  -0.019  -0.092  -0.002  -0.007  -0.027   0.001   0.001   0.201  -0.004  -0.005  -0.007
  0.015   0.013   0.224   0.032   0.019  -0.013  -0.010  -0.232  -0.027  -0.020  -0.104   0.046  -0.004   0.092   0.003   0.000
  0.028   0.009   0.031   0.144  -0.045  -0.026  -0.008  -0.025  -0.134   0.037   0.005  -0.008  -0.005   0.003   0.192   0.000
  0.001  -0.001  -0.000  -0.001  -0.000   0.000   0.004   0.000   0.000   0.001  -0.000  -0.000  -0.007   0.000   0.000   0.000
 -0.001  -0.001   0.002   0.000  -0.000   0.000   0.001   0.005   0.001   0.001   0.007  -0.002   0.000  -0.003  -0.000  -0.000
 -0.001  -0.001  -0.003  -0.002   0.004   0.001   0.000   0.002   0.005  -0.002  -0.000   0.000   0.000  -0.000  -0.006  -0.000


------------------------ aborting loop because EDIFF is reached ----------------------------------------


    CHARGE:  cpu time    0.2332: real time    0.2339
    FORLOC:  cpu time    0.0165: real time    0.0165
    FORNL :  cpu time    1.3130: real time    1.3171
    FORCOR:  cpu time    0.0576: real time    0.0577
    FORHAR:  cpu time    0.0252: real time    0.0253
    MIXING:  cpu time    0.0026: real time    0.0026
    OFIELD:  cpu time    0.0000: real time    0.0000

 VOLUME and BASIS-vectors are now :
 -----------------------------------------------------------------------------
  energy-cutoff  :      400.00
  volume of cell :     2567.68
      direct lattice vectors                 reciprocal lattice vectors
    11.002581515  0.000000000  0.000000000     0.090887761 -0.052474073  0.000000000
     5.501290758  9.528515099  0.000000000     0.000000000  0.104948147  0.000000000
     0.000000000  0.000000000 24.491785094     0.000000000  0.000000000  0.040830017

  length of vectors
    11.002581515 11.002581515 24.491785094     0.104948147  0.104948147  0.040830017


 FORCES acting on ions
    electron-ion (+dipol)            ewald-force                    non-local-force                 convergence-correction
 -----------------------------------------------------------------------------------------------
   0.349E+01 -.324E+01 -.219E+04   -.377E+01 0.334E+01 0.219E+04   0.284E+00 -.101E+00 0.206E+00   -.965E-03 0.263E-02 -.100E-01
   -.960E+01 0.734E+01 0.223E+04   0.992E+01 -.744E+01 -.223E+04   -.191E+00 0.297E-01 -.180E+00   0.540E-02 -.148E-03 -.141E-02
   -.195E+01 0.292E+01 -.223E+04   0.156E+01 -.295E+01 0.224E+04   0.395E+00 0.277E-01 -.662E-01   0.414E-02 0.394E-02 -.127E-01
   -.744E+01 0.284E+01 0.223E+04   0.811E+01 -.279E+01 -.223E+04   -.470E+00 -.678E-01 -.551E+00   -.223E-02 -.370E-02 0.384E-02
   0.936E+01 0.677E+01 -.225E+04   -.963E+01 -.661E+01 0.225E+04   0.274E+00 -.159E+00 -.244E+00   -.498E-02 0.152E-02 -.109E-01
   -.143E+02 -.617E+01 -.223E+04   0.152E+02 0.673E+01 0.223E+04   -.966E+00 -.561E+00 0.291E-01   -.554E-02 -.546E-03 -.965E-02
   0.849E+01 -.693E+01 0.223E+04   -.917E+01 0.728E+01 -.223E+04   0.465E+00 -.236E+00 -.222E+00   -.704E-02 -.201E-02 0.723E-03
   -.155E+02 -.148E+02 -.222E+04   0.166E+02 0.153E+02 0.222E+04   -.105E+01 -.427E+00 0.231E+00   -.468E-02 -.137E-02 -.837E-02
   0.199E+01 0.101E+02 -.222E+04   -.228E+01 -.110E+02 0.222E+04   0.298E+00 0.872E+00 0.223E+00   0.455E-02 0.358E-02 -.185E-02
   0.337E+01 -.115E+01 -.579E+01   -.282E+01 0.516E+00 0.537E+01   -.552E+00 0.623E+00 0.416E+00   0.774E-02 0.385E-02 -.274E-02
   -.122E+00 0.104E+01 0.223E+04   0.518E+00 -.865E+00 -.223E+04   -.297E+00 -.155E+00 -.113E-01   0.407E-02 0.230E-02 0.202E-02
   -.686E+01 -.886E+00 -.218E+04   0.713E+01 0.160E+01 0.218E+04   -.272E+00 -.713E+00 0.471E+00   -.257E-02 -.262E-02 -.617E-02
   0.677E+01 0.183E+01 0.155E+02   -.695E+01 -.122E+01 -.164E+02   0.174E+00 -.618E+00 0.936E+00   0.119E-02 0.655E-02 -.588E-02
   -.314E+01 -.157E+01 0.408E+02   0.385E+01 0.160E+01 -.425E+02   -.707E+00 -.308E-01 0.169E+01   0.596E-02 -.254E-03 -.568E-02
   -.107E+02 -.244E+00 0.612E+02   0.946E+01 0.126E+00 -.617E+02   0.124E+01 0.120E+00 0.460E+00   -.946E-02 -.271E-02 -.571E-02
   0.135E+02 -.406E+00 0.223E+04   -.144E+02 0.138E+00 -.223E+04   0.660E+00 0.218E+00 -.299E+00   0.649E-02 0.245E-02 -.314E-02
   -.101E+02 -.550E+01 -.217E+04   0.105E+02 0.532E+01 0.217E+04   -.398E+00 0.181E+00 0.398E+00   0.933E-03 0.340E-03 -.669E-02
   -.125E+02 0.568E+01 0.309E+02   0.123E+02 -.501E+01 -.313E+02   0.139E+00 -.673E+00 0.368E+00   0.509E-02 0.308E-02 -.441E-02
   0.205E+02 -.476E+01 -.228E+04   -.215E+02 0.456E+01 0.228E+04   0.102E+01 0.198E+00 -.308E+00   0.287E-03 0.202E-02 -.606E-02
   0.495E+01 -.190E+01 0.223E+04   -.501E+01 0.183E+01 -.223E+04   0.408E-01 0.620E-01 -.547E+00   -.684E-02 -.539E-02 0.130E-02
   -.188E+01 -.721E+01 -.224E+04   0.178E+01 0.745E+01 0.224E+04   0.103E+00 -.249E+00 -.232E+00   0.305E-03 0.538E-02 -.321E-01
   -.762E+01 0.620E+00 0.326E+02   0.787E+01 -.118E+01 -.330E+02   -.249E+00 0.558E+00 0.392E+00   -.770E-02 0.417E-03 0.606E-02
   -.401E+00 0.963E+01 -.221E+04   0.355E+00 -.981E+01 0.221E+04   0.518E-01 0.182E+00 0.285E+00   -.290E-02 0.513E-03 -.317E-02
   0.517E+01 0.195E+02 -.218E+04   -.507E+01 -.203E+02 0.218E+04   -.938E-01 0.807E+00 0.419E+00   -.432E-02 0.319E-03 -.316E-02
   -.383E+01 -.821E+01 0.278E+02   0.320E+01 0.787E+01 -.278E+02   0.630E+00 0.341E+00 -.521E-01   0.459E-02 -.562E-02 -.319E-02
   0.169E+02 -.637E+01 0.204E+04   -.172E+02 0.631E+01 -.204E+04   0.178E+00 0.745E-01 -.150E+01   0.317E-02 0.421E-02 0.793E-03
   0.162E+02 0.639E+01 -.194E+04   -.167E+02 -.649E+01 0.193E+04   0.452E+00 0.100E+00 0.163E+01   0.340E-02 -.120E-02 -.586E-02
   -.857E+01 -.834E+01 0.205E+04   0.860E+01 0.853E+01 -.205E+04   0.226E-01 -.830E-01 -.147E+01   -.369E-02 0.206E-02 -.186E-03
   0.333E+01 -.696E+01 0.470E+02   -.281E+01 0.662E+01 -.473E+02   -.513E+00 0.337E+00 0.306E+00   -.131E-01 -.526E-02 -.742E-02
   -.809E+01 0.677E+01 0.204E+04   0.840E+01 -.677E+01 -.204E+04   -.176E+00 -.291E-01 -.168E+01   0.239E-02 0.317E-02 0.957E-03
   0.654E+01 0.920E+01 0.203E+04   -.666E+01 -.942E+01 -.203E+04   0.532E-01 0.121E+00 -.197E+01   0.106E-02 0.480E-03 0.177E-02
   -.246E+01 0.117E+01 0.345E+02   0.305E+01 -.109E+01 -.353E+02   -.595E+00 -.817E-01 0.817E+00   0.866E-02 -.285E-02 -.352E-02
   -.173E+01 -.118E+02 -.194E+04   0.175E+01 0.121E+02 0.193E+04   -.151E-01 -.290E+00 0.161E+01   -.285E-02 0.164E-02 -.587E-02
   0.588E+01 -.327E+01 -.193E+04   -.616E+01 0.341E+01 0.193E+04   0.281E+00 -.146E+00 0.136E+01   0.374E-03 -.123E-02 -.572E-02
   -.979E+00 -.121E+01 0.686E+02   0.661E+00 0.164E+01 -.682E+02   0.318E+00 -.422E+00 -.409E+00   -.141E-02 -.917E-02 -.107E-01
   -.127E+02 0.346E+01 0.203E+04   0.133E+02 -.353E+01 -.203E+04   -.427E+00 0.527E-01 -.189E+01   0.286E-02 0.655E-03 0.109E-03
   0.581E+01 0.541E+01 0.183E+02   -.521E+01 -.514E+01 -.183E+02   -.591E+00 -.271E+00 -.211E-01   -.787E-03 0.185E-02 -.466E-02
   -.736E+01 0.442E+01 0.204E+04   0.747E+01 -.455E+01 -.204E+04   -.447E-01 0.786E-01 -.165E+01   -.311E-02 -.205E-03 0.244E-02
   -.832E+01 -.116E+02 0.204E+04   0.868E+01 0.117E+02 -.203E+04   -.197E+00 -.111E-03 -.194E+01   -.233E-02 0.520E-03 -.276E-02
   0.197E+01 0.130E+01 0.302E+02   -.249E+01 -.176E+01 -.306E+02   0.527E+00 0.466E+00 0.422E+00   -.277E-02 -.486E-02 -.975E-02
   0.857E+01 0.866E+00 0.330E+02   -.845E+01 -.598E+00 -.329E+02   -.125E+00 -.260E+00 -.861E-01   0.323E-03 -.177E-02 -.783E-02
   0.248E+02 -.280E+01 0.204E+04   -.253E+02 0.312E+01 -.203E+04   0.207E+00 -.232E+00 -.187E+01   0.171E-02 0.215E-02 0.265E-02
   0.133E+01 -.424E+01 0.206E+02   -.156E+01 0.382E+01 -.215E+02   0.234E+00 0.408E+00 0.914E+00   -.465E-03 0.972E-02 -.275E-02
   0.253E+01 0.207E+01 0.528E+02   -.222E+01 -.157E+01 -.541E+02   -.305E+00 -.500E+00 0.125E+01   0.105E-02 0.303E-02 -.221E-02
   -.218E+01 -.424E+01 0.203E+04   0.220E+01 0.424E+01 -.203E+04   0.942E-02 0.444E-01 -.196E+01   0.306E-03 -.540E-02 -.281E-02
   0.446E+01 0.470E+01 0.405E+02   -.470E+01 -.480E+01 -.409E+02   0.238E+00 0.946E-01 0.406E+00   -.233E-02 0.320E-02 -.218E-02
   -.947E+01 0.772E+01 0.205E+04   0.929E+01 -.792E+01 -.204E+04   0.192E+00 0.592E-01 -.169E+01   -.217E-02 -.179E-02 0.582E-03
   -.784E+01 0.209E+01 -.191E+04   0.821E+01 -.235E+01 0.191E+04   -.369E+00 0.264E+00 0.200E+01   -.548E-02 -.234E-02 -.283E-02
 -----------------------------------------------------------------------------------------------
   0.163E+00 -.667E-02 0.378E+01   0.210E-12 -.199E-12 -.227E-12   -.115E+00 0.130E-01 -.361E+01   -.236E-01 0.111E-01 -.197E+00
 
 
 POSITION                                       TOTAL-FORCE (eV/Angst)
 -----------------------------------------------------------------------------------
      6.86462      7.14146     14.91617         0.000466     -0.001525     -0.002141
      5.50129      7.94043     10.00000         0.133845     -0.074715     -0.250622
      9.62927      2.38039     14.99378         0.002877      0.000361     -0.000213
     12.37790      5.55830     10.00000         0.198260     -0.021466     -0.212328
      6.86227      2.38168     15.00854         0.003048      0.001541      0.001817
      1.41538      2.40605     14.95169        -0.002081     -0.001600      0.000167
      4.12597      0.79404     10.00000        -0.223582      0.114098     -0.249579
     11.03928      4.77661     14.92653        -0.003532     -0.001417      0.004905
     -0.00666     -0.02256     14.93663         0.004838      0.000093      0.000384
     11.02009      1.56310     12.45779         0.002304     -0.002344     -0.002820
     11.00258      3.17617     10.00000         0.101940      0.024034     -0.289825
      2.75987      0.01592     14.87951        -0.001997     -0.002918     -0.002522
      9.62517      3.99490     12.42624        -0.006239      0.002607      0.002070
      6.88494      3.97540     12.38919         0.007426      0.003312     -0.000276
      4.09274      3.97013     12.38678         0.001098     -0.001180     -0.003761
      9.62726      0.79404     10.00000        -0.312636     -0.047381     -0.167058
      9.64792      7.13784     14.86876        -0.000390     -0.001676     -0.002247
      5.49331      6.36681     12.41672         0.001124      0.000834     -0.000597
      5.45705      4.76144     15.03171         0.005435     -0.000557      0.004381
     11.00258      7.94043     10.00000        -0.025301     -0.010825     -0.150951
      8.24132      4.77093     15.00982         0.005076     -0.004675      0.018125
      5.51489      1.56453     12.41607        -0.001624     -0.006750     -0.003687
      5.50990     -0.01447     14.90367         0.001790     -0.001619      0.001892
      8.25049     -0.02686     14.87951         0.002031      0.003256      0.004409
     15.10050      8.72673     12.42603         0.003265      0.000759      0.000776
      8.25194      3.17617     10.00000        -0.183053      0.024862      0.160437
      4.10798      7.13204     14.77169         0.003969     -0.001544     -0.000355
      5.50129      3.17617     10.00000         0.053189      0.106487      0.022799
     12.39111      8.73038     12.40313        -0.009722     -0.002305     -0.001400
      6.87661      5.55830     10.00000         0.140877     -0.029730      0.120632
      8.25194      7.94043     10.00000        -0.072420     -0.098863      0.220287
      6.89354      8.72877     12.41822         0.004185     -0.003208      0.002432
      2.75953      4.78068     14.76585         0.001953     -0.000656     -0.002750
      4.12967      2.39275     14.79277         0.000838     -0.000604     -0.001828
     13.72925      6.36700     12.37805        -0.000901      0.000111     -0.003087
      1.37532      0.79404     10.00000         0.227818     -0.017784      0.161163
     12.37780      3.97800     12.43428         0.000796      0.001117     -0.001270
      2.75065      3.17617     10.00000         0.066112     -0.045930      0.126524
      6.87661      0.79404     10.00000         0.157862      0.101148      0.159724
      9.61303      8.71688     12.42118         0.003318     -0.002652      0.002144
     11.00062      6.36630     12.41699         0.000526      0.006157     -0.007161
      9.62726      5.55830     10.00000        -0.325312      0.086414      0.167048
      8.25515      1.58066     12.42352        -0.000033      0.001784      0.001604
      8.26078      6.37454     12.38866        -0.001921      0.002014      0.000393
     13.75323      7.94043     10.00000         0.021643      0.042559      0.138573
      2.74120      1.57731     12.41372         0.000816     -0.001460      0.001560
      4.12597      5.55830     10.00000         0.014932     -0.138329      0.035158
     12.40842      7.12704     14.72850        -0.002913      0.000166     -0.002926
 -----------------------------------------------------------------------------------
    total drift:                                0.024922      0.017470     -0.026791


--------------------------------------------------------------------------------------------------------



  FREE ENERGIE OF THE ION-ELECTRON SYSTEM (eV)
  ---------------------------------------------------
  free  energy   TOTEN  =      -192.52590031 eV

  energy  without entropy=     -192.30055331  energy(sigma->0) =     -192.41322681
 
 d Force = 0.1451105E-03[ 0.468E-04, 0.243E-03]  d Energy = 0.1420223E-03 0.309E-05
 d Force = 0.3085857E+02[ 0.309E+02, 0.309E+02]  d Ewald  = 0.3085858E+02-0.257E-05


--------------------------------------------------------------------------------------------------------


    POTLOK:  cpu time    0.0482: real time    0.0483


--------------------------------------------------------------------------------------------------------


 stress matrix after NEB project (eV)
      0.00000      0.00000      0.00000
      0.00000      0.00000      0.00000
      0.00000      0.00000      0.00000
  FORCES: max atom, RMS     0.019394    0.004905
  FORCE total and by dimension    0.033982    0.018125
  Stress total and by dimension    0.000000    0.000000
 Conjugate gradient step on ions:
 trial-energy change:   -0.000142  1 .order   -0.000145   -0.000243   -0.000047
  (g-gl).g = 0.846E-04      g.g   = 0.824E-04  gl.gl    = 0.149E-03
 g(Force)  = 0.824E-04   g(Stress)= 0.000E+00 ortho     =-0.399E-05
 gamma     =   0.56694
 trial     =   3.03891
 opt step  =   3.76314  (harmonic =   3.76314) maximal distance =0.00536143
 next E    =  -192.525909   (d E  =  -0.00015)


--------------------------------------------------------------------------------------------------------


  
 reached required accuracy - stopping structural energy minimisation
     LOOP+:  cpu time   47.2457: real time   47.5025
    4ORBIT:  cpu time    0.0000: real time    0.0000

 total amount of memory used by VASP on root node    84353. kBytes
========================================================================

   base      :      30000. kBytes
   nonlr-proj:       4285. kBytes
   fftplans  :       4447. kBytes
   grid      :       6721. kBytes
   one-center:        124. kBytes
   wavefun   :      38776. kBytes
 
  
  
 General timing and accounting informations for this job:
 ========================================================
  
                  Total CPU time used (sec):     1499.976
                            User time (sec):     1428.112
                          System time (sec):       71.864
                         Elapsed time (sec):     1510.304
  
                   Maximum memory used (kb):      828760.
                   Average memory used (kb):           0.
  
                          Minor page faults:       696695
                          Major page faults:            0
                 Voluntary context switches:        10698
