  48  48   0   0
  0.5349325E+02  0.1100258E-08  0.1100258E-08  0.2449179E-08  0.3500000E-15
  1.000000000000000E-004
  CAR 
 unknown system                          
      6.32817597     -9.85485099  301     -1.06502147      1.00000000
     -9.855  0.0000E+00  0.0000E+00
     -9.801  0.0000E+00  0.0000E+00
     -9.747  0.0000E+00  0.0000E+00
     -9.693  0.0000E+00  0.0000E+00
     -9.639  0.0000E+00  0.0000E+00
     -9.585  0.0000E+00  0.0000E+00
     -9.531  0.0000E+00  0.0000E+00
     -9.477  0.0000E+00  0.0000E+00
     -9.423  0.1166E-16  0.6291E-18
     -9.369  0.4417E-14  0.2389E-15
     -9.315  0.9748E-12  0.5282E-13
     -9.261  0.1216E-09  0.6610E-11
     -9.208  0.8583E-08  0.4696E-09
     -9.154  0.3438E-06  0.1902E-07
     -9.100  0.7833E-05  0.4416E-06
     -9.046  0.1017E-03  0.5929E-05
     -8.992  0.7549E-03  0.4665E-04
     -8.938  0.3211E-02  0.2199E-03
     -8.884  0.7863E-02  0.6440E-03
     -8.830  0.1131E-01  0.1254E-02
     -8.776  0.1068E-01  0.1831E-02
     -8.722  0.9775E-02  0.2358E-02
     -8.668  0.1119E-01  0.2961E-02
     -8.614  0.1053E-01  0.3529E-02
     -8.560  0.6157E-02  0.3862E-02
     -8.506  0.2102E-02  0.3975E-02
     -8.452  0.4141E-03  0.3997E-02
     -8.398  0.4762E-04  0.4000E-02
     -8.344  0.1496E-04  0.4001E-02
     -8.290  0.1216E-03  0.4007E-02
     -8.237  0.7327E-03  0.4047E-02
     -8.183  0.2684E-02  0.4192E-02
     -8.129  0.6257E-02  0.4529E-02
     -8.075  0.1022E-01  0.5080E-02
     -8.021  0.1390E-01  0.5830E-02
     -7.967  0.1826E-01  0.6815E-02
     -7.913  0.2229E-01  0.8018E-02
     -7.859  0.2297E-01  0.9256E-02
     -7.805  0.2034E-01  0.1035E-01
     -7.751  0.1754E-01  0.1130E-01
     -7.697  0.1671E-01  0.1220E-01
     -7.643  0.1755E-01  0.1315E-01
     -7.589  0.1799E-01  0.1412E-01
     -7.535  0.1650E-01  0.1501E-01
     -7.481  0.1384E-01  0.1576E-01
     -7.427  0.1287E-01  0.1645E-01
     -7.373  0.1463E-01  0.1724E-01
     -7.320  0.1820E-01  0.1822E-01
     -7.266  0.2664E-01  0.1966E-01
     -7.212  0.4204E-01  0.2192E-01
     -7.158  0.5904E-01  0.2511E-01
     -7.104  0.7028E-01  0.2890E-01
     -7.050  0.7164E-01  0.3276E-01
     -6.996  0.6653E-01  0.3635E-01
     -6.942  0.6341E-01  0.3977E-01
     -6.888  0.6433E-01  0.4324E-01
     -6.834  0.6557E-01  0.4678E-01
     -6.780  0.6604E-01  0.5034E-01
     -6.726  0.6679E-01  0.5395E-01
     -6.672  0.6803E-01  0.5762E-01
     -6.618  0.6859E-01  0.6132E-01
     -6.564  0.6811E-01  0.6499E-01
     -6.510  0.6944E-01  0.6874E-01
     -6.456  0.7447E-01  0.7275E-01
     -6.402  0.8549E-01  0.7737E-01
     -6.349  0.1048E+00  0.8302E-01
     -6.295  0.1243E+00  0.8972E-01
     -6.241  0.1325E+00  0.9687E-01
     -6.187  0.1305E+00  0.1039E+00
     -6.133  0.1287E+00  0.1109E+00
     -6.079  0.1327E+00  0.1180E+00
     -6.025  0.1399E+00  0.1256E+00
     -5.971  0.1495E+00  0.1336E+00
     -5.917  0.1614E+00  0.1423E+00
     -5.863  0.1705E+00  0.1515E+00
     -5.809  0.1724E+00  0.1608E+00
     -5.755  0.1686E+00  0.1699E+00
     -5.701  0.1610E+00  0.1786E+00
     -5.647  0.1521E+00  0.1868E+00
     -5.593  0.1469E+00  0.1947E+00
     -5.539  0.1478E+00  0.2027E+00
     -5.485  0.1505E+00  0.2108E+00
     -5.431  0.1496E+00  0.2189E+00
     -5.378  0.1474E+00  0.2269E+00
     -5.324  0.1514E+00  0.2350E+00
     -5.270  0.1616E+00  0.2437E+00
     -5.216  0.1715E+00  0.2530E+00
     -5.162  0.1788E+00  0.2626E+00
     -5.108  0.1833E+00  0.2725E+00
     -5.054  0.1830E+00  0.2824E+00
     -5.000  0.1802E+00  0.2921E+00
     -4.946  0.1800E+00  0.3018E+00
     -4.892  0.1794E+00  0.3115E+00
     -4.838  0.1733E+00  0.3208E+00
     -4.784  0.1665E+00  0.3298E+00
     -4.730  0.1661E+00  0.3388E+00
     -4.676  0.1721E+00  0.3481E+00
     -4.622  0.1787E+00  0.3577E+00
     -4.568  0.1801E+00  0.3674E+00
     -4.514  0.1768E+00  0.3770E+00
     -4.461  0.1733E+00  0.3863E+00
     -4.407  0.1732E+00  0.3956E+00
     -4.353  0.1759E+00  0.4051E+00
     -4.299  0.1767E+00  0.4147E+00
     -4.245  0.1729E+00  0.4240E+00
     -4.191  0.1689E+00  0.4331E+00
     -4.137  0.1688E+00  0.4422E+00
     -4.083  0.1712E+00  0.4514E+00
     -4.029  0.1763E+00  0.4610E+00
     -3.975  0.1845E+00  0.4709E+00
     -3.921  0.1938E+00  0.4814E+00
     -3.867  0.2046E+00  0.4924E+00
     -3.813  0.2142E+00  0.5040E+00
     -3.759  0.2193E+00  0.5158E+00
     -3.705  0.2208E+00  0.5277E+00
     -3.651  0.2206E+00  0.5396E+00
     -3.597  0.2212E+00  0.5515E+00
     -3.543  0.2214E+00  0.5635E+00
     -3.490  0.2165E+00  0.5752E+00
     -3.436  0.2071E+00  0.5863E+00
     -3.382  0.1969E+00  0.5969E+00
     -3.328  0.1895E+00  0.6072E+00
     -3.274  0.1856E+00  0.6172E+00
     -3.220  0.1822E+00  0.6270E+00
     -3.166  0.1797E+00  0.6367E+00
     -3.112  0.1802E+00  0.6464E+00
     -3.058  0.1824E+00  0.6563E+00
     -3.004  0.1832E+00  0.6661E+00
     -2.950  0.1822E+00  0.6760E+00
     -2.896  0.1822E+00  0.6858E+00
     -2.842  0.1854E+00  0.6958E+00
     -2.788  0.1891E+00  0.7060E+00
     -2.734  0.1884E+00  0.7162E+00
     -2.680  0.1846E+00  0.7261E+00
     -2.626  0.1808E+00  0.7359E+00
     -2.572  0.1776E+00  0.7454E+00
     -2.519  0.1759E+00  0.7549E+00
     -2.465  0.1757E+00  0.7644E+00
     -2.411  0.1764E+00  0.7739E+00
     -2.357  0.1768E+00  0.7835E+00
     -2.303  0.1747E+00  0.7929E+00
     -2.249  0.1687E+00  0.8020E+00
     -2.195  0.1600E+00  0.8106E+00
     -2.141  0.1533E+00  0.8189E+00
     -2.087  0.1531E+00  0.8272E+00
     -2.033  0.1596E+00  0.8358E+00
     -1.979  0.1687E+00  0.8449E+00
     -1.925  0.1762E+00  0.8544E+00
     -1.871  0.1831E+00  0.8642E+00
     -1.817  0.1940E+00  0.8747E+00
     -1.763  0.2071E+00  0.8859E+00
     -1.709  0.2142E+00  0.8974E+00
     -1.655  0.2098E+00  0.9087E+00
     -1.602  0.1975E+00  0.9194E+00
     -1.548  0.1869E+00  0.9295E+00
     -1.494  0.1846E+00  0.9394E+00
     -1.440  0.1896E+00  0.9497E+00
     -1.386  0.1948E+00  0.9602E+00
     -1.332  0.1900E+00  0.9704E+00
     -1.278  0.1723E+00  0.9797E+00
     -1.224  0.1526E+00  0.9880E+00
     -1.170  0.1395E+00  0.9955E+00
     -1.116  0.1277E+00  0.1002E+01
     -1.062  0.1100E+00  0.1008E+01
     -1.008  0.8706E-01  0.1013E+01
     -0.954  0.6333E-01  0.1016E+01
     -0.900  0.4307E-01  0.1019E+01
     -0.846  0.2871E-01  0.1020E+01
     -0.792  0.2087E-01  0.1021E+01
     -0.738  0.1978E-01  0.1022E+01
     -0.684  0.2632E-01  0.1024E+01
     -0.631  0.3687E-01  0.1026E+01
     -0.577  0.4347E-01  0.1028E+01
     -0.523  0.4320E-01  0.1031E+01
     -0.469  0.3980E-01  0.1033E+01
     -0.415  0.3659E-01  0.1035E+01
     -0.361  0.3537E-01  0.1037E+01
     -0.307  0.3671E-01  0.1039E+01
     -0.253  0.3627E-01  0.1041E+01
     -0.199  0.3077E-01  0.1042E+01
     -0.145  0.2295E-01  0.1043E+01
     -0.091  0.1807E-01  0.1044E+01
     -0.037  0.1914E-01  0.1045E+01
      0.017  0.2390E-01  0.1047E+01
      0.071  0.2840E-01  0.1048E+01
      0.125  0.3125E-01  0.1050E+01
      0.179  0.3290E-01  0.1052E+01
      0.233  0.3341E-01  0.1054E+01
      0.287  0.3424E-01  0.1055E+01
      0.340  0.3638E-01  0.1057E+01
      0.394  0.3794E-01  0.1059E+01
      0.448  0.3800E-01  0.1061E+01
      0.502  0.4031E-01  0.1064E+01
      0.556  0.4864E-01  0.1066E+01
      0.610  0.5614E-01  0.1069E+01
      0.664  0.5274E-01  0.1072E+01
      0.718  0.4123E-01  0.1074E+01
      0.772  0.3148E-01  0.1076E+01
      0.826  0.2684E-01  0.1077E+01
      0.880  0.2477E-01  0.1079E+01
      0.934  0.2350E-01  0.1080E+01
      0.988  0.2155E-01  0.1081E+01
      1.042  0.1860E-01  0.1082E+01
      1.096  0.1598E-01  0.1083E+01
      1.150  0.1372E-01  0.1084E+01
      1.204  0.1274E-01  0.1085E+01
      1.257  0.1375E-01  0.1085E+01
      1.311  0.1472E-01  0.1086E+01
      1.365  0.1550E-01  0.1087E+01
      1.419  0.1859E-01  0.1088E+01
      1.473  0.2431E-01  0.1089E+01
      1.527  0.2938E-01  0.1091E+01
      1.581  0.3178E-01  0.1093E+01
      1.635  0.3287E-01  0.1094E+01
      1.689  0.3535E-01  0.1096E+01
      1.743  0.4177E-01  0.1098E+01
      1.797  0.4517E-01  0.1101E+01
      1.851  0.3511E-01  0.1103E+01
      1.905  0.1872E-01  0.1104E+01
      1.959  0.1075E-01  0.1104E+01
      2.013  0.1301E-01  0.1105E+01
      2.067  0.1936E-01  0.1106E+01
      2.121  0.2832E-01  0.1108E+01
      2.175  0.3955E-01  0.1110E+01
      2.228  0.4782E-01  0.1112E+01
      2.282  0.4914E-01  0.1115E+01
      2.336  0.4373E-01  0.1117E+01
      2.390  0.3470E-01  0.1119E+01
      2.444  0.2803E-01  0.1121E+01
      2.498  0.2812E-01  0.1122E+01
      2.552  0.3452E-01  0.1124E+01
      2.606  0.4411E-01  0.1126E+01
      2.660  0.5205E-01  0.1129E+01
      2.714  0.5401E-01  0.1132E+01
      2.768  0.4773E-01  0.1135E+01
      2.822  0.3377E-01  0.1137E+01
      2.876  0.1834E-01  0.1138E+01
      2.930  0.9657E-02  0.1138E+01
      2.984  0.1026E-01  0.1139E+01
      3.038  0.1536E-01  0.1140E+01
      3.092  0.1945E-01  0.1141E+01
      3.146  0.2217E-01  0.1142E+01
      3.199  0.2491E-01  0.1143E+01
      3.253  0.2601E-01  0.1144E+01
      3.307  0.2352E-01  0.1146E+01
      3.361  0.1930E-01  0.1147E+01
      3.415  0.1584E-01  0.1148E+01
      3.469  0.1576E-01  0.1149E+01
      3.523  0.2165E-01  0.1150E+01
      3.577  0.3061E-01  0.1151E+01
      3.631  0.3732E-01  0.1153E+01
      3.685  0.3993E-01  0.1155E+01
      3.739  0.3912E-01  0.1158E+01
      3.793  0.3536E-01  0.1160E+01
      3.847  0.2936E-01  0.1161E+01
      3.901  0.2465E-01  0.1162E+01
      3.955  0.2383E-01  0.1164E+01
      4.009  0.2401E-01  0.1165E+01
      4.063  0.2280E-01  0.1166E+01
      4.116  0.2290E-01  0.1167E+01
      4.170  0.2489E-01  0.1169E+01
      4.224  0.2477E-01  0.1170E+01
      4.278  0.2123E-01  0.1171E+01
      4.332  0.1866E-01  0.1172E+01
      4.386  0.2315E-01  0.1174E+01
      4.440  0.3466E-01  0.1175E+01
      4.494  0.4674E-01  0.1178E+01
      4.548  0.5545E-01  0.1181E+01
      4.602  0.6040E-01  0.1184E+01
      4.656  0.5969E-01  0.1187E+01
      4.710  0.5256E-01  0.1190E+01
      4.764  0.4400E-01  0.1193E+01
      4.818  0.3915E-01  0.1195E+01
      4.872  0.3925E-01  0.1197E+01
      4.926  0.4389E-01  0.1199E+01
      4.980  0.5189E-01  0.1202E+01
      5.034  0.6314E-01  0.1205E+01
      5.087  0.7354E-01  0.1209E+01
      5.141  0.7436E-01  0.1213E+01
      5.195  0.6556E-01  0.1217E+01
      5.249  0.5349E-01  0.1220E+01
      5.303  0.3952E-01  0.1222E+01
      5.357  0.2375E-01  0.1223E+01
      5.411  0.1039E-01  0.1224E+01
      5.465  0.3054E-02  0.1224E+01
      5.519  0.5725E-03  0.1224E+01
      5.573  0.6613E-04  0.1224E+01
      5.627  0.4597E-05  0.1224E+01
      5.681  0.1891E-06  0.1224E+01
      5.735  0.4543E-08  0.1224E+01
      5.789  0.6314E-10  0.1224E+01
      5.843  0.5036E-12  0.1224E+01
      5.897  0.2291E-14  0.1224E+01
      5.951  0.5488E-17  0.1224E+01
      6.005  0.0000E+00  0.1224E+01
      6.058  0.0000E+00  0.1224E+01
      6.112  0.0000E+00  0.1224E+01
      6.166  0.0000E+00  0.1224E+01
      6.220  0.0000E+00  0.1224E+01
      6.274  0.0000E+00  0.1224E+01
      6.328  0.0000E+00  0.1224E+01
