<?xml version="1.0" encoding="ISO-8859-1"?>
<modeling>
 <generator>
  <i name="program" type="string">vasp </i>
  <i name="version" type="string">5.4.1  </i>
  <i name="subversion" type="string">24Jun15 (build Mar 14 2019 10:18:33) complex                          parallel </i>
  <i name="platform" type="string">INTEL-19.0.2+OPENMPI-3.1.3 </i>
  <i name="date" type="string">2022 07 11 </i>
  <i name="time" type="string">15:51:00 </i>
 </generator>
 <incar>
  <i type="int" name="ISTART">     0</i>
  <i type="string" name="PREC">normal</i>
  <i type="string" name="ALGO"> Fast</i>
  <i type="int" name="NELM">   500</i>
  <i type="int" name="IBRION">     2</i>
  <i type="int" name="NFREE">     2</i>
  <i name="EDIFF">      0.00000100</i>
  <i name="EDIFFG">     -0.02000000</i>
  <i type="int" name="NSW">   500</i>
  <i type="int" name="ISIF">     0</i>
  <i type="int" name="ISYM">     2</i>
  <i name="ENCUT">    400.00000000</i>
  <i name="POTIM">      0.35000000</i>
  <i type="string" name="LREAL"> Auto</i>
  <i type="logical" name="LPLANE"> T  </i>
  <i type="int" name="ISMEAR">     0</i>
  <i name="SIGMA">      0.10000000</i>
  <i type="int" name="NWRITE">     1</i>
  <i type="logical" name="LWAVE"> F  </i>
  <i type="logical" name="LCHARG"> F  </i>
  <i type="logical" name="LVTOT"> F  </i>
  <i type="logical" name="LORBIT"> F  </i>
  <i type="logical" name="LAECHG"> F  </i>
  <v type="int" name="KPOINT_BSE">    -1     0     0     0</v>
  <i type="int" name="NELM">   500</i>
  <i type="string" name="GGA"> PE          ! optPBE-vdW XC-functional</i>
  <i type="int" name="VOSKOWN">     1</i>
  <i type="logical" name="LDIPOL"> T  </i>
  <i type="logical" name="LMONO"> F  </i>
  <i type="int" name="IDIPOL">     3</i>
  <v name="DIPOL">      0.00000000      0.00000000      0.50000000</v>
 </incar>
 <kpoints>
  <generation param="Monkhorst-Pack">
   <v type="int" name="divisions">       2        2        1 </v>
   <v name="usershift">      0.00000000       0.00000000       0.00000000 </v>
   <v name="genvec1">      0.50000000      -0.00000000       0.00000000 </v>
   <v name="genvec2">      0.00000000       0.50000000       0.00000000 </v>
   <v name="genvec3">      0.00000000       0.00000000       1.00000000 </v>
   <v name="shift">      0.50000000       0.50000000       0.00000000 </v>
  </generation>
  <varray name="kpointlist" >
   <v>       0.25000000       0.25000000       0.00000000 </v>
   <v>       0.00000000       0.25000000       0.00000000 </v>
   <v>      -0.25000000       0.00000000       0.00000000 </v>
   <v>      -0.25000000       0.25000000       0.00000000 </v>
   <v>       0.50000000      -0.25000000       0.00000000 </v>
   <v>      -0.25000000       0.50000000       0.00000000 </v>
  </varray>
  <varray name="weights" >
   <v>       0.16666667 </v>
   <v>       0.16666667 </v>
   <v>       0.16666667 </v>
   <v>       0.16666667 </v>
   <v>       0.16666667 </v>
   <v>       0.16666667 </v>
  </varray>
 </kpoints>
 <parameters>
  <separator name="general" >
   <i type="string" name="SYSTEM">unknown system</i>
   <i type="logical" name="LCOMPAT"> F  </i>
  </separator>
  <separator name="electronic" >
   <i type="string" name="PREC">normal</i>
   <i name="ENMAX">    400.00000000</i>
   <i name="ENAUG">    416.23000000</i>
   <i name="EDIFF">      0.00000100</i>
   <i type="int" name="IALGO">    68</i>
   <i type="int" name="IWAVPR">    11</i>
   <i type="int" name="NBANDS">   306</i>
   <i name="NELECT">    504.00000000</i>
   <i type="int" name="TURBO">     0</i>
   <i type="int" name="IRESTART">     0</i>
   <i type="int" name="NREBOOT">     0</i>
   <i type="int" name="NMIN">     0</i>
   <i name="EREF">      0.00000000</i>
   <separator name="electronic smearing" >
    <i type="int" name="ISMEAR">     0</i>
    <i name="SIGMA">      0.10000000</i>
    <i name="KSPACING">      0.50000000</i>
    <i type="logical" name="KGAMMA"> T  </i>
   </separator>
   <separator name="electronic projectors" >
    <i type="logical" name="LREAL"> T  </i>
    <v name="ROPT">     -0.00050000     -0.00050000</v>
    <i type="int" name="LMAXPAW">  -100</i>
    <i type="int" name="LMAXMIX">     2</i>
    <i type="logical" name="NLSPLINE"> F  </i>
   </separator>
   <separator name="electronic startup" >
    <i type="int" name="ISTART">     0</i>
    <i type="int" name="ICHARG">     2</i>
    <i type="int" name="INIWAV">     1</i>
   </separator>
   <separator name="electronic spin" >
    <i type="int" name="ISPIN">     1</i>
    <i type="logical" name="LNONCOLLINEAR"> F  </i>
    <v name="MAGMOM">      1.00000000      1.00000000      1.00000000      1.00000000      1.00000000      1.00000000      1.00000000      1.00000000      1.00000000      1.00000000      1.00000000      1.00000000      1.00000000      1.00000000      1.00000000      1.00000000      1.00000000      1.00000000      1.00000000      1.00000000
      1.00000000      1.00000000      1.00000000      1.00000000      1.00000000      1.00000000      1.00000000      1.00000000      1.00000000      1.00000000      1.00000000      1.00000000      1.00000000      1.00000000      1.00000000      1.00000000      1.00000000      1.00000000      1.00000000      1.00000000
      1.00000000      1.00000000      1.00000000      1.00000000      1.00000000      1.00000000      1.00000000      1.00000000</v>
    <i name="NUPDOWN">     -1.00000000</i>
    <i type="logical" name="LSORBIT"> F  </i>
    <v name="SAXIS">      0.00000000      0.00000000      1.00000000</v>
    <i type="logical" name="LSPIRAL"> F  </i>
    <v name="QSPIRAL">      0.00000000      0.00000000      0.00000000</v>
    <i type="logical" name="LZEROZ"> F  </i>
   </separator>
   <separator name="electronic exchange-correlation" >
    <i type="logical" name="LASPH"> F  </i>
    <i type="logical" name="LMETAGGA"> F  </i>
   </separator>
   <separator name="electronic convergence" >
    <i type="int" name="NELM">   500</i>
    <i type="int" name="NELMDL">    -5</i>
    <i type="int" name="NELMIN">     2</i>
    <i name="ENINI">    400.00000000</i>
    <separator name="electronic convergence detail" >
     <i type="logical" name="LDIAG"> T  </i>
     <i type="logical" name="LSUBROT"> F  </i>
     <i name="WEIMIN">      0.00100000</i>
     <i name="EBREAK">      0.00000000</i>
     <i name="DEPER">      0.30000000</i>
     <i type="int" name="NRMM">     4</i>
     <i name="TIME">      0.40000000</i>
    </separator>
   </separator>
   <separator name="electronic mixer" >
    <i name="AMIX">      0.40000000</i>
    <i name="BMIX">      1.00000000</i>
    <i name="AMIN">      0.10000000</i>
    <i name="AMIX_MAG">      1.60000000</i>
    <i name="BMIX_MAG">      1.00000000</i>
    <separator name="electronic mixer details" >
     <i type="int" name="IMIX">     4</i>
     <i type="logical" name="MIXFIRST"> F  </i>
     <i type="int" name="MAXMIX">   -45</i>
     <i name="WC">    100.00000000</i>
     <i type="int" name="INIMIX">     1</i>
     <i type="int" name="MIXPRE">     1</i>
     <i type="int" name="MREMOVE">     5</i>
    </separator>
   </separator>
   <separator name="electronic dipolcorrection" >
    <i type="logical" name="LDIPOL"> T  </i>
    <i type="logical" name="LMONO"> F  </i>
    <i type="int" name="IDIPOL">     3</i>
    <i name="EPSILON">      1.00000000</i>
    <v name="DIPOL">      0.00000000      0.00000000      0.50000000</v>
    <i name="EFIELD">      0.00000000</i>
   </separator>
  </separator>
  <separator name="grids" >
   <i type="int" name="NGX">    54</i>
   <i type="int" name="NGY">    54</i>
   <i type="int" name="NGZ">   120</i>
   <i type="int" name="NGXF">   108</i>
   <i type="int" name="NGYF">   108</i>
   <i type="int" name="NGZF">   240</i>
   <i type="logical" name="ADDGRID"> F  </i>
  </separator>
  <separator name="ionic" >
   <i type="int" name="NSW">   500</i>
   <i type="int" name="IBRION">     2</i>
   <i type="int" name="ISIF">     0</i>
   <i name="PSTRESS">      0.00000000</i>
   <i name="EDIFFG">     -0.02000000</i>
   <i type="int" name="NFREE">     2</i>
   <i name="POTIM">      0.35000000</i>
   <i name="SMASS">     -3.00000000</i>
   <i name="SCALEE">      1.00000000</i>
  </separator>
  <separator name="ionic md" >
   <i name="TEBEG">      0.00010000</i>
   <i name="TEEND">      0.00010000</i>
   <i type="int" name="NBLOCK">     1</i>
   <i type="int" name="KBLOCK">   500</i>
   <i type="int" name="NPACO">   256</i>
   <i name="APACO">     16.00000000</i>
  </separator>
  <separator name="symmetry" >
   <i type="int" name="ISYM">     2</i>
   <i name="SYMPREC">      0.00001000</i>
  </separator>
  <separator name="dos" >
   <i type="logical" name="LORBIT"> F  </i>
   <v name="RWIGS">     -1.00000000     -1.00000000</v>
   <i type="int" name="NEDOS">   301</i>
   <i name="EMIN">     10.00000000</i>
   <i name="EMAX">    -10.00000000</i>
   <i name="EFERMI">      0.00000000</i>
  </separator>
  <separator name="writing" >
   <i type="int" name="NWRITE">     1</i>
   <i type="logical" name="LWAVE"> F  </i>
   <i type="logical" name="LCHARG"> F  </i>
   <i type="logical" name="LPARD"> F  </i>
   <i type="logical" name="LVTOT"> F  </i>
   <i type="logical" name="LVHAR"> F  </i>
   <i type="logical" name="LELF"> F  </i>
   <i type="logical" name="LOPTICS"> F  </i>
   <v name="STM">      0.00000000      0.00000000      0.00000000      0.00000000      0.00000000      0.00000000      0.00000000</v>
  </separator>
  <separator name="performance" >
   <i type="int" name="NPAR">     6</i>
   <i type="int" name="NSIM">     4</i>
   <i type="int" name="NBLK">    -1</i>
   <i type="logical" name="LPLANE"> T  </i>
   <i type="logical" name="LSCALAPACK"> T  </i>
   <i type="logical" name="LSCAAWARE"> F  </i>
   <i type="logical" name="LSCALU"> F  </i>
   <i type="logical" name="LASYNC"> F  </i>
   <i type="logical" name="LORBITALREAL"> F  </i>
  </separator>
  <separator name="miscellaneous" >
   <i type="int" name="IDIOT">     3</i>
   <i type="logical" name="LMUSIC"> F  </i>
   <v name="POMASS">    196.96600000    106.42000000</v>
   <v name="DARWINR">      0.00000000      0.00000000</v>
   <v name="DARWINV">      1.00000000      1.00000000</v>
   <i type="logical" name="LCORR"> T  </i>
  </separator>
  <i type="logical" name="GGA_COMPAT"> T  </i>
  <i type="logical" name="LBERRY"> F  </i>
  <i type="int" name="ICORELEVEL">     0</i>
  <i type="logical" name="LDAU"> F  </i>
  <i type="int" name="I_CONSTRAINED_M">     0</i>
  <separator name="electronic exchange-correlation" >
   <i type="string" name="GGA">PE</i>
   <i type="int" name="VOSKOWN">     1</i>
   <i type="logical" name="LHFCALC"> F  </i>
   <i type="string" name="PRECFOCK"></i>
   <i type="logical" name="LSYMGRAD"> F  </i>
   <i type="logical" name="LHFONE"> F  </i>
   <i type="logical" name="LRHFCALC"> F  </i>
   <i type="logical" name="LTHOMAS"> F  </i>
   <i type="logical" name="LMODELHF"> F  </i>
   <i name="ENCUT4O">     -1.00000000</i>
   <i type="int" name="EXXOEP">     0</i>
   <i type="int" name="FOURORBIT">     0</i>
   <i name="AEXX">      0.00000000</i>
   <i name="HFALPHA">      0.00000000</i>
   <i name="MCALPHA">      0.00000000</i>
   <i name="ALDAX">      1.00000000</i>
   <i name="AGGAX">      1.00000000</i>
   <i name="ALDAC">      1.00000000</i>
   <i name="AGGAC">      1.00000000</i>
   <i type="int" name="NKREDX">     1</i>
   <i type="int" name="NKREDY">     1</i>
   <i type="int" name="NKREDZ">     1</i>
   <i type="logical" name="SHIFTRED"> F  </i>
   <i type="logical" name="ODDONLY"> F  </i>
   <i type="logical" name="EVENONLY"> F  </i>
   <i type="int" name="LMAXFOCK">     0</i>
   <i type="int" name="NMAXFOCKAE">     0</i>
   <i type="logical" name="LFOCKAEDFT"> F  </i>
   <i name="HFSCREEN">      0.00000000</i>
   <i name="HFSCREENC">      0.00000000</i>
   <i type="int" name="NBANDSGWLOW">     0</i>
  </separator>
  <separator name="vdW DFT" >
   <i type="logical" name="LUSE_VDW"> F  </i>
   <i name="Zab_VDW">     -0.84910000</i>
   <i name="PARAM1">      0.12340000</i>
   <i name="PARAM2">      1.00000000</i>
   <i name="PARAM3">      0.00000000</i>
  </separator>
  <separator name="model GW" >
   <i type="int" name="MODEL_GW">     0</i>
   <i name="MODEL_EPS0">     32.09595293</i>
   <i name="MODEL_ALPHA">      1.00000000</i>
  </separator>
  <separator name="linear response parameters" >
   <i type="logical" name="LEPSILON"> F  </i>
   <i type="logical" name="LRPA"> F  </i>
   <i type="logical" name="LNABLA"> F  </i>
   <i type="logical" name="LVEL"> F  </i>
   <i type="int" name="KINTER">     0</i>
   <i name="CSHIFT">      0.10000000</i>
   <i name="OMEGAMAX">     -1.00000000</i>
   <i name="DEG_THRESHOLD">      0.00200000</i>
  </separator>
  <separator name="orbital magnetization" >
   <i type="logical" name="NUCIND"> F  </i>
   <v name="MAGPOS">      0.00000000      0.00000000      0.00000000</v>
   <i type="logical" name="LNICSALL"> T  </i>
   <i type="logical" name="ORBITALMAG"> F  </i>
   <i type="logical" name="LMAGBLOCH"> F  </i>
   <i type="logical" name="LCHIMAG"> F  </i>
   <i type="logical" name="LGAUGE"> T  </i>
   <i type="int" name="MAGATOM">     0</i>
   <v name="MAGDIPOL">      0.00000000      0.00000000      0.00000000</v>
   <v name="AVECCONST">      0.00000000      0.00000000      0.00000000</v>
  </separator>
  <separator name="response functions" >
   <i type="logical" name="LADDER"> F  </i>
   <i type="logical" name="LFXC"> F  </i>
   <i type="logical" name="LHARTREE"> T  </i>
   <i type="int" name="IBSE">     0</i>
   <v type="int" name="KPOINT">    -1     0     0     0</v>
   <i type="logical" name="LTCTE"> F  </i>
   <i type="logical" name="LTETE"> F  </i>
   <i type="logical" name="LTRIPLET"> F  </i>
   <i type="logical" name="LFXCEPS"> F  </i>
   <i type="logical" name="LFXHEG"> F  </i>
   <i type="int" name="NATURALO">     0</i>
   <i type="logical" name="L2ORDER"> F  </i>
   <i type="logical" name="LUSEW"> F  </i>
   <i name="ENCUTGW">     -2.00000000</i>
   <i name="ENCUTGWSOFT">     -2.00000000</i>
   <i name="ENCUTLF">     -1.00000000</i>
   <i type="int" name="LMAXMP2">    -1</i>
   <i name="SCISSOR">      0.00000000</i>
   <i type="int" name="NOMEGA">     0</i>
   <i type="int" name="NOMEGAR">     0</i>
   <i type="int" name="NBANDSGW">    -1</i>
   <i type="int" name="NBANDSO">    -1</i>
   <i type="int" name="NBANDSV">    -1</i>
   <i type="int" name="NELM">   500</i>
   <i type="int" name="NELMHF">     1</i>
   <i type="int" name="DIM">     3</i>
   <i type="int" name="ANTIRES">     0</i>
   <i name="OMEGAMAX">    -30.00000000</i>
   <i name="OMEGAMIN">    -30.00000000</i>
   <i name="OMEGATL">   -200.00000000</i>
   <i type="int" name="OMEGAGRID">     0</i>
   <i name="CSHIFT">     -0.10000000</i>
   <i type="logical" name="SELFENERGY"> F  </i>
   <i type="logical" name="LSPECTRAL"> F  </i>
   <i type="logical" name="LSPECTRALGW"> F  </i>
   <i type="logical" name="LSINGLES"> F  </i>
   <i type="logical" name="LFERMIGW"> F  </i>
   <i type="logical" name="ODDONLYGW"> F  </i>
   <i type="logical" name="EVENONLYGW"> F  </i>
   <i type="int" name="NKREDLFX">     1</i>
   <i type="int" name="NKREDLFY">     1</i>
   <i type="int" name="NKREDLFZ">     1</i>
   <i type="int" name="MAXMEM">  1800</i>
   <i type="int" name="TELESCOPE">     0</i>
   <i type="int" name="TAUPAR">     1</i>
   <i type="int" name="OMEGAPAR">    -1</i>
   <i name="LAMBDA">      1.00000000</i>
  </separator>
  <separator name="External order field" >
   <i name="OFIELD_KAPPA">      0.00000000</i>
   <v name="OFIELD_K">      0.00000000      0.00000000      0.00000000</v>
   <i name="OFIELD_Q6_NEAR">      0.00000000</i>
   <i name="OFIELD_Q6_FAR">      0.00000000</i>
   <i name="OFIELD_A">      0.00000000</i>
  </separator>
 </parameters>
 <atominfo>
  <atoms>      48 </atoms>
  <types>       2 </types>
  <array name="atoms" >
   <dimension dim="1">ion</dimension>
   <field type="string">element</field>
   <field type="int">atomtype</field>
   <set>
    <rc><c>Au</c><c>   1</c></rc>
    <rc><c>Au</c><c>   1</c></rc>
    <rc><c>Au</c><c>   1</c></rc>
    <rc><c>Au</c><c>   1</c></rc>
    <rc><c>Au</c><c>   1</c></rc>
    <rc><c>Au</c><c>   1</c></rc>
    <rc><c>Au</c><c>   1</c></rc>
    <rc><c>Au</c><c>   1</c></rc>
    <rc><c>Au</c><c>   1</c></rc>
    <rc><c>Au</c><c>   1</c></rc>
    <rc><c>Au</c><c>   1</c></rc>
    <rc><c>Au</c><c>   1</c></rc>
    <rc><c>Au</c><c>   1</c></rc>
    <rc><c>Au</c><c>   1</c></rc>
    <rc><c>Au</c><c>   1</c></rc>
    <rc><c>Au</c><c>   1</c></rc>
    <rc><c>Au</c><c>   1</c></rc>
    <rc><c>Au</c><c>   1</c></rc>
    <rc><c>Au</c><c>   1</c></rc>
    <rc><c>Au</c><c>   1</c></rc>
    <rc><c>Au</c><c>   1</c></rc>
    <rc><c>Au</c><c>   1</c></rc>
    <rc><c>Au</c><c>   1</c></rc>
    <rc><c>Au</c><c>   1</c></rc>
    <rc><c>Pd</c><c>   2</c></rc>
    <rc><c>Pd</c><c>   2</c></rc>
    <rc><c>Pd</c><c>   2</c></rc>
    <rc><c>Pd</c><c>   2</c></rc>
    <rc><c>Pd</c><c>   2</c></rc>
    <rc><c>Pd</c><c>   2</c></rc>
    <rc><c>Pd</c><c>   2</c></rc>
    <rc><c>Pd</c><c>   2</c></rc>
    <rc><c>Pd</c><c>   2</c></rc>
    <rc><c>Pd</c><c>   2</c></rc>
    <rc><c>Pd</c><c>   2</c></rc>
    <rc><c>Pd</c><c>   2</c></rc>
    <rc><c>Pd</c><c>   2</c></rc>
    <rc><c>Pd</c><c>   2</c></rc>
    <rc><c>Pd</c><c>   2</c></rc>
    <rc><c>Pd</c><c>   2</c></rc>
    <rc><c>Pd</c><c>   2</c></rc>
    <rc><c>Pd</c><c>   2</c></rc>
    <rc><c>Pd</c><c>   2</c></rc>
    <rc><c>Pd</c><c>   2</c></rc>
    <rc><c>Pd</c><c>   2</c></rc>
    <rc><c>Pd</c><c>   2</c></rc>
    <rc><c>Pd</c><c>   2</c></rc>
    <rc><c>Pd</c><c>   2</c></rc>
   </set>
  </array>
  <array name="atomtypes" >
   <dimension dim="1">type</dimension>
   <field type="int">atomspertype</field>
   <field type="string">element</field>
   <field>mass</field>
   <field>valence</field>
   <field type="string">pseudopotential</field>
   <set>
    <rc><c>  24</c><c>Au</c><c>    196.96600000</c><c>     11.00000000</c><c>  PAW_PBE Au 04Oct2007                  </c></rc>
    <rc><c>  24</c><c>Pd</c><c>    106.42000000</c><c>     10.00000000</c><c>  PAW_PBE Pd 04Jan2005                  </c></rc>
   </set>
  </array>
 </atominfo>
 <structure name="initialpos" >
  <crystal>
   <varray name="basis" >
    <v>      11.00258152       0.00000000       0.00000000 </v>
    <v>       5.50129076       9.52851510       0.00000000 </v>
    <v>       0.00000000       0.00000000      24.49178509 </v>
   </varray>
   <i name="volume">   2567.67623402 </i>
   <varray name="rec_basis" >
    <v>       0.09088776      -0.05247407       0.00000000 </v>
    <v>       0.00000000       0.10494815       0.00000000 </v>
    <v>       0.00000000       0.00000000       0.04083002 </v>
   </varray>
  </crystal>
  <varray name="positions" >
   <v>       0.08333333       0.08333333       0.40830017 </v>
   <v>       0.58333333       0.33333333       0.40830017 </v>
   <v>       0.83333333       0.08333333       0.40830017 </v>
   <v>       0.41666667       0.16666667       0.50000000 </v>
   <v>       0.58333333       0.08333333       0.40830017 </v>
   <v>       0.66666667       0.91666667       0.50000000 </v>
   <v>       0.33333333       0.83333333       0.40830017 </v>
   <v>       0.75000000       0.00000000       0.59169983 </v>
   <v>       0.16666667       0.66666667       0.50000000 </v>
   <v>       0.33333333       0.58333333       0.40830017 </v>
   <v>       0.25000000       0.25000000       0.59169983 </v>
   <v>       0.16666667       0.41666667       0.50000000 </v>
   <v>       0.58333333       0.83333333       0.40830017 </v>
   <v>       0.25000000       0.00000000       0.59169983 </v>
   <v>       0.33333333       0.33333333       0.40830017 </v>
   <v>       0.33333333       0.08333333       0.40830017 </v>
   <v>       0.00000000       0.00000000       0.59169983 </v>
   <v>       0.08333333       0.33333333       0.40830017 </v>
   <v>       0.91666667       0.41666667       0.50000000 </v>
   <v>       0.16666667       0.16666667       0.50000000 </v>
   <v>       0.08333333       0.58333333       0.40830017 </v>
   <v>       0.50000000       0.50000000       0.59169983 </v>
   <v>       0.83333333       0.58333333       0.40830017 </v>
   <v>       0.83333333       0.33333333       0.40830017 </v>
   <v>       0.66666667       0.16666667       0.50000000 </v>
   <v>       0.75000000       0.25000000       0.59169983 </v>
   <v>       0.66666667       0.41666667       0.50000000 </v>
   <v>       0.83333333       0.83333333       0.40830017 </v>
   <v>       0.50000000       0.75000000       0.59169983 </v>
   <v>       0.41666667       0.91666667       0.50000000 </v>
   <v>       0.66666667       0.66666667       0.50000000 </v>
   <v>       0.75000000       0.50000000       0.59169983 </v>
   <v>       0.25000000       0.75000000       0.59169983 </v>
   <v>       0.58333333       0.58333333       0.40830017 </v>
   <v>       0.50000000       0.25000000       0.59169983 </v>
   <v>       0.41666667       0.41666667       0.50000000 </v>
   <v>       0.50000000       0.00000000       0.59169983 </v>
   <v>       0.16666667       0.91666667       0.50000000 </v>
   <v>       0.25000000       0.50000000       0.59169983 </v>
   <v>       0.00000000       0.75000000       0.59169983 </v>
   <v>       0.91666667       0.91666667       0.50000000 </v>
   <v>       0.08333333       0.83333333       0.40830017 </v>
   <v>       0.00000000       0.50000000       0.59169983 </v>
   <v>       0.91666667       0.66666667       0.50000000 </v>
   <v>       0.00000000       0.25000000       0.59169983 </v>
   <v>       0.91666667       0.16666667       0.50000000 </v>
   <v>       0.41666667       0.66666667       0.50000000 </v>
   <v>       0.75000000       0.75000000       0.59169983 </v>
  </varray>
 </structure>
 <calculation>
  <scstep>
   <time name="dav">    9.66   10.10</time>
   <time name="total">    9.73   10.17</time>
   <dipole>
    <v name="dipole">      0.00000000       0.00000000       0.00000592 </v>
    <i name="Tr[quadrupol]"> -10236.12918725 </i>
    <i name="Echarged">      0.00000000 </i>
    <i name="Edipol_quadrupol">      0.00000000 </i>
    <i name="Eion">      0.00000000 </i>
   </dipole>
   <energy>
    <i name="alphaZ">    805.86937178 </i>
    <i name="ewald"> 199729.14900577 </i>
    <i name="hartreedc">-242142.26450445 </i>
    <i name="XCdc">   -327.75605970 </i>
    <i name="pawpsdc">  40340.05962942 </i>
    <i name="pawaedc"> -38292.62782345 </i>
    <i name="eentropy">     -0.13697525 </i>
    <i name="bandstr">   1428.57811113 </i>
    <i name="atom">  41659.78587232 </i>
    <i name="e_fr_energy">   3200.65662758 </i>
    <i name="e_wo_entrp">   3200.79360283 </i>
    <i name="e_0_energy">   3200.72511520 </i>
   </energy>
  </scstep>
  <scstep>
   <time name="dav">   11.02   11.03</time>
   <time name="total">   11.02   11.04</time>
   <dipole>
    <v name="dipole">      0.00000000       0.00000000       0.00000592 </v>
    <i name="Tr[quadrupol]"> -10236.12918725 </i>
    <i name="Echarged">      0.00000000 </i>
    <i name="Edipol_quadrupol">      0.00000000 </i>
    <i name="Eion">      0.00000000 </i>
   </dipole>
   <energy>
    <i name="e_fr_energy">     11.57103371 </i>
    <i name="e_wo_entrp">     11.71327662 </i>
    <i name="e_0_energy">     11.64215516 </i>
   </energy>
  </scstep>
  <scstep>
   <time name="dav">   10.64   10.64</time>
   <time name="total">   10.64   10.65</time>
   <dipole>
    <v name="dipole">      0.00000000       0.00000000       0.00000592 </v>
    <i name="Tr[quadrupol]"> -10236.12918725 </i>
    <i name="Echarged">      0.00000000 </i>
    <i name="Edipol_quadrupol">      0.00000000 </i>
    <i name="Eion">      0.00000000 </i>
   </dipole>
   <energy>
    <i name="e_fr_energy">   -202.53472641 </i>
    <i name="e_wo_entrp">   -202.36693220 </i>
    <i name="e_0_energy">   -202.45082931 </i>
   </energy>
  </scstep>
  <scstep>
   <time name="dav">   10.91   10.99</time>
   <time name="total">   10.91   10.99</time>
   <dipole>
    <v name="dipole">      0.00000000       0.00000000       0.00000592 </v>
    <i name="Tr[quadrupol]"> -10236.12918725 </i>
    <i name="Echarged">      0.00000000 </i>
    <i name="Edipol_quadrupol">      0.00000000 </i>
    <i name="Eion">      0.00000000 </i>
   </dipole>
   <energy>
    <i name="e_fr_energy">   -208.24412805 </i>
    <i name="e_wo_entrp">   -208.06980831 </i>
    <i name="e_0_energy">   -208.15696818 </i>
   </energy>
  </scstep>
  <scstep>
   <time name="dav">   11.10   11.11</time>
   <time name="total">   11.41   11.42</time>
   <dipole>
    <v name="dipole">      0.00000000       0.00000000       0.00000592 </v>
    <i name="Tr[quadrupol]"> -10236.12918725 </i>
    <i name="Echarged">      0.00000000 </i>
    <i name="Edipol_quadrupol">      0.00000000 </i>
    <i name="Eion">      0.00000000 </i>
   </dipole>
   <energy>
    <i name="e_fr_energy">   -208.41617442 </i>
    <i name="e_wo_entrp">   -208.24162204 </i>
    <i name="e_0_energy">   -208.32889823 </i>
   </energy>
  </scstep>
  <scstep>
   <time name="diag">    1.65    1.65</time>
   <time name="diis">    4.43    4.44</time>
   <time name="orth">    0.42    0.43</time>
   <time name="total">    7.02    7.04</time>
   <dipole>
    <v name="dipole">      0.00000000       0.00000000       2.65931270 </v>
    <i name="Tr[quadrupol]"> -10238.89344693 </i>
    <i name="Echarged">      0.00000000 </i>
    <i name="Edipol_quadrupol">      0.00000000 </i>
    <i name="Eion">      0.00000000 </i>
   </dipole>
   <energy>
    <i name="e_fr_energy">   -231.77999371 </i>
    <i name="e_wo_entrp">   -231.48715175 </i>
    <i name="e_0_energy">   -231.63357273 </i>
   </energy>
  </scstep>
  <scstep>
   <time name="diag">    2.00    2.01</time>
   <time name="diis">    4.46    4.46</time>
   <time name="orth">    0.40    0.40</time>
   <time name="total">    7.25    7.25</time>
   <dipole>
    <v name="dipole">      0.00000000       0.00000000      -0.46306648 </v>
    <i name="Tr[quadrupol]"> -10238.15037247 </i>
    <i name="Echarged">      0.00000000 </i>
    <i name="Edipol_quadrupol">      0.00000000 </i>
    <i name="Eion">      0.00000000 </i>
   </dipole>
   <energy>
    <i name="e_fr_energy">   -204.16531486 </i>
    <i name="e_wo_entrp">   -203.94252563 </i>
    <i name="e_0_energy">   -204.05392025 </i>
   </energy>
  </scstep>
  <scstep>
   <time name="diag">    1.64    1.64</time>
   <time name="diis">    4.43    4.43</time>
   <time name="orth">    0.40    0.40</time>
   <time name="total">    6.83    6.84</time>
   <dipole>
    <v name="dipole">      0.00000000       0.00000000       1.35316752 </v>
    <i name="Tr[quadrupol]"> -10235.77500793 </i>
    <i name="Echarged">      0.00000000 </i>
    <i name="Edipol_quadrupol">      0.00000000 </i>
    <i name="Eion">      0.00000000 </i>
   </dipole>
   <energy>
    <i name="e_fr_energy">   -213.91713986 </i>
    <i name="e_wo_entrp">   -213.60215256 </i>
    <i name="e_0_energy">   -213.75964621 </i>
   </energy>
  </scstep>
  <scstep>
   <time name="diag">    1.63    1.63</time>
   <time name="diis">    4.29    4.37</time>
   <time name="orth">    0.40    0.40</time>
   <time name="total">    6.69    6.77</time>
   <dipole>
    <v name="dipole">      0.00000000       0.00000000      -0.02677402 </v>
    <i name="Tr[quadrupol]"> -10238.01543074 </i>
    <i name="Echarged">      0.00000000 </i>
    <i name="Edipol_quadrupol">      0.00000000 </i>
    <i name="Eion">      0.00000000 </i>
   </dipole>
   <energy>
    <i name="e_fr_energy">   -221.40950324 </i>
    <i name="e_wo_entrp">   -221.25562748 </i>
    <i name="e_0_energy">   -221.33256536 </i>
   </energy>
  </scstep>
  <scstep>
   <time name="diag">    1.65    1.65</time>
   <time name="diis">    4.44    4.45</time>
   <time name="orth">    0.39    0.39</time>
   <time name="total">    6.85    6.86</time>
   <dipole>
    <v name="dipole">      0.00000000       0.00000000       0.34217027 </v>
    <i name="Tr[quadrupol]"> -10238.27122939 </i>
    <i name="Echarged">      0.00000000 </i>
    <i name="Edipol_quadrupol">      0.00000000 </i>
    <i name="Eion">      0.00000000 </i>
   </dipole>
   <energy>
    <i name="e_fr_energy">   -201.68473922 </i>
    <i name="e_wo_entrp">   -201.46908949 </i>
    <i name="e_0_energy">   -201.57691436 </i>
   </energy>
  </scstep>
  <scstep>
   <time name="diag">    1.62    1.62</time>
   <time name="diis">    4.38    4.38</time>
   <time name="orth">    0.39    0.39</time>
   <time name="total">    6.75    6.76</time>
   <dipole>
    <v name="dipole">      0.00000000       0.00000000       0.30102563 </v>
    <i name="Tr[quadrupol]"> -10238.37109717 </i>
    <i name="Echarged">      0.00000000 </i>
    <i name="Edipol_quadrupol">      0.00000000 </i>
    <i name="Eion">      0.00000000 </i>
   </dipole>
   <energy>
    <i name="e_fr_energy">   -194.23110179 </i>
    <i name="e_wo_entrp">   -194.05918424 </i>
    <i name="e_0_energy">   -194.14514302 </i>
   </energy>
  </scstep>
  <scstep>
   <time name="diag">    1.62    1.63</time>
   <time name="diis">    4.46    4.46</time>
   <time name="orth">    0.39    0.39</time>
   <time name="total">    6.84    6.85</time>
   <dipole>
    <v name="dipole">      0.00000000       0.00000000       0.23166934 </v>
    <i name="Tr[quadrupol]"> -10238.77166108 </i>
    <i name="Echarged">      0.00000000 </i>
    <i name="Edipol_quadrupol">      0.00000000 </i>
    <i name="Eion">      0.00000000 </i>
   </dipole>
   <energy>
    <i name="e_fr_energy">   -189.62997390 </i>
    <i name="e_wo_entrp">   -189.41366250 </i>
    <i name="e_0_energy">   -189.52181820 </i>
   </energy>
  </scstep>
  <scstep>
   <time name="diag">    1.62    1.62</time>
   <time name="diis">    4.44    4.45</time>
   <time name="orth">    0.39    0.39</time>
   <time name="total">    6.81    6.82</time>
   <dipole>
    <v name="dipole">      0.00000000       0.00000000       0.20507889 </v>
    <i name="Tr[quadrupol]"> -10239.26761689 </i>
    <i name="Echarged">      0.00000000 </i>
    <i name="Edipol_quadrupol">      0.00000000 </i>
    <i name="Eion">      0.00000000 </i>
   </dipole>
   <energy>
    <i name="e_fr_energy">   -189.48172187 </i>
    <i name="e_wo_entrp">   -189.22942748 </i>
    <i name="e_0_energy">   -189.35557467 </i>
   </energy>
  </scstep>
  <scstep>
   <time name="diag">    1.64    1.64</time>
   <time name="diis">    4.33    4.33</time>
   <time name="orth">    0.39    0.39</time>
   <time name="total">    6.72    6.73</time>
   <dipole>
    <v name="dipole">      0.00000000       0.00000000       0.23805087 </v>
    <i name="Tr[quadrupol]"> -10239.28902894 </i>
    <i name="Echarged">      0.00000000 </i>
    <i name="Edipol_quadrupol">      0.00000000 </i>
    <i name="Eion">      0.00000000 </i>
   </dipole>
   <energy>
    <i name="e_fr_energy">   -189.12112703 </i>
    <i name="e_wo_entrp">   -188.89353764 </i>
    <i name="e_0_energy">   -189.00733233 </i>
   </energy>
  </scstep>
  <scstep>
   <time name="diag">    1.62    1.62</time>
   <time name="diis">    4.27    4.36</time>
   <time name="orth">    0.48    0.48</time>
   <time name="total">    6.86    6.95</time>
   <dipole>
    <v name="dipole">      0.00000000       0.00000000       0.25500679 </v>
    <i name="Tr[quadrupol]"> -10239.50187661 </i>
    <i name="Echarged">      0.00000000 </i>
    <i name="Edipol_quadrupol">      0.00000000 </i>
    <i name="Eion">      0.00000000 </i>
   </dipole>
   <energy>
    <i name="e_fr_energy">   -189.16858002 </i>
    <i name="e_wo_entrp">   -188.93101043 </i>
    <i name="e_0_energy">   -189.04979523 </i>
   </energy>
  </scstep>
  <scstep>
   <time name="diag">    1.99    2.01</time>
   <time name="diis">    4.40    4.41</time>
   <time name="orth">    0.41    0.41</time>
   <time name="total">    7.19    7.21</time>
   <dipole>
    <v name="dipole">      0.00000000       0.00000000       0.28281880 </v>
    <i name="Tr[quadrupol]"> -10239.97334571 </i>
    <i name="Echarged">      0.00000000 </i>
    <i name="Edipol_quadrupol">      0.00000000 </i>
    <i name="Eion">      0.00000000 </i>
   </dipole>
   <energy>
    <i name="e_fr_energy">   -189.08316643 </i>
    <i name="e_wo_entrp">   -188.85324291 </i>
    <i name="e_0_energy">   -188.96820467 </i>
   </energy>
  </scstep>
  <scstep>
   <time name="diag">    1.63    1.63</time>
   <time name="diis">    4.37    4.37</time>
   <time name="orth">    0.40    0.40</time>
   <time name="total">    6.75    6.76</time>
   <dipole>
    <v name="dipole">      0.00000000       0.00000000       0.24979375 </v>
    <i name="Tr[quadrupol]"> -10240.29393834 </i>
    <i name="Echarged">      0.00000000 </i>
    <i name="Edipol_quadrupol">      0.00000000 </i>
    <i name="Eion">      0.00000000 </i>
   </dipole>
   <energy>
    <i name="e_fr_energy">   -188.95833938 </i>
    <i name="e_wo_entrp">   -188.71124025 </i>
    <i name="e_0_energy">   -188.83478982 </i>
   </energy>
  </scstep>
  <scstep>
   <time name="diag">    1.64    1.64</time>
   <time name="diis">    4.33    4.33</time>
   <time name="orth">    0.40    0.40</time>
   <time name="total">    6.73    6.74</time>
   <dipole>
    <v name="dipole">      0.00000000       0.00000000       0.19070666 </v>
    <i name="Tr[quadrupol]"> -10240.43514466 </i>
    <i name="Echarged">      0.00000000 </i>
    <i name="Edipol_quadrupol">      0.00000000 </i>
    <i name="Eion">      0.00000000 </i>
   </dipole>
   <energy>
    <i name="e_fr_energy">   -188.89301850 </i>
    <i name="e_wo_entrp">   -188.63616635 </i>
    <i name="e_0_energy">   -188.76459242 </i>
   </energy>
  </scstep>
  <scstep>
   <time name="diag">    1.62    1.62</time>
   <time name="diis">    4.44    4.45</time>
   <time name="orth">    0.39    0.40</time>
   <time name="total">    6.82    6.83</time>
   <dipole>
    <v name="dipole">      0.00000000       0.00000000       0.17720519 </v>
    <i name="Tr[quadrupol]"> -10240.48565905 </i>
    <i name="Echarged">      0.00000000 </i>
    <i name="Edipol_quadrupol">      0.00000000 </i>
    <i name="Eion">      0.00000000 </i>
   </dipole>
   <energy>
    <i name="e_fr_energy">   -188.86085418 </i>
    <i name="e_wo_entrp">   -188.60570943 </i>
    <i name="e_0_energy">   -188.73328181 </i>
   </energy>
  </scstep>
  <scstep>
   <time name="diag">    1.63    1.63</time>
   <time name="diis">    4.31    4.31</time>
   <time name="orth">    0.40    0.40</time>
   <time name="total">    6.70    6.70</time>
   <dipole>
    <v name="dipole">      0.00000000       0.00000000       0.16017789 </v>
    <i name="Tr[quadrupol]"> -10240.57209184 </i>
    <i name="Echarged">      0.00000000 </i>
    <i name="Edipol_quadrupol">      0.00000000 </i>
    <i name="Eion">      0.00000000 </i>
   </dipole>
   <energy>
    <i name="e_fr_energy">   -188.85809166 </i>
    <i name="e_wo_entrp">   -188.60365431 </i>
    <i name="e_0_energy">   -188.73087298 </i>
   </energy>
  </scstep>
  <scstep>
   <time name="diag">    1.61    1.63</time>
   <time name="diis">    4.35    4.41</time>
   <time name="orth">    0.40    0.40</time>
   <time name="total">    6.73    6.81</time>
   <dipole>
    <v name="dipole">      0.00000000       0.00000000       0.14899222 </v>
    <i name="Tr[quadrupol]"> -10240.67985302 </i>
    <i name="Echarged">      0.00000000 </i>
    <i name="Edipol_quadrupol">      0.00000000 </i>
    <i name="Eion">      0.00000000 </i>
   </dipole>
   <energy>
    <i name="e_fr_energy">   -188.85479690 </i>
    <i name="e_wo_entrp">   -188.59958636 </i>
    <i name="e_0_energy">   -188.72719163 </i>
   </energy>
  </scstep>
  <scstep>
   <time name="diag">    1.64    1.64</time>
   <time name="diis">    4.42    4.42</time>
   <time name="orth">    0.40    0.40</time>
   <time name="total">    6.83    6.83</time>
   <dipole>
    <v name="dipole">      0.00000000       0.00000000       0.14312440 </v>
    <i name="Tr[quadrupol]"> -10240.76935272 </i>
    <i name="Echarged">      0.00000000 </i>
    <i name="Edipol_quadrupol">      0.00000000 </i>
    <i name="Eion">      0.00000000 </i>
   </dipole>
   <energy>
    <i name="e_fr_energy">   -188.85389371 </i>
    <i name="e_wo_entrp">   -188.59976203 </i>
    <i name="e_0_energy">   -188.72682787 </i>
   </energy>
  </scstep>
  <scstep>
   <time name="diag">    1.62    1.62</time>
   <time name="diis">    4.46    4.47</time>
   <time name="orth">    0.40    0.40</time>
   <time name="total">    6.84    6.85</time>
   <dipole>
    <v name="dipole">      0.00000000       0.00000000       0.13351411 </v>
    <i name="Tr[quadrupol]"> -10240.84772624 </i>
    <i name="Echarged">      0.00000000 </i>
    <i name="Edipol_quadrupol">      0.00000000 </i>
    <i name="Eion">      0.00000000 </i>
   </dipole>
   <energy>
    <i name="e_fr_energy">   -188.85257376 </i>
    <i name="e_wo_entrp">   -188.59780669 </i>
    <i name="e_0_energy">   -188.72519023 </i>
   </energy>
  </scstep>
  <scstep>
   <time name="diag">    1.63    1.63</time>
   <time name="diis">    4.78    4.81</time>
   <time name="orth">    0.49    0.49</time>
   <time name="total">    7.41    7.44</time>
   <dipole>
    <v name="dipole">      0.00000000       0.00000000       0.12434898 </v>
    <i name="Tr[quadrupol]"> -10240.90414692 </i>
    <i name="Echarged">      0.00000000 </i>
    <i name="Edipol_quadrupol">      0.00000000 </i>
    <i name="Eion">      0.00000000 </i>
   </dipole>
   <energy>
    <i name="e_fr_energy">   -188.85230703 </i>
    <i name="e_wo_entrp">   -188.59695440 </i>
    <i name="e_0_energy">   -188.72463071 </i>
   </energy>
  </scstep>
  <scstep>
   <time name="diag">    1.56    1.76</time>
   <time name="diis">    4.37    4.37</time>
   <time name="orth">    0.40    0.40</time>
   <time name="total">    6.69    6.93</time>
   <dipole>
    <v name="dipole">      0.00000000       0.00000000       0.11086462 </v>
    <i name="Tr[quadrupol]"> -10240.98267495 </i>
    <i name="Echarged">      0.00000000 </i>
    <i name="Edipol_quadrupol">      0.00000000 </i>
    <i name="Eion">      0.00000000 </i>
   </dipole>
   <energy>
    <i name="e_fr_energy">   -188.85239071 </i>
    <i name="e_wo_entrp">   -188.59628598 </i>
    <i name="e_0_energy">   -188.72433834 </i>
   </energy>
  </scstep>
  <scstep>
   <time name="diag">    1.65    1.65</time>
   <time name="diis">    4.33    4.33</time>
   <time name="orth">    0.40    0.40</time>
   <time name="total">    6.74    6.76</time>
   <dipole>
    <v name="dipole">      0.00000000       0.00000000       0.10481160 </v>
    <i name="Tr[quadrupol]"> -10241.03551442 </i>
    <i name="Echarged">      0.00000000 </i>
    <i name="Edipol_quadrupol">      0.00000000 </i>
    <i name="Eion">      0.00000000 </i>
   </dipole>
   <energy>
    <i name="e_fr_energy">   -188.85245578 </i>
    <i name="e_wo_entrp">   -188.59657969 </i>
    <i name="e_0_energy">   -188.72451773 </i>
   </energy>
  </scstep>
  <scstep>
   <time name="diag">    1.59    1.64</time>
   <time name="diis">    4.54    4.55</time>
   <time name="orth">    0.40    0.40</time>
   <time name="total">    6.90    6.95</time>
   <dipole>
    <v name="dipole">      0.00000000       0.00000000       0.09782953 </v>
    <i name="Tr[quadrupol]"> -10241.09536019 </i>
    <i name="Echarged">      0.00000000 </i>
    <i name="Edipol_quadrupol">      0.00000000 </i>
    <i name="Eion">      0.00000000 </i>
   </dipole>
   <energy>
    <i name="e_fr_energy">   -188.85266047 </i>
    <i name="e_wo_entrp">   -188.59687128 </i>
    <i name="e_0_energy">   -188.72476587 </i>
   </energy>
  </scstep>
  <scstep>
   <time name="diag">    1.63    1.63</time>
   <time name="diis">    4.40    4.40</time>
   <time name="orth">    0.40    0.40</time>
   <time name="total">    6.79    6.80</time>
   <dipole>
    <v name="dipole">      0.00000000       0.00000000       0.09064966 </v>
    <i name="Tr[quadrupol]"> -10241.14741578 </i>
    <i name="Echarged">      0.00000000 </i>
    <i name="Edipol_quadrupol">      0.00000000 </i>
    <i name="Eion">      0.00000000 </i>
   </dipole>
   <energy>
    <i name="e_fr_energy">   -188.85301740 </i>
    <i name="e_wo_entrp">   -188.59730694 </i>
    <i name="e_0_energy">   -188.72516217 </i>
   </energy>
  </scstep>
  <scstep>
   <time name="diag">    1.62    1.63</time>
   <time name="diis">    4.28    4.28</time>
   <time name="orth">    0.40    0.40</time>
   <time name="total">    6.67    6.67</time>
   <dipole>
    <v name="dipole">      0.00000000       0.00000000       0.08254248 </v>
    <i name="Tr[quadrupol]"> -10241.20179934 </i>
    <i name="Echarged">      0.00000000 </i>
    <i name="Edipol_quadrupol">      0.00000000 </i>
    <i name="Eion">      0.00000000 </i>
   </dipole>
   <energy>
    <i name="e_fr_energy">   -188.85348449 </i>
    <i name="e_wo_entrp">   -188.59774974 </i>
    <i name="e_0_energy">   -188.72561712 </i>
   </energy>
  </scstep>
  <scstep>
   <time name="diag">    1.64    1.64</time>
   <time name="diis">    4.29    4.29</time>
   <time name="orth">    0.40    0.40</time>
   <time name="total">    6.69    6.71</time>
   <dipole>
    <v name="dipole">      0.00000000       0.00000000       0.07535565 </v>
    <i name="Tr[quadrupol]"> -10241.24352276 </i>
    <i name="Echarged">      0.00000000 </i>
    <i name="Edipol_quadrupol">      0.00000000 </i>
    <i name="Eion">      0.00000000 </i>
   </dipole>
   <energy>
    <i name="e_fr_energy">   -188.85396338 </i>
    <i name="e_wo_entrp">   -188.59822609 </i>
    <i name="e_0_energy">   -188.72609474 </i>
   </energy>
  </scstep>
  <scstep>
   <time name="diag">    1.62    1.62</time>
   <time name="diis">    4.25    4.25</time>
   <time name="orth">    0.40    0.40</time>
   <time name="total">    6.63    6.63</time>
   <dipole>
    <v name="dipole">      0.00000000       0.00000000       0.06711896 </v>
    <i name="Tr[quadrupol]"> -10241.28959938 </i>
    <i name="Echarged">      0.00000000 </i>
    <i name="Edipol_quadrupol">      0.00000000 </i>
    <i name="Eion">      0.00000000 </i>
   </dipole>
   <energy>
    <i name="e_fr_energy">   -188.85448985 </i>
    <i name="e_wo_entrp">   -188.59867719 </i>
    <i name="e_0_energy">   -188.72658352 </i>
   </energy>
  </scstep>
  <scstep>
   <time name="diag">    1.64    1.65</time>
   <time name="diis">    4.11    4.11</time>
   <time name="orth">    0.39    0.40</time>
   <time name="total">    6.51    6.55</time>
   <dipole>
    <v name="dipole">      0.00000000       0.00000000       0.05841507 </v>
    <i name="Tr[quadrupol]"> -10241.33184575 </i>
    <i name="Echarged">      0.00000000 </i>
    <i name="Edipol_quadrupol">      0.00000000 </i>
    <i name="Eion">      0.00000000 </i>
   </dipole>
   <energy>
    <i name="e_fr_energy">   -188.85494259 </i>
    <i name="e_wo_entrp">   -188.59917060 </i>
    <i name="e_0_energy">   -188.72705660 </i>
   </energy>
  </scstep>
  <scstep>
   <time name="diag">    1.60    1.63</time>
   <time name="diis">    3.03    3.84</time>
   <time name="orth">    0.34    0.53</time>
   <time name="total">    5.35    6.55</time>
   <dipole>
    <v name="dipole">      0.00000000       0.00000000       0.05586389 </v>
    <i name="Tr[quadrupol]"> -10241.34249382 </i>
    <i name="Echarged">      0.00000000 </i>
    <i name="Edipol_quadrupol">      0.00000000 </i>
    <i name="Eion">      0.00000000 </i>
   </dipole>
   <energy>
    <i name="e_fr_energy">   -188.85505060 </i>
    <i name="e_wo_entrp">   -188.59932714 </i>
    <i name="e_0_energy">   -188.72718887 </i>
   </energy>
  </scstep>
  <scstep>
   <time name="diag">    1.64    1.64</time>
   <time name="diis">    3.15    3.16</time>
   <time name="orth">    0.39    0.39</time>
   <time name="total">    5.55    5.58</time>
   <dipole>
    <v name="dipole">      0.00000000       0.00000000       0.05287877 </v>
    <i name="Tr[quadrupol]"> -10241.35406687 </i>
    <i name="Echarged">      0.00000000 </i>
    <i name="Edipol_quadrupol">      0.00000000 </i>
    <i name="Eion">      0.00000000 </i>
   </dipole>
   <energy>
    <i name="e_fr_energy">   -188.85516535 </i>
    <i name="e_wo_entrp">   -188.59945281 </i>
    <i name="e_0_energy">   -188.72730908 </i>
   </energy>
  </scstep>
  <scstep>
   <time name="diag">    1.62    1.62</time>
   <time name="diis">    2.88    2.88</time>
   <time name="orth">    0.39    0.39</time>
   <time name="total">    5.25    5.26</time>
   <dipole>
    <v name="dipole">      0.00000000       0.00000000       0.05069780 </v>
    <i name="Tr[quadrupol]"> -10241.35970664 </i>
    <i name="Echarged">      0.00000000 </i>
    <i name="Edipol_quadrupol">      0.00000000 </i>
    <i name="Eion">      0.00000000 </i>
   </dipole>
   <energy>
    <i name="e_fr_energy">   -188.85523973 </i>
    <i name="e_wo_entrp">   -188.59953536 </i>
    <i name="e_0_energy">   -188.72738755 </i>
   </energy>
  </scstep>
  <scstep>
   <time name="diag">    1.62    1.62</time>
   <time name="diis">    2.77    2.78</time>
   <time name="orth">    0.39    0.39</time>
   <time name="total">    5.16    5.16</time>
   <dipole>
    <v name="dipole">      0.00000000       0.00000000       0.04821541 </v>
    <i name="Tr[quadrupol]"> -10241.36490104 </i>
    <i name="Echarged">      0.00000000 </i>
    <i name="Edipol_quadrupol">      0.00000000 </i>
    <i name="Eion">      0.00000000 </i>
   </dipole>
   <energy>
    <i name="e_fr_energy">   -188.85530991 </i>
    <i name="e_wo_entrp">   -188.59958604 </i>
    <i name="e_0_energy">   -188.72744798 </i>
   </energy>
  </scstep>
  <scstep>
   <time name="diag">    1.61    1.61</time>
   <time name="diis">    2.67    2.68</time>
   <time name="orth">    0.39    0.39</time>
   <time name="total">    5.04    5.05</time>
   <dipole>
    <v name="dipole">      0.00000000       0.00000000       0.04652366 </v>
    <i name="Tr[quadrupol]"> -10241.36815205 </i>
    <i name="Echarged">      0.00000000 </i>
    <i name="Edipol_quadrupol">      0.00000000 </i>
    <i name="Eion">      0.00000000 </i>
   </dipole>
   <energy>
    <i name="e_fr_energy">   -188.85534840 </i>
    <i name="e_wo_entrp">   -188.59964114 </i>
    <i name="e_0_energy">   -188.72749477 </i>
   </energy>
  </scstep>
  <scstep>
   <time name="diag">    1.63    1.63</time>
   <time name="diis">    2.70    2.70</time>
   <time name="orth">    0.39    0.39</time>
   <time name="total">    5.08    5.09</time>
   <dipole>
    <v name="dipole">      0.00000000       0.00000000       0.04472126 </v>
    <i name="Tr[quadrupol]"> -10241.37163645 </i>
    <i name="Echarged">      0.00000000 </i>
    <i name="Edipol_quadrupol">      0.00000000 </i>
    <i name="Eion">      0.00000000 </i>
   </dipole>
   <energy>
    <i name="e_fr_energy">   -188.85537718 </i>
    <i name="e_wo_entrp">   -188.59967392 </i>
    <i name="e_0_energy">   -188.72752555 </i>
   </energy>
  </scstep>
  <scstep>
   <time name="diag">    1.61    1.62</time>
   <time name="diis">    2.34    2.35</time>
   <time name="orth">    0.39    0.39</time>
   <time name="total">    4.72    4.72</time>
   <dipole>
    <v name="dipole">      0.00000000       0.00000000       0.04346383 </v>
    <i name="Tr[quadrupol]"> -10241.37417867 </i>
    <i name="Echarged">      0.00000000 </i>
    <i name="Edipol_quadrupol">      0.00000000 </i>
    <i name="Eion">      0.00000000 </i>
   </dipole>
   <energy>
    <i name="e_fr_energy">   -188.85538821 </i>
    <i name="e_wo_entrp">   -188.59969155 </i>
    <i name="e_0_energy">   -188.72753988 </i>
   </energy>
  </scstep>
  <scstep>
   <time name="diag">    1.62    1.62</time>
   <time name="diis">    2.10    2.18</time>
   <time name="orth">    0.39    0.39</time>
   <time name="total">    4.49    4.57</time>
   <dipole>
    <v name="dipole">      0.00000000       0.00000000       0.04311177 </v>
    <i name="Tr[quadrupol]"> -10241.37503827 </i>
    <i name="Echarged">      0.00000000 </i>
    <i name="Edipol_quadrupol">      0.00000000 </i>
    <i name="Eion">      0.00000000 </i>
   </dipole>
   <energy>
    <i name="e_fr_energy">   -188.85539112 </i>
    <i name="e_wo_entrp">   -188.59969355 </i>
    <i name="e_0_energy">   -188.72754234 </i>
   </energy>
  </scstep>
  <scstep>
   <time name="diag">    1.62    1.62</time>
   <time name="diis">    2.27    2.28</time>
   <time name="orth">    0.39    0.39</time>
   <time name="total">    4.65    4.66</time>
   <dipole>
    <v name="dipole">      0.00000000       0.00000000       0.04247821 </v>
    <i name="Tr[quadrupol]"> -10241.37666170 </i>
    <i name="Echarged">      0.00000000 </i>
    <i name="Edipol_quadrupol">      0.00000000 </i>
    <i name="Eion">      0.00000000 </i>
   </dipole>
   <energy>
    <i name="e_fr_energy">   -188.85539651 </i>
    <i name="e_wo_entrp">   -188.59970235 </i>
    <i name="e_0_energy">   -188.72754943 </i>
   </energy>
  </scstep>
  <scstep>
   <time name="diag">    1.63    1.63</time>
   <time name="diis">    2.19    2.19</time>
   <time name="orth">    0.39    0.39</time>
   <time name="total">    4.58    4.58</time>
   <dipole>
    <v name="dipole">      0.00000000       0.00000000       0.04208305 </v>
    <i name="Tr[quadrupol]"> -10241.37784105 </i>
    <i name="Echarged">      0.00000000 </i>
    <i name="Edipol_quadrupol">      0.00000000 </i>
    <i name="Eion">      0.00000000 </i>
   </dipole>
   <energy>
    <i name="e_fr_energy">   -188.85539940 </i>
    <i name="e_wo_entrp">   -188.59970509 </i>
    <i name="e_0_energy">   -188.72755225 </i>
   </energy>
  </scstep>
  <scstep>
   <time name="diag">    1.62    1.62</time>
   <time name="diis">    1.90    1.90</time>
   <time name="orth">    0.39    0.39</time>
   <time name="total">    4.28    4.28</time>
   <dipole>
    <v name="dipole">      0.00000000       0.00000000       0.04192892 </v>
    <i name="Tr[quadrupol]"> -10241.37832297 </i>
    <i name="Echarged">      0.00000000 </i>
    <i name="Edipol_quadrupol">      0.00000000 </i>
    <i name="Eion">      0.00000000 </i>
   </dipole>
   <energy>
    <i name="e_fr_energy">   -188.85540046 </i>
    <i name="e_wo_entrp">   -188.59970731 </i>
    <i name="e_0_energy">   -188.72755389 </i>
   </energy>
  </scstep>
  <scstep>
   <time name="diag">    1.62    1.62</time>
   <time name="diis">    1.88    1.88</time>
   <time name="orth">    0.39    0.39</time>
   <time name="total">    3.95    3.95</time>
   <dipole>
    <v name="dipole">      0.00000000       0.00000000       0.04181990 </v>
    <i name="Tr[quadrupol]"> -10241.37878212 </i>
    <i name="Echarged">      0.00000000 </i>
    <i name="Edipol_quadrupol">      0.00000000 </i>
    <i name="Eion">      0.00000000 </i>
   </dipole>
   <energy>
    <i name="alphaZ">    805.92225618 </i>
    <i name="ewald"> 199729.14900577 </i>
    <i name="hartreedc">-241908.91330812 </i>
    <i name="XCdc">   -343.78593822 </i>
    <i name="pawpsdc">  49311.95318300 </i>
    <i name="pawaedc"> -47391.10457625 </i>
    <i name="eentropy">     -0.25569261 </i>
    <i name="bandstr">  -2051.60620343 </i>
    <i name="atom">  41659.78587232 </i>
    <i name="e_fr_energy">   -188.85540136 </i>
    <i name="e_wo_entrp">   -188.59970875 </i>
    <i name="e_0_energy">   -188.72755506 </i>
   </energy>
  </scstep>
  <structure>
   <crystal>
    <varray name="basis" >
     <v>      11.00258152       0.00000000       0.00000000 </v>
     <v>       5.50129076       9.52851510       0.00000000 </v>
     <v>       0.00000000       0.00000000      24.49178509 </v>
    </varray>
    <i name="volume">   2567.67623402 </i>
    <varray name="rec_basis" >
     <v>       0.09088776      -0.05247407       0.00000000 </v>
     <v>       0.00000000       0.10494815       0.00000000 </v>
     <v>       0.00000000       0.00000000       0.04083002 </v>
    </varray>
   </crystal>
   <varray name="positions" >
    <v>       0.08333333       0.08333333       0.40830017 </v>
    <v>       0.58333333       0.33333333       0.40830017 </v>
    <v>       0.83333333       0.08333333       0.40830017 </v>
    <v>       0.41666667       0.16666667       0.50000000 </v>
    <v>       0.58333333       0.08333333       0.40830017 </v>
    <v>       0.66666667       0.91666667       0.50000000 </v>
    <v>       0.33333333       0.83333333       0.40830017 </v>
    <v>       0.75000000       0.00000000       0.59169983 </v>
    <v>       0.16666667       0.66666667       0.50000000 </v>
    <v>       0.33333333       0.58333333       0.40830017 </v>
    <v>       0.25000000       0.25000000       0.59169983 </v>
    <v>       0.16666667       0.41666667       0.50000000 </v>
    <v>       0.58333333       0.83333333       0.40830017 </v>
    <v>       0.25000000       0.00000000       0.59169983 </v>
    <v>       0.33333333       0.33333333       0.40830017 </v>
    <v>       0.33333333       0.08333333       0.40830017 </v>
    <v>       0.00000000       0.00000000       0.59169983 </v>
    <v>       0.08333333       0.33333333       0.40830017 </v>
    <v>       0.91666667       0.41666667       0.50000000 </v>
    <v>       0.16666667       0.16666667       0.50000000 </v>
    <v>       0.08333333       0.58333333       0.40830017 </v>
    <v>       0.50000000       0.50000000       0.59169983 </v>
    <v>       0.83333333       0.58333333       0.40830017 </v>
    <v>       0.83333333       0.33333333       0.40830017 </v>
    <v>       0.66666667       0.16666667       0.50000000 </v>
    <v>       0.75000000       0.25000000       0.59169983 </v>
    <v>       0.66666667       0.41666667       0.50000000 </v>
    <v>       0.83333333       0.83333333       0.40830017 </v>
    <v>       0.50000000       0.75000000       0.59169983 </v>
    <v>       0.41666667       0.91666667       0.50000000 </v>
    <v>       0.66666667       0.66666667       0.50000000 </v>
    <v>       0.75000000       0.50000000       0.59169983 </v>
    <v>       0.25000000       0.75000000       0.59169983 </v>
    <v>       0.58333333       0.58333333       0.40830017 </v>
    <v>       0.50000000       0.25000000       0.59169983 </v>
    <v>       0.41666667       0.41666667       0.50000000 </v>
    <v>       0.50000000       0.00000000       0.59169983 </v>
    <v>       0.16666667       0.91666667       0.50000000 </v>
    <v>       0.25000000       0.50000000       0.59169983 </v>
    <v>       0.00000000       0.75000000       0.59169983 </v>
    <v>       0.91666667       0.91666667       0.50000000 </v>
    <v>       0.08333333       0.83333333       0.40830017 </v>
    <v>       0.00000000       0.50000000       0.59169983 </v>
    <v>       0.91666667       0.66666667       0.50000000 </v>
    <v>       0.00000000       0.25000000       0.59169983 </v>
    <v>       0.91666667       0.16666667       0.50000000 </v>
    <v>       0.41666667       0.66666667       0.50000000 </v>
    <v>       0.75000000       0.75000000       0.59169983 </v>
   </varray>
  </structure>
  <varray name="forces" >
   <v>      -0.29550756      -0.33967759      -1.40083152 </v>
   <v>       0.13397669       0.23967862      -1.10366954 </v>
   <v>       0.02625419      -0.45410798      -1.06441314 </v>
   <v>       0.52772181      -0.09186304       0.64351154 </v>
   <v>       0.30030061      -0.15669478      -1.61692704 </v>
   <v>       0.17384773      -0.50382218       0.37109382 </v>
   <v>      -0.08725292      -0.20689153      -1.12120838 </v>
   <v>      -0.05891451       0.07607611       1.32213339 </v>
   <v>       0.10712195       0.46745667       0.56487636 </v>
   <v>       0.27913010       0.15574572      -1.32655553 </v>
   <v>       0.15894418       0.21705850       1.82471054 </v>
   <v>       0.16637384       0.52256559       0.70492259 </v>
   <v>      -0.01295622      -0.32063051      -1.33725340 </v>
   <v>       0.09447943      -0.38966377       1.34200114 </v>
   <v>       0.17420273       0.09902690      -1.66197307 </v>
   <v>      -0.01569388      -0.23191733      -1.66521035 </v>
   <v>      -0.04025240       0.04570081       1.12846237 </v>
   <v>      -0.03311785       0.04139696      -1.94038855 </v>
   <v>      -0.53733017       0.30150479       0.92131251 </v>
   <v>      -0.51971762      -0.40029585       0.38198925 </v>
   <v>      -0.13366877       0.53896533      -1.63889158 </v>
   <v>       0.00623190      -0.04540110       1.06695948 </v>
   <v>      -0.13272100       0.37465609      -1.37892607 </v>
   <v>      -0.27752200       0.14425827      -1.35590469 </v>
   <v>       0.29934844       0.31001563       0.34202583 </v>
   <v>       0.05362402       0.15624945       0.53527744 </v>
   <v>      -0.08270484       0.09643841       0.25390179 </v>
   <v>       0.19320372      -0.04395028      -0.73954125 </v>
   <v>       0.15448246      -0.00801068       0.53056838 </v>
   <v>      -0.10280386      -0.51313035       0.38221359 </v>
   <v>      -0.28307390      -0.06753010       0.36449635 </v>
   <v>       0.12675513       0.03520224       0.61449509 </v>
   <v>       0.00285006      -0.11290561       0.66275902 </v>
   <v>      -0.00319281       0.01627903      -0.58212119 </v>
   <v>       0.08121176       0.06101142       0.69674235 </v>
   <v>       0.32649638      -0.03945808       0.41525958 </v>
   <v>       0.00266571      -0.17710650       0.85096734 </v>
   <v>      -0.13565104      -0.24464315       0.05566835 </v>
   <v>      -0.02269993       0.11802795       0.83712254 </v>
   <v>      -0.02845801      -0.27789673       0.67445035 </v>
   <v>       0.12111383      -0.10416459      -0.09162936 </v>
   <v>      -0.13580974       0.09770584      -0.69966671 </v>
   <v>      -0.10599743       0.25589532       0.81322092 </v>
   <v>      -0.12296192       0.32491775       0.39190973 </v>
   <v>      -0.25803408       0.25892328       0.83257999 </v>
   <v>      -0.31384947      -0.04100272       0.37240110 </v>
   <v>       0.35549413       0.06034263       0.17445993 </v>
   <v>      -0.12593889      -0.24433485       0.65261869 </v>
  </varray>
  <energy>
   <i name="e_fr_energy">   -188.85540136 </i>
   <i name="e_wo_entrp">   -188.72755506 </i>
   <i name="e_0_energy">     -0.25569261 </i>
  </energy>
  <time name="totalsc">  299.04  301.81</time>
 </calculation>
 <calculation>
  <scstep>
   <time name="dav">    9.22   10.30</time>
   <time name="total">    9.58   10.67</time>
   <dipole>
    <v name="dipole">      0.00000000       0.00000000       0.04170612 </v>
    <i name="Tr[quadrupol]"> -10243.89918612 </i>
    <i name="Echarged">      0.00000000 </i>
    <i name="Edipol_quadrupol">      0.00000000 </i>
    <i name="Eion">      0.00000000 </i>
   </dipole>
   <energy>
    <i name="alphaZ">    805.92294027 </i>
    <i name="ewald"> 197075.14637506 </i>
    <i name="hartreedc">-239270.67409291 </i>
    <i name="XCdc">   -345.94315919 </i>
    <i name="pawpsdc">  49311.95332335 </i>
    <i name="pawaedc"> -47391.10472387 </i>
    <i name="eentropy">     -0.25899269 </i>
    <i name="bandstr">  -2034.77304384 </i>
    <i name="atom">  41659.78587232 </i>
    <i name="e_fr_energy">   -189.94550150 </i>
    <i name="e_wo_entrp">   -189.68650882 </i>
    <i name="e_0_energy">   -189.81600516 </i>
   </energy>
  </scstep>
  <scstep>
   <time name="diag">    1.62    1.63</time>
   <time name="diis">    4.54    4.55</time>
   <time name="orth">    0.38    0.40</time>
   <time name="total">    6.91    6.96</time>
   <dipole>
    <v name="dipole">      0.00000000       0.00000000       0.05018787 </v>
    <i name="Tr[quadrupol]"> -10243.67208082 </i>
    <i name="Echarged">      0.00000000 </i>
    <i name="Edipol_quadrupol">      0.00000000 </i>
    <i name="Eion">      0.00000000 </i>
   </dipole>
   <energy>
    <i name="e_fr_energy">   -190.35037987 </i>
    <i name="e_wo_entrp">   -190.10616795 </i>
    <i name="e_0_energy">   -190.22827391 </i>
   </energy>
  </scstep>
  <scstep>
   <time name="diag">    1.65    1.67</time>
   <time name="diis">    4.39    4.40</time>
   <time name="orth">    0.39    0.39</time>
   <time name="total">    6.79    6.82</time>
   <dipole>
    <v name="dipole">      0.00000000       0.00000000      -0.04216395 </v>
    <i name="Tr[quadrupol]"> -10244.17159450 </i>
    <i name="Echarged">      0.00000000 </i>
    <i name="Edipol_quadrupol">      0.00000000 </i>
    <i name="Eion">      0.00000000 </i>
   </dipole>
   <energy>
    <i name="e_fr_energy">   -190.62289337 </i>
    <i name="e_wo_entrp">   -190.35584647 </i>
    <i name="e_0_energy">   -190.48936992 </i>
   </energy>
  </scstep>
  <scstep>
   <time name="diag">    1.62    1.62</time>
   <time name="diis">    4.43    4.43</time>
   <time name="orth">    0.39    0.39</time>
   <time name="total">    6.79    6.80</time>
   <dipole>
    <v name="dipole">      0.00000000       0.00000000       0.09897417 </v>
    <i name="Tr[quadrupol]"> -10244.06418108 </i>
    <i name="Echarged">      0.00000000 </i>
    <i name="Edipol_quadrupol">      0.00000000 </i>
    <i name="Eion">      0.00000000 </i>
   </dipole>
   <energy>
    <i name="e_fr_energy">   -190.34066417 </i>
    <i name="e_wo_entrp">   -190.08694414 </i>
    <i name="e_0_energy">   -190.21380416 </i>
   </energy>
  </scstep>
  <scstep>
   <time name="diag">    1.62    1.62</time>
   <time name="diis">    4.46    4.47</time>
   <time name="orth">    0.39    0.39</time>
   <time name="total">    6.84    6.85</time>
   <dipole>
    <v name="dipole">      0.00000000       0.00000000      -0.02804176 </v>
    <i name="Tr[quadrupol]"> -10243.99615481 </i>
    <i name="Echarged">      0.00000000 </i>
    <i name="Edipol_quadrupol">      0.00000000 </i>
    <i name="Eion">      0.00000000 </i>
   </dipole>
   <energy>
    <i name="e_fr_energy">   -190.36517655 </i>
    <i name="e_wo_entrp">   -190.09830991 </i>
    <i name="e_0_energy">   -190.23174323 </i>
   </energy>
  </scstep>
  <scstep>
   <time name="diag">    1.62    1.62</time>
   <time name="diis">    4.45    4.46</time>
   <time name="orth">    0.39    0.39</time>
   <time name="total">    6.82    6.83</time>
   <dipole>
    <v name="dipole">      0.00000000       0.00000000       0.03316719 </v>
    <i name="Tr[quadrupol]"> -10244.00629738 </i>
    <i name="Echarged">      0.00000000 </i>
    <i name="Edipol_quadrupol">      0.00000000 </i>
    <i name="Eion">      0.00000000 </i>
   </dipole>
   <energy>
    <i name="e_fr_energy">   -190.31499756 </i>
    <i name="e_wo_entrp">   -190.05665449 </i>
    <i name="e_0_energy">   -190.18582603 </i>
   </energy>
  </scstep>
  <scstep>
   <time name="diag">    1.64    1.64</time>
   <time name="diis">    4.46    4.46</time>
   <time name="orth">    0.39    0.39</time>
   <time name="total">    6.85    6.86</time>
   <dipole>
    <v name="dipole">      0.00000000       0.00000000       0.03864038 </v>
    <i name="Tr[quadrupol]"> -10243.99254637 </i>
    <i name="Echarged">      0.00000000 </i>
    <i name="Edipol_quadrupol">      0.00000000 </i>
    <i name="Eion">      0.00000000 </i>
   </dipole>
   <energy>
    <i name="e_fr_energy">   -190.31042433 </i>
    <i name="e_wo_entrp">   -190.05289307 </i>
    <i name="e_0_energy">   -190.18165870 </i>
   </energy>
  </scstep>
  <scstep>
   <time name="diag">    1.62    1.62</time>
   <time name="diis">    4.35    4.42</time>
   <time name="orth">    0.38    0.39</time>
   <time name="total">    6.71    6.79</time>
   <dipole>
    <v name="dipole">      0.00000000       0.00000000       0.04250363 </v>
    <i name="Tr[quadrupol]"> -10243.97274724 </i>
    <i name="Echarged">      0.00000000 </i>
    <i name="Edipol_quadrupol">      0.00000000 </i>
    <i name="Eion">      0.00000000 </i>
   </dipole>
   <energy>
    <i name="e_fr_energy">   -190.30889451 </i>
    <i name="e_wo_entrp">   -190.05071259 </i>
    <i name="e_0_energy">   -190.17980355 </i>
   </energy>
  </scstep>
  <scstep>
   <time name="diag">    1.61    1.62</time>
   <time name="diis">    3.89    4.84</time>
   <time name="orth">    0.39    0.39</time>
   <time name="total">    6.26    7.21</time>
   <dipole>
    <v name="dipole">      0.00000000       0.00000000       0.03997843 </v>
    <i name="Tr[quadrupol]"> -10243.95687577 </i>
    <i name="Echarged">      0.00000000 </i>
    <i name="Edipol_quadrupol">      0.00000000 </i>
    <i name="Eion">      0.00000000 </i>
   </dipole>
   <energy>
    <i name="e_fr_energy">   -190.30800200 </i>
    <i name="e_wo_entrp">   -190.04913567 </i>
    <i name="e_0_energy">   -190.17856884 </i>
   </energy>
  </scstep>
  <scstep>
   <time name="diag">    1.61    1.62</time>
   <time name="diis">    4.33    4.34</time>
   <time name="orth">    0.39    0.39</time>
   <time name="total">    6.70    6.71</time>
   <dipole>
    <v name="dipole">      0.00000000       0.00000000       0.03833674 </v>
    <i name="Tr[quadrupol]"> -10243.95311236 </i>
    <i name="Echarged">      0.00000000 </i>
    <i name="Edipol_quadrupol">      0.00000000 </i>
    <i name="Eion">      0.00000000 </i>
   </dipole>
   <energy>
    <i name="e_fr_energy">   -190.30773926 </i>
    <i name="e_wo_entrp">   -190.04913977 </i>
    <i name="e_0_energy">   -190.17843951 </i>
   </energy>
  </scstep>
  <scstep>
   <time name="diag">    1.63    1.64</time>
   <time name="diis">    4.43    4.43</time>
   <time name="orth">    0.39    0.39</time>
   <time name="total">    6.83    6.84</time>
   <dipole>
    <v name="dipole">      0.00000000       0.00000000       0.03818336 </v>
    <i name="Tr[quadrupol]"> -10243.95591258 </i>
    <i name="Echarged">      0.00000000 </i>
    <i name="Edipol_quadrupol">      0.00000000 </i>
    <i name="Eion">      0.00000000 </i>
   </dipole>
   <energy>
    <i name="e_fr_energy">   -190.30774574 </i>
    <i name="e_wo_entrp">   -190.04882928 </i>
    <i name="e_0_energy">   -190.17828751 </i>
   </energy>
  </scstep>
  <scstep>
   <time name="diag">    1.62    1.62</time>
   <time name="diis">    4.45    4.46</time>
   <time name="orth">    0.39    0.39</time>
   <time name="total">    6.82    6.83</time>
   <dipole>
    <v name="dipole">      0.00000000       0.00000000       0.03878813 </v>
    <i name="Tr[quadrupol]"> -10243.95880571 </i>
    <i name="Echarged">      0.00000000 </i>
    <i name="Edipol_quadrupol">      0.00000000 </i>
    <i name="Eion">      0.00000000 </i>
   </dipole>
   <energy>
    <i name="e_fr_energy">   -190.30771822 </i>
    <i name="e_wo_entrp">   -190.04880967 </i>
    <i name="e_0_energy">   -190.17826395 </i>
   </energy>
  </scstep>
  <scstep>
   <time name="diag">    1.61    1.62</time>
   <time name="diis">    4.49    4.50</time>
   <time name="orth">    0.39    0.39</time>
   <time name="total">    6.86    6.87</time>
   <dipole>
    <v name="dipole">      0.00000000       0.00000000       0.03888345 </v>
    <i name="Tr[quadrupol]"> -10243.96280910 </i>
    <i name="Echarged">      0.00000000 </i>
    <i name="Edipol_quadrupol">      0.00000000 </i>
    <i name="Eion">      0.00000000 </i>
   </dipole>
   <energy>
    <i name="e_fr_energy">   -190.30771908 </i>
    <i name="e_wo_entrp">   -190.04884386 </i>
    <i name="e_0_energy">   -190.17828147 </i>
   </energy>
  </scstep>
  <scstep>
   <time name="diag">    1.61    1.61</time>
   <time name="diis">    4.25    4.34</time>
   <time name="orth">    0.39    0.39</time>
   <time name="total">    6.61    6.70</time>
   <dipole>
    <v name="dipole">      0.00000000       0.00000000       0.03866849 </v>
    <i name="Tr[quadrupol]"> -10243.96606522 </i>
    <i name="Echarged">      0.00000000 </i>
    <i name="Edipol_quadrupol">      0.00000000 </i>
    <i name="Eion">      0.00000000 </i>
   </dipole>
   <energy>
    <i name="e_fr_energy">   -190.30771194 </i>
    <i name="e_wo_entrp">   -190.04892635 </i>
    <i name="e_0_energy">   -190.17831915 </i>
   </energy>
  </scstep>
  <scstep>
   <time name="diag">    1.63    1.63</time>
   <time name="diis">    2.98    2.98</time>
   <time name="orth">    0.39    0.39</time>
   <time name="total">    5.05    5.06</time>
   <dipole>
    <v name="dipole">      0.00000000       0.00000000       0.03859812 </v>
    <i name="Tr[quadrupol]"> -10243.96733702 </i>
    <i name="Echarged">      0.00000000 </i>
    <i name="Edipol_quadrupol">      0.00000000 </i>
    <i name="Eion">      0.00000000 </i>
   </dipole>
   <energy>
    <i name="alphaZ">    805.91895193 </i>
    <i name="ewald"> 197075.14637506 </i>
    <i name="hartreedc">-239274.45949999 </i>
    <i name="XCdc">   -345.88202606 </i>
    <i name="pawpsdc">  48871.88315321 </i>
    <i name="pawaedc"> -46947.95598514 </i>
    <i name="eentropy">     -0.25881104 </i>
    <i name="bandstr">  -2034.48574251 </i>
    <i name="atom">  41659.78587232 </i>
    <i name="e_fr_energy">   -190.30771222 </i>
    <i name="e_wo_entrp">   -190.04890118 </i>
    <i name="e_0_energy">   -190.17830670 </i>
   </energy>
  </scstep>
  <structure>
   <crystal>
    <varray name="basis" >
     <v>      11.00258152       0.00000000       0.00000000 </v>
     <v>       5.50129076       9.52851510       0.00000000 </v>
     <v>       0.00000000       0.00000000      24.49178509 </v>
    </varray>
    <i name="volume">   2567.67623402 </i>
    <varray name="rec_basis" >
     <v>       0.09088776      -0.05247407       0.00000000 </v>
     <v>       0.00000000       0.10494815       0.00000000 </v>
     <v>       0.00000000       0.00000000       0.04083002 </v>
    </varray>
   </crystal>
   <varray name="positions" >
    <v>       0.08302826       0.08212949       0.40636867 </v>
    <v>       0.58331982       0.33418277       0.40677840 </v>
    <v>       0.83421861       0.08172394       0.40683253 </v>
    <v>       0.41844917       0.16634110       0.50088729 </v>
    <v>       0.58453271       0.08277799       0.40607071 </v>
    <v>       0.66809305       0.91488108       0.50051167 </v>
    <v>       0.33343215       0.83260009       0.40675422 </v>
    <v>       0.74968437       0.00026962       0.59352282 </v>
    <v>       0.16616710       0.66832337       0.50077887 </v>
    <v>       0.33391407       0.58388531       0.40647108 </v>
    <v>       0.25010321       0.25076927       0.59421579 </v>
    <v>       0.16625130       0.41851868       0.50097196 </v>
    <v>       0.58386174       0.83219699       0.40645633 </v>
    <v>       0.25098048      -0.00138100       0.59355021 </v>
    <v>       0.33369253       0.33368429       0.40600860 </v>
    <v>       0.33369613       0.08251140       0.40600414 </v>
    <v>      -0.00020453       0.00016197       0.59325578 </v>
    <v>       0.08315833       0.33348005       0.40562472 </v>
    <v>       0.91448318       0.41773522       0.50127033 </v>
    <v>       0.16578086       0.16524798       0.50052670 </v>
    <v>       0.08196800       0.58524347       0.40604043 </v>
    <v>       0.50009958       0.49983909       0.59317098 </v>
    <v>       0.83226207       0.58466115       0.40639887 </v>
    <v>       0.83222591       0.33384460       0.40643062 </v>
    <v>       0.66703609       0.16776539       0.50047159 </v>
    <v>       0.74988771       0.25055376       0.59243788 </v>
    <v>       0.66624193       0.41700845       0.50035009 </v>
    <v>       0.83400421       0.83317757       0.40728047 </v>
    <v>       0.50048834       0.74997161       0.59243139 </v>
    <v>       0.41726042       0.91484809       0.50052701 </v>
    <v>       0.66591750       0.66642733       0.50050258 </v>
    <v>       0.75032667       0.50012476       0.59254711 </v>
    <v>       0.25020882       0.74959985       0.59261366 </v>
    <v>       0.58329469       0.58339103       0.40749753 </v>
    <v>       0.50014115       0.25021623       0.59266052 </v>
    <v>       0.41773869       0.41652682       0.50057257 </v>
    <v>       0.50032202      -0.00062768       0.59287316 </v>
    <v>       0.16668384       0.91579963       0.50007676 </v>
    <v>       0.24972118       0.50041830       0.59285408 </v>
    <v>       0.00040510       0.74901511       0.59262978 </v>
    <v>       0.91722298       0.91629750       0.49987366 </v>
    <v>       0.08274336       0.83367961       0.40733545 </v>
    <v>      -0.00077879       0.50090691       0.59282112 </v>
    <v>       0.91571350       0.66781820       0.50054037 </v>
    <v>      -0.00125080       0.25091765       0.59284781 </v>
    <v>       0.91577604       0.16652135       0.50051348 </v>
    <v>       0.41765084       0.66688053       0.50024055 </v>
    <v>       0.75004643       0.74913406       0.59259968 </v>
   </varray>
  </structure>
  <varray name="forces" >
   <v>      -0.15593324      -0.13371977      -0.98157326 </v>
   <v>       0.07242905       0.09240181      -0.79722684 </v>
   <v>      -0.01073388      -0.21825903      -0.78517286 </v>
   <v>       0.15131889      -0.06336477       0.15263627 </v>
   <v>       0.14065486      -0.12003828      -1.05650448 </v>
   <v>       0.08582396      -0.19125517       0.09635284 </v>
   <v>      -0.04563898      -0.10033964      -0.82332231 </v>
   <v>      -0.02390074       0.02176573       1.00557462 </v>
   <v>       0.11229161       0.15594687       0.13151762 </v>
   <v>       0.06645143       0.11068311      -0.88013888 </v>
   <v>       0.03538157       0.10260942       1.33484179 </v>
   <v>       0.02249930       0.16606717       0.14167385 </v>
   <v>       0.00544496      -0.12321478      -0.93664389 </v>
   <v>       0.05255512      -0.20051777       1.05288225 </v>
   <v>       0.02545860       0.06481723      -1.01851763 </v>
   <v>       0.03014940      -0.10016305      -1.01366397 </v>
   <v>      -0.02407922      -0.00324872       0.87265318 </v>
   <v>      -0.03866532       0.05828083      -1.14722371 </v>
   <v>      -0.18688533       0.13026699       0.20126387 </v>
   <v>      -0.14918094      -0.11696458       0.10392927 </v>
   <v>      -0.03109917       0.26455212      -1.07255312 </v>
   <v>       0.02127868       0.01140530       0.88282016 </v>
   <v>      -0.04847719       0.13131021      -0.90896052 </v>
   <v>      -0.06212816       0.07250714      -0.89847415 </v>
   <v>       0.19254846       0.09608170       0.08446812 </v>
   <v>       0.03581725       0.12344550       0.51022768 </v>
   <v>      -0.09063057       0.05867699       0.09487427 </v>
   <v>       0.06379758      -0.00998226      -0.56453329 </v>
   <v>       0.11003325      -0.05154956       0.53360802 </v>
   <v>      -0.05175495      -0.21513482       0.08544531 </v>
   <v>      -0.16142555      -0.03764476       0.10083880 </v>
   <v>       0.02052623       0.05410083       0.65236050 </v>
   <v>       0.02676102      -0.07988501       0.60036559 </v>
   <v>       0.01700091       0.01044022      -0.44844903 </v>
   <v>       0.06738197       0.04378466       0.65906795 </v>
   <v>       0.16842713       0.06451553       0.11057515 </v>
   <v>       0.00474656      -0.11874330       0.70278637 </v>
   <v>      -0.04416708      -0.09603372       0.02876834 </v>
   <v>       0.01940035       0.09123710       0.74980137 </v>
   <v>      -0.04827816      -0.13665398       0.61607663 </v>
   <v>       0.03828586       0.04196983       0.02736646 </v>
   <v>      -0.05822762      -0.02450597      -0.55723884 </v>
   <v>      -0.05803738       0.16504075       0.74456054 </v>
   <v>      -0.07240927       0.10033942       0.09939586 </v>
   <v>      -0.11114706       0.12389529       0.73594384 </v>
   <v>      -0.20057035      -0.04375640       0.08879148 </v>
   <v>       0.17202424      -0.01269361       0.06442427 </v>
   <v>      -0.08511810      -0.15847281       0.62430449 </v>
  </varray>
  <energy>
   <i name="e_fr_energy">   -190.30771222 </i>
   <i name="e_wo_entrp">   -190.17830670 </i>
   <i name="e_0_energy">     -0.25881104 </i>
  </energy>
  <time name="totalsc">  105.47  107.85</time>
 </calculation>
 <calculation>
  <scstep>
   <time name="dav">    9.40    9.41</time>
   <time name="total">    9.77    9.78</time>
   <dipole>
    <v name="dipole">      0.00000000       0.00000000       0.03855612 </v>
    <i name="Tr[quadrupol]"> -10252.60813354 </i>
    <i name="Echarged">      0.00000000 </i>
    <i name="Edipol_quadrupol">      0.00000000 </i>
    <i name="Eion">      0.00000000 </i>
   </dipole>
   <energy>
    <i name="alphaZ">    805.92119394 </i>
    <i name="ewald"> 189249.87185665 </i>
    <i name="hartreedc">-231489.46752190 </i>
    <i name="XCdc">   -351.12770981 </i>
    <i name="pawpsdc">  48871.70210154 </i>
    <i name="pawaedc"> -46947.77505020 </i>
    <i name="eentropy">     -0.26095311 </i>
    <i name="bandstr">  -1987.24256869 </i>
    <i name="atom">  41659.78587232 </i>
    <i name="e_fr_energy">   -188.59277925 </i>
    <i name="e_wo_entrp">   -188.33182615 </i>
    <i name="e_0_energy">   -188.46230270 </i>
   </energy>
  </scstep>
  <scstep>
   <time name="diag">    1.62    1.62</time>
   <time name="diis">    3.99    5.00</time>
   <time name="orth">    0.36    0.45</time>
   <time name="total">    6.32    7.42</time>
   <dipole>
    <v name="dipole">      0.00000000       0.00000000       0.06996227 </v>
    <i name="Tr[quadrupol]"> -10251.76178729 </i>
    <i name="Echarged">      0.00000000 </i>
    <i name="Edipol_quadrupol">      0.00000000 </i>
    <i name="Eion">      0.00000000 </i>
   </dipole>
   <energy>
    <i name="e_fr_energy">   -192.28708438 </i>
    <i name="e_wo_entrp">   -192.07332211 </i>
    <i name="e_0_energy">   -192.18020325 </i>
   </energy>
  </scstep>
  <scstep>
   <time name="diag">    1.62    1.62</time>
   <time name="diis">    4.35    4.35</time>
   <time name="orth">    0.38    0.38</time>
   <time name="total">    6.72    6.73</time>
   <dipole>
    <v name="dipole">      0.00000000       0.00000000      -0.20577275 </v>
    <i name="Tr[quadrupol]"> -10252.98312625 </i>
    <i name="Echarged">      0.00000000 </i>
    <i name="Edipol_quadrupol">      0.00000000 </i>
    <i name="Eion">      0.00000000 </i>
   </dipole>
   <energy>
    <i name="e_fr_energy">   -193.60336406 </i>
    <i name="e_wo_entrp">   -193.39691852 </i>
    <i name="e_0_energy">   -193.50014129 </i>
   </energy>
  </scstep>
  <scstep>
   <time name="diag">    1.61    1.61</time>
   <time name="diis">    4.64    4.64</time>
   <time name="orth">    0.38    0.38</time>
   <time name="total">    6.99    7.03</time>
   <dipole>
    <v name="dipole">      0.00000000       0.00000000       0.11224082 </v>
    <i name="Tr[quadrupol]"> -10252.82933752 </i>
    <i name="Echarged">      0.00000000 </i>
    <i name="Edipol_quadrupol">      0.00000000 </i>
    <i name="Eion">      0.00000000 </i>
   </dipole>
   <energy>
    <i name="e_fr_energy">   -191.94544763 </i>
    <i name="e_wo_entrp">   -191.68930183 </i>
    <i name="e_0_energy">   -191.81737473 </i>
   </energy>
  </scstep>
  <scstep>
   <time name="diag">    1.61    1.64</time>
   <time name="diis">    4.33    4.34</time>
   <time name="orth">    0.38    0.38</time>
   <time name="total">    6.69    6.73</time>
   <dipole>
    <v name="dipole">      0.00000000       0.00000000      -0.12315179 </v>
    <i name="Tr[quadrupol]"> -10252.74893599 </i>
    <i name="Echarged">      0.00000000 </i>
    <i name="Edipol_quadrupol">      0.00000000 </i>
    <i name="Eion">      0.00000000 </i>
   </dipole>
   <energy>
    <i name="e_fr_energy">   -192.15258015 </i>
    <i name="e_wo_entrp">   -191.86784902 </i>
    <i name="e_0_energy">   -192.01021459 </i>
   </energy>
  </scstep>
  <scstep>
   <time name="diag">    1.61    1.61</time>
   <time name="diis">    4.38    4.38</time>
   <time name="orth">    0.38    0.38</time>
   <time name="total">    6.73    6.74</time>
   <dipole>
    <v name="dipole">      0.00000000       0.00000000       0.05125103 </v>
    <i name="Tr[quadrupol]"> -10252.90032939 </i>
    <i name="Echarged">      0.00000000 </i>
    <i name="Edipol_quadrupol">      0.00000000 </i>
    <i name="Eion">      0.00000000 </i>
[...]
       <r>    2.2800    0.0000 </r>
       <r>    2.3453    0.0000 </r>
       <r>    2.5453    0.0000 </r>
       <r>    2.6018    0.0000 </r>
       <r>    2.6726    0.0000 </r>
       <r>    3.0149    0.0000 </r>
       <r>    3.1061    0.0000 </r>
       <r>    3.1991    0.0000 </r>
       <r>    3.5286    0.0000 </r>
       <r>    3.5942    0.0000 </r>
       <r>    3.6221    0.0000 </r>
       <r>    3.9555    0.0000 </r>
       <r>    4.0671    0.0000 </r>
       <r>    4.1881    0.0000 </r>
       <r>    4.4428    0.0000 </r>
       <r>    4.5069    0.0000 </r>
       <r>    4.5243    0.0000 </r>
       <r>    4.6022    0.0000 </r>
       <r>    4.6407    0.0000 </r>
       <r>    4.6595    0.0000 </r>
       <r>    4.8113    0.0000 </r>
       <r>    4.8967    0.0000 </r>
       <r>    4.9642    0.0000 </r>
       <r>    5.0314    0.0000 </r>
       <r>    5.0579    0.0000 </r>
       <r>    5.0810    0.0000 </r>
       <r>    5.1363    0.0000 </r>
       <r>    5.2044    0.0000 </r>
      </set>
     </set>
    </set>
   </array>
  </eigenvalues>
  <separator name="orbital magnetization" >
   <v name="MAGDIPOLOUT">      0.00000000      0.00000000      0.00000000</v>
  </separator>
  <dos>
   <i name="efermi">     -1.06502147 </i>
   <total>
    <array>
     <dimension dim="1">gridpoints</dimension>
     <dimension dim="2">spin</dimension>
     <field>energy</field>
     <field>total</field>
     <field>integrated</field>
     <set>
      <set comment="spin 1">
       <r>    -9.8549     0.0000     0.0000 </r>
       <r>    -9.8009     0.0000     0.0000 </r>
       <r>    -9.7470     0.0000     0.0000 </r>
       <r>    -9.6930     0.0000     0.0000 </r>
       <r>    -9.6391     0.0000     0.0000 </r>
       <r>    -9.5851     0.0000     0.0000 </r>
       <r>    -9.5312     0.0000     0.0000 </r>
       <r>    -9.4772     0.0000     0.0000 </r>
       <r>    -9.4233     0.0000     0.0000 </r>
       <r>    -9.3694     0.0000     0.0000 </r>
       <r>    -9.3154     0.0000     0.0000 </r>
       <r>    -9.2615     0.0000     0.0000 </r>
       <r>    -9.2075     0.0000     0.0000 </r>
       <r>    -9.1536     0.0002     0.0000 </r>
       <r>    -9.0996     0.0039     0.0002 </r>
       <r>    -9.0457     0.0509     0.0030 </r>
       <r>    -8.9918     0.3775     0.0233 </r>
       <r>    -8.9378     1.6054     0.1099 </r>
       <r>    -8.8839     3.9317     0.3220 </r>
       <r>    -8.8299     5.6573     0.6272 </r>
       <r>    -8.7760     5.3419     0.9154 </r>
       <r>    -8.7220     4.8876     1.1790 </r>
       <r>    -8.6681     5.5932     1.4807 </r>
       <r>    -8.6142     5.2648     1.7647 </r>
       <r>    -8.5602     3.0785     1.9308 </r>
       <r>    -8.5063     1.0509     1.9875 </r>
       <r>    -8.4523     0.2071     1.9986 </r>
       <r>    -8.3984     0.0238     1.9999 </r>
       <r>    -8.3444     0.0075     2.0003 </r>
       <r>    -8.2905     0.0608     2.0036 </r>
       <r>    -8.2365     0.3664     2.0234 </r>
       <r>    -8.1826     1.3420     2.0958 </r>
       <r>    -8.1287     3.1286     2.2645 </r>
       <r>    -8.0747     5.1108     2.5402 </r>
       <r>    -8.0208     6.9476     2.9150 </r>
       <r>    -7.9668     9.1298     3.4075 </r>
       <r>    -7.9129    11.1465     4.0088 </r>
       <r>    -7.8589    11.4827     4.6282 </r>
       <r>    -7.8050    10.1722     5.1769 </r>
       <r>    -7.7511     8.7722     5.6501 </r>
       <r>    -7.6971     8.3550     6.1008 </r>
       <r>    -7.6432     8.7733     6.5741 </r>
       <r>    -7.5892     8.9931     7.0592 </r>
       <r>    -7.5353     8.2484     7.5041 </r>
       <r>    -7.4813     6.9215     7.8775 </r>
       <r>    -7.4274     6.4333     8.2246 </r>
       <r>    -7.3735     7.3161     8.6192 </r>
       <r>    -7.3195     9.0992     9.1100 </r>
       <r>    -7.2656    13.3181     9.8285 </r>
       <r>    -7.2116    21.0189    10.9623 </r>
       <r>    -7.1577    29.5187    12.5546 </r>
       <r>    -7.1037    35.1395    14.4502 </r>
       <r>    -7.0498    35.8180    16.3823 </r>
       <r>    -6.9958    33.2655    18.1768 </r>
       <r>    -6.9419    31.7062    19.8871 </r>
       <r>    -6.8880    32.1670    21.6223 </r>
       <r>    -6.8340    32.7849    23.3909 </r>
       <r>    -6.7801    33.0176    25.1719 </r>
       <r>    -6.7261    33.3938    26.9733 </r>
       <r>    -6.6722    34.0158    28.8082 </r>
       <r>    -6.6182    34.2959    30.6583 </r>
       <r>    -6.5643    34.0563    32.4954 </r>
       <r>    -6.5104    34.7183    34.3682 </r>
       <r>    -6.4564    37.2330    36.3767 </r>
       <r>    -6.4025    42.7473    38.6826 </r>
       <r>    -6.3485    52.3857    41.5085 </r>
       <r>    -6.2946    62.1291    44.8599 </r>
       <r>    -6.2406    66.2599    48.4342 </r>
       <r>    -6.1867    65.2601    51.9546 </r>
       <r>    -6.1328    64.3701    55.4269 </r>
       <r>    -6.0788    66.3454    59.0058 </r>
       <r>    -6.0249    69.9657    62.7800 </r>
       <r>    -5.9709    74.7439    66.8120 </r>
       <r>    -5.9170    80.7026    71.1653 </r>
       <r>    -5.8630    85.2687    75.7650 </r>
       <r>    -5.8091    86.2024    80.4151 </r>
       <r>    -5.7552    84.2883    84.9619 </r>
       <r>    -5.7012    80.5183    89.3053 </r>
       <r>    -5.6473    76.0544    93.4079 </r>
       <r>    -5.5933    73.4656    97.3709 </r>
       <r>    -5.5394    73.8777   101.3561 </r>
       <r>    -5.4854    75.2619   105.4160 </r>
       <r>    -5.4315    74.8101   109.4515 </r>
       <r>    -5.3775    73.6825   113.4262 </r>
       <r>    -5.3236    75.6896   117.5092 </r>
       <r>    -5.2697    80.7910   121.8673 </r>
       <r>    -5.2157    85.7584   126.4934 </r>
       <r>    -5.1618    89.4069   131.3163 </r>
       <r>    -5.1078    91.6536   136.2604 </r>
       <r>    -5.0539    91.5020   141.1964 </r>
       <r>    -4.9999    90.0845   146.0558 </r>
       <r>    -4.9460    89.9858   150.9100 </r>
       <r>    -4.8921    89.7171   155.7496 </r>
       <r>    -4.8381    86.6448   160.4236 </r>
       <r>    -4.7842    83.2325   164.9134 </r>
       <r>    -4.7302    83.0421   169.3930 </r>
       <r>    -4.6763    86.0412   174.0343 </r>
       <r>    -4.6223    89.3362   178.8534 </r>
       <r>    -4.5684    90.0501   183.7110 </r>
       <r>    -4.5145    88.4081   188.4801 </r>
       <r>    -4.4605    86.6451   193.1540 </r>
       <r>    -4.4066    86.5780   197.8243 </r>
       <r>    -4.3526    87.9619   202.5693 </r>
       <r>    -4.2987    88.3460   207.3350 </r>
       <r>    -4.2447    86.4525   211.9985 </r>
       <r>    -4.1908    84.4709   216.5552 </r>
       <r>    -4.1368    84.3844   221.1071 </r>
       <r>    -4.0829    85.6040   225.7249 </r>
       <r>    -4.0290    88.1670   230.4810 </r>
       <r>    -3.9750    92.2251   235.4559 </r>
       <r>    -3.9211    96.9124   240.6837 </r>
       <r>    -3.8671   102.2834   246.2012 </r>
       <r>    -3.8132   107.0814   251.9775 </r>
       <r>    -3.7592   109.6614   257.8930 </r>
       <r>    -3.7053   110.4054   263.8487 </r>
       <r>    -3.6514   110.2849   269.7978 </r>
       <r>    -3.5974   110.5977   275.7638 </r>
       <r>    -3.5435   110.6946   281.7351 </r>
       <r>    -3.4895   108.2631   287.5752 </r>
       <r>    -3.4356   103.5407   293.1605 </r>
       <r>    -3.3816    98.4414   298.4708 </r>
       <r>    -3.3277    94.7665   303.5828 </r>
       <r>    -3.2738    92.7838   308.5879 </r>
       <r>    -3.2198    91.0813   313.5011 </r>
       <r>    -3.1659    89.8367   318.3472 </r>
       <r>    -3.1119    90.0924   323.2071 </r>
       <r>    -3.0580    91.1992   328.1267 </r>
       <r>    -3.0040    91.6119   333.0686 </r>
       <r>    -2.9501    91.0844   337.9820 </r>
       <r>    -2.8961    91.0812   342.8952 </r>
       <r>    -2.8422    92.7028   347.8959 </r>
       <r>    -2.7883    94.5306   352.9952 </r>
       <r>    -2.7343    94.2112   358.0773 </r>
       <r>    -2.6804    92.3067   363.0566 </r>
       <r>    -2.6264    90.3851   367.9323 </r>
       <r>    -2.5725    88.8070   372.7229 </r>
       <r>    -2.5185    87.9534   377.4674 </r>
       <r>    -2.4646    87.8678   382.2073 </r>
       <r>    -2.4107    88.2153   386.9659 </r>
       <r>    -2.3567    88.4019   391.7346 </r>
       <r>    -2.3028    87.3267   396.4453 </r>
       <r>    -2.2488    84.3552   400.9957 </r>
       <r>    -2.1949    80.0241   405.3125 </r>
       <r>    -2.1409    76.6267   409.4460 </r>
       <r>    -2.0870    76.5443   413.5751 </r>
       <r>    -2.0331    79.7887   417.8791 </r>
       <r>    -1.9791    84.3572   422.4297 </r>
       <r>    -1.9252    88.1029   427.1822 </r>
       <r>    -1.8712    91.5306   432.1197 </r>
       <r>    -1.8173    96.9781   437.3510 </r>
       <r>    -1.7633   103.5626   442.9376 </r>
       <r>    -1.7094   107.0900   448.7144 </r>
       <r>    -1.6555   104.8992   454.3730 </r>
       <r>    -1.6015    98.7498   459.6999 </r>
       <r>    -1.5476    93.4511   464.7410 </r>
       <r>    -1.4936    92.2906   469.7194 </r>
       <r>    -1.4397    94.7816   474.8323 </r>
       <r>    -1.3857    97.4064   480.0867 </r>
       <r>    -1.3318    95.0040   485.2115 </r>
       <r>    -1.2778    86.1614   489.8594 </r>
       <r>    -1.2239    76.2955   493.9750 </r>
       <r>    -1.1700    69.7449   497.7373 </r>
       <r>    -1.1160    63.8314   501.1806 </r>
       <r>    -1.0621    54.9909   504.1470 </r>
       <r>    -1.0081    43.5317   506.4952 </r>
       <r>    -0.9542    31.6650   508.2034 </r>
       <r>    -0.9002    21.5337   509.3649 </r>
       <r>    -0.8463    14.3562   510.1394 </r>
       <r>    -0.7924    10.4341   510.7022 </r>
       <r>    -0.7384     9.8904   511.2357 </r>
       <r>    -0.6845    13.1598   511.9456 </r>
       <r>    -0.6305    18.4347   512.9401 </r>
       <r>    -0.5766    21.7355   514.1125 </r>
       <r>    -0.5226    21.6011   515.2778 </r>
       <r>    -0.4687    19.9022   516.3514 </r>
       <r>    -0.4148    18.2948   517.3383 </r>
       <r>    -0.3608    17.6849   518.2923 </r>
       <r>    -0.3069    18.3526   519.2823 </r>
       <r>    -0.2529    18.1372   520.2606 </r>
       <r>    -0.1990    15.3826   521.0904 </r>
       <r>    -0.1450    11.4727   521.7093 </r>
       <r>    -0.0911     9.0348   522.1967 </r>
       <r>    -0.0371     9.5679   522.7128 </r>
       <r>     0.0168    11.9493   523.3574 </r>
       <r>     0.0707    14.2021   524.1235 </r>
       <r>     0.1247    15.6246   524.9663 </r>
       <r>     0.1786    16.4482   525.8536 </r>
       <r>     0.2326    16.7045   526.7547 </r>
       <r>     0.2865    17.1180   527.6781 </r>
       <r>     0.3405    18.1915   528.6594 </r>
       <r>     0.3944    18.9714   529.6828 </r>
       <r>     0.4483    19.0022   530.7079 </r>
       <r>     0.5023    20.1568   531.7952 </r>
       <r>     0.5562    24.3222   533.1072 </r>
       <r>     0.6102    28.0675   534.6213 </r>
       <r>     0.6641    26.3717   536.0438 </r>
       <r>     0.7181    20.6137   537.1558 </r>
       <r>     0.7720    15.7417   538.0050 </r>
       <r>     0.8259    13.4206   538.7289 </r>
       <r>     0.8799    12.3856   539.3971 </r>
       <r>     0.9338    11.7512   540.0310 </r>
       <r>     0.9878    10.7768   540.6123 </r>
       <r>     1.0417     9.3023   541.1141 </r>
       <r>     1.0957     7.9921   541.5452 </r>
       <r>     1.1496     6.8576   541.9151 </r>
       <r>     1.2036     6.3697   542.2587 </r>
       <r>     1.2575     6.8745   542.6296 </r>
       <r>     1.3114     7.3594   543.0266 </r>
       <r>     1.3654     7.7488   543.4446 </r>
       <r>     1.4193     9.2938   543.9459 </r>
       <r>     1.4733    12.1563   544.6017 </r>
       <r>     1.5272    14.6898   545.3941 </r>
       <r>     1.5812    15.8923   546.2514 </r>
       <r>     1.6351    16.4330   547.1378 </r>
       <r>     1.6890    17.6761   548.0913 </r>
       <r>     1.7430    20.8871   549.2180 </r>
       <r>     1.7969    22.5863   550.4364 </r>
       <r>     1.8509    17.5552   551.3834 </r>
       <r>     1.9048     9.3621   551.8884 </r>
       <r>     1.9588     5.3770   552.1785 </r>
       <r>     2.0127     6.5039   552.5293 </r>
       <r>     2.0666     9.6820   553.0516 </r>
       <r>     2.1206    14.1592   553.8154 </r>
       <r>     2.1745    19.7760   554.8822 </r>
       <r>     2.2285    23.9120   556.1721 </r>
       <r>     2.2824    24.5715   557.4976 </r>
       <r>     2.3364    21.8645   558.6770 </r>
       <r>     2.3903    17.3495   559.6129 </r>
       <r>     2.4442    14.0172   560.3690 </r>
       <r>     2.4982    14.0622   561.1276 </r>
       <r>     2.5521    17.2588   562.0586 </r>
       <r>     2.6061    22.0553   563.2483 </r>
       <r>     2.6600    26.0263   564.6523 </r>
       <r>     2.7140    27.0044   566.1090 </r>
       <r>     2.7679    23.8644   567.3963 </r>
       <r>     2.8219    16.8856   568.3072 </r>
       <r>     2.8758     9.1684   568.8018 </r>
       <r>     2.9297     4.8284   569.0622 </r>
       <r>     2.9837     5.1323   569.3391 </r>
       <r>     3.0376     7.6810   569.7534 </r>
       <r>     3.0916     9.7234   570.2779 </r>
       <r>     3.1455    11.0867   570.8760 </r>
       <r>     3.1995    12.4528   571.5477 </r>
       <r>     3.2534    13.0068   572.2494 </r>
       <r>     3.3073    11.7606   572.8838 </r>
       <r>     3.3613     9.6495   573.4043 </r>
       <r>     3.4152     7.9215   573.8316 </r>
       <r>     3.4692     7.8791   574.2566 </r>
       <r>     3.5231    10.8260   574.8406 </r>
       <r>     3.5771    15.3045   575.6662 </r>
       <r>     3.6310    18.6581   576.6727 </r>
       <r>     3.6849    19.9645   577.7496 </r>
       <r>     3.7389    19.5619   578.8049 </r>
       <r>     3.7928    17.6785   579.7585 </r>
       <r>     3.8468    14.6800   580.5504 </r>
       <r>     3.9007    12.3263   581.2153 </r>
       <r>     3.9547    11.9156   581.8581 </r>
       <r>     4.0086    12.0063   582.5058 </r>
       <r>     4.0626    11.3980   583.1206 </r>
       <r>     4.1165    11.4510   583.7383 </r>
       <r>     4.1704    12.4449   584.4096 </r>
       <r>     4.2244    12.3834   585.0776 </r>
       <r>     4.2783    10.6174   585.6504 </r>
       <r>     4.3323     9.3284   586.1536 </r>
       <r>     4.3862    11.5751   586.7780 </r>
       <r>     4.4402    17.3293   587.7128 </r>
       <r>     4.4941    23.3677   588.9733 </r>
       <r>     4.5480    27.7229   590.4688 </r>
       <r>     4.6020    30.1983   592.0978 </r>
       <r>     4.6559    29.8469   593.7078 </r>
       <r>     4.7099    26.2820   595.1256 </r>
       <r>     4.7638    22.0012   596.3124 </r>
       <r>     4.8178    19.5768   597.3684 </r>
       <r>     4.8717    19.6255   598.4271 </r>
       <r>     4.9256    21.9462   599.6109 </r>
       <r>     4.9796    25.9425   601.0104 </r>
       <r>     5.0335    31.5699   602.7134 </r>
       <r>     5.0875    36.7703   604.6969 </r>
       <r>     5.1414    37.1784   606.7024 </r>
       <r>     5.1954    32.7811   608.4707 </r>
       <r>     5.2493    26.7469   609.9135 </r>
       <r>     5.3033    19.7624   610.9796 </r>
       <r>     5.3572    11.8733   611.6201 </r>
       <r>     5.4111     5.1940   611.9003 </r>
       <r>     5.4651     1.5271   611.9826 </r>
       <r>     5.5190     0.2863   611.9981 </r>
       <r>     5.5730     0.0331   611.9999 </r>
       <r>     5.6269     0.0023   612.0000 </r>
       <r>     5.6809     0.0001   612.0000 </r>
       <r>     5.7348     0.0000   612.0000 </r>
       <r>     5.7887     0.0000   612.0000 </r>
       <r>     5.8427     0.0000   612.0000 </r>
       <r>     5.8966     0.0000   612.0000 </r>
       <r>     5.9506     0.0000   612.0000 </r>
       <r>     6.0045     0.0000   612.0000 </r>
       <r>     6.0585     0.0000   612.0000 </r>
       <r>     6.1124     0.0000   612.0000 </r>
       <r>     6.1663     0.0000   612.0000 </r>
       <r>     6.2203     0.0000   612.0000 </r>
       <r>     6.2742     0.0000   612.0000 </r>
       <r>     6.3282     0.0000   612.0000 </r>
      </set>
     </set>
    </array>
   </total>
  </dos>
 </calculation>
 <structure name="finalpos" >
  <crystal>
   <varray name="basis" >
    <v>      11.00258152       0.00000000       0.00000000 </v>
    <v>       5.50129076       9.52851510       0.00000000 </v>
    <v>       0.00000000       0.00000000      24.49178509 </v>
   </varray>
   <i name="volume">   2567.67623402 </i>
   <varray name="rec_basis" >
    <v>       0.09088776      -0.05247407       0.00000000 </v>
    <v>       0.00000000       0.10494815       0.00000000 </v>
    <v>       0.00000000       0.00000000       0.04083002 </v>
   </varray>
  </crystal>
  <varray name="positions" >
   <v>       0.08272308       0.08179584       0.39895947 </v>
   <v>       0.58304882       0.33406350       0.40078042 </v>
   <v>       0.83492577       0.07948075       0.40151433 </v>
   <v>       0.41824574       0.16630501       0.50195920 </v>
   <v>       0.58495633       0.08192683       0.39539058 </v>
   <v>       0.66843716       0.91461897       0.50135788 </v>
   <v>       0.33301572       0.83220292       0.40118600 </v>
   <v>       0.74909263       0.00040741       0.60360826 </v>
   <v>       0.16675126       0.66784365       0.50147784 </v>
   <v>       0.33302804       0.58469768       0.39903473 </v>
   <v>       0.24985663       0.25270775       0.60911452 </v>
   <v>       0.16663252       0.41741641       0.50173226 </v>
   <v>       0.58409538       0.83173731       0.39779668 </v>
   <v>       0.25283731      -0.00200199       0.60380409 </v>
   <v>       0.33204323       0.33457690       0.39694500 </v>
   <v>       0.33345612       0.08269999       0.39696192 </v>
   <v>       0.00018067       0.00037586       0.60225778 </v>
   <v>       0.08231881       0.33420370       0.39151857 </v>
   <v>       0.91365191       0.41758934       0.50097393 </v>
   <v>       0.16607556       0.16464363       0.50215411 </v>
   <v>       0.08051739       0.58767786       0.39426683 </v>
   <v>       0.50054686       0.50026925       0.60130666 </v>
   <v>       0.83202802       0.58512525       0.39749602 </v>
   <v>       0.83201436       0.33407849       0.39854884 </v>
   <v>       0.66747886       0.16738840       0.50095327 </v>
   <v>       0.75005736       0.25193921       0.59669369 </v>
   <v>       0.66508060       0.41703156       0.50095543 </v>
   <v>       0.83366304       0.83343492       0.40451896 </v>
   <v>       0.50264429       0.74937882       0.59661159 </v>
   <v>       0.41669563       0.91415507       0.50094119 </v>
   <v>       0.66552873       0.66643467       0.49948015 </v>
   <v>       0.75096458       0.50057287       0.59732990 </v>
   <v>       0.25131392       0.74883229       0.59806894 </v>
   <v>       0.58322583       0.58313152       0.40392725 </v>
   <v>       0.50031701       0.25084037       0.59782758 </v>
   <v>       0.41860930       0.41700970       0.50128166 </v>
   <v>       0.50069489      -0.00083179       0.59849132 </v>
   <v>       0.16683297       0.91633866       0.50214952 </v>
   <v>       0.24948264       0.50107072       0.59889091 </v>
   <v>       0.00061910       0.74735792       0.59784608 </v>
   <v>       0.91636989       0.91801958       0.50294342 </v>
   <v>       0.08229507       0.83312263       0.40539698 </v>
   <v>      -0.00151310       0.50214336       0.59813019 </v>
   <v>       0.91630574       0.66662961       0.49987426 </v>
   <v>      -0.00165426       0.25254564       0.59850250 </v>
   <v>       0.91524843       0.16523124       0.50114851 </v>
   <v>       0.41880237       0.66626243       0.50092449 </v>
   <v>       0.75045785       0.74751830       0.59696630 </v>
  </varray>
 </structure>
</modeling>
