unknown system                          
           1
    11.002582    0.000000    0.000000
     5.501291    9.528515    0.000000
     0.000000    0.000000   24.491785
   Au   Pd
  24  24
Direct configuration=     1
   0.08333333  0.08333333  0.40830017
   0.58333333  0.33333333  0.40830017
   0.83333333  0.08333333  0.40830017
   0.41666667  0.16666667  0.50000000
   0.58333333  0.08333333  0.40830017
   0.66666667  0.91666667  0.50000000
   0.33333333  0.83333333  0.40830017
   0.75000000  0.00000000  0.59169983
   0.16666667  0.66666667  0.50000000
   0.33333333  0.58333333  0.40830017
   0.25000000  0.25000000  0.59169983
   0.16666667  0.41666667  0.50000000
   0.58333333  0.83333333  0.40830017
   0.25000000  0.00000000  0.59169983
   0.33333333  0.33333333  0.40830017
   0.33333333  0.08333333  0.40830017
   0.00000000  0.00000000  0.59169983
   0.08333333  0.33333333  0.40830017
   0.91666667  0.41666667  0.50000000
   0.16666667  0.16666667  0.50000000
   0.08333333  0.58333333  0.40830017
   0.50000000  0.50000000  0.59169983
   0.83333333  0.58333333  0.40830017
   0.83333333  0.33333333  0.40830017
   0.66666667  0.16666667  0.50000000
   0.75000000  0.25000000  0.59169983
   0.66666667  0.41666667  0.50000000
   0.83333333  0.83333333  0.40830017
   0.50000000  0.75000000  0.59169983
   0.41666667  0.91666667  0.50000000
   0.66666667  0.66666667  0.50000000
   0.75000000  0.50000000  0.59169983
   0.25000000  0.75000000  0.59169983
   0.58333333  0.58333333  0.40830017
   0.50000000  0.25000000  0.59169983
   0.41666667  0.41666667  0.50000000
   0.50000000  0.00000000  0.59169983
   0.16666667  0.91666667  0.50000000
   0.25000000  0.50000000  0.59169983
   0.00000000  0.75000000  0.59169983
   0.91666667  0.91666667  0.50000000
   0.08333333  0.83333333  0.40830017
   0.00000000  0.50000000  0.59169983
   0.91666667  0.66666667  0.50000000
   0.00000000  0.25000000  0.59169983
   0.91666667  0.16666667  0.50000000
   0.41666667  0.66666667  0.50000000
   0.75000000  0.75000000  0.59169983
Direct configuration=     2
   0.08302826  0.08212949  0.40636867
   0.58331982  0.33418277  0.40677840
   0.83421861  0.08172394  0.40683253
   0.41844917  0.16634110  0.50088729
   0.58453271  0.08277799  0.40607071
   0.66809305  0.91488108  0.50051167
   0.33343215  0.83260009  0.40675422
   0.74968437  0.00026962  0.59352282
   0.16616710  0.66832337  0.50077887
   0.33391407  0.58388531  0.40647108
   0.25010321  0.25076927  0.59421579
   0.16625130  0.41851868  0.50097196
   0.58386174  0.83219699  0.40645633
   0.25098048 -0.00138100  0.59355021
   0.33369253  0.33368429  0.40600860
   0.33369613  0.08251140  0.40600414
  -0.00020453  0.00016197  0.59325578
   0.08315833  0.33348005  0.40562472
   0.91448318  0.41773522  0.50127033
   0.16578086  0.16524798  0.50052670
   0.08196800  0.58524347  0.40604043
   0.50009958  0.49983909  0.59317098
   0.83226207  0.58466115  0.40639887
   0.83222591  0.33384460  0.40643062
   0.66703609  0.16776539  0.50047159
   0.74988771  0.25055376  0.59243788
   0.66624193  0.41700845  0.50035009
   0.83400421  0.83317757  0.40728047
   0.50048834  0.74997161  0.59243139
   0.41726042  0.91484809  0.50052701
   0.66591750  0.66642733  0.50050258
   0.75032667  0.50012476  0.59254711
   0.25020882  0.74959985  0.59261366
   0.58329469  0.58339103  0.40749753
   0.50014115  0.25021623  0.59266052
   0.41773869  0.41652682  0.50057257
   0.50032202 -0.00062768  0.59287316
   0.16668384  0.91579963  0.50007676
   0.24972118  0.50041830  0.59285408
   0.00040510  0.74901511  0.59262978
   0.91722298  0.91629750  0.49987366
   0.08274336  0.83367961  0.40733545
  -0.00077879  0.50090691  0.59282112
   0.91571350  0.66781820  0.50054037
  -0.00125080  0.25091765  0.59284781
   0.91577604  0.16652135  0.50051348
   0.41765084  0.66688053  0.50024055
   0.75004643  0.74913406  0.59259968
Direct configuration=     3
   0.08211306  0.07851795  0.40057417
   0.58327929  0.33673110  0.40221311
   0.83687445  0.07689575  0.40242962
   0.42379668  0.16536439  0.50354916
   0.58813082  0.08111198  0.39938234
   0.67237218  0.90952431  0.50204669
   0.33372861  0.83040037  0.40211637
   0.74873746  0.00107848  0.59899179
   0.16466840  0.67329349  0.50311546
   0.33565628  0.58554124  0.40098382
   0.25041282  0.25307709  0.60176365
   0.16500522  0.42407473  0.50388786
   0.58544695  0.82878797  0.40092482
   0.25392193 -0.00552400  0.59910136
   0.33477011  0.33473717  0.39913390
   0.33478453  0.08004560  0.39911604
  -0.00081812  0.00064787  0.59792363
   0.08263331  0.33392019  0.39759835
   0.90793271  0.42094090  0.50508131
   0.16312342  0.16099194  0.50210678
   0.07787200  0.59097389  0.39926120
   0.50039832  0.49935638  0.59758443
   0.82904828  0.58864458  0.40069498
   0.82890365  0.33537839  0.40082195
   0.66814434  0.17106155  0.50188637
   0.74955082  0.25221504  0.59465204
   0.66496772  0.41803381  0.50140034
   0.83601684  0.83271028  0.40422138
   0.50195337  0.74988644  0.59462607
   0.41904169  0.90939236  0.50210802
   0.66367001  0.66570934  0.50201031
   0.75130666  0.50049904  0.59508895
   0.25083528  0.74839941  0.59535514
   0.58317875  0.58356411  0.40508960
   0.50056458  0.25086492  0.59554257
   0.42095477  0.41610730  0.50229028
   0.50128809 -0.00251072  0.59639317
   0.16673534  0.91319852  0.50030703
   0.24888471  0.50167320  0.59631681
   0.00162040  0.74606044  0.59541962
   0.91889193  0.91518999  0.49949464
   0.08097343  0.83471844  0.40444130
  -0.00311517  0.50362766  0.59618498
   0.91285398  0.67127281  0.50216150
  -0.00500319  0.25367058  0.59629176
   0.91310415  0.16608540  0.50205390
   0.42060337  0.66752210  0.50096220
   0.75018573  0.74653623  0.59529922
Direct configuration=     4
   0.08213513  0.08026253  0.39930685
   0.58347213  0.33541235  0.40118703
   0.83544414  0.07874513  0.40131898
   0.42165020  0.16484786  0.50271463
   0.58727471  0.08098870  0.39814358
   0.67043208  0.91223731  0.50153815
   0.33357199  0.83121811  0.40092564
   0.74922385  0.00050791  0.60057912
   0.16674993  0.67062192  0.50208428
   0.33374482  0.58548148  0.39996881
   0.24973791  0.25249437  0.60379079
   0.16517305  0.42170522  0.50293278
   0.58437207  0.83085886  0.39968473
   0.25324392 -0.00450372  0.60088520
   0.33362866  0.33487042  0.39804643
   0.33493475  0.08068788  0.39812237
  -0.00048070  0.00008288  0.59942154
   0.08221236  0.33429092  0.39637954
   0.91107652  0.41967465  0.50341437
   0.16426526  0.16267097  0.50184465
   0.07969842  0.58915409  0.39793914
   0.50035536  0.50011096  0.59939692
   0.83097318  0.58632195  0.39963563
   0.83098590  0.33485024  0.39974556
   0.66924589  0.16920852  0.50126231
   0.74932695  0.25263889  0.59599204
   0.66424794  0.41803299  0.50101781
   0.83453852  0.83319418  0.40347667
   0.50264821  0.74881088  0.59617931
   0.41805103  0.91170869  0.50146696
   0.66395374  0.66587126  0.50121579
   0.74941158  0.50131741  0.59733300
   0.25138206  0.74827981  0.59676903
   0.58354031  0.58362262  0.40448226
   0.50078759  0.25098744  0.59720624
   0.41959099  0.41781938  0.50172873
   0.50143142 -0.00262995  0.59770931
   0.16694252  0.91445273  0.50028920
   0.24941335  0.50188420  0.59801353
   0.00060841  0.74705776  0.59690296
   0.91701824  0.91742012  0.49994632
   0.08274068  0.83270801  0.40359673
  -0.00288068  0.50360172  0.59798056
   0.91431729  0.66902058  0.50143236
  -0.00353722  0.25273853  0.59793698
   0.91330903  0.16557239  0.50142910
   0.41992833  0.66639025  0.50070502
   0.75010815  0.74669857  0.59692106
Direct configuration=     5
   0.08214921  0.08137472  0.39849893
   0.58359506  0.33457163  0.40053289
   0.83453231  0.07992414  0.40061094
   0.42028180  0.16451857  0.50218261
   0.58672892  0.08091011  0.39735386
   0.66919524  0.91396687  0.50121395
   0.33347215  0.83173943  0.40016654
   0.74953393  0.00014416  0.60159105
   0.16807692  0.66891876  0.50142689
   0.33252624  0.58544338  0.39932173
   0.24930765  0.25212289  0.60508311
   0.16528005  0.42019463  0.50232391
   0.58368682  0.83217908  0.39889415
   0.25281168 -0.00385327  0.60202241
   0.33290098  0.33495537  0.39735315
   0.33503052  0.08109734  0.39748890
  -0.00026559 -0.00027730  0.60037646
   0.08194400  0.33452726  0.39560254
   0.91308073  0.41886741  0.50235169
   0.16499320  0.16374137  0.50167753
   0.08086279  0.58799395  0.39709632
   0.50032797  0.50059201  0.60055241
   0.83220033  0.58484125  0.39896028
   0.83231335  0.33451354  0.39905935
   0.66994813  0.16802720  0.50086447
   0.74918423  0.25290910  0.59684630
   0.66378908  0.41803247  0.50077394
   0.83359608  0.83350267  0.40300192
   0.50309117  0.74812520  0.59716951
   0.41741947  0.91318537  0.50105827
   0.66413462  0.66597449  0.50070928
   0.74820344  0.50183913  0.59876361
   0.25173063  0.74820356  0.59767040
   0.58377082  0.58365992  0.40409508
   0.50092976  0.25106556  0.59826685
   0.41872157  0.41891086  0.50137074
   0.50152280 -0.00270595  0.59854836
   0.16707460  0.91525230  0.50027783
   0.24975036  0.50201870  0.59909521
  -0.00003674  0.74769356  0.59784859
   0.91582374  0.91884184  0.50023427
   0.08386732  0.83142633  0.40305830
  -0.00273120  0.50358519  0.59912525
   0.91525017  0.66758477  0.50096752
  -0.00260265  0.25214434  0.59898583
   0.91343965  0.16524534  0.50103079
   0.41949799  0.66566868  0.50054107
   0.75005869  0.74680207  0.59795499
Direct configuration=     6
   0.08251856  0.08151648  0.39835048
   0.58328454  0.33455279  0.40041583
   0.83507204  0.07989864  0.40037085
   0.41910233  0.16605942  0.50204694
   0.58550158  0.08186547  0.39705849
   0.66908072  0.91394897  0.50122857
   0.33337108  0.83204294  0.40003263
   0.74929416  0.00014516  0.60195230
   0.16697537  0.66891394  0.50136854
   0.33338362  0.58464448  0.39906652
   0.24942894  0.25211792  0.60560951
   0.16647825  0.41853338  0.50221409
   0.58427494  0.83168080  0.39864618
   0.25268993 -0.00333810  0.60238486
   0.33287567  0.33427890  0.39729961
   0.33409050  0.08242569  0.39738864
  -0.00001410 -0.00032989  0.60067385
   0.08293176  0.33397992  0.39528252
   0.91307550  0.41809191  0.50231579
   0.16526958  0.16451279  0.50164157
   0.08077860  0.58727327  0.39676708
   0.50011181  0.50049661  0.60103696
   0.83208777  0.58525423  0.39878562
   0.83234699  0.33420507  0.39891196
   0.66825652  0.16811339  0.50078225
   0.74951568  0.25265388  0.59701120
   0.66480631  0.41752825  0.50083313
   0.83377792  0.83299860  0.40302744
   0.50260280  0.74868740  0.59736869
   0.41692975  0.91359009  0.50095678
   0.66489112  0.66625879  0.50051772
   0.74937443  0.50105700  0.59884116
   0.25136144  0.74857455  0.59783505
   0.58360327  0.58353803  0.40394803
   0.50061862  0.25080281  0.59826600
   0.41856844  0.41748881  0.50129614
   0.50129184 -0.00220637  0.59868258
   0.16698215  0.91590009  0.50040978
   0.24952408  0.50165805  0.59923460
   0.00013937  0.74779329  0.59786333
   0.91648057  0.91796687  0.50056209
   0.08310330  0.83248505  0.40315092
  -0.00243313  0.50295096  0.59930673
   0.91544534  0.66779925  0.50072984
  -0.00245600  0.25226078  0.59905320
   0.91447363  0.16576305  0.50088230
   0.41905790  0.66636853  0.50052899
   0.75007450  0.74719804  0.59806268
Direct configuration=     7
   0.08261290  0.08155269  0.39831256
   0.58320522  0.33454798  0.40038592
   0.83520991  0.07989213  0.40030952
   0.41880106  0.16645300  0.50201228
   0.58518807  0.08210950  0.39698305
   0.66905147  0.91394439  0.50123230
   0.33334526  0.83212047  0.39999843
   0.74923291  0.00014542  0.60204458
   0.16669400  0.66891270  0.50135364
   0.33360262  0.58444041  0.39900133
   0.24945992  0.25211665  0.60574397
   0.16678431  0.41810904  0.50218604
   0.58442517  0.83155352  0.39858284
   0.25265883 -0.00320650  0.60247744
   0.33286921  0.33410611  0.39728594
   0.33385039  0.08276499  0.39736303
   0.00005014 -0.00034332  0.60074981
   0.08318407  0.33384011  0.39520077
   0.91307416  0.41789383  0.50230662
   0.16534018  0.16470984  0.50163239
   0.08075709  0.58708919  0.39668298
   0.50005659  0.50047225  0.60116073
   0.83205902  0.58535972  0.39874101
   0.83235558  0.33412628  0.39887431
   0.66782443  0.16813541  0.50076126
   0.74960034  0.25258870  0.59705332
   0.66506614  0.41739946  0.50084825
   0.83382437  0.83286984  0.40303396
   0.50247805  0.74883101  0.59741957
   0.41680466  0.91369347  0.50093085
   0.66508435  0.66633141  0.50046879
   0.74967354  0.50085721  0.59886097
   0.25126713  0.74866931  0.59787711
   0.58356048  0.58350690  0.40391047
   0.50053914  0.25073569  0.59826578
   0.41852933  0.41712558  0.50127708
   0.50123284 -0.00207877  0.59871686
   0.16695853  0.91606556  0.50044348
   0.24946629  0.50156592  0.59927021
   0.00018436  0.74781876  0.59786710
   0.91664835  0.91774338  0.50064583
   0.08290814  0.83275549  0.40317458
  -0.00235700  0.50278896  0.59935308
   0.91549520  0.66785404  0.50066912
  -0.00241854  0.25229052  0.59907041
   0.91473774  0.16589529  0.50084436
   0.41894548  0.66654730  0.50052591
   0.75007854  0.74729919  0.59809018
Direct configuration=     8
   0.08287529  0.08152227  0.39826641
   0.58332030  0.33444320  0.40039488
   0.83510960  0.07967465  0.40033505
   0.41873193  0.16632291  0.50204558
   0.58521395  0.08207315  0.39678678
   0.66871861  0.91418917  0.50128931
   0.33338055  0.83218931  0.40000452
   0.74911311  0.00030890  0.60221205
   0.16656278  0.66861491  0.50134708
   0.33360773  0.58441657  0.39894732
   0.24958829  0.25213617  0.60618649
   0.16648931  0.41818666  0.50226136
   0.58425607  0.83170549  0.39846069
   0.25261889 -0.00284527  0.60264546
   0.33289641  0.33427410  0.39722072
   0.33383108  0.08256582  0.39731267
   0.00000188 -0.00011996  0.60087209
   0.08293796  0.33396042  0.39492825
   0.91299430  0.41811970  0.50238499
   0.16559404  0.16475108  0.50169413
   0.08094406  0.58697664  0.39646276
   0.50002009  0.50035175  0.60126221
   0.83208673  0.58507751  0.39865960
   0.83225699  0.33424242  0.39880532
   0.66755507  0.16795611  0.50074176
   0.74979525  0.25223230  0.59697036
   0.66511813  0.41726265  0.50099210
   0.83383595  0.83316689  0.40313570
   0.50237030  0.74905614  0.59733821
   0.41670917  0.91397229  0.50090887
   0.66536407  0.66638932  0.50048117
   0.75029293  0.50059012  0.59868264
   0.25108583  0.74874383  0.59781841
   0.58355719  0.58334431  0.40389012
   0.50039254  0.25064386  0.59815859
   0.41861202  0.41705302  0.50133773
   0.50097950 -0.00169134  0.59862363
   0.16684196  0.91636486  0.50061045
   0.24922132  0.50141858  0.59917605
   0.00035308  0.74768968  0.59777506
   0.91673509  0.91780035  0.50092053
   0.08268640  0.83294576  0.40338825
  -0.00216389  0.50252394  0.59921839
   0.91583632  0.66737956  0.50061206
  -0.00225784  0.25223380  0.59901242
   0.91498455  0.16572343  0.50082266
   0.41880660  0.66664476  0.50060873
   0.75013851  0.74741822  0.59799038
Direct configuration=     9
   0.08314918  0.08149051  0.39821824
   0.58344042  0.33433383  0.40040423
   0.83500489  0.07944764  0.40036169
   0.41865977  0.16618713  0.50208033
   0.58524096  0.08203520  0.39658191
   0.66837118  0.91444467  0.50134882
   0.33341738  0.83226116  0.40001088
   0.74898806  0.00047954  0.60238687
   0.16642581  0.66830405  0.50134023
   0.33361306  0.58439168  0.39889095
   0.24972229  0.25215654  0.60664841
   0.16618138  0.41826768  0.50233997
   0.58407955  0.83186412  0.39833319
   0.25257720 -0.00246820  0.60282083
   0.33292481  0.33444945  0.39715264
   0.33381092  0.08235792  0.39726011
  -0.00004849  0.00011319  0.60099972
   0.08268107  0.33408600  0.39464378
   0.91291093  0.41835548  0.50246679
   0.16585903  0.16479412  0.50175858
   0.08113922  0.58685916  0.39623290
   0.49998199  0.50022596  0.60136813
   0.83211565  0.58478292  0.39857462
   0.83215408  0.33436366  0.39873331
   0.66727391  0.16776896  0.50072141
   0.74999869  0.25186028  0.59688377
   0.66517240  0.41711985  0.50114225
   0.83384803  0.83347696  0.40324191
   0.50225783  0.74929115  0.59725329
   0.41660949  0.91426333  0.50088593
   0.66565604  0.66644977  0.50049409
   0.75093947  0.50031131  0.59849648
   0.25089659  0.74882161  0.59775714
   0.58355375  0.58317459  0.40386889
   0.50023950  0.25054799  0.59804669
   0.41869834  0.41697728  0.50140104
   0.50071505 -0.00128694  0.59852632
   0.16672028  0.91667727  0.50078473
   0.24896562  0.50126479  0.59907777
   0.00052919  0.74755494  0.59767899
   0.91682563  0.91785983  0.50120728
   0.08245494  0.83314437  0.40361129
  -0.00196231  0.50224730  0.59907779
   0.91619240  0.66688428  0.50055249
  -0.00209010  0.25217459  0.59895190
   0.91524217  0.16554405  0.50080001
   0.41866163  0.66674650  0.50069519
   0.75020111  0.74754248  0.59788621
Direct configuration=    10
   0.08295559  0.08159970  0.39820597
   0.58363669  0.33417777  0.40046839
   0.83502509  0.07953283  0.40048027
   0.41836850  0.16630701  0.50204194
   0.58514032  0.08198046  0.39632106
   0.66859920  0.91430564  0.50135937
   0.33344203  0.83191633  0.40009432
   0.74898083  0.00050656  0.60260111
   0.16666095  0.66820671  0.50125836
   0.33345506  0.58470157  0.39888604
   0.24976083  0.25221922  0.60727097
   0.16621283  0.41805053  0.50234959
   0.58422502  0.83176144  0.39821075
   0.25256678 -0.00229284  0.60304194
   0.33289051  0.33444292  0.39709295
   0.33385056  0.08244773  0.39718540
  -0.00003477  0.00025379  0.60117258
   0.08256808  0.33415507  0.39426707
   0.91295737  0.41820876  0.50239050
   0.16586186  0.16496928  0.50181921
   0.08107851  0.58704429  0.39594127
   0.50011777  0.50012373  0.60144161
   0.83202094  0.58496141  0.39847926
   0.83217212  0.33413678  0.39869182
   0.66745726  0.16754048  0.50069126
   0.75002708  0.25168448  0.59674223
   0.66503076  0.41706675  0.50127234
   0.83385804  0.83336330  0.40345621
   0.50229852  0.74933735  0.59708709
   0.41659428  0.91421483  0.50086633
   0.66552578  0.66661492  0.50045521
   0.75099886  0.50030522  0.59830672
   0.25083435  0.74884737  0.59766155
   0.58347328  0.58317301  0.40394138
   0.50014403  0.25063046  0.59794693
   0.41871980  0.41714191  0.50145759
   0.50059629 -0.00109452  0.59846284
   0.16674091  0.91663658  0.50098642
   0.24888844  0.50120602  0.59898375
   0.00051959  0.74754187  0.59759341
   0.91661184  0.91801995  0.50154452
   0.08253886  0.83308194  0.40395952
  -0.00178660  0.50212932  0.59896175
   0.91604938  0.66697994  0.50041741
  -0.00179895  0.25200899  0.59888159
   0.91522625  0.16546893  0.50073451
   0.41863882  0.66672320  0.50078462
   0.75030048  0.74766102  0.59773303
Direct configuration=    11
   0.08276269  0.08170852  0.39819374
   0.58383226  0.33402225  0.40053232
   0.83504521  0.07961772  0.40059843
   0.41807826  0.16642648  0.50200369
   0.58504005  0.08192591  0.39606114
   0.66882641  0.91416710  0.50136988
   0.33346659  0.83157272  0.40017746
   0.74897362  0.00053348  0.60281459
   0.16689526  0.66810971  0.50117677
   0.33329761  0.58501037  0.39888114
   0.24979923  0.25228168  0.60789133
   0.16624418  0.41783415  0.50235917
   0.58436997  0.83165912  0.39808875
   0.25255640 -0.00211811  0.60326227
   0.33285634  0.33443642  0.39703347
   0.33389006  0.08253723  0.39711096
  -0.00002109  0.00039389  0.60134483
   0.08245549  0.33422388  0.39389170
   0.91300364  0.41806256  0.50231449
   0.16586468  0.16514382  0.50187963
   0.08101802  0.58722875  0.39565067
   0.50025307  0.50002185  0.60151483
   0.83192656  0.58513927  0.39838424
   0.83219010  0.33391071  0.39865047
   0.66763996  0.16731280  0.50066122
   0.75005536  0.25150931  0.59660120
   0.66488962  0.41701383  0.50140197
   0.83386802  0.83325004  0.40366976
   0.50233907  0.74938338  0.59692149
   0.41657911  0.91416650  0.50084680
   0.66539597  0.66677948  0.50041647
   0.75105803  0.50029915  0.59811764
   0.25077233  0.74887303  0.59756630
   0.58339309  0.58317142  0.40401361
   0.50004889  0.25071263  0.59784753
   0.41874118  0.41730596  0.50151394
   0.50047795 -0.00090278  0.59839960
   0.16676147  0.91659603  0.50118740
   0.24881153  0.50114746  0.59889005
   0.00051003  0.74752885  0.59750813
   0.91639879  0.91817951  0.50188058
   0.08262249  0.83301973  0.40430653
  -0.00161151  0.50201176  0.59884612
   0.91590687  0.66707526  0.50028282
  -0.00150882  0.25184397  0.59881154
   0.91521038  0.16539408  0.50066923
   0.41861609  0.66669999  0.50087372
   0.75039950  0.74777914  0.59758039
Direct configuration=    12
   0.08270584  0.08174059  0.39819013
   0.58388991  0.33397642  0.40055117
   0.83505115  0.07964274  0.40063326
   0.41799272  0.16646169  0.50199241
   0.58501049  0.08190983  0.39598453
   0.66889338  0.91412626  0.50137298
   0.33347383  0.83147144  0.40020196
   0.74897149  0.00054142  0.60287751
   0.16696432  0.66808111  0.50115273
   0.33325121  0.58510138  0.39887970
   0.24981054  0.25230009  0.60807418
   0.16625342  0.41777037  0.50236199
   0.58441269  0.83162896  0.39805279
   0.25255334 -0.00206661  0.60332722
   0.33284627  0.33443450  0.39701594
   0.33390170  0.08256361  0.39708902
  -0.00001706  0.00043518  0.60139560
   0.08242230  0.33424417  0.39378105
   0.91301728  0.41801947  0.50229209
   0.16586552  0.16519527  0.50189744
   0.08100019  0.58728312  0.39556501
   0.50029295  0.49999183  0.60153641
   0.83189874  0.58519169  0.39835623
   0.83219540  0.33384407  0.39863828
   0.66769381  0.16724569  0.50065237
   0.75006370  0.25145768  0.59655963
   0.66484802  0.41699824  0.50144018
   0.83387096  0.83321666  0.40373270
   0.50235103  0.74939695  0.59687267
   0.41657464  0.91415225  0.50084104
   0.66535771  0.66682798  0.50040505
   0.75107548  0.50029736  0.59806190
   0.25075405  0.74888060  0.59753822
   0.58336945  0.58317096  0.40403490
   0.50002085  0.25073685  0.59781823
   0.41874748  0.41735431  0.50153055
   0.50044306 -0.00084626  0.59838095
   0.16676753  0.91658407  0.50124664
   0.24878886  0.50113019  0.59886244
   0.00050721  0.74752502  0.59748300
   0.91633600  0.91822653  0.50197963
   0.08264714  0.83300140  0.40440881
  -0.00155990  0.50197711  0.59881204
   0.91586487  0.66710335  0.50024314
  -0.00142331  0.25179533  0.59879089
   0.91520570  0.16537202  0.50065000
   0.41860938  0.66669315  0.50089999
   0.75042868  0.74781396  0.59753540
Direct configuration=    13
   0.08288135  0.08154965  0.39825317
   0.58347606  0.33414014  0.40068380
   0.83513660  0.07936896  0.40082191
   0.41816600  0.16649329  0.50189208
   0.58511804  0.08180528  0.39569802
   0.66878039  0.91434994  0.50132801
   0.33336052  0.83190060  0.40038358
   0.74897374  0.00051097  0.60318008
   0.16697357  0.66804442  0.50106088
   0.33336386  0.58468945  0.39888785
   0.24981819  0.25238554  0.60884941
   0.16638277  0.41779390  0.50223221
   0.58433233  0.83156126  0.39793858
   0.25268900 -0.00221549  0.60358529
   0.33270354  0.33463313  0.39699444
   0.33373220  0.08251774  0.39701541
   0.00010600  0.00034478  0.60165729
   0.08241693  0.33436520  0.39326201
   0.91296575  0.41780562  0.50195003
   0.16570363  0.16499292  0.50192752
   0.08088336  0.58734561  0.39520005
   0.50034127  0.50014175  0.60159412
   0.83193044  0.58513255  0.39823786
   0.83220560  0.33402609  0.39864758
   0.66768908  0.16716357  0.50060110
   0.75007336  0.25150889  0.59644269
   0.66469941  0.41711920  0.50144221
   0.83387116  0.83323568  0.40402366
   0.50241105  0.74936332  0.59671355
   0.41652614  0.91410666  0.50076384
   0.66512547  0.66672985  0.50022407
   0.75078348  0.50048434  0.59791085
   0.25089016  0.74884372  0.59749936
   0.58352873  0.58304500  0.40420922
   0.50002749  0.25085878  0.59772365
   0.41868967  0.41735956  0.50149183
   0.50053356 -0.00085894  0.59833913
   0.16679667  0.91665990  0.50148817
   0.24898002  0.50121510  0.59879864
   0.00042169  0.74758760  0.59741482
   0.91632154  0.91821358  0.50232576
   0.08251990  0.83312975  0.40487343
  -0.00155257  0.50204604  0.59870665
   0.91593530  0.66709155  0.50005779
  -0.00126672  0.25175551  0.59872777
   0.91518605  0.16537830  0.50059667
   0.41885083  0.66650171  0.50095626
   0.75051741  0.74777801  0.59738769
Direct configuration=    14
   0.08293754  0.08148852  0.39827335
   0.58334355  0.33419256  0.40072626
   0.83516397  0.07928130  0.40088231
   0.41822148  0.16650341  0.50185996
   0.58515248  0.08177181  0.39560629
   0.66874421  0.91442156  0.50131361
   0.33332424  0.83203801  0.40044173
   0.74897446  0.00050122  0.60327696
   0.16697652  0.66803267  0.50103147
   0.33339993  0.58455755  0.39889046
   0.24982063  0.25241290  0.60909763
   0.16642419  0.41780143  0.50219065
   0.58430661  0.83153958  0.39790201
   0.25273244 -0.00226316  0.60366793
   0.33265784  0.33469673  0.39698755
   0.33367792  0.08250306  0.39699184
   0.00014540  0.00031583  0.60174109
   0.08241520  0.33440396  0.39309581
   0.91294925  0.41773715  0.50184050
   0.16565180  0.16492813  0.50193716
   0.08084595  0.58736562  0.39508320
   0.50035674  0.50018975  0.60161260
   0.83194059  0.58511362  0.39819996
   0.83220887  0.33408437  0.39865056
   0.66768757  0.16713728  0.50058469
   0.75007645  0.25152529  0.59640524
   0.66465182  0.41715794  0.50144285
   0.83387123  0.83324177  0.40411683
   0.50243027  0.74935255  0.59666261
   0.41651062  0.91409206  0.50073913
   0.66505111  0.66669843  0.50016612
   0.75068999  0.50054422  0.59786249
   0.25093374  0.74883191  0.59748692
   0.58357973  0.58300467  0.40426504
   0.50002962  0.25089782  0.59769337
   0.41867116  0.41736124  0.50147943
   0.50056254 -0.00086300  0.59832574
   0.16680601  0.91668418  0.50156550
   0.24904122  0.50124229  0.59877822
   0.00039431  0.74760764  0.59739298
   0.91631690  0.91820943  0.50243659
   0.08247916  0.83317085  0.40502220
  -0.00155023  0.50206811  0.59867290
   0.91595785  0.66708777  0.49999844
  -0.00121658  0.25174276  0.59870756
   0.91517976  0.16538031  0.50057959
   0.41892814  0.66644041  0.50097428
   0.75054582  0.74776649  0.59734039
Direct configuration=    15
   0.08291619  0.08158807  0.39835600
   0.58332524  0.33409001  0.40077865
   0.83506722  0.07935365  0.40096699
   0.41821463  0.16644549  0.50183156
   0.58512862  0.08179265  0.39553552
   0.66841060  0.91457236  0.50129522
   0.33330122  0.83202447  0.40057011
   0.74891155  0.00054074  0.60340087
   0.16683982  0.66803834  0.50107159
   0.33340573  0.58462671  0.39890597
   0.24984165  0.25246003  0.60924990
   0.16641190  0.41770900  0.50210539
   0.58421132  0.83162247  0.39787806
   0.25294543 -0.00240378  0.60372650
   0.33249974  0.33449916  0.39698962
   0.33358571  0.08271684  0.39698158
   0.00016370  0.00023888  0.60184260
   0.08260661  0.33423748  0.39285738
   0.91310765  0.41783908  0.50165353
   0.16582039  0.16485252  0.50196288
   0.08072734  0.58743711  0.39493812
   0.50026746  0.50031265  0.60162075
   0.83202645  0.58507945  0.39813214
   0.83219712  0.33407593  0.39866299
   0.66757108  0.16729886  0.50058673
   0.75013605  0.25165295  0.59641716
   0.66469759  0.41710124  0.50131949
   0.83383942  0.83328936  0.40419819
   0.50243766  0.74942877  0.59667743
   0.41646759  0.91430908  0.50072857
   0.66527997  0.66661660  0.50002910
   0.75073904  0.50057981  0.59784360
   0.25105579  0.74878461  0.59756167
   0.58352189  0.58303216  0.40429374
   0.50010338  0.25086389  0.59769459
   0.41864465  0.41720671  0.50142569
   0.50059869 -0.00088584  0.59833240
   0.16684001  0.91666884  0.50166087
   0.24919799  0.50128982  0.59879753
   0.00044345  0.74756212  0.59742569
   0.91647832  0.91811324  0.50253486
   0.08252012  0.83310612  0.40512386
  -0.00166745  0.50210451  0.59858137
   0.91609455  0.66677402  0.49996799
  -0.00142657  0.25199304  0.59867514
   0.91509948  0.16538124  0.50062519
   0.41886345  0.66638599  0.50091021
   0.75053058  0.74759358  0.59727505
Direct configuration=    16
   0.08291012  0.08161636  0.39837949
   0.58332003  0.33406087  0.40079354
   0.83503973  0.07937421  0.40099106
   0.41821268  0.16642903  0.50182349
   0.58512184  0.08179857  0.39551540
   0.66831579  0.91461522  0.50129000
   0.33329468  0.83202063  0.40060659
   0.74889368  0.00055198  0.60343609
   0.16680096  0.66803995  0.50108299
   0.33340738  0.58464636  0.39891037
   0.24984762  0.25247342  0.60929317
   0.16640840  0.41768274  0.50208116
   0.58418424  0.83164603  0.39787125
   0.25300596 -0.00244374  0.60374314
   0.33245480  0.33444300  0.39699021
   0.33355951  0.08277759  0.39697866
   0.00016890  0.00021701  0.60187145
   0.08266101  0.33419016  0.39278961
   0.91315266  0.41786805  0.50160039
   0.16586830  0.16483103  0.50197019
   0.08069363  0.58745743  0.39489689
   0.50024208  0.50034757  0.60162306
   0.83205085  0.58506974  0.39811286
   0.83219378  0.33407353  0.39866652
   0.66753797  0.16734478  0.50058731
   0.75015299  0.25168922  0.59642055
   0.66471060  0.41708513  0.50128443
   0.83383038  0.83330288  0.40422131
   0.50243976  0.74945043  0.59668164
   0.41645537  0.91437076  0.50072557
   0.66534501  0.66659334  0.49999016
   0.75075298  0.50058993  0.59783823
   0.25109047  0.74877116  0.59758291
   0.58350546  0.58303997  0.40430189
   0.50012434  0.25085424  0.59769493
   0.41863711  0.41716280  0.50141042
   0.50060897 -0.00089233  0.59833430
   0.16684968  0.91666448  0.50168797
   0.24924254  0.50130333  0.59880301
   0.00045741  0.74754919  0.59743499
   0.91652419  0.91808590  0.50256279
   0.08253176  0.83308772  0.40515275
  -0.00170076  0.50211485  0.59855536
   0.91613340  0.66668485  0.49995933
  -0.00148624  0.25206416  0.59866593
   0.91507667  0.16538150  0.50063815
   0.41884506  0.66637053  0.50089199
   0.75052625  0.74754444  0.59725648
Direct configuration=    17
   0.08285492  0.08163987  0.39847810
   0.58325719  0.33401906  0.40079817
   0.83503064  0.07941531  0.40107319
   0.41811498  0.16650110  0.50184929