unknown system                          
           1
    11.002582    0.000000    0.000000
     5.501291    9.528515    0.000000
     0.000000    0.000000   24.491785
   Au   Pd
  24  24
Direct configuration=     1
   0.25000000  0.75000000  0.59169983
   0.91666667  0.16666667  0.50000000
   0.00000000  0.00000000  0.59169983
   0.91666667  0.41666667  0.50000000
   0.91666667  0.66666667  0.50000000
   0.83333333  0.58333333  0.40830017
   0.08333333  0.83333333  0.40830017
   0.83333333  0.33333333  0.40830017
   0.33333333  0.33333333  0.40830017
   0.58333333  0.58333333  0.40830017
   0.16666667  0.41666667  0.50000000
   0.25000000  0.25000000  0.59169983
   0.50000000  0.50000000  0.59169983
   0.16666667  0.66666667  0.50000000
   0.25000000  0.50000000  0.59169983
   0.33333333  0.83333333  0.40830017
   0.50000000  0.75000000  0.59169983
   0.66666667  0.91666667  0.50000000
   0.41666667  0.16666667  0.50000000
   0.50000000  0.00000000  0.59169983
   0.58333333  0.33333333  0.40830017
   0.58333333  0.83333333  0.40830017
   0.50000000  0.25000000  0.59169983
   0.83333333  0.08333333  0.40830017
   0.25000000  0.00000000  0.59169983
   0.16666667  0.16666667  0.50000000
   0.33333333  0.08333333  0.40830017
   0.00000000  0.75000000  0.59169983
   0.08333333  0.33333333  0.40830017
   0.00000000  0.50000000  0.59169983
   0.08333333  0.58333333  0.40830017
   0.00000000  0.25000000  0.59169983
   0.33333333  0.58333333  0.40830017
   0.91666667  0.91666667  0.50000000
   0.16666667  0.91666667  0.50000000
   0.83333333  0.83333333  0.40830017
   0.41666667  0.41666667  0.50000000
   0.08333333  0.08333333  0.40830017
   0.66666667  0.16666667  0.50000000
   0.75000000  0.50000000  0.59169983
   0.41666667  0.91666667  0.50000000
   0.66666667  0.66666667  0.50000000
   0.75000000  0.25000000  0.59169983
   0.66666667  0.41666667  0.50000000
   0.75000000  0.00000000  0.59169983
   0.41666667  0.66666667  0.50000000
   0.58333333  0.08333333  0.40830017
   0.75000000  0.75000000  0.59169983
Direct configuration=     2
   0.24939709  0.75112698  0.59355339
   0.91714183  0.16618872  0.50047271
  -0.00060391  0.00023867  0.59348718
   0.91646695  0.41631627  0.50077714
   0.91599666  0.66793170  0.50040306
   0.83333333  0.58333333  0.40830017
   0.08333333  0.83333333  0.40830017
   0.83333333  0.33333333  0.40830017
   0.33333333  0.33333333  0.40830017
   0.58333333  0.58333333  0.40830017
   0.16594217  0.41652381  0.49960910
   0.24820353  0.24965804  0.59393746
   0.50161540  0.49917894  0.59322191
   0.16705875  0.66720869  0.49957847
   0.24900260  0.50052104  0.59396691
   0.33333333  0.83333333  0.40830017
   0.50083705  0.74987914  0.59316380
   0.66784380  0.91658469  0.50000467
   0.41703485  0.16575634  0.49922984
   0.50052862 -0.00110102  0.59388500
   0.58333333  0.33333333  0.40830017
   0.58333333  0.83333333  0.40830017
   0.50191325  0.24955585  0.59363062
   0.83333333  0.08333333  0.40830017
   0.24939576  0.00061292  0.59250262
   0.16707170  0.16523977  0.49977818
   0.33333333  0.08333333  0.40830017
  -0.00103985  0.75029664  0.59292232
   0.08333333  0.33333333  0.40830017
  -0.00098133  0.50046478  0.59305653
   0.08333333  0.58333333  0.40830017
  -0.00003449  0.25029373  0.59279679
   0.33333333  0.58333333  0.40830017
   0.91604258  0.91693303  0.50022977
   0.16731364  0.91750800  0.49998299
   0.83333333  0.83333333  0.40830017
   0.41778838  0.41707281  0.49968092
   0.08333333  0.08333333  0.40830017
   0.66701926  0.16677649  0.50029333
   0.75069172  0.49961564  0.59260237
   0.41517183  0.91685770  0.49991123
   0.66598931  0.66639647  0.50057470
   0.75002057  0.24992812  0.59259549
   0.66590226  0.41712115  0.50056832
   0.75062029 -0.00031188  0.59268793
   0.41709098  0.66639896  0.49980636
   0.58333333  0.08333333  0.40830017
   0.75081186  0.74944054  0.59284565
Direct configuration=     3
   0.24770986  0.75428080  0.59874054
   0.91847155  0.16485120  0.50179558
  -0.00229392  0.00090660  0.59848905
   0.91590806  0.41533568  0.50295195
   0.91412168  0.67147188  0.50153101
   0.83333333  0.58333333  0.40830017
   0.08333333  0.83333333  0.40830017
   0.83333333  0.33333333  0.40830017
   0.33333333  0.33333333  0.40830017
   0.58333333  0.58333333  0.40830017
   0.16391466  0.41612404  0.49851518
   0.24317613  0.24870108  0.60019941
   0.50613608  0.49688121  0.59748140
   0.16815597  0.66872555  0.49839882
   0.24621142  0.50197916  0.60031128
   0.33333333  0.83333333  0.40830017
   0.50317953  0.74954093  0.59726070
   0.67113798  0.91635528  0.50001776
   0.41806519  0.16320882  0.49707457
   0.50200796 -0.00418219  0.60000014
   0.58333333  0.33333333  0.40830017
   0.58333333  0.83333333  0.40830017
   0.50726745  0.24831291  0.59903389
   0.83333333  0.08333333  0.40830017
   0.24770480  0.00232818  0.59474922
   0.16820520  0.16124662  0.49915742
   0.33333333  0.08333333  0.40830017
  -0.00394986  0.75112680  0.59634342
   0.08333333  0.33333333  0.40830017
  -0.00372756  0.50176547  0.59685323
   0.08333333  0.58333333  0.40830017
  -0.00013102  0.25111571  0.59586662
   0.33333333  0.58333333  0.40830017
   0.91429608  0.91767843  0.50087276
   0.16912417  0.91986247  0.49993541
   0.83333333  0.83333333  0.40830017
   0.42092749  0.41820938  0.49878797
   0.08333333  0.08333333  0.40830017
   0.66800599  0.16708382  0.50111422
   0.75262750  0.49854003  0.59512810
   0.41098858  0.91739230  0.49966281
   0.66409373  0.66564033  0.50218299
   0.75007812  0.24972696  0.59510198
   0.66376310  0.41839301  0.50215875
   0.75235617 -0.00118468  0.59545311
   0.41827840  0.66564978  0.49926446
   0.58333333  0.08333333  0.40830017
   0.75308383  0.74787488  0.59605222
Direct configuration=     4
   0.24780972  0.75406479  0.60074434
   0.91865364  0.16425734  0.50315538
  -0.00262541  0.00107121  0.60085909
   0.91580464  0.41537106  0.50411174
   0.91490877  0.67033383  0.50272461
   0.83333333  0.58333333  0.40830017
   0.08333333  0.83333333  0.40830017
   0.83333333  0.33333333  0.40830017
   0.33333333  0.33333333  0.40830017
   0.58333333  0.58333333  0.40830017
   0.16456173  0.41575421  0.50042122
   0.24373633  0.24898015  0.60248240
   0.50530166  0.49789738  0.59956954
   0.16900813  0.66847940  0.50024355
   0.24608997  0.50162278  0.60255024
   0.33333333  0.83333333  0.40830017
   0.50316893  0.74922293  0.59919801
   0.66894179  0.91724783  0.50149495
   0.41829989  0.16291575  0.49928688
   0.50208366 -0.00335509  0.60229679
   0.58333333  0.33333333  0.40830017
   0.58333333  0.83333333  0.40830017
   0.50610198  0.24768815  0.60108369
   0.83333333  0.08333333  0.40830017
   0.24742571  0.00232756  0.59592181
   0.16843105  0.16200007  0.50001397
   0.33333333  0.08333333  0.40830017
  -0.00384641  0.75106815  0.59790385
   0.08333333  0.33333333  0.40830017
  -0.00390223  0.50217252  0.59857206
   0.08333333  0.58333333  0.40830017
  -0.00087870  0.25095003  0.59757482
   0.33333333  0.58333333  0.40830017
   0.91568418  0.91836652  0.50206094
   0.16871917  0.91919641  0.50123657
   0.83333333  0.83333333  0.40830017
   0.42041199  0.41806186  0.50044737
   0.08333333  0.08333333  0.40830017
   0.66741345  0.16778316  0.50228783
   0.75343063  0.49812482  0.59686299
   0.41214848  0.91684833  0.50101998
   0.66336451  0.66637359  0.50340085
   0.75167352  0.24910222  0.59657414
   0.66393906  0.41824184  0.50327379
   0.75241880 -0.00171130  0.59693607
   0.41796906  0.66596920  0.50082287
   0.58333333  0.08333333  0.40830017
   0.75346604  0.74768862  0.59772972
Direct configuration=     5
   0.24810927  0.75341678  0.60675573
   0.91919990  0.16247578  0.50723478
  -0.00361987  0.00156504  0.60796920
   0.91549439  0.41547720  0.50759111
   0.91727005  0.66691969  0.50630542
   0.83333333  0.58333333  0.40830017
   0.08333333  0.83333333  0.40830017
   0.83333333  0.33333333  0.40830017
   0.33333333  0.33333333  0.40830017
   0.58333333  0.58333333  0.40830017
   0.16650291  0.41464474  0.50613932
   0.24541692  0.24981735  0.60933139
   0.50279842  0.50094587  0.60583394
   0.17156461  0.66774095  0.50577773
   0.24572564  0.50055364  0.60926714
   0.33333333  0.83333333  0.40830017
   0.50313712  0.74826894  0.60500991
   0.66235323  0.91992551  0.50592652
   0.41900400  0.16203654  0.50592381
   0.50231076 -0.00087379  0.60918674
   0.58333333  0.33333333  0.40830017
   0.58333333  0.83333333  0.40830017
   0.50260558  0.24581385  0.60723308
   0.83333333  0.08333333  0.40830017
   0.24658845  0.00232571  0.59943957
   0.16910861  0.16426044  0.50258362
   0.33333333  0.08333333  0.40830017
  -0.00353607  0.75089221  0.60258515
   0.08333333  0.33333333  0.40830017
  -0.00442624  0.50339367  0.60372857
   0.08333333  0.58333333  0.40830017
  -0.00312173  0.25045298  0.60269944
   0.33333333  0.58333333  0.40830017
   0.91984846  0.92043079  0.50562551
   0.16750415  0.91719824  0.50514007
   0.83333333  0.83333333  0.40830017
   0.41886548  0.41761929  0.50542560
   0.08333333  0.08333333  0.40830017
   0.66563584  0.16988119  0.50580866
   0.75584000  0.49687922  0.60206765
   0.41562819  0.91521644  0.50509147
   0.66117683  0.66857336  0.50705440
   0.75645974  0.24722799  0.60099060
   0.66446693  0.41778832  0.50661891
   0.75260670 -0.00329116  0.60138494
   0.41704102  0.66692746  0.50549808
   0.58333333  0.08333333  0.40830017
   0.75461267  0.74712982  0.60276224
Direct configuration=     6
   0.24814631  0.75333666  0.60749899
   0.91926744  0.16225551  0.50773916
  -0.00374283  0.00162610  0.60884830
   0.91545603  0.41549032  0.50802131
   0.91756200  0.66649756  0.50674815
   0.83333333  0.58333333  0.40830017
   0.08333333  0.83333333  0.40830017
   0.83333333  0.33333333  0.40830017
   0.33333333  0.33333333  0.40830017
   0.58333333  0.58333333  0.40830017
   0.16674292  0.41450757  0.50684631
   0.24562471  0.24992087  0.61017820
   0.50248892  0.50132279  0.60660847
   0.17188069  0.66764965  0.50646198
   0.24568060  0.50042145  0.61009763
   0.33333333  0.83333333  0.40830017
   0.50313318  0.74815099  0.60572850
   0.66153861  0.92025658  0.50647444
   0.41909105  0.16192784  0.50674441
   0.50233884 -0.00056700  0.61003862
   0.58333333  0.33333333  0.40830017
   0.58333333  0.83333333  0.40830017
   0.50217328  0.24558211  0.60799340
   0.83333333  0.08333333  0.40830017
   0.24648493  0.00232548  0.59987451
   0.16919238  0.16453991  0.50290133
   0.33333333  0.08333333  0.40830017
  -0.00349770  0.75087046  0.60316395
   0.08333333  0.33333333  0.40830017
  -0.00449103  0.50354465  0.60436613
   0.08333333  0.58333333  0.40830017
  -0.00339906  0.25039152  0.60333305
   0.33333333  0.58333333  0.40830017
   0.92036334  0.92068602  0.50606623
   0.16735392  0.91695119  0.50562270
   0.83333333  0.83333333  0.40830017
   0.41867427  0.41756457  0.50604111
   0.08333333  0.08333333  0.40830017
   0.66541605  0.17014059  0.50624398
   0.75613790  0.49672521  0.60271116
   0.41605842  0.91501467  0.50559488
   0.66090635  0.66884534  0.50750613
   0.75705151  0.24699626  0.60153665
   0.66453220  0.41773225  0.50703251
   0.75262993 -0.00348649  0.60193500
   0.41692628  0.66704594  0.50607613
   0.58333333  0.08333333  0.40830017
   0.75475444  0.74706072  0.60338446
Direct configuration=     7
   0.24768862  0.75287440  0.60910503
   0.91960016  0.16457803  0.50826999
  -0.00168260 -0.00059230  0.61078933
   0.91548848  0.41535761  0.50855168
   0.91606765  0.66952785  0.50726677
   0.83333333  0.58333333  0.40830017
   0.08333333  0.83333333  0.40830017
   0.83333333  0.33333333  0.40830017
   0.33333333  0.33333333  0.40830017
   0.58333333  0.58333333  0.40830017
   0.16852842  0.41434707  0.50830488
   0.24464907  0.24976734  0.61171800
   0.50285554  0.49827294  0.60793289
   0.17037330  0.66637869  0.50782813
   0.24681030  0.50062054  0.61167116
   0.33333333  0.83333333  0.40830017
   0.50300927  0.74991509  0.60732893
   0.66737695  0.91686464  0.50755557
   0.41611162  0.16581702  0.50816812
   0.50163167 -0.00264631  0.61185043
   0.58333333  0.33333333  0.40830017
   0.58333333  0.83333333  0.40830017
   0.50281084  0.24839849  0.60935798
   0.83333333  0.08333333  0.40830017
   0.24736108  0.00242496  0.60087828
   0.16913801  0.16446830  0.50426167
   0.33333333  0.08333333  0.40830017
  -0.00191120  0.75056934  0.60436905
   0.08333333  0.33333333  0.40830017
  -0.00269566  0.50186436  0.60590282
   0.08333333  0.58333333  0.40830017
  -0.00060712  0.25001474  0.60476736
   0.33333333  0.58333333  0.40830017
   0.91836133  0.91801505  0.50726371
   0.16890665  0.91688220  0.50693321
   0.83333333  0.83333333  0.40830017
   0.41840930  0.41667773  0.50786499
   0.08333333  0.08333333  0.40830017
   0.66531913  0.16953614  0.50752400
   0.75428266  0.49758699  0.60431064
   0.41453849  0.91532099  0.50700601
   0.66272313  0.66794439  0.50860124
   0.75197194  0.24901789  0.60317691
   0.66412183  0.41811852  0.50816987
   0.75210462 -0.00279440  0.60302036
   0.41760645  0.66686295  0.50754109
   0.58333333  0.08333333  0.40830017
   0.75287002  0.74821643  0.60459805
Direct configuration=     8
   0.24769910  0.75288498  0.60906827
   0.91959254  0.16452487  0.50825784
  -0.00172976 -0.00054152  0.61074490
   0.91548774  0.41536065  0.50853954
   0.91610186  0.66945849  0.50725490
   0.83333333  0.58333333  0.40830017
   0.08333333  0.83333333  0.40830017
   0.83333333  0.33333333  0.40830017
   0.33333333  0.33333333  0.40830017
   0.58333333  0.58333333  0.40830017
   0.16848755  0.41435074  0.50827149
   0.24467140  0.24977086  0.61168275
   0.50284715  0.49834275  0.60790257
   0.17040780  0.66640778  0.50779686
   0.24678444  0.50061598  0.61163514
   0.33333333  0.83333333  0.40830017
   0.50301211  0.74987471  0.60729229
   0.66724331  0.91694228  0.50753082
   0.41617982  0.16572800  0.50813553
   0.50164786 -0.00259871  0.61180895
   0.58333333  0.33333333  0.40830017
   0.58333333  0.83333333  0.40830017
   0.50279625  0.24833402  0.60932675
   0.83333333  0.08333333  0.40830017
   0.24734102  0.00242268  0.60085530
   0.16913926  0.16446994  0.50423053
   0.33333333  0.08333333  0.40830017
  -0.00194752  0.75057623  0.60434147
   0.08333333  0.33333333  0.40830017
  -0.00273675  0.50190282  0.60586765
   0.08333333  0.58333333  0.40830017
  -0.00067103  0.25002337  0.60473453
   0.33333333  0.58333333  0.40830017
   0.91840716  0.91807619  0.50723630
   0.16887110  0.91688378  0.50690321
   0.83333333  0.83333333  0.40830017
   0.41841536  0.41669803  0.50782324
   0.08333333  0.08333333  0.40830017
   0.66532135  0.16954998  0.50749470
   0.75432513  0.49756726  0.60427403
   0.41457328  0.91531398  0.50697371
   0.66268155  0.66796501  0.50857617
   0.75208821  0.24897162  0.60313936
   0.66413123  0.41810967  0.50814383
   0.75211664 -0.00281024  0.60299552
   0.41759088  0.66686714  0.50750756
   0.58333333  0.08333333  0.40830017
   0.75291316  0.74818997  0.60457027
Direct configuration=     9
   0.24877681  0.75212594  0.60948085
   0.91934394  0.16437190  0.50849963
  -0.00176263  0.00004034  0.61090493
   0.91603613  0.41648155  0.50866295
   0.91634195  0.66876678  0.50727975
   0.83333333  0.58333333  0.40830017
   0.08333333  0.83333333  0.40830017
   0.83333333  0.33333333  0.40830017
   0.33333333  0.33333333  0.40830017
   0.58333333  0.58333333  0.40830017
   0.16694174  0.41573878  0.50838089
   0.24532372  0.24929337  0.61202559
   0.50289528  0.49834751  0.60814905
   0.16972898  0.66633081  0.50769906
   0.24733308  0.50071726  0.61212953
   0.33333333  0.83333333  0.40830017
   0.50240026  0.74950735  0.60774015
   0.66743513  0.91757268  0.50748857
   0.41728441  0.16463894  0.50816291
   0.50111644 -0.00217050  0.61209250
   0.58333333  0.33333333  0.40830017
   0.58333333  0.83333333  0.40830017
   0.50312729  0.24827666  0.60969545
   0.83333333  0.08333333  0.40830017
   0.24787747  0.00215678  0.60148023
   0.16900664  0.16426314  0.50480796
   0.33333333  0.08333333  0.40830017
  -0.00151882  0.75000310  0.60479692
   0.08333333  0.33333333  0.40830017
  -0.00227697  0.50143035  0.60615081
   0.08333333  0.58333333  0.40830017
  -0.00021531  0.24979718  0.60504624
   0.33333333  0.58333333  0.40830017
   0.91761878  0.91811645  0.50757372
   0.16874037  0.91686534  0.50721651
   0.83333333  0.83333333  0.40830017
   0.41892061  0.41684578  0.50821771
   0.08333333  0.08333333  0.40830017
   0.66592843  0.16848997  0.50777550
   0.75312887  0.49803906  0.60471909
   0.41472268  0.91619371  0.50720115
   0.66396757  0.66707999  0.50886766
   0.75088218  0.24899614  0.60372171
   0.66366758  0.41837217  0.50850758
   0.75153029 -0.00178064  0.60345451
   0.41788220  0.66622210  0.50793473
   0.58333333  0.08333333  0.40830017
   0.75273571  0.74822060  0.60494109
Direct configuration=    10
   0.24891757  0.75202680  0.60953474
   0.91931147  0.16435192  0.50853121
  -0.00176692  0.00011634  0.61092583
   0.91610776  0.41662795  0.50867907
   0.91637330  0.66867643  0.50728300
   0.83333333  0.58333333  0.40830017
   0.08333333  0.83333333  0.40830017
   0.83333333  0.33333333  0.40830017
   0.33333333  0.33333333  0.40830017
   0.58333333  0.58333333  0.40830017
   0.16673984  0.41592008  0.50839518
   0.24540892  0.24923101  0.61207037
   0.50290157  0.49834813  0.60818124
   0.16964032  0.66632076  0.50768629
   0.24740474  0.50073049  0.61219411
   0.33333333  0.83333333  0.40830017
   0.50232034  0.74945937  0.60779865
   0.66746018  0.91765502  0.50748305
   0.41742868  0.16449670  0.50816648
   0.50104703 -0.00211457  0.61212953
   0.58333333  0.33333333  0.40830017
   0.58333333  0.83333333  0.40830017
   0.50317053  0.24826917  0.60974361
   0.83333333  0.08333333  0.40830017
   0.24794754  0.00212204  0.60156185
   0.16898932  0.16423613  0.50488338
   0.33333333  0.08333333  0.40830017
  -0.00146282  0.74992824  0.60485641
   0.08333333  0.33333333  0.40830017
  -0.00221692  0.50136864  0.60618779
   0.08333333  0.58333333  0.40830017
  -0.00015578  0.24976764  0.60508695
   0.33333333  0.58333333  0.40830017
   0.91751580  0.91812171  0.50761779
   0.16872330  0.91686294  0.50725743
   0.83333333  0.83333333  0.40830017
   0.41898660  0.41686508  0.50826923
   0.08333333  0.08333333  0.40830017
   0.66600772  0.16835152  0.50781218
   0.75297262  0.49810069  0.60477722
   0.41474219  0.91630862  0.50723086
   0.66413554  0.66696439  0.50890573
   0.75072466  0.24899935  0.60379778
   0.66360702  0.41840645  0.50855509
   0.75145371 -0.00164616  0.60351446
   0.41792025  0.66613785  0.50799052
   0.58333333  0.08333333  0.40830017
   0.75271254  0.74822460  0.60498952
Direct configuration=    11
   0.24911829  0.75194136  0.60971642
   0.91881754  0.16460073  0.50876880
  -0.00181653  0.00049434  0.61079802
   0.91606434  0.41638176  0.50888244
   0.91604660  0.66888048  0.50737501
   0.83333333  0.58333333  0.40830017
   0.08333333  0.83333333  0.40830017
   0.83333333  0.33333333  0.40830017
   0.33333333  0.33333333  0.40830017
   0.58333333  0.58333333  0.40830017
   0.16713289  0.41557019  0.50830480
   0.24609745  0.24920677  0.61219189
   0.50288468  0.49860206  0.60839143
   0.16953741  0.66680394  0.50747966
   0.24765660  0.50049202  0.61249209
   0.33333333  0.83333333  0.40830017
   0.50214681  0.74931970  0.60802167
   0.66723816  0.91760599  0.50740471
   0.41759680  0.16455355  0.50797437
   0.50113884 -0.00199469  0.61219755
   0.58333333  0.33333333  0.40830017
   0.58333333  0.83333333  0.40830017
   0.50284833  0.24793052  0.60999193
   0.83333333  0.08333333  0.40830017
   0.24819243  0.00169028  0.60209655
   0.16886931  0.16438461  0.50528540
   0.33333333  0.08333333  0.40830017
  -0.00148178  0.74983250  0.60511195
   0.08333333  0.33333333  0.40830017
  -0.00219471  0.50117987  0.60635761
   0.08333333  0.58333333  0.40830017
  -0.00062178  0.24993657  0.60515001
   0.33333333  0.58333333  0.40830017
   0.91756982  0.91821917  0.50784848
   0.16858124  0.91659763  0.50744441
   0.83333333  0.83333333  0.40830017
   0.41905650  0.41669901  0.50835506
   0.08333333  0.08333333  0.40830017
   0.66639111  0.16820610  0.50785958
   0.75285621  0.49798936  0.60497126
   0.41529501  0.91624468  0.50727979
   0.66429970  0.66702473  0.50909232
   0.75102738  0.24879168  0.60413967
   0.66406448  0.41812223  0.50873926
   0.75133630 -0.00152221  0.60393305
   0.41787195  0.66619660  0.50813743
   0.58333333  0.08333333  0.40830017
   0.75272287  0.74826454  0.60513321
Direct configuration=    12
   0.24920171  0.75190585  0.60979193
   0.91861228  0.16470414  0.50886754
  -0.00183715  0.00065142  0.61074490
   0.91604629  0.41627944  0.50896696
   0.91591083  0.66896528  0.50741325
   0.83333333  0.58333333  0.40830017
   0.08333333  0.83333333  0.40830017
   0.83333333  0.33333333  0.40830017
   0.33333333  0.33333333  0.40830017
   0.58333333  0.58333333  0.40830017
   0.16729624  0.41542478  0.50826724
   0.24638360  0.24919670  0.61224239
   0.50287766  0.49870759  0.60847878
   0.16949465  0.66700474  0.50739379
   0.24776127  0.50039292  0.61261592
   0.33333333  0.83333333  0.40830017
   0.50207469  0.74926165  0.60811436
   0.66714589  0.91758562  0.50737215
   0.41766667  0.16457717  0.50789454
   0.50117699 -0.00194487  0.61222582
   0.58333333  0.33333333  0.40830017
   0.58333333  0.83333333  0.40830017
   0.50271443  0.24778979  0.61009513
   0.83333333  0.08333333  0.40830017
   0.24829420  0.00151084  0.60231876
   0.16881944  0.16444631  0.50545247
   0.33333333  0.08333333  0.40830017
  -0.00148966  0.74979271  0.60521815
   0.08333333  0.33333333  0.40830017
  -0.00218548  0.50110143  0.60642818
   0.08333333  0.58333333  0.40830017
  -0.00081543  0.25000678  0.60517622
   0.33333333  0.58333333  0.40830017
   0.91759227  0.91825967  0.50794435
   0.16852221  0.91648737  0.50752211
   0.83333333  0.83333333  0.40830017
   0.41908555  0.41663000  0.50839073
   0.08333333  0.08333333  0.40830017
   0.66655044  0.16814566  0.50787928
   0.75280783  0.49794310  0.60505190
   0.41552476  0.91621811  0.50730013
   0.66436792  0.66704981  0.50916987
   0.75115319  0.24870538  0.60428175
   0.66425459  0.41800412  0.50881580
   0.75128750 -0.00147070  0.60410701
   0.41785188  0.66622102  0.50819848
   0.58333333  0.08333333  0.40830017
   0.75272717  0.74828114  0.60519293
Direct configuration=    13
   0.24867821  0.75198330  0.60992226
   0.91863889  0.16469000  0.50894222
  -0.00161111  0.00036780  0.61061161
   0.91607118  0.41601820  0.50911685
   0.91605137  0.66899906  0.50757361
   0.83333333  0.58333333  0.40830017
   0.08333333  0.83333333  0.40830017
   0.83333333  0.33333333  0.40830017
   0.33333333  0.33333333  0.40830017
   0.58333333  0.58333333  0.40830017
   0.16763768  0.41530997  0.50822231
   0.24625449  0.24916652  0.61228421
   0.50298675  0.49828828  0.60867121
   0.16959786  0.66688198  0.50733523
   0.24764150  0.50044577  0.61278419
   0.33333333  0.83333333  0.40830017
   0.50236124  0.74944047  0.60827981
   0.66722512  0.91754459  0.50743226
   0.41760221  0.16487777  0.50768380
   0.50152027 -0.00243489  0.61223729
   0.58333333  0.33333333  0.40830017
   0.58333333  0.83333333  0.40830017
   0.50279096  0.24781292  0.61025298
   0.83333333  0.08333333  0.40830017
   0.24840778  0.00143775  0.60271319
   0.16883397  0.16427096  0.50578007
   0.33333333  0.08333333  0.40830017
  -0.00145570  0.74982482  0.60534702
   0.08333333  0.33333333  0.40830017
  -0.00215137  0.50099655  0.60650769
   0.08333333  0.58333333  0.40830017
  -0.00080442  0.25018781  0.60528976
   0.33333333  0.58333333  0.40830017
   0.91760064  0.91828510  0.50816153
   0.16861105  0.91673744  0.50769122
   0.83333333  0.83333333  0.40830017
   0.41913816  0.41658508  0.50845504
   0.08333333  0.08333333  0.40830017
   0.66654485  0.16828140  0.50796585
   0.75303445  0.49784425  0.60522724
   0.41548223  0.91599344  0.50738994
   0.66407890  0.66713953  0.50933041
   0.75110056  0.24876080  0.60460531
   0.66435180  0.41792622  0.50894682
   0.75143063 -0.00177961  0.60441674
   0.41803262  0.66631922  0.50823012
   0.58333333  0.08333333  0.40830017
   0.75272295  0.74832752  0.60527643
Direct configuration=    14
   0.24849828  0.75200992  0.60996705
   0.91864804  0.16468514  0.50896788
  -0.00153341  0.00027031  0.61056580
   0.91607973  0.41592840  0.50916836
   0.91609968  0.66901068  0.50762873
   0.83333333  0.58333333  0.40830017
   0.08333333  0.83333333  0.40830017
   0.83333333  0.33333333  0.40830017
   0.33333333  0.33333333  0.40830017
   0.58333333  0.58333333  0.40830017
   0.16775504  0.41527050  0.50820686
   0.24621011  0.24915614  0.61229858
   0.50302425  0.49814416  0.60873734
   0.16963334  0.66683979  0.50731510
   0.24760034  0.50046393  0.61284203
   0.33333333  0.83333333  0.40830017
   0.50245973  0.74950194  0.60833669
   0.66725235  0.91753049  0.50745293
   0.41758006  0.16498109  0.50761137
   0.50163826 -0.00260331  0.61224123
   0.58333333  0.33333333  0.40830017
   0.58333333  0.83333333  0.40830017
   0.50281727  0.24782087  0.61030724
   0.83333333  0.08333333  0.40830017
   0.24844682  0.00141263  0.60284876
   0.16883897  0.16421069  0.50589267
   0.33333333  0.08333333  0.40830017
  -0.00144403  0.74983585  0.60539132
   0.08333333  0.33333333  0.40830017
  -0.00213964  0.50096050  0.60653502
   0.08333333  0.58333333  0.40830017
  -0.00080063  0.25025004  0.60532878
   0.33333333  0.58333333  0.40830017
   0.91760351  0.91829384  0.50823618
   0.16864158  0.91682340  0.50774935
   0.83333333  0.83333333  0.40830017
   0.41915624  0.41656964  0.50847715
   0.08333333  0.08333333  0.40830017
   0.66654293  0.16832806  0.50799560
   0.75311234  0.49781027  0.60528751
   0.41546761  0.91591622  0.50742080
   0.66397957  0.66717037  0.50938560
   0.75108248  0.24877985  0.60471652
   0.66438521  0.41789945  0.50899186
   0.75147983 -0.00188579  0.60452319
   0.41809474  0.66635298  0.50824099
   0.58333333  0.08333333  0.40830017
   0.75272150  0.74834347  0.60530513
Direct configuration=    15
   0.24859496  0.75177411  0.61002317
   0.91877128  0.16455086  0.50897782
  -0.00153932  0.00021471  0.61049034
   0.91619889  0.41608190  0.50919825
   0.91636384  0.66870866  0.50775900
   0.83333333  0.58333333  0.40830017
   0.08333333  0.83333333  0.40830017
   0.83333333  0.33333333  0.40830017
   0.33333333  0.33333333  0.40830017
   0.58333333  0.58333333  0.40830017
   0.16752491  0.41542132  0.50822859
   0.24616294  0.24897582  0.61229047
   0.50292703  0.49821955  0.60887693
   0.16988934  0.66667682  0.50737099
   0.24739312  0.50051711  0.61293272
   0.33333333  0.83333333  0.40830017
   0.50249955  0.74919721  0.60848516
   0.66732398  0.91768147  0.50757208
   0.41766659  0.16480798  0.50751650
   0.50171346 -0.00254462  0.61221875
   0.58333333  0.33333333  0.40830017
   0.58333333  0.83333333  0.40830017
   0.50297783  0.24760159  0.61038625
   0.83333333  0.08333333  0.40830017
   0.24851499  0.00141961  0.60316063
   0.16907881  0.16399526  0.50610232
   0.33333333  0.08333333  0.40830017
  -0.00143940  0.74970104  0.60547720
   0.08333333  0.33333333  0.40830017
  -0.00208538  0.50103408  0.60655230
   0.08333333  0.58333333  0.40830017
  -0.00061696  0.25014233  0.60552610
   0.33333333  0.58333333  0.40830017
   0.91761863  0.91825559  0.50837041
   0.16885550  0.91698397  0.50787766
   0.83333333  0.83333333  0.40830017
   0.41928381  0.41677433  0.50853781
   0.08333333  0.08333333  0.40830017
   0.66646308  0.16840725  0.50817060
   0.75323365  0.49779846  0.60546281
   0.41514597  0.91603319  0.50752128
   0.66397105  0.66707202  0.50949178
   0.75118072  0.24865746  0.60495209
   0.66424416  0.41798237  0.50911428
   0.75160917 -0.00205705  0.60471024
   0.41817874  0.66631273  0.50831412
   0.58333333  0.08333333  0.40830017
   0.75302614  0.74814334  0.60537738
Direct configuration=    16
   0.24860931  0.75173911  0.61003150
   0.91878957  0.16453093  0.50897929
  -0.00154020  0.00020646  0.61047914
   0.91621657  0.41610468  0.50920269
   0.91640305  0.66866384  0.50777833
   0.83333333  0.58333333  0.40830017
   0.08333333  0.83333333  0.40830017
   0.83333333  0.33333333  0.40830017
   0.33333333  0.33333333  0.40830017
   0.58333333  0.58333333  0.40830017
   0.16749075  0.41544370  0.50823181
   0.24615594  0.24894906  0.61228927
   0.50291260  0.49823073  0.60889765
   0.16992732  0.66665264  0.50737928
   0.24736237  0.50052500  0.61294618
   0.33333333  0.83333333  0.40830017
   0.50250546  0.74915199  0.60850719
   0.66733461  0.91770388  0.50758976
   0.41767943  0.16478229  0.50750242
   0.50172462 -0.00253591  0.61221542
   0.58333333  0.33333333  0.40830017
   0.58333333  0.83333333  0.40830017
   0.50300165  0.24756905  0.61039798
   0.83333333  0.08333333  0.40830017
   0.24852511  0.00142065  0.60320691
   0.16911440  0.16396329  0.50613344
   0.33333333  0.08333333  0.40830017
  -0.00143872  0.74968103  0.60548995
   0.08333333  0.33333333  0.40830017
  -0.00207732  0.50104500  0.60655487
   0.08333333  0.58333333  0.40830017
  -0.00058971  0.25012635  0.60555538
   0.33333333  0.58333333  0.40830017
   0.91762087  0.91824991  0.50839033
   0.16888724  0.91700780  0.50789670
   0.83333333  0.83333333  0.40830017
   0.41930275  0.41680470  0.50854681
   0.08333333  0.08333333  0.40830017
   0.66645123  0.16841900  0.50819657
   0.75325165  0.49779671  0.60548883
   0.41509824  0.91605055  0.50753619
   0.66396979  0.66705742  0.50950753
   0.75119530  0.24863930  0.60498705
   0.66422322  0.41799467  0.50913245
   0.75162836 -0.00208247  0.60473800
   0.41819120  0.66630675  0.50832497
   0.58333333  0.08333333  0.40830017
   0.75307135  0.74811364  0.60538810
Direct configuration=    17
   0.24885668  0.75159983  0.61005043
   0.91874918  0.16470216  0.50899351
  -0.00153479  0.00021148  0.61048223
   0.91619238  0.41605327  0.50918989