<?xml version="1.0" encoding="ISO-8859-1"?>
<modeling>
 <generator>
  <i name="program" type="string">vasp </i>
  <i name="version" type="string">5.4.1  </i>
  <i name="subversion" type="string">24Jun15 (build Mar 14 2019 10:18:33) complex                          parallel </i>
  <i name="platform" type="string">INTEL-19.0.2+OPENMPI-3.1.3 </i>
  <i name="date" type="string">2023 01 23 </i>
  <i name="time" type="string">11:37:38 </i>
 </generator>
 <incar>
  <i type="int" name="ISTART">     0</i>
  <i type="string" name="PREC">normal</i>
  <i type="string" name="ALGO"> Fast</i>
  <i type="int" name="NELM">   500</i>
  <i type="int" name="IBRION">     2</i>
  <i type="int" name="NFREE">     2</i>
  <i name="EDIFF">      0.00000100</i>
  <i name="EDIFFG">     -0.02000000</i>
  <i type="int" name="NSW">   500</i>
  <i type="int" name="ISIF">     0</i>
  <i type="int" name="ISYM">     2</i>
  <i name="ENCUT">    400.00000000</i>
  <i name="POTIM">      0.35000000</i>
  <i type="string" name="LREAL"> Auto</i>
  <i type="logical" name="LPLANE"> T  </i>
  <i type="int" name="ISMEAR">     0</i>
  <i name="SIGMA">      0.10000000</i>
  <i type="int" name="NWRITE">     1</i>
  <i type="logical" name="LWAVE"> F  </i>
  <i type="logical" name="LCHARG"> F  </i>
  <i type="logical" name="LVTOT"> F  </i>
  <i type="logical" name="LORBIT"> F  </i>
  <i type="logical" name="LAECHG"> F  </i>
  <v type="int" name="KPOINT_BSE">    -1     0     0     0</v>
  <i type="int" name="NELM">   500</i>
  <i type="string" name="GGA"> PE          ! optPBE-vdW XC-functional</i>
  <i type="int" name="VOSKOWN">     1</i>
  <i type="logical" name="LDIPOL"> T  </i>
  <i type="logical" name="LMONO"> F  </i>
  <i type="int" name="IDIPOL">     3</i>
  <v name="DIPOL">      0.00000000      0.00000000      0.50000000</v>
 </incar>
 <kpoints>
  <generation param="Monkhorst-Pack">
   <v type="int" name="divisions">       2        2        1 </v>
   <v name="usershift">      0.00000000       0.00000000       0.00000000 </v>
   <v name="genvec1">      0.50000000       0.00000000       0.00000000 </v>
   <v name="genvec2">      0.00000000       0.50000000       0.00000000 </v>
   <v name="genvec3">      0.00000000       0.00000000       1.00000000 </v>
   <v name="shift">      0.50000000       0.50000000       0.00000000 </v>
  </generation>
  <varray name="kpointlist" >
   <v>       0.25000000       0.25000000       0.00000000 </v>
   <v>       0.00000000       0.25000000       0.00000000 </v>
   <v>      -0.25000000       0.00000000       0.00000000 </v>
   <v>      -0.25000000       0.25000000       0.00000000 </v>
   <v>       0.50000000      -0.25000000       0.00000000 </v>
   <v>      -0.25000000       0.50000000       0.00000000 </v>
  </varray>
  <varray name="weights" >
   <v>       0.16666667 </v>
   <v>       0.16666667 </v>
   <v>       0.16666667 </v>
   <v>       0.16666667 </v>
   <v>       0.16666667 </v>
   <v>       0.16666667 </v>
  </varray>
 </kpoints>
 <parameters>
  <separator name="general" >
   <i type="string" name="SYSTEM">unknown system</i>
   <i type="logical" name="LCOMPAT"> F  </i>
  </separator>
  <separator name="electronic" >
   <i type="string" name="PREC">normal</i>
   <i name="ENMAX">    400.00000000</i>
   <i name="ENAUG">    605.39200000</i>
   <i name="EDIFF">      0.00000100</i>
   <i type="int" name="IALGO">    68</i>
   <i type="int" name="IWAVPR">    11</i>
   <i type="int" name="NBANDS">   336</i>
   <i name="NELECT">    552.00000000</i>
   <i type="int" name="TURBO">     0</i>
   <i type="int" name="IRESTART">     0</i>
   <i type="int" name="NREBOOT">     0</i>
   <i type="int" name="NMIN">     0</i>
   <i name="EREF">      0.00000000</i>
   <separator name="electronic smearing" >
    <i type="int" name="ISMEAR">     0</i>
    <i name="SIGMA">      0.10000000</i>
    <i name="KSPACING">      0.50000000</i>
    <i type="logical" name="KGAMMA"> T  </i>
   </separator>
   <separator name="electronic projectors" >
    <i type="logical" name="LREAL"> T  </i>
    <v name="ROPT">     -0.00050000     -0.00050000     -0.00050000</v>
    <i type="int" name="LMAXPAW">  -100</i>
    <i type="int" name="LMAXMIX">     2</i>
    <i type="logical" name="NLSPLINE"> F  </i>
   </separator>
   <separator name="electronic startup" >
    <i type="int" name="ISTART">     0</i>
    <i type="int" name="ICHARG">     2</i>
    <i type="int" name="INIWAV">     1</i>
   </separator>
   <separator name="electronic spin" >
    <i type="int" name="ISPIN">     1</i>
    <i type="logical" name="LNONCOLLINEAR"> F  </i>
    <v name="MAGMOM">      1.00000000      1.00000000      1.00000000      1.00000000      1.00000000      1.00000000      1.00000000      1.00000000      1.00000000      1.00000000      1.00000000      1.00000000      1.00000000      1.00000000      1.00000000      1.00000000      1.00000000      1.00000000      1.00000000      1.00000000
      1.00000000      1.00000000      1.00000000      1.00000000      1.00000000      1.00000000      1.00000000      1.00000000      1.00000000      1.00000000      1.00000000      1.00000000      1.00000000      1.00000000      1.00000000      1.00000000      1.00000000      1.00000000      1.00000000      1.00000000
      1.00000000      1.00000000      1.00000000      1.00000000      1.00000000      1.00000000      1.00000000      1.00000000      1.00000000      1.00000000      1.00000000      1.00000000      1.00000000      1.00000000      1.00000000      1.00000000</v>
    <i name="NUPDOWN">     -1.00000000</i>
    <i type="logical" name="LSORBIT"> F  </i>
    <v name="SAXIS">      0.00000000      0.00000000      1.00000000</v>
    <i type="logical" name="LSPIRAL"> F  </i>
    <v name="QSPIRAL">      0.00000000      0.00000000      0.00000000</v>
    <i type="logical" name="LZEROZ"> F  </i>
   </separator>
   <separator name="electronic exchange-correlation" >
    <i type="logical" name="LASPH"> F  </i>
    <i type="logical" name="LMETAGGA"> F  </i>
   </separator>
   <separator name="electronic convergence" >
    <i type="int" name="NELM">   500</i>
    <i type="int" name="NELMDL">    -5</i>
    <i type="int" name="NELMIN">     2</i>
    <i name="ENINI">    400.00000000</i>
    <separator name="electronic convergence detail" >
     <i type="logical" name="LDIAG"> T  </i>
     <i type="logical" name="LSUBROT"> F  </i>
     <i name="WEIMIN">      0.00100000</i>
     <i name="EBREAK">      0.00000000</i>
     <i name="DEPER">      0.30000000</i>
     <i type="int" name="NRMM">     4</i>
     <i name="TIME">      0.40000000</i>
    </separator>
   </separator>
   <separator name="electronic mixer" >
    <i name="AMIX">      0.40000000</i>
    <i name="BMIX">      1.00000000</i>
    <i name="AMIN">      0.10000000</i>
    <i name="AMIX_MAG">      1.60000000</i>
    <i name="BMIX_MAG">      1.00000000</i>
    <separator name="electronic mixer details" >
     <i type="int" name="IMIX">     4</i>
     <i type="logical" name="MIXFIRST"> F  </i>
     <i type="int" name="MAXMIX">   -45</i>
     <i name="WC">    100.00000000</i>
     <i type="int" name="INIMIX">     1</i>
     <i type="int" name="MIXPRE">     1</i>
     <i type="int" name="MREMOVE">     5</i>
    </separator>
   </separator>
   <separator name="electronic dipolcorrection" >
    <i type="logical" name="LDIPOL"> T  </i>
    <i type="logical" name="LMONO"> F  </i>
    <i type="int" name="IDIPOL">     3</i>
    <i name="EPSILON">      1.00000000</i>
    <v name="DIPOL">      0.00000000      0.00000000      0.50000000</v>
    <i name="EFIELD">      0.00000000</i>
   </separator>
  </separator>
  <separator name="grids" >
   <i type="int" name="NGX">    54</i>
   <i type="int" name="NGY">    54</i>
   <i type="int" name="NGZ">   128</i>
   <i type="int" name="NGXF">   108</i>
   <i type="int" name="NGYF">   108</i>
   <i type="int" name="NGZF">   256</i>
   <i type="logical" name="ADDGRID"> F  </i>
  </separator>
  <separator name="ionic" >
   <i type="int" name="NSW">   500</i>
   <i type="int" name="IBRION">     2</i>
   <i type="int" name="ISIF">     0</i>
   <i name="PSTRESS">      0.00000000</i>
   <i name="EDIFFG">     -0.02000000</i>
   <i type="int" name="NFREE">     2</i>
   <i name="POTIM">      0.35000000</i>
   <i name="SMASS">     -3.00000000</i>
   <i name="SCALEE">      1.00000000</i>
  </separator>
  <separator name="ionic md" >
   <i name="TEBEG">      0.00010000</i>
   <i name="TEEND">      0.00010000</i>
   <i type="int" name="NBLOCK">     1</i>
   <i type="int" name="KBLOCK">   500</i>
   <i type="int" name="NPACO">   256</i>
   <i name="APACO">     16.00000000</i>
  </separator>
  <separator name="symmetry" >
   <i type="int" name="ISYM">     2</i>
   <i name="SYMPREC">      0.00001000</i>
  </separator>
  <separator name="dos" >
   <i type="logical" name="LORBIT"> F  </i>
   <v name="RWIGS">     -1.00000000     -1.00000000     -1.00000000</v>
   <i type="int" name="NEDOS">   301</i>
   <i name="EMIN">     10.00000000</i>
   <i name="EMAX">    -10.00000000</i>
   <i name="EFERMI">      0.00000000</i>
  </separator>
  <separator name="writing" >
   <i type="int" name="NWRITE">     1</i>
   <i type="logical" name="LWAVE"> F  </i>
   <i type="logical" name="LCHARG"> F  </i>
   <i type="logical" name="LPARD"> F  </i>
   <i type="logical" name="LVTOT"> F  </i>
   <i type="logical" name="LVHAR"> F  </i>
   <i type="logical" name="LELF"> F  </i>
   <i type="logical" name="LOPTICS"> F  </i>
   <v name="STM">      0.00000000      0.00000000      0.00000000      0.00000000      0.00000000      0.00000000      0.00000000</v>
  </separator>
  <separator name="performance" >
   <i type="int" name="NPAR">     6</i>
   <i type="int" name="NSIM">     4</i>
   <i type="int" name="NBLK">    -1</i>
   <i type="logical" name="LPLANE"> T  </i>
   <i type="logical" name="LSCALAPACK"> T  </i>
   <i type="logical" name="LSCAAWARE"> F  </i>
   <i type="logical" name="LSCALU"> F  </i>
   <i type="logical" name="LASYNC"> F  </i>
   <i type="logical" name="LORBITALREAL"> F  </i>
  </separator>
  <separator name="miscellaneous" >
   <i type="int" name="IDIOT">     3</i>
   <i type="logical" name="LMUSIC"> F  </i>
   <v name="POMASS">    196.96600000     16.00000000    106.42000000</v>
   <v name="DARWINR">      0.00000000      0.00000000      0.00000000</v>
   <v name="DARWINV">      1.00000000      1.00000000      1.00000000</v>
   <i type="logical" name="LCORR"> T  </i>
  </separator>
  <i type="logical" name="GGA_COMPAT"> T  </i>
  <i type="logical" name="LBERRY"> F  </i>
  <i type="int" name="ICORELEVEL">     0</i>
  <i type="logical" name="LDAU"> F  </i>
  <i type="int" name="I_CONSTRAINED_M">     0</i>
  <separator name="electronic exchange-correlation" >
   <i type="string" name="GGA">PE</i>
   <i type="int" name="VOSKOWN">     1</i>
   <i type="logical" name="LHFCALC"> F  </i>
   <i type="string" name="PRECFOCK"></i>
   <i type="logical" name="LSYMGRAD"> F  </i>
   <i type="logical" name="LHFONE"> F  </i>
   <i type="logical" name="LRHFCALC"> F  </i>
   <i type="logical" name="LTHOMAS"> F  </i>
   <i type="logical" name="LMODELHF"> F  </i>
   <i name="ENCUT4O">     -1.00000000</i>
   <i type="int" name="EXXOEP">     0</i>
   <i type="int" name="FOURORBIT">     0</i>
   <i name="AEXX">      0.00000000</i>
   <i name="HFALPHA">      0.00000000</i>
   <i name="MCALPHA">      0.00000000</i>
   <i name="ALDAX">      1.00000000</i>
   <i name="AGGAX">      1.00000000</i>
   <i name="ALDAC">      1.00000000</i>
   <i name="AGGAC">      1.00000000</i>
   <i type="int" name="NKREDX">     1</i>
   <i type="int" name="NKREDY">     1</i>
   <i type="int" name="NKREDZ">     1</i>
   <i type="logical" name="SHIFTRED"> F  </i>
   <i type="logical" name="ODDONLY"> F  </i>
   <i type="logical" name="EVENONLY"> F  </i>
   <i type="int" name="LMAXFOCK">     0</i>
   <i type="int" name="NMAXFOCKAE">     0</i>
   <i type="logical" name="LFOCKAEDFT"> F  </i>
   <i name="HFSCREEN">      0.00000000</i>
   <i name="HFSCREENC">      0.00000000</i>
   <i type="int" name="NBANDSGWLOW">     0</i>
  </separator>
  <separator name="vdW DFT" >
   <i type="logical" name="LUSE_VDW"> F  </i>
   <i name="Zab_VDW">     -0.84910000</i>
   <i name="PARAM1">      0.12340000</i>
   <i name="PARAM2">      1.00000000</i>
   <i name="PARAM3">      0.00000000</i>
  </separator>
  <separator name="model GW" >
   <i type="int" name="MODEL_GW">     0</i>
   <i name="MODEL_EPS0">     29.42037089</i>
   <i name="MODEL_ALPHA">      1.00000000</i>
  </separator>
  <separator name="linear response parameters" >
   <i type="logical" name="LEPSILON"> F  </i>
   <i type="logical" name="LRPA"> F  </i>
   <i type="logical" name="LNABLA"> F  </i>
   <i type="logical" name="LVEL"> F  </i>
   <i type="int" name="KINTER">     0</i>
   <i name="CSHIFT">      0.10000000</i>
   <i name="OMEGAMAX">     -1.00000000</i>
   <i name="DEG_THRESHOLD">      0.00200000</i>
  </separator>
  <separator name="orbital magnetization" >
   <i type="logical" name="NUCIND"> F  </i>
   <v name="MAGPOS">      0.00000000      0.00000000      0.00000000</v>
   <i type="logical" name="LNICSALL"> T  </i>
   <i type="logical" name="ORBITALMAG"> F  </i>
   <i type="logical" name="LMAGBLOCH"> F  </i>
   <i type="logical" name="LCHIMAG"> F  </i>
   <i type="logical" name="LGAUGE"> T  </i>
   <i type="int" name="MAGATOM">     0</i>
   <v name="MAGDIPOL">      0.00000000      0.00000000      0.00000000</v>
   <v name="AVECCONST">      0.00000000      0.00000000      0.00000000</v>
  </separator>
  <separator name="response functions" >
   <i type="logical" name="LADDER"> F  </i>
   <i type="logical" name="LFXC"> F  </i>
   <i type="logical" name="LHARTREE"> T  </i>
   <i type="int" name="IBSE">     0</i>
   <v type="int" name="KPOINT">    -1     0     0     0</v>
   <i type="logical" name="LTCTE"> F  </i>
   <i type="logical" name="LTETE"> F  </i>
   <i type="logical" name="LTRIPLET"> F  </i>
   <i type="logical" name="LFXCEPS"> F  </i>
   <i type="logical" name="LFXHEG"> F  </i>
   <i type="int" name="NATURALO">     0</i>
   <i type="logical" name="L2ORDER"> F  </i>
   <i type="logical" name="LUSEW"> F  </i>
   <i name="ENCUTGW">     -2.00000000</i>
   <i name="ENCUTGWSOFT">     -2.00000000</i>
   <i name="ENCUTLF">     -1.00000000</i>
   <i type="int" name="LMAXMP2">    -1</i>
   <i name="SCISSOR">      0.00000000</i>
   <i type="int" name="NOMEGA">     0</i>
   <i type="int" name="NOMEGAR">     0</i>
   <i type="int" name="NBANDSGW">    -1</i>
   <i type="int" name="NBANDSO">    -1</i>
   <i type="int" name="NBANDSV">    -1</i>
   <i type="int" name="NELM">   500</i>
   <i type="int" name="NELMHF">     1</i>
   <i type="int" name="DIM">     3</i>
   <i type="int" name="ANTIRES">     0</i>
   <i name="OMEGAMAX">    -30.00000000</i>
   <i name="OMEGAMIN">    -30.00000000</i>
   <i name="OMEGATL">   -200.00000000</i>
   <i type="int" name="OMEGAGRID">     0</i>
   <i name="CSHIFT">     -0.10000000</i>
   <i type="logical" name="SELFENERGY"> F  </i>
   <i type="logical" name="LSPECTRAL"> F  </i>
   <i type="logical" name="LSPECTRALGW"> F  </i>
   <i type="logical" name="LSINGLES"> F  </i>
   <i type="logical" name="LFERMIGW"> F  </i>
   <i type="logical" name="ODDONLYGW"> F  </i>
   <i type="logical" name="EVENONLYGW"> F  </i>
   <i type="int" name="NKREDLFX">     1</i>
   <i type="int" name="NKREDLFY">     1</i>
   <i type="int" name="NKREDLFZ">     1</i>
   <i type="int" name="MAXMEM">  1800</i>
   <i type="int" name="TELESCOPE">     0</i>
   <i type="int" name="TAUPAR">     1</i>
   <i type="int" name="OMEGAPAR">    -1</i>
   <i name="LAMBDA">      1.00000000</i>
  </separator>
  <separator name="External order field" >
   <i name="OFIELD_KAPPA">      0.00000000</i>
   <v name="OFIELD_K">      0.00000000      0.00000000      0.00000000</v>
   <i name="OFIELD_Q6_NEAR">      0.00000000</i>
   <i name="OFIELD_Q6_FAR">      0.00000000</i>
   <i name="OFIELD_A">      0.00000000</i>
  </separator>
 </parameters>
 <atominfo>
  <atoms>      56 </atoms>
  <types>       3 </types>
  <array name="atoms" >
   <dimension dim="1">ion</dimension>
   <field type="string">element</field>
   <field type="int">atomtype</field>
   <set>
    <rc><c>Au</c><c>   1</c></rc>
    <rc><c>Au</c><c>   1</c></rc>
    <rc><c>Au</c><c>   1</c></rc>
    <rc><c>Au</c><c>   1</c></rc>
    <rc><c>Au</c><c>   1</c></rc>
    <rc><c>Au</c><c>   1</c></rc>
    <rc><c>Au</c><c>   1</c></rc>
    <rc><c>Au</c><c>   1</c></rc>
    <rc><c>Au</c><c>   1</c></rc>
    <rc><c>Au</c><c>   1</c></rc>
    <rc><c>Au</c><c>   1</c></rc>
    <rc><c>Au</c><c>   1</c></rc>
    <rc><c>Au</c><c>   1</c></rc>
    <rc><c>Au</c><c>   1</c></rc>
    <rc><c>Au</c><c>   1</c></rc>
    <rc><c>Au</c><c>   1</c></rc>
    <rc><c>Au</c><c>   1</c></rc>
    <rc><c>Au</c><c>   1</c></rc>
    <rc><c>Au</c><c>   1</c></rc>
    <rc><c>Au</c><c>   1</c></rc>
    <rc><c>Au</c><c>   1</c></rc>
    <rc><c>Au</c><c>   1</c></rc>
    <rc><c>Au</c><c>   1</c></rc>
    <rc><c>Au</c><c>   1</c></rc>
    <rc><c>O </c><c>   2</c></rc>
    <rc><c>O </c><c>   2</c></rc>
    <rc><c>O </c><c>   2</c></rc>
    <rc><c>O </c><c>   2</c></rc>
    <rc><c>O </c><c>   2</c></rc>
    <rc><c>O </c><c>   2</c></rc>
    <rc><c>O </c><c>   2</c></rc>
    <rc><c>O </c><c>   2</c></rc>
    <rc><c>Pd</c><c>   3</c></rc>
    <rc><c>Pd</c><c>   3</c></rc>
    <rc><c>Pd</c><c>   3</c></rc>
    <rc><c>Pd</c><c>   3</c></rc>
    <rc><c>Pd</c><c>   3</c></rc>
    <rc><c>Pd</c><c>   3</c></rc>
    <rc><c>Pd</c><c>   3</c></rc>
    <rc><c>Pd</c><c>   3</c></rc>
    <rc><c>Pd</c><c>   3</c></rc>
    <rc><c>Pd</c><c>   3</c></rc>
    <rc><c>Pd</c><c>   3</c></rc>
    <rc><c>Pd</c><c>   3</c></rc>
    <rc><c>Pd</c><c>   3</c></rc>
    <rc><c>Pd</c><c>   3</c></rc>
    <rc><c>Pd</c><c>   3</c></rc>
    <rc><c>Pd</c><c>   3</c></rc>
    <rc><c>Pd</c><c>   3</c></rc>
    <rc><c>Pd</c><c>   3</c></rc>
    <rc><c>Pd</c><c>   3</c></rc>
    <rc><c>Pd</c><c>   3</c></rc>
    <rc><c>Pd</c><c>   3</c></rc>
    <rc><c>Pd</c><c>   3</c></rc>
    <rc><c>Pd</c><c>   3</c></rc>
    <rc><c>Pd</c><c>   3</c></rc>
   </set>
  </array>
  <array name="atomtypes" >
   <dimension dim="1">type</dimension>
   <field type="int">atomspertype</field>
   <field type="string">element</field>
   <field>mass</field>
   <field>valence</field>
   <field type="string">pseudopotential</field>
   <set>
    <rc><c>  24</c><c>Au</c><c>    196.96600000</c><c>     11.00000000</c><c>  PAW_PBE Au 04Oct2007                  </c></rc>
    <rc><c>   8</c><c>O </c><c>     16.00000000</c><c>      6.00000000</c><c>  PAW_PBE O 08Apr2002                   </c></rc>
    <rc><c>  24</c><c>Pd</c><c>    106.42000000</c><c>     10.00000000</c><c>  PAW_PBE Pd 04Jan2005                  </c></rc>
   </set>
  </array>
 </atominfo>
 <structure name="initialpos" >
  <crystal>
   <varray name="basis" >
    <v>      11.00258152       0.00000000       0.00000000 </v>
    <v>       5.50129076       9.52851510       0.00000000 </v>
    <v>       0.00000000       0.00000000      26.19178509 </v>
   </varray>
   <i name="volume">   2745.90128299 </i>
   <varray name="rec_basis" >
    <v>       0.09088776      -0.05247407       0.00000000 </v>
    <v>       0.00000000       0.10494815       0.00000000 </v>
    <v>       0.00000000       0.00000000       0.03817991 </v>
   </varray>
  </crystal>
  <varray name="positions" >
   <v>       0.08333333       0.08333333       0.38179910 </v>
   <v>       0.83333333       0.33333333       0.38179910 </v>
   <v>       0.67983244       0.91253395       0.47483256 </v>
   <v>       0.01231153       0.98136264       0.55834805 </v>
   <v>       0.74826500       0.50187205       0.55811556 </v>
   <v>       0.83333333       0.58333333       0.38179910 </v>
   <v>       0.92337836       0.41742324       0.46952292 </v>
   <v>       0.00752410       0.24092221       0.56589640 </v>
   <v>       0.76330549       0.27514480       0.59833970 </v>
   <v>       0.08333333       0.58333333       0.38179910 </v>
   <v>       0.66561019       0.41913762       0.47017156 </v>
   <v>       0.26400285       0.72788254       0.60980032 </v>
   <v>       0.00850030       0.50176731       0.56024390 </v>
   <v>       0.16959450       0.66708261       0.50967883 </v>
   <v>       0.67603838       0.16300856       0.48145124 </v>
   <v>       0.41673882       0.91620104       0.46911802 </v>
   <v>       0.58333333       0.83333333       0.38179910 </v>
   <v>       0.41542043       0.67044482       0.47934832 </v>
   <v>       0.49782821       0.24343138       0.56333836 </v>
   <v>       0.17527786       0.41648307       0.47123543 </v>
   <v>       0.41808659       0.41638022       0.47102545 </v>
   <v>       0.58333333       0.08333333       0.38179910 </v>
   <v>       0.33333333       0.58333333       0.38179910 </v>
   <v>       0.08333333       0.83333333       0.38179910 </v>
   <v>       0.32790592       0.28247594       0.62286039 </v>
   <v>       0.07670129       0.85913253       0.64092822 </v>
   <v>       0.05979637       0.54813890       0.63788795 </v>
   <v>       0.80099339       0.84947627       0.62185470 </v>
   <v>       0.32980505       0.87899290       0.61788297 </v>
   <v>       0.81879628       0.07893623       0.62594067 </v>
   <v>       0.54567980       0.36623711       0.61964966 </v>
   <v>       0.57924185       0.84928606       0.60624389 </v>
   <v>       0.25359616       0.99937644       0.55718933 </v>
   <v>       0.58333333       0.58333333       0.38179910 </v>
   <v>       0.33333333       0.33333333       0.38179910 </v>
   <v>       0.49678508       0.00088531       0.55610702 </v>
   <v>       0.58333333       0.33333333       0.38179910 </v>
   <v>       0.42075396       0.16456895       0.47097072 </v>
   <v>       0.75490602       0.74477180       0.56657617 </v>
   <v>       0.25438683       0.48916513       0.61655140 </v>
   <v>       0.16753924       0.91207367       0.47049108 </v>
   <v>       0.48543998       0.50423375       0.56349284 </v>
   <v>       0.33333333       0.83333333       0.38179910 </v>
   <v>       0.16879649       0.16410073       0.47362568 </v>
   <v>       0.50339831       0.73238554       0.58211678 </v>
   <v>       0.83333333       0.08333333       0.38179910 </v>
   <v>       0.00944345       0.73812893       0.61189855 </v>
   <v>       0.75183019       0.00218744       0.57235958 </v>
   <v>       0.92582634       0.91134883       0.47023721 </v>
   <v>       0.92532827       0.67022332       0.47518361 </v>
   <v>       0.08333333       0.33333333       0.38179910 </v>
   <v>       0.66782630       0.67188890       0.47368890 </v>
   <v>       0.83333333       0.83333333       0.38179910 </v>
   <v>       0.91768628       0.16693791       0.47663144 </v>
   <v>       0.24934093       0.24580833       0.56087588 </v>
   <v>       0.33333333       0.08333333       0.38179910 </v>
  </varray>
  <varray name="selective"  type="logical" >
   <v type="logical" >  F  F  F </v>
   <v type="logical" >  F  F  F </v>
   <v type="logical" >  T  T  T </v>
   <v type="logical" >  T  T  T </v>
   <v type="logical" >  T  T  T </v>
   <v type="logical" >  F  F  F </v>
   <v type="logical" >  T  T  T </v>
   <v type="logical" >  T  T  T </v>
   <v type="logical" >  T  T  T </v>
   <v type="logical" >  F  F  F </v>
   <v type="logical" >  T  T  T </v>
   <v type="logical" >  T  T  T </v>
   <v type="logical" >  T  T  T </v>
   <v type="logical" >  T  T  T </v>
   <v type="logical" >  T  T  T </v>
   <v type="logical" >  T  T  T </v>
   <v type="logical" >  F  F  F </v>
   <v type="logical" >  T  T  T </v>
   <v type="logical" >  T  T  T </v>
   <v type="logical" >  T  T  T </v>
   <v type="logical" >  T  T  T </v>
   <v type="logical" >  F  F  F </v>
   <v type="logical" >  F  F  F </v>
   <v type="logical" >  F  F  F </v>
   <v type="logical" >  T  T  T </v>
   <v type="logical" >  T  T  T </v>
   <v type="logical" >  T  T  T </v>
   <v type="logical" >  T  T  T </v>
   <v type="logical" >  T  T  T </v>
   <v type="logical" >  T  T  T </v>
   <v type="logical" >  T  T  T </v>
   <v type="logical" >  T  T  T </v>
   <v type="logical" >  T  T  T </v>
   <v type="logical" >  F  F  F </v>
   <v type="logical" >  F  F  F </v>
   <v type="logical" >  T  T  T </v>
   <v type="logical" >  F  F  F </v>
   <v type="logical" >  T  T  T </v>
   <v type="logical" >  T  T  T </v>
   <v type="logical" >  T  T  T </v>
   <v type="logical" >  T  T  T </v>
   <v type="logical" >  T  T  T </v>
   <v type="logical" >  F  F  F </v>
   <v type="logical" >  T  T  T </v>
   <v type="logical" >  T  T  T </v>
   <v type="logical" >  F  F  F </v>
   <v type="logical" >  T  T  T </v>
   <v type="logical" >  T  T  T </v>
   <v type="logical" >  T  T  T </v>
   <v type="logical" >  T  T  T </v>
   <v type="logical" >  F  F  F </v>
   <v type="logical" >  T  T  T </v>
   <v type="logical" >  F  F  F </v>
   <v type="logical" >  T  T  T </v>
   <v type="logical" >  T  T  T </v>
   <v type="logical" >  F  F  F </v>
  </varray>
  <nose>
   <v>      -3.00000000       0.00000000       0.00010000       0.00010000 </v>
  </nose>
 </structure>
 <calculation>
  <scstep>
   <time name="dav">   10.97   10.97</time>
   <time name="total">   11.04   11.05</time>
   <dipole>
    <v name="dipole">      0.00000000       0.00000000       0.00007691 </v>
    <i name="Tr[quadrupol]"> -11131.96144702 </i>
    <i name="Echarged">      0.00000000 </i>
    <i name="Edipol_quadrupol">      0.00000000 </i>
    <i name="Eion">      0.00000000 </i>
   </dipole>
   <energy>
    <i name="alphaZ">    862.57721188 </i>
    <i name="ewald"> 235541.05423001 </i>
    <i name="hartreedc">-281159.51953614 </i>
    <i name="XCdc">   -116.10498398 </i>
    <i name="pawpsdc">  43112.45544455 </i>
    <i name="pawaedc"> -41079.41300390 </i>
    <i name="eentropy">     -0.13825478 </i>
    <i name="bandstr">   1341.24687643 </i>
    <i name="atom">  45117.89144060 </i>
    <i name="e_fr_energy">   3620.04942468 </i>
    <i name="e_wo_entrp">   3620.18767946 </i>
    <i name="e_0_energy">   3620.11855207 </i>
   </energy>
  </scstep>
  <scstep>
   <time name="dav">   13.96   14.08</time>
   <time name="total">   13.96   14.09</time>
   <dipole>
    <v name="dipole">      0.00000000       0.00000000       0.00007691 </v>
    <i name="Tr[quadrupol]"> -11131.96144702 </i>
    <i name="Echarged">      0.00000000 </i>
    <i name="Edipol_quadrupol">      0.00000000 </i>
    <i name="Eion">      0.00000000 </i>
   </dipole>
   <energy>
    <i name="e_fr_energy">     53.45741872 </i>
    <i name="e_wo_entrp">     53.59472138 </i>
    <i name="e_0_energy">     53.52607005 </i>
   </energy>
  </scstep>
  <scstep>
   <time name="dav">   12.90   12.90</time>
   <time name="total">   12.90   12.91</time>
   <dipole>
    <v name="dipole">      0.00000000       0.00000000       0.00007691 </v>
    <i name="Tr[quadrupol]"> -11131.96144702 </i>
    <i name="Echarged">      0.00000000 </i>
    <i name="Edipol_quadrupol">      0.00000000 </i>
    <i name="Eion">      0.00000000 </i>
   </dipole>
   <energy>
    <i name="e_fr_energy">   -252.34191593 </i>
    <i name="e_wo_entrp">   -252.11345598 </i>
    <i name="e_0_energy">   -252.22768595 </i>
   </energy>
  </scstep>
  <scstep>
   <time name="dav">   12.65   12.66</time>
   <time name="total">   12.65   12.66</time>
   <dipole>
    <v name="dipole">      0.00000000       0.00000000       0.00007691 </v>
    <i name="Tr[quadrupol]"> -11131.96144702 </i>
    <i name="Echarged">      0.00000000 </i>
    <i name="Edipol_quadrupol">      0.00000000 </i>
    <i name="Eion">      0.00000000 </i>
   </dipole>
   <energy>
    <i name="e_fr_energy">   -263.33476420 </i>
    <i name="e_wo_entrp">   -263.09458153 </i>
    <i name="e_0_energy">   -263.21467287 </i>
   </energy>
  </scstep>
  <scstep>
   <time name="dav">   12.79   12.87</time>
   <time name="total">   13.15   13.23</time>
   <dipole>
    <v name="dipole">      0.00000000       0.00000000       0.00007691 </v>
    <i name="Tr[quadrupol]"> -11131.96144702 </i>
    <i name="Echarged">      0.00000000 </i>
    <i name="Edipol_quadrupol">      0.00000000 </i>
    <i name="Eion">      0.00000000 </i>
   </dipole>
   <energy>
    <i name="e_fr_energy">   -263.64341132 </i>
    <i name="e_wo_entrp">   -263.40234985 </i>
    <i name="e_0_energy">   -263.52288058 </i>
   </energy>
  </scstep>
  <scstep>
   <time name="diag">    1.99    2.00</time>
   <time name="diis">    5.21    5.21</time>
   <time name="orth">    0.52    0.52</time>
   <time name="total">    8.14    8.15</time>
   <dipole>
    <v name="dipole">      0.00000000       0.00000000       1.16369635 </v>
    <i name="Tr[quadrupol]"> -11128.16567634 </i>
    <i name="Echarged">      0.00000000 </i>
    <i name="Edipol_quadrupol">      0.00000000 </i>
    <i name="Eion">      0.00000000 </i>
   </dipole>
   <energy>
    <i name="e_fr_energy">   -253.84459663 </i>
    <i name="e_wo_entrp">   -253.66898537 </i>
    <i name="e_0_energy">   -253.75679100 </i>
   </energy>
  </scstep>
  <scstep>
   <time name="diag">    1.99    2.00</time>
   <time name="diis">    5.78    5.79</time>
   <time name="orth">    0.53    0.53</time>
   <time name="total">    8.72    8.74</time>
   <dipole>
    <v name="dipole">      0.00000000       0.00000000      -2.29695201 </v>
    <i name="Tr[quadrupol]"> -11131.10525121 </i>
    <i name="Echarged">      0.00000000 </i>
    <i name="Edipol_quadrupol">      0.00000000 </i>
    <i name="Eion">      0.00000000 </i>
   </dipole>
   <energy>
    <i name="e_fr_energy">   -304.72738586 </i>
    <i name="e_wo_entrp">   -304.43474840 </i>
    <i name="e_0_energy">   -304.58106713 </i>
   </energy>
  </scstep>
  <scstep>
   <time name="diag">    1.98    1.99</time>
   <time name="diis">    5.06    5.06</time>
   <time name="orth">    0.52    0.52</time>
   <time name="total">    7.98    7.99</time>
   <dipole>
    <v name="dipole">      0.00000000       0.00000000      -0.13715023 </v>
    <i name="Tr[quadrupol]"> -11133.49527252 </i>
    <i name="Echarged">      0.00000000 </i>
    <i name="Edipol_quadrupol">      0.00000000 </i>
    <i name="Eion">      0.00000000 </i>
   </dipole>
   <energy>
    <i name="e_fr_energy">   -244.34698422 </i>
    <i name="e_wo_entrp">   -244.14536912 </i>
    <i name="e_0_energy">   -244.24617667 </i>
   </energy>
  </scstep>
  <scstep>
   <time name="diag">    1.98    1.98</time>
   <time name="diis">    4.96    5.04</time>
   <time name="orth">    0.52    0.52</time>
   <time name="total">    7.87    7.96</time>
   <dipole>
    <v name="dipole">      0.00000000       0.00000000       0.28244310 </v>
    <i name="Tr[quadrupol]"> -11127.83852912 </i>
    <i name="Echarged">      0.00000000 </i>
    <i name="Edipol_quadrupol">      0.00000000 </i>
    <i name="Eion">      0.00000000 </i>
   </dipole>
   <energy>
    <i name="e_fr_energy">   -252.69000738 </i>
    <i name="e_wo_entrp">   -252.48589836 </i>
    <i name="e_0_energy">   -252.58795287 </i>
   </energy>
  </scstep>
  <scstep>
   <time name="diag">    1.99    1.99</time>
   <time name="diis">    5.19    5.19</time>
   <time name="orth">    0.52    0.52</time>
   <time name="total">    8.11    8.12</time>
   <dipole>
    <v name="dipole">      0.00000000       0.00000000       0.47032454 </v>
    <i name="Tr[quadrupol]"> -11130.46401449 </i>
    <i name="Echarged">      0.00000000 </i>
    <i name="Edipol_quadrupol">      0.00000000 </i>
    <i name="Eion">      0.00000000 </i>
   </dipole>
   <energy>
    <i name="e_fr_energy">   -242.04520216 </i>
    <i name="e_wo_entrp">   -241.88653535 </i>
    <i name="e_0_energy">   -241.96586876 </i>
   </energy>
  </scstep>
  <scstep>
   <time name="diag">    1.98    1.98</time>
   <time name="diis">    5.13    5.14</time>
   <time name="orth">    0.52    0.52</time>
   <time name="total">    8.04    8.05</time>
   <dipole>
    <v name="dipole">      0.00000000       0.00000000       0.45720271 </v>
    <i name="Tr[quadrupol]"> -11130.63119565 </i>
    <i name="Echarged">      0.00000000 </i>
    <i name="Edipol_quadrupol">      0.00000000 </i>
    <i name="Eion">      0.00000000 </i>
   </dipole>
   <energy>
    <i name="e_fr_energy">   -234.58158955 </i>
    <i name="e_wo_entrp">   -234.38590620 </i>
    <i name="e_0_energy">   -234.48374788 </i>
   </energy>
  </scstep>
  <scstep>
   <time name="diag">    1.97    1.98</time>
   <time name="diis">    5.17    5.17</time>
   <time name="orth">    0.52    0.52</time>
   <time name="total">    8.08    8.09</time>
   <dipole>
    <v name="dipole">      0.00000000       0.00000000       0.53550490 </v>
    <i name="Tr[quadrupol]"> -11131.72957416 </i>
    <i name="Echarged">      0.00000000 </i>
    <i name="Edipol_quadrupol">      0.00000000 </i>
    <i name="Eion">      0.00000000 </i>
   </dipole>
   <energy>
    <i name="e_fr_energy">   -232.49671138 </i>
    <i name="e_wo_entrp">   -232.32844133 </i>
    <i name="e_0_energy">   -232.41257635 </i>
   </energy>
  </scstep>
  <scstep>
   <time name="diag">    1.98    1.98</time>
   <time name="diis">    5.05    5.05</time>
   <time name="orth">    0.52    0.52</time>
   <time name="total">    7.96    7.96</time>
   <dipole>
    <v name="dipole">      0.00000000       0.00000000       0.51397806 </v>
    <i name="Tr[quadrupol]"> -11131.97432621 </i>
    <i name="Echarged">      0.00000000 </i>
    <i name="Edipol_quadrupol">      0.00000000 </i>
    <i name="Eion">      0.00000000 </i>
   </dipole>
   <energy>
    <i name="e_fr_energy">   -231.80312852 </i>
    <i name="e_wo_entrp">   -231.62858689 </i>
    <i name="e_0_energy">   -231.71585771 </i>
   </energy>
  </scstep>
  <scstep>
   <time name="diag">    1.99    1.99</time>
   <time name="diis">    5.06    5.16</time>
   <time name="orth">    0.62    0.63</time>
   <time name="total">    8.22    8.33</time>
   <dipole>
    <v name="dipole">      0.00000000       0.00000000       0.49702918 </v>
    <i name="Tr[quadrupol]"> -11132.06188360 </i>
    <i name="Echarged">      0.00000000 </i>
    <i name="Edipol_quadrupol">      0.00000000 </i>
    <i name="Eion">      0.00000000 </i>
   </dipole>
   <energy>
    <i name="e_fr_energy">   -231.72017189 </i>
    <i name="e_wo_entrp">   -231.52092536 </i>
    <i name="e_0_energy">   -231.62054863 </i>
   </energy>
  </scstep>
  <scstep>
   <time name="diag">    2.43    2.43</time>
   <time name="diis">    5.17    5.17</time>
   <time name="orth">    0.50    0.50</time>
   <time name="total">    8.52    8.53</time>
   <dipole>
    <v name="dipole">      0.00000000       0.00000000       0.49473958 </v>
    <i name="Tr[quadrupol]"> -11132.04238551 </i>
    <i name="Echarged">      0.00000000 </i>
    <i name="Edipol_quadrupol">      0.00000000 </i>
    <i name="Eion">      0.00000000 </i>
   </dipole>
   <energy>
    <i name="e_fr_energy">   -231.64071296 </i>
    <i name="e_wo_entrp">   -231.43603436 </i>
    <i name="e_0_energy">   -231.53837366 </i>
   </energy>
  </scstep>
  <scstep>
   <time name="diag">    1.95    1.95</time>
   <time name="diis">    5.15    5.15</time>
   <time name="orth">    0.50    0.50</time>
   <time name="total">    8.01    8.02</time>
   <dipole>
    <v name="dipole">      0.00000000       0.00000000       0.51733155 </v>
    <i name="Tr[quadrupol]"> -11132.12632562 </i>
    <i name="Echarged">      0.00000000 </i>
    <i name="Edipol_quadrupol">      0.00000000 </i>
    <i name="Eion">      0.00000000 </i>
   </dipole>
   <energy>
    <i name="e_fr_energy">   -231.59790226 </i>
    <i name="e_wo_entrp">   -231.38706318 </i>
    <i name="e_0_energy">   -231.49248272 </i>
   </energy>
  </scstep>
  <scstep>
   <time name="diag">    1.95    1.96</time>
   <time name="diis">    5.20    5.21</time>
   <time name="orth">    0.50    0.50</time>
   <time name="total">    8.07    8.08</time>
   <dipole>
    <v name="dipole">      0.00000000       0.00000000       0.53126330 </v>
    <i name="Tr[quadrupol]"> -11132.29907580 </i>
    <i name="Echarged">      0.00000000 </i>
    <i name="Edipol_quadrupol">      0.00000000 </i>
    <i name="Eion">      0.00000000 </i>
   </dipole>
   <energy>
    <i name="e_fr_energy">   -231.59208753 </i>
    <i name="e_wo_entrp">   -231.38447621 </i>
    <i name="e_0_energy">   -231.48828187 </i>
   </energy>
  </scstep>
  <scstep>
   <time name="diag">    1.95    1.96</time>
   <time name="diis">    4.99    5.00</time>
   <time name="orth">    0.51    0.51</time>
   <time name="total">    7.87    7.88</time>
   <dipole>
    <v name="dipole">      0.00000000       0.00000000       0.52690797 </v>
    <i name="Tr[quadrupol]"> -11132.41734005 </i>
    <i name="Echarged">      0.00000000 </i>
    <i name="Edipol_quadrupol">      0.00000000 </i>
    <i name="Eion">      0.00000000 </i>
   </dipole>
   <energy>
    <i name="e_fr_energy">   -231.56709921 </i>
    <i name="e_wo_entrp">   -231.35346494 </i>
    <i name="e_0_energy">   -231.46028207 </i>
   </energy>
  </scstep>
  <scstep>
   <time name="diag">    1.94    1.97</time>
   <time name="diis">    5.05    5.10</time>
   <time name="orth">    0.49    0.49</time>
   <time name="total">    7.90    7.98</time>
   <dipole>
    <v name="dipole">      0.00000000       0.00000000       0.52169355 </v>
    <i name="Tr[quadrupol]"> -11132.51102977 </i>
    <i name="Echarged">      0.00000000 </i>
    <i name="Edipol_quadrupol">      0.00000000 </i>
    <i name="Eion">      0.00000000 </i>
   </dipole>
   <energy>
    <i name="e_fr_energy">   -231.55785487 </i>
    <i name="e_wo_entrp">   -231.34073558 </i>
    <i name="e_0_energy">   -231.44929523 </i>
   </energy>
  </scstep>
  <scstep>
   <time name="diag">    1.95    1.95</time>
   <time name="diis">    5.06    5.06</time>
   <time name="orth">    0.49    0.49</time>
   <time name="total">    7.91    7.92</time>
   <dipole>
    <v name="dipole">      0.00000000       0.00000000       0.52609108 </v>
    <i name="Tr[quadrupol]"> -11132.57233696 </i>
    <i name="Echarged">      0.00000000 </i>
    <i name="Edipol_quadrupol">      0.00000000 </i>
    <i name="Eion">      0.00000000 </i>
   </dipole>
   <energy>
    <i name="e_fr_energy">   -231.55710529 </i>
    <i name="e_wo_entrp">   -231.34045365 </i>
    <i name="e_0_energy">   -231.44877947 </i>
   </energy>
  </scstep>
  <scstep>
   <time name="diag">    1.95    1.95</time>
   <time name="diis">    5.20    5.21</time>
   <time name="orth">    0.49    0.49</time>
   <time name="total">    8.07    8.08</time>
   <dipole>
    <v name="dipole">      0.00000000       0.00000000       0.53540418 </v>
    <i name="Tr[quadrupol]"> -11132.71657944 </i>
    <i name="Echarged">      0.00000000 </i>
    <i name="Edipol_quadrupol">      0.00000000 </i>
    <i name="Eion">      0.00000000 </i>
   </dipole>
   <energy>
    <i name="e_fr_energy">   -231.55781507 </i>
    <i name="e_wo_entrp">   -231.34098941 </i>
    <i name="e_0_energy">   -231.44940224 </i>
   </energy>
  </scstep>
  <scstep>
   <time name="diag">    2.05    2.06</time>
   <time name="diis">    5.66    5.70</time>
   <time name="orth">    0.49    0.49</time>
   <time name="total">    8.62    8.67</time>
   <dipole>
    <v name="dipole">      0.00000000       0.00000000       0.54103607 </v>
    <i name="Tr[quadrupol]"> -11132.80786290 </i>
    <i name="Echarged">      0.00000000 </i>
    <i name="Edipol_quadrupol">      0.00000000 </i>
    <i name="Eion">      0.00000000 </i>
   </dipole>
   <energy>
    <i name="e_fr_energy">   -231.55821902 </i>
    <i name="e_wo_entrp">   -231.34148550 </i>
    <i name="e_0_energy">   -231.44985226 </i>
   </energy>
  </scstep>
  <scstep>
   <time name="diag">    1.95    1.96</time>
   <time name="diis">    5.20    5.21</time>
   <time name="orth">    0.49    0.49</time>
   <time name="total">    8.06    8.07</time>
   <dipole>
    <v name="dipole">      0.00000000       0.00000000       0.54258226 </v>
    <i name="Tr[quadrupol]"> -11132.83935518 </i>
    <i name="Echarged">      0.00000000 </i>
    <i name="Edipol_quadrupol">      0.00000000 </i>
    <i name="Eion">      0.00000000 </i>
   </dipole>
   <energy>
    <i name="e_fr_energy">   -231.55825446 </i>
    <i name="e_wo_entrp">   -231.34121513 </i>
    <i name="e_0_energy">   -231.44973480 </i>
   </energy>
  </scstep>
  <scstep>
   <time name="diag">    1.90    1.97</time>
   <time name="diis">    5.14    5.14</time>
   <time name="orth">    0.49    0.49</time>
   <time name="total">    7.95    8.02</time>
   <dipole>
    <v name="dipole">      0.00000000       0.00000000       0.54568129 </v>
    <i name="Tr[quadrupol]"> -11132.88270627 </i>
    <i name="Echarged">      0.00000000 </i>
    <i name="Edipol_quadrupol">      0.00000000 </i>
    <i name="Eion">      0.00000000 </i>
   </dipole>
   <energy>
    <i name="e_fr_energy">   -231.55853446 </i>
    <i name="e_wo_entrp">   -231.34140340 </i>
    <i name="e_0_energy">   -231.44996893 </i>
   </energy>
  </scstep>
  <scstep>
   <time name="diag">    1.94    1.95</time>
   <time name="diis">    5.20    5.20</time>
   <time name="orth">    0.49    0.49</time>
   <time name="total">    8.05    8.06</time>
   <dipole>
    <v name="dipole">      0.00000000       0.00000000       0.54997260 </v>
    <i name="Tr[quadrupol]"> -11132.93895555 </i>
    <i name="Echarged">      0.00000000 </i>
    <i name="Edipol_quadrupol">      0.00000000 </i>
    <i name="Eion">      0.00000000 </i>
   </dipole>
   <energy>
    <i name="e_fr_energy">   -231.55894534 </i>
    <i name="e_wo_entrp">   -231.34192153 </i>
    <i name="e_0_energy">   -231.45043343 </i>
   </energy>
  </scstep>
  <scstep>
   <time name="diag">    1.96    1.96</time>
   <time name="diis">    5.12    5.12</time>
   <time name="orth">    0.49    0.49</time>
   <time name="total">    7.98    7.99</time>
   <dipole>
    <v name="dipole">      0.00000000       0.00000000       0.55370883 </v>
    <i name="Tr[quadrupol]"> -11133.00027630 </i>
    <i name="Echarged">      0.00000000 </i>
    <i name="Edipol_quadrupol">      0.00000000 </i>
    <i name="Eion">      0.00000000 </i>
   </dipole>
   <energy>
    <i name="e_fr_energy">   -231.55937243 </i>
    <i name="e_wo_entrp">   -231.34189938 </i>
    <i name="e_0_energy">   -231.45063591 </i>
   </energy>
  </scstep>
  <scstep>
   <time name="diag">    1.95    1.95</time>
   <time name="diis">    5.13    5.13</time>
   <time name="orth">    0.49    0.49</time>
   <time name="total">    7.98    7.99</time>
   <dipole>
    <v name="dipole">      0.00000000       0.00000000       0.55695379 </v>
    <i name="Tr[quadrupol]"> -11133.03866143 </i>
    <i name="Echarged">      0.00000000 </i>
    <i name="Edipol_quadrupol">      0.00000000 </i>
    <i name="Eion">      0.00000000 </i>
   </dipole>
   <energy>
    <i name="e_fr_energy">   -231.55964741 </i>
    <i name="e_wo_entrp">   -231.34236165 </i>
    <i name="e_0_energy">   -231.45100453 </i>
   </energy>
  </scstep>
  <scstep>
   <time name="diag">    1.94    1.95</time>
   <time name="diis">    4.99    5.00</time>
   <time name="orth">    0.49    0.49</time>
   <time name="total">    7.85    7.86</time>
   <dipole>
    <v name="dipole">      0.00000000       0.00000000       0.55965991 </v>
    <i name="Tr[quadrupol]"> -11133.07018994 </i>
    <i name="Echarged">      0.00000000 </i>
    <i name="Edipol_quadrupol">      0.00000000 </i>
    <i name="Eion">      0.00000000 </i>
   </dipole>
   <energy>
    <i name="e_fr_energy">   -231.55988117 </i>
    <i name="e_wo_entrp">   -231.34250679 </i>
    <i name="e_0_energy">   -231.45119398 </i>
   </energy>
  </scstep>
  <scstep>
   <time name="diag">    1.91    1.98</time>
   <time name="diis">    5.46    5.49</time>
   <time name="orth">    0.60    0.60</time>
   <time name="total">    8.52    8.63</time>
   <dipole>
    <v name="dipole">      0.00000000       0.00000000       0.56502915 </v>
    <i name="Tr[quadrupol]"> -11133.12557971 </i>
    <i name="Echarged">      0.00000000 </i>
    <i name="Edipol_quadrupol">      0.00000000 </i>
    <i name="Eion">      0.00000000 </i>
   </dipole>
   <energy>
    <i name="e_fr_energy">   -231.56030308 </i>
    <i name="e_wo_entrp">   -231.34307068 </i>
    <i name="e_0_energy">   -231.45168688 </i>
   </energy>
  </scstep>
  <scstep>
   <time name="diag">    2.09    2.09</time>
   <time name="diis">    4.35    4.36</time>
   <time name="orth">    0.49    0.49</time>
   <time name="total">    7.37    7.38</time>
   <dipole>
    <v name="dipole">      0.00000000       0.00000000       0.56786774 </v>
    <i name="Tr[quadrupol]"> -11133.15682158 </i>
    <i name="Echarged">      0.00000000 </i>
    <i name="Edipol_quadrupol">      0.00000000 </i>
    <i name="Eion">      0.00000000 </i>
   </dipole>
   <energy>
    <i name="e_fr_energy">   -231.56050229 </i>
    <i name="e_wo_entrp">   -231.34321502 </i>
    <i name="e_0_energy">   -231.45185865 </i>
   </energy>
  </scstep>
  <scstep>
   <time name="diag">    1.94    1.94</time>
   <time name="diis">    4.62    4.63</time>
   <time name="orth">    0.49    0.49</time>
   <time name="total">    7.48    7.49</time>
   <dipole>
    <v name="dipole">      0.00000000       0.00000000       0.57178907 </v>
    <i name="Tr[quadrupol]"> -11133.19734625 </i>
    <i name="Echarged">      0.00000000 </i>
    <i name="Edipol_quadrupol">      0.00000000 </i>
    <i name="Eion">      0.00000000 </i>
   </dipole>
   <energy>
    <i name="e_fr_energy">   -231.56071720 </i>
    <i name="e_wo_entrp">   -231.34338563 </i>
    <i name="e_0_energy">   -231.45205141 </i>
   </energy>
  </scstep>
  <scstep>
   <time name="diag">    1.95    1.95</time>
   <time name="diis">    4.00    4.00</time>
   <time name="orth">    0.49    0.49</time>
   <time name="total">    6.85    6.86</time>
   <dipole>
    <v name="dipole">      0.00000000       0.00000000       0.57502544 </v>
    <i name="Tr[quadrupol]"> -11133.22798372 </i>
    <i name="Echarged">      0.00000000 </i>
    <i name="Edipol_quadrupol">      0.00000000 </i>
    <i name="Eion">      0.00000000 </i>
   </dipole>
   <energy>
    <i name="e_fr_energy">   -231.56083404 </i>
    <i name="e_wo_entrp">   -231.34346369 </i>
    <i name="e_0_energy">   -231.45214886 </i>
   </energy>
  </scstep>
  <scstep>
   <time name="diag">    1.94    1.94</time>
   <time name="diis">    3.65    3.66</time>
   <time name="orth">    0.49    0.49</time>
   <time name="total">    6.51    6.52</time>
   <dipole>
    <v name="dipole">      0.00000000       0.00000000       0.57778308 </v>
    <i name="Tr[quadrupol]"> -11133.25051918 </i>
    <i name="Echarged">      0.00000000 </i>
    <i name="Edipol_quadrupol">      0.00000000 </i>
    <i name="Eion">      0.00000000 </i>
   </dipole>
   <energy>
    <i name="e_fr_energy">   -231.56089429 </i>
    <i name="e_wo_entrp">   -231.34352068 </i>
    <i name="e_0_energy">   -231.45220748 </i>
   </energy>
  </scstep>
  <scstep>
   <time name="diag">    1.97    1.97</time>
   <time name="diis">    3.18    3.26</time>
   <time name="orth">    0.49    0.49</time>
   <time name="total">    6.05    6.14</time>
   <dipole>
    <v name="dipole">      0.00000000       0.00000000       0.57946028 </v>
    <i name="Tr[quadrupol]"> -11133.26202849 </i>
    <i name="Echarged">      0.00000000 </i>
    <i name="Edipol_quadrupol">      0.00000000 </i>
    <i name="Eion">      0.00000000 </i>
   </dipole>
   <energy>
    <i name="e_fr_energy">   -231.56092008 </i>
    <i name="e_wo_entrp">   -231.34354792 </i>
    <i name="e_0_energy">   -231.45223400 </i>
   </energy>
  </scstep>
  <scstep>
   <time name="diag">    1.94    1.94</time>
   <time name="diis">    3.20    3.20</time>
   <time name="orth">    0.49    0.49</time>
   <time name="total">    6.05    6.05</time>
   <dipole>
    <v name="dipole">      0.00000000       0.00000000       0.58123902 </v>
    <i name="Tr[quadrupol]"> -11133.27222452 </i>
    <i name="Echarged">      0.00000000 </i>
    <i name="Edipol_quadrupol">      0.00000000 </i>
    <i name="Eion">      0.00000000 </i>
   </dipole>
   <energy>
    <i name="e_fr_energy">   -231.56094536 </i>
    <i name="e_wo_entrp">   -231.34356678 </i>
    <i name="e_0_energy">   -231.45225607 </i>
   </energy>
  </scstep>
  <scstep>
   <time name="diag">    1.96    1.96</time>
   <time name="diis">    3.09    3.09</time>
   <time name="orth">    0.49    0.49</time>
   <time name="total">    5.95    5.96</time>
   <dipole>
    <v name="dipole">      0.00000000       0.00000000       0.58262800 </v>
    <i name="Tr[quadrupol]"> -11133.27949134 </i>
    <i name="Echarged">      0.00000000 </i>
    <i name="Edipol_quadrupol">      0.00000000 </i>
    <i name="Eion">      0.00000000 </i>
   </dipole>
   <energy>
    <i name="e_fr_energy">   -231.56096283 </i>
    <i name="e_wo_entrp">   -231.34357662 </i>
    <i name="e_0_energy">   -231.45226973 </i>
   </energy>
  </scstep>
  <scstep>
   <time name="diag">    1.94    1.94</time>
   <time name="diis">    2.93    2.93</time>
   <time name="orth">    0.49    0.49</time>
   <time name="total">    5.78    5.79</time>
   <dipole>
    <v name="dipole">      0.00000000       0.00000000       0.58362807 </v>
    <i name="Tr[quadrupol]"> -11133.28429350 </i>
    <i name="Echarged">      0.00000000 </i>
    <i name="Edipol_quadrupol">      0.00000000 </i>
    <i name="Eion">      0.00000000 </i>
   </dipole>
   <energy>
    <i name="e_fr_energy">   -231.56097425 </i>
    <i name="e_wo_entrp">   -231.34358184 </i>
    <i name="e_0_energy">   -231.45227805 </i>
   </energy>
  </scstep>
  <scstep>
   <time name="diag">    1.96    1.96</time>
   <time name="diis">    3.28    3.30</time>
   <time name="orth">    0.60    0.60</time>
   <time name="total">    6.40    6.42</time>
   <dipole>
    <v name="dipole">      0.00000000       0.00000000       0.58494731 </v>
    <i name="Tr[quadrupol]"> -11133.28992282 </i>
    <i name="Echarged">      0.00000000 </i>
    <i name="Edipol_quadrupol">      0.00000000 </i>
    <i name="Eion">      0.00000000 </i>
   </dipole>
   <energy>
    <i name="e_fr_energy">   -231.56098785 </i>
    <i name="e_wo_entrp">   -231.34358604 </i>
    <i name="e_0_energy">   -231.45228694 </i>
   </energy>
  </scstep>
  <scstep>
   <time name="diag">    2.28    2.30</time>
   <time name="diis">    2.66    2.66</time>
   <time name="orth">    0.49    0.49</time>
   <time name="total">    5.86    5.88</time>
   <dipole>
    <v name="dipole">      0.00000000       0.00000000       0.58579946 </v>
    <i name="Tr[quadrupol]"> -11133.29338171 </i>
    <i name="Echarged">      0.00000000 </i>
    <i name="Edipol_quadrupol">      0.00000000 </i>
    <i name="Eion">      0.00000000 </i>
   </dipole>
   <energy>
    <i name="e_fr_energy">   -231.56099409 </i>
    <i name="e_wo_entrp">   -231.34358616 </i>
    <i name="e_0_energy">   -231.45229012 </i>
   </energy>
  </scstep>
  <scstep>
   <time name="diag">    1.95    1.95</time>
   <time name="diis">    2.74    2.74</time>
   <time name="orth">    0.49    0.49</time>
   <time name="total">    5.59    5.60</time>
   <dipole>
    <v name="dipole">      0.00000000       0.00000000       0.58638161 </v>
    <i name="Tr[quadrupol]"> -11133.29561991 </i>
    <i name="Echarged">      0.00000000 </i>
    <i name="Edipol_quadrupol">      0.00000000 </i>
    <i name="Eion">      0.00000000 </i>
   </dipole>
   <energy>
    <i name="e_fr_energy">   -231.56099718 </i>
    <i name="e_wo_entrp">   -231.34358665 </i>
    <i name="e_0_energy">   -231.45229192 </i>
   </energy>
  </scstep>
  <scstep>
   <time name="diag">    1.94    1.94</time>
   <time name="diis">    2.30    2.30</time>
   <time name="orth">    0.49    0.49</time>
   <time name="total">    4.79    4.79</time>
   <dipole>
    <v name="dipole">      0.00000000       0.00000000       0.58662775 </v>
    <i name="Tr[quadrupol]"> -11133.29663317 </i>
    <i name="Echarged">      0.00000000 </i>
    <i name="Edipol_quadrupol">      0.00000000 </i>
    <i name="Eion">      0.00000000 </i>
   </dipole>
   <energy>
    <i name="alphaZ">    868.13728476 </i>
    <i name="ewald"> 235541.05423001 </i>
    <i name="hartreedc">-280772.95359710 </i>
    <i name="XCdc">   -128.21596963 </i>
    <i name="pawpsdc">  52084.83987708 </i>
    <i name="pawaedc"> -50177.53534690 </i>
    <i name="eentropy">     -0.21741130 </i>
    <i name="bandstr">  -2764.56150565 </i>
    <i name="atom">  45117.89144060 </i>
    <i name="e_fr_energy">   -231.56099812 </i>
    <i name="e_wo_entrp">   -231.34358682 </i>
    <i name="e_0_energy">   -231.45229247 </i>
   </energy>
  </scstep>
  <structure>
   <crystal>
    <varray name="basis" >
     <v>      11.00258152       0.00000000       0.00000000 </v>
     <v>       5.50129076       9.52851510       0.00000000 </v>
     <v>       0.00000000       0.00000000      26.19178509 </v>
    </varray>
    <i name="volume">   2745.90128299 </i>
    <varray name="rec_basis" >
     <v>       0.09088776      -0.05247407       0.00000000 </v>
     <v>       0.00000000       0.10494815       0.00000000 </v>
     <v>       0.00000000       0.00000000       0.03817991 </v>
    </varray>
   </crystal>
   <varray name="positions" >
    <v>       0.08333333       0.08333333       0.38179910 </v>
    <v>       0.83333333       0.33333333       0.38179910 </v>
    <v>       0.67983244       0.91253395       0.47483256 </v>
    <v>       0.01231153       0.98136264       0.55834805 </v>
    <v>       0.74826500       0.50187205       0.55811556 </v>
    <v>       0.83333333       0.58333333       0.38179910 </v>
    <v>       0.92337836       0.41742324       0.46952292 </v>
    <v>       0.00752410       0.24092221       0.56589640 </v>
    <v>       0.76330549       0.27514480       0.59833970 </v>
    <v>       0.08333333       0.58333333       0.38179910 </v>
    <v>       0.66561019       0.41913762       0.47017156 </v>
    <v>       0.26400285       0.72788254       0.60980032 </v>
    <v>       0.00850030       0.50176731       0.56024390 </v>
    <v>       0.16959450       0.66708261       0.50967883 </v>
    <v>       0.67603838       0.16300856       0.48145124 </v>
    <v>       0.41673882       0.91620104       0.46911802 </v>
    <v>       0.58333333       0.83333333       0.38179910 </v>
    <v>       0.41542043       0.67044482       0.47934832 </v>
    <v>       0.49782821       0.24343138       0.56333836 </v>
    <v>       0.17527786       0.41648307       0.47123543 </v>
    <v>       0.41808659       0.41638022       0.47102545 </v>
    <v>       0.58333333       0.08333333       0.38179910 </v>
    <v>       0.33333333       0.58333333       0.38179910 </v>
    <v>       0.08333333       0.83333333       0.38179910 </v>
    <v>       0.32790592       0.28247594       0.62286039 </v>
    <v>       0.07670129       0.85913253       0.64092822 </v>
    <v>       0.05979637       0.54813890       0.63788795 </v>
    <v>       0.80099339       0.84947627       0.62185470 </v>
    <v>       0.32980505       0.87899290       0.61788297 </v>
    <v>       0.81879628       0.07893623       0.62594067 </v>
    <v>       0.54567980       0.36623711       0.61964966 </v>
    <v>       0.57924185       0.84928606       0.60624389 </v>
    <v>       0.25359616       0.99937644       0.55718933 </v>
    <v>       0.58333333       0.58333333       0.38179910 </v>
    <v>       0.33333333       0.33333333       0.38179910 </v>
    <v>       0.49678508       0.00088531       0.55610702 </v>
    <v>       0.58333333       0.33333333       0.38179910 </v>
    <v>       0.42075396       0.16456895       0.47097072 </v>
    <v>       0.75490602       0.74477180       0.56657617 </v>
    <v>       0.25438683       0.48916513       0.61655140 </v>
    <v>       0.16753924       0.91207367       0.47049108 </v>
    <v>       0.48543998       0.50423375       0.56349284 </v>
    <v>       0.33333333       0.83333333       0.38179910 </v>
    <v>       0.16879649       0.16410073       0.47362568 </v>
    <v>       0.50339831       0.73238554       0.58211678 </v>
    <v>       0.83333333       0.08333333       0.38179910 </v>
    <v>       0.00944345       0.73812893       0.61189855 </v>
    <v>       0.75183019       0.00218744       0.57235958 </v>
    <v>       0.92582634       0.91134883       0.47023721 </v>
    <v>       0.92532827       0.67022332       0.47518361 </v>
    <v>       0.08333333       0.33333333       0.38179910 </v>
    <v>       0.66782630       0.67188890       0.47368890 </v>
    <v>       0.83333333       0.83333333       0.38179910 </v>
    <v>       0.91768628       0.16693791       0.47663144 </v>
    <v>       0.24934093       0.24580833       0.56087588 </v>
    <v>       0.33333333       0.08333333       0.38179910 </v>
   </varray>
  </structure>
  <varray name="forces" >
   <v>       0.14306258       0.11975791      -0.21779065 </v>
   <v>      -0.21193121      -0.32403519      -0.54132445 </v>
   <v>      -0.07948344       0.12623030       0.05401793 </v>
   <v>       0.03051463      -0.03232122       0.48397188 </v>
   <v>      -0.10800402      -0.04630770       0.31919595 </v>
   <v>       0.04723402       0.35164560      -0.53062309 </v>
   <v>       0.03805008      -0.00864474       0.68460048 </v>
   <v>      -0.22482483       0.24228382       0.14346236 </v>
   <v>      -0.21359694      -0.21600815       0.28732471 </v>
   <v>       0.04941073       0.13416314      -0.28426288 </v>
   <v>       0.05208809      -0.06613329       0.23336758 </v>
   <v>       0.23153193      -0.25724714       0.06278041 </v>
   <v>      -0.02277672       0.05088885       0.47060272 </v>
   <v>      -0.08791034       0.08422263       0.24166737 </v>
   <v>       0.13284378      -0.01411029      -0.27495064 </v>
   <v>       0.00461104       0.03712555       0.22486688 </v>
   <v>      -0.03202587      -0.16197262      -0.66585170 </v>
   <v>      -0.11230528       0.04587417       0.01405056 </v>
   <v>       0.08695076       0.17989637       0.26478456 </v>
   <v>      -0.19807662       0.16585731       0.20347343 </v>
   <v>       0.00679437       0.21522555       0.25465930 </v>
   <v>       0.23743867       0.27042479      -0.38130206 </v>
   <v>       0.15793823       0.17793081      -0.27954179 </v>
   <v>      -0.05287085      -0.20035998      -0.38176154 </v>
   <v>      -0.16567902       0.29691604      -0.20709480 </v>
   <v>      -0.26310556       0.18762129      -0.07532665 </v>
   <v>       0.13102864      -0.12812292      -0.34599503 </v>
   <v>       0.44575731      -0.56517225      -0.32642621 </v>
   <v>      -0.35520899      -0.36157797      -0.04374861 </v>
   <v>       0.12397287       0.45168581      -0.34008652 </v>
   <v>      -0.15292469       0.08453112      -0.04567426 </v>
   <v>      -0.12608075      -0.17891555       0.14782496 </v>
   <v>      -0.04366027      -0.18873043       0.03587879 </v>
   <v>      -0.12326561       0.20667475       0.00101005 </v>
   <v>      -0.07827260      -0.24219773      -0.25907088 </v>
   <v>       0.09528246       0.17177868       0.09073927 </v>
   <v>       0.04225140      -0.25314957      -0.04855268 </v>
   <v>      -0.06159149      -0.05911421       0.15857604 </v>
   <v>       0.31115938       0.05347975       0.07783854 </v>
   <v>       0.18618817      -0.31536915      -0.07121914 </v>
   <v>       0.10904472      -0.09974520       0.13854621 </v>
   <v>      -0.23865039       0.28031293       0.22252129 </v>
   <v>      -0.00023111      -0.21220518      -0.04315235 </v>
   <v>       0.14196265       0.04974975       0.02229786 </v>
   <v>      -0.03177818      -0.06703299      -0.10959206 </v>
   <v>      -0.15347912       0.17505358       0.39148249 </v>
   <v>      -0.04455262       0.04547908       0.42975158 </v>
   <v>      -0.13984678       0.02454972      -0.10497382 </v>
   <v>      -0.10566066       0.02351034       0.17068971 </v>
   <v>       0.04648960      -0.17037546       0.01335164 </v>
   <v>       0.32618162      -0.31385833      -0.28315003 </v>
   <v>       0.05730577      -0.10100687       0.15707558 </v>
   <v>       0.12849607      -0.00513522       0.08775394 </v>
   <v>       0.12533997      -0.13291246      -0.22959641 </v>
   <v>      -0.01722003       0.13090411       0.11865294 </v>
   <v>      -0.04391559       0.33798803      -0.11574877 </v>
  </varray>
  <energy>
   <i name="e_fr_energy">   -231.56099812 </i>
   <i name="e_wo_entrp">   -231.45229247 </i>
   <i name="e_0_energy">     -0.21741130 </i>
  </energy>
  <time name="totalsc">  336.39  337.59</time>
 </calculation>
 <calculation>
  <scstep>
   <time name="dav">   11.39   11.40</time>
   <time name="total">   11.81   11.82</time>
   <dipole>
    <v name="dipole">      0.00000000       0.00000000       0.58673225 </v>
    <i name="Tr[quadrupol]"> -11132.22635080 </i>
    <i name="Echarged">      0.00000000 </i>
    <i name="Edipol_quadrupol">      0.00000000 </i>
    <i name="Eion">      0.00000000 </i>
   </dipole>
   <energy>
    <i name="alphaZ">    868.08064798 </i>
    <i name="ewald"> 235471.15007223 </i>
    <i name="hartreedc">-280701.62401984 </i>
    <i name="XCdc">   -128.20385775 </i>
    <i name="pawpsdc">  52084.84168721 </i>
    <i name="pawaedc"> -50177.53720190 </i>
    <i name="eentropy">     -0.21650012 </i>
    <i name="bandstr">  -2766.01926445 </i>
    <i name="atom">  45117.89144060 </i>
    <i name="e_fr_energy">   -231.63699603 </i>
    <i name="e_wo_entrp">   -231.42049591 </i>
    <i name="e_0_energy">   -231.52874597 </i>
   </energy>
  </scstep>
  <scstep>
   <time name="diag">    1.95    1.95</time>
   <time name="diis">    5.05    5.05</time>
   <time name="orth">    0.48    0.48</time>
   <time name="total">    7.90    7.90</time>
   <dipole>
    <v name="dipole">      0.00000000       0.00000000       0.53565522 </v>
    <i name="Tr[quadrupol]"> -11132.27486537 </i>
    <i name="Echarged">      0.00000000 </i>
    <i name="Edipol_quadrupol">      0.00000000 </i>
    <i name="Eion">      0.00000000 </i>
   </dipole>
   <energy>
    <i name="e_fr_energy">   -231.74744464 </i>
    <i name="e_wo_entrp">   -231.52255407 </i>
    <i name="e_0_energy">   -231.63499935 </i>
   </energy>
  </scstep>
  <scstep>
   <time name="diag">    1.95    1.95</time>
   <time name="diis">    5.04    5.04</time>
   <time name="orth">    0.48    0.48</time>
   <time name="total">    7.89    7.89</time>
   <dipole>
    <v name="dipole">      0.00000000       0.00000000       0.58539769 </v>
    <i name="Tr[quadrupol]"> -11132.27573062 </i>
    <i name="Echarged">      0.00000000 </i>
    <i name="Edipol_quadrupol">      0.00000000 </i>
    <i name="Eion">      0.00000000 </i>
   </dipole>
   <energy>
    <i name="e_fr_energy">   -231.70325293 </i>
    <i name="e_wo_entrp">   -231.48821725 </i>
    <i name="e_0_energy">   -231.59573509 </i>
   </energy>
  </scstep>
  <scstep>
   <time name="diag">    1.95    1.95</time>
   <time name="diis">    5.10    5.10</time>
   <time name="orth">    0.48    0.48</time>
   <time name="total">    7.95    7.96</time>
   <dipole>
    <v name="dipole">      0.00000000       0.00000000       0.51345446 </v>
    <i name="Tr[quadrupol]"> -11132.23997010 </i>
    <i name="Echarged">      0.00000000 </i>
    <i name="Edipol_quadrupol">      0.00000000 </i>
    <i name="Eion">      0.00000000 </i>
   </dipole>
   <energy>
    <i name="e_fr_energy">   -231.75577120 </i>
    <i name="e_wo_entrp">   -231.52901807 </i>
    <i name="e_0_energy">   -231.64239464 </i>
   </energy>
  </scstep>
  <scstep>
   <time name="diag">    1.95    1.95</time>
   <time name="diis">    5.56    5.68</time>
   <time name="orth">    0.48    0.48</time>
   <time name="total">    8.40    8.53</time>
   <dipole>
    <v name="dipole">      0.00000000       0.00000000       0.56591159 </v>
    <i name="Tr[quadrupol]"> -11132.34610519 </i>
    <i name="Echarged">      0.00000000 </i>
    <i name="Edipol_quadrupol">      0.00000000 </i>
    <i name="Eion">      0.00000000 </i>
   </dipole>
   <energy>
    <i name="e_fr_energy">   -231.70807540 </i>
    <i name="e_wo_entrp">   -231.49001272 </i>
    <i name="e_0_energy">   -231.59904406 </i>
   </energy>
  </scstep>
  <scstep>
   <time name="diag">    1.95    1.95</time>
   <time name="diis">    4.99    4.99</time>
   <time name="orth">    0.48    0.48</time>
   <time name="total">    7.83    7.84</time>
   <dipole>
    <v name="dipole">      0.00000000       0.00000000       0.54960074 </v>
    <i name="Tr[quadrupol]"> -11132.30096732 </i>
    <i name="Echarged">      0.00000000 </i>
    <i name="Edipol_quadrupol">      0.00000000 </i>
    <i name="Eion">      0.00000000 </i>
   </dipole>
   <energy>
    <i name="e_fr_energy">   -231.70677535 </i>
    <i name="e_wo_entrp">   -231.48353071 </i>
    <i name="e_0_energy">   -231.59515303 </i>
   </energy>
  </scstep>
  <scstep>
   <time name="diag">    1.95    1.95</time>
   <time name="diis">    5.05    5.05</time>
   <time name="orth">    0.48    0.48</time>
   <time name="total">    7.90    7.90</time>
   <dipole>
    <v name="dipole">      0.00000000       0.00000000       0.56948175 </v>
    <i name="Tr[quadrupol]"> -11132.31292906 </i>
    <i name="Echarged">      0.00000000 </i>
    <i name="Edipol_quadrupol">      0.00000000 </i>
    <i name="Eion">      0.00000000 </i>
   </dipole>
   <energy>
    <i name="e_fr_energy">   -231.69973859 </i>
    <i name="e_wo_entrp">   -231.48173754 </i>
    <i name="e_0_energy">   -231.59073807 </i>
   </energy>
  </scstep>
  <scstep>
   <time name="diag">    1.94    1.94</time>
   <time name="diis">    5.16    5.17</time>
   <time name="orth">    0.48    0.48</time>
   <time name="total">    8.00    8.01</time>
   <dipole>
    <v name="dipole">      0.00000000       0.00000000       0.56899545 </v>
    <i name="Tr[quadrupol]"> -11132.32564878 </i>
    <i name="Echarged">      0.00000000 </i>
    <i name="Edipol_quadrupol">      0.00000000 </i>
    <i name="Eion">      0.00000000 </i>
   </dipole>
   <energy>
    <i name="e_fr_energy">   -231.69821364 </i>
    <i name="e_wo_entrp">   -231.48034994 </i>
    <i name="e_0_energy">   -231.58928179 </i>
   </energy>
  </scstep>
  <scstep>
   <time name="diag">    1.93    1.94</time>
   <time name="diis">    5.08    5.08</time>
   <time name="orth">    0.48    0.48</time>
   <time name="total">    7.92    7.92</time>
   <dipole>
    <v name="dipole">      0.00000000       0.00000000       0.56881418 </v>
    <i name="Tr[quadrupol]"> -11132.31971686 </i>
    <i name="Echarged">      0.00000000 </i>
    <i name="Edipol_quadrupol">      0.00000000 </i>
    <i name="Eion">      0.00000000 </i>
   </dipole>
   <energy>
    <i name="e_fr_energy">   -231.69815555 </i>
    <i name="e_wo_entrp">   -231.48001683 </i>
    <i name="e_0_energy">   -231.58908619 </i>
   </energy>
  </scstep>
  <scstep>
   <time name="diag">    1.95    1.96</time>
   <time name="diis">    4.92    4.98</time>
   <time name="orth">    0.48    0.48</time>
   <time name="total">    7.76    7.84</time>
   <dipole>
    <v name="dipole">      0.00000000       0.00000000       0.56875772 </v>
    <i name="Tr[quadrupol]"> -11132.32080478 </i>
    <i name="Echarged">      0.00000000 </i>
    <i name="Edipol_quadrupol">      0.00000000 </i>
    <i name="Eion">      0.00000000 </i>
   </dipole>
   <energy>
    <i name="e_fr_energy">   -231.69812540 </i>
    <i name="e_wo_entrp">   -231.48005227 </i>
    <i name="e_0_energy">   -231.58908884 </i>
   </energy>
  </scstep>
  <scstep>
   <time name="diag">    1.95    1.95</time>
   <time name="diis">    5.05    5.05</time>
   <time name="orth">    0.48    0.48</time>
   <time name="total">    7.89    7.90</time>
   <dipole>
    <v name="dipole">      0.00000000       0.00000000       0.56838658 </v>
    <i name="Tr[quadrupol]"> -11132.32061124 </i>
    <i name="Echarged">      0.00000000 </i>
    <i name="Edipol_quadrupol">      0.00000000 </i>
    <i name="Eion">      0.00000000 </i>
   </dipole>
   <energy>
    <i name="e_fr_energy">   -231.69811972 </i>
    <i name="e_wo_entrp">   -231.47977383 </i>
    <i name="e_0_energy">   -231.58894678 </i>
   </energy>
  </scstep>
  <scstep>
   <time name="diag">    1.94    1.94</time>
   <time name="diis">    5.10    5.11</time>
   <time name="orth">    0.54    0.55</time>
   <time name="total">    8.14    8.17</time>
   <dipole>
    <v name="dipole">      0.00000000       0.00000000       0.56863256 </v>
    <i name="Tr[quadrupol]"> -11132.31915082 </i>
    <i name="Echarged">      0.00000000 </i>
    <i name="Edipol_quadrupol">      0.00000000 </i>
    <i name="Eion">      0.00000000 </i>
   </dipole>
   <energy>
    <i name="e_fr_energy">   -231.69810421 </i>
    <i name="e_wo_entrp">   -231.47991201 </i>
    <i name="e_0_energy">   -231.58900811 </i>
   </energy>
  </scstep>
  <scstep>
   <time name="diag">    2.44    2.45</time>
   <time name="diis">    5.02    5.02</time>
   <time name="orth">    0.48    0.48</time>
   <time name="total">    8.37    8.39</time>
   <dipole>
    <v name="dipole">      0.00000000       0.00000000       0.56852012 </v>
    <i name="Tr[quadrupol]"> -11132.32179585 </i>
    <i name="Echarged">      0.00000000 </i>
    <i name="Edipol_quadrupol">      0.00000000 </i>
    <i name="Eion">      0.00000000 </i>
   </dipole>
   <energy>
    <i name="e_fr_energy">   -231.69810418 </i>
    <i name="e_wo_entrp">   -231.47984648 </i>
    <i name="e_0_energy">   -231.58897533 </i>
   </energy>
  </scstep>
  <scstep>
   <time name="diag">    1.94    1.94</time>
   <time name="diis">    3.38    3.39</time>
   <time name="orth">    0.47    0.47</time>
   <time name="total">    6.21    6.22</time>
   <dipole>
    <v name="dipole">      0.00000000       0.00000000       0.56860295 </v>
    <i name="Tr[quadrupol]"> -11132.32288203 </i>
    <i name="Echarged">      0.00000000 </i>
    <i name="Edipol_quadrupol">      0.00000000 </i>
    <i name="Eion">      0.00000000 </i>
   </dipole>
   <energy>
    <i name="e_fr_energy">   -231.69810543 </i>
    <i name="e_wo_entrp">   -231.47995569 </i>
    <i name="e_0_energy">   -231.58903056 </i>
   </energy>
  </scstep>
  <scstep>
   <time name="diag">    1.94    1.94</time>
   <time name="diis">    2.93    3.00</time>
   <time name="orth">    0.48    0.48</time>
   <time name="total">    5.75    5.83</time>
   <dipole>
    <v name="dipole">      0.00000000       0.00000000       0.56858373 </v>
    <i name="Tr[quadrupol]"> -11132.32404646 </i>
    <i name="Echarged">      0.00000000 </i>
    <i name="Edipol_quadrupol">      0.00000000 </i>
    <i name="Eion">      0.00000000 </i>
   </dipole>
   <energy>
    <i name="e_fr_energy">   -231.69810836 </i>
    <i name="e_wo_entrp">   -231.47993164 </i>
    <i name="e_0_energy">   -231.58902000 </i>
   </energy>
  </scstep>
  <scstep>
   <time name="diag">    1.93    1.93</time>
   <time name="diis">    3.00    3.00</time>
   <time name="orth">    0.48    0.48</time>
   <time name="total">    5.83    5.84</time>
   <dipole>
    <v name="dipole">      0.00000000       0.00000000       0.56853109 </v>
    <i name="Tr[quadrupol]"> -11132.32506667 </i>
    <i name="Echarged">      0.00000000 </i>
    <i name="Edipol_quadrupol">      0.00000000 </i>
    <i name="Eion">      0.00000000 </i>
   </dipole>
   <energy>
    <i name="e_fr_energy">   -231.69811142 </i>
    <i name="e_wo_entrp">   -231.47996486 </i>
    <i name="e_0_energy">   -231.58903814 </i>
   </energy>
  </scstep>
  <scstep>
   <time name="diag">    1.93    1.93</time>
   <time name="diis">    2.98    2.98</time>
   <time name="orth">    0.48    0.48</time>
   <time name="total">    5.82    5.82</time>
   <dipole>
    <v name="dipole">      0.00000000       0.00000000       0.56846611 </v>
    <i name="Tr[quadrupol]"> -11132.32632071 </i>
    <i name="Echarged">      0.00000000 </i>
    <i name="Edipol_quadrupol">      0.00000000 </i>
    <i name="Eion">      0.00000000 </i>
   </dipole>
   <energy>
    <i name="e_fr_energy">   -231.69811496 </i>
    <i name="e_wo_entrp">   -231.47996933 </i>
    <i name="e_0_energy">   -231.58904214 </i>
   </energy>
  </scstep>
  <scstep>
   <time name="diag">    1.93    1.94</time>
   <time name="diis">    2.50    2.50</time>
   <time name="orth">    0.48    0.48</time>
   <time name="total">    5.33    5.34</time>
   <dipole>
    <v name="dipole">      0.00000000       0.00000000       0.56841576 </v>
    <i name="Tr[quadrupol]"> -11132.32721715 </i>
    <i name="Echarged">      0.00000000 </i>
    <i name="Edipol_quadrupol">      0.00000000 </i>
    <i name="Eion">      0.00000000 </i>
   </dipole>
   <energy>
    <i name="e_fr_energy">   -231.69811763 </i>
    <i name="e_wo_entrp">   -231.47997570 </i>
    <i name="e_0_energy">   -231.58904667 </i>
   </energy>
  </scstep>
  <scstep>
   <time name="diag">    1.94    1.94</time>
   <time name="diis">    2.62    2.62</time>
   <time name="orth">    0.47    0.47</time>
   <time name="total">    5.45    5.45</time>
   <dipole>
    <v name="dipole">      0.00000000       0.00000000       0.56835645 </v>
    <i name="Tr[quadrupol]"> -11132.32809631 </i>
    <i name="Echarged">      0.00000000 </i>
    <i name="Edipol_quadrupol">      0.00000000 </i>
    <i name="Eion">      0.00000000 </i>
   </dipole>
   <energy>
    <i name="e_fr_energy">   -231.69812011 </i>
    <i name="e_wo_entrp">   -231.47998026 </i>
    <i name="e_0_energy">   -231.58905018 </i>
   </energy>
  </scstep>
  <scstep>
   <time name="diag">    1.94    1.94</time>
   <time name="diis">    2.59    2.59</time>
   <time name="orth">    0.48    0.48</time>
   <time name="total">    5.43    5.43</time>
   <dipole>
    <v name="dipole">      0.00000000       0.00000000       0.56827964 </v>
    <i name="Tr[quadrupol]"> -11132.32913051 </i>
    <i name="Echarged">      0.00000000 </i>
    <i name="Edipol_quadrupol">      0.00000000 </i>
    <i name="Eion">      0.00000000 </i>
   </dipole>
   <energy>
    <i name="e_fr_energy">   -231.69812288 </i>
    <i name="e_wo_entrp">   -231.47998210 </i>
    <i name="e_0_energy">   -231.58905249 </i>
   </energy>
  </scstep>
  <scstep>
   <time name="diag">    1.93    1.93</time>
   <time name="diis">    2.37    2.37</time>
   <time name="orth">    0.47    0.47</time>
   <time name="total">    5.19    5.20</time>
   <dipole>
    <v name="dipole">      0.00000000       0.00000000       0.56822192 </v>
    <i name="Tr[quadrupol]"> -11132.32981410 </i>
    <i name="Echarged">      0.00000000 </i>
    <i name="Edipol_quadrupol">      0.00000000 </i>
    <i name="Eion">      0.00000000 </i>
   </dipole>
   <energy>
    <i name="e_fr_energy">   -231.69812443 </i>
    <i name="e_wo_entrp">   -231.47998339 </i>
    <i name="e_0_energy">   -231.58905391 </i>
   </energy>
  </scstep>
  <scstep>
   <time name="diag">    1.93    1.93</time>
   <time name="diis">    2.49    2.50</time>
   <time name="orth">    0.46    0.49</time>
   <time name="total">    5.29    5.37</time>
   <dipole>
    <v name="dipole">      0.00000000       0.00000000       0.56813992 </v>
    <i name="Tr[quadrupol]"> -11132.33071087 </i>
    <i name="Echarged">      0.00000000 </i>
    <i name="Edipol_quadrupol">      0.00000000 </i>
    <i name="Eion">      0.00000000 </i>
   </dipole>
   <energy>
    <i name="e_fr_energy">   -231.69812612 </i>
    <i name="e_wo_entrp">   -231.47998320 </i>
    <i name="e_0_energy">   -231.58905466 </i>
   </energy>
  </scstep>
  <scstep>
   <time name="diag">    2.13    2.14</time>
   <time name="diis">    3.00    3.03</time>
   <time name="orth">    0.50    0.50</time>
   <time name="total">    6.05    6.09</time>
   <dipole>
    <v name="dipole">      0.00000000       0.00000000       0.56807106 </v>
    <i name="Tr[quadrupol]"> -11132.33148642 </i>
    <i name="Echarged">      0.00000000 </i>
    <i name="Edipol_quadrupol">      0.00000000 </i>
    <i name="Eion">      0.00000000 </i>
   </dipole>
   <energy>
    <i name="e_fr_energy">   -231.69812722 </i>
    <i name="e_wo_entrp">   -231.47998554 </i>
    <i name="e_0_energy">   -231.58905638 </i>
   </energy>
  </scstep>
  <scstep>
   <time name="diag">    1.93    1.94</time>
   <time name="diis">    2.30    2.30</time>
   <time name="orth">    0.47    0.47</time>
   <time name="total">    4.77    4.78</time>
   <dipole>
    <v name="dipole">      0.00000000       0.00000000       0.56803416 </v>
    <i name="Tr[quadrupol]"> -11132.33188321 </i>
    <i name="Echarged">      0.00000000 </i>
    <i name="Edipol_quadrupol">      0.00000000 </i>
    <i name="Eion">      0.00000000 </i>
   </dipole>
   <energy>
    <i name="alphaZ">    867.90559023 </i>
    <i name="ewald"> 235471.15007223 </i>
    <i name="hartreedc">-280706.69159024 </i>
    <i name="XCdc">   -128.12668586 </i>
    <i name="pawpsdc">  52099.29430832 </i>
    <i name="pawaedc"> -50192.08549758 </i>
    <i name="eentropy">     -0.21814077 </i>
    <i name="bandstr">  -2760.81762460 </i>
    <i name="atom">  45117.89144060 </i>
    <i name="e_fr_energy">   -231.69812767 </i>
    <i name="e_wo_entrp">   -231.47998689 </i>
    <i name="e_0_energy">   -231.58905728 </i>
   </energy>
  </scstep>
  <structure>
   <crystal>
    <varray name="basis" >
     <v>      11.00258152       0.00000000       0.00000000 </v>
     <v>       5.50129076       9.52851510       0.00000000 </v>
     <v>       0.00000000       0.00000000      26.19178509 </v>
    </varray>
    <i name="volume">   2745.90128299 </i>
    <varray name="rec_basis" >
     <v>       0.09088776      -0.05247407       0.00000000 </v>
     <v>       0.00000000       0.10494815       0.00000000 </v>
     <v>       0.00000000       0.00000000       0.03817991 </v>
    </varray>
   </crystal>
   <varray name="positions" >
    <v>       0.08333333       0.08333333       0.38179910 </v>
    <v>       0.83333333       0.33333333       0.38179910 </v>
    <v>       0.67936479       0.91298132       0.47490221 </v>
    <v>       0.01246246       0.98124809       0.55897205 </v>
    <v>       0.74801557       0.50170794       0.55852711 </v>
    <v>       0.83333333       0.58333333       0.38179910 </v>
    <v>       0.92351046       0.41739260       0.47040559 </v>
    <v>       0.00640472       0.24178088       0.56608137 </v>
    <v>       0.76303268       0.27437925       0.59871016 </v>
    <v>       0.08333333       0.58333333       0.38179910 </v>
    <v>       0.66588725       0.41890324       0.47047245 </v>
    <v>       0.26516933       0.72697084       0.60988127 </v>
    <v>       0.00834022       0.50194766       0.56085066 </v>
    <v>       0.16917543       0.66738110       0.50999042 </v>
    <v>       0.67647112       0.16295855       0.48109674 </v>
    <v>       0.41668719       0.91633261       0.46940795 </v>
    <v>       0.58333333       0.83333333       0.38179910 </v>
    <v>       0.41499444       0.67060741       0.47936643 </v>
    <v>       0.49777630       0.24406895       0.56367975 </v>
    <v>       0.17437600       0.41707088       0.47149777 </v>
    <v>       0.41772606       0.41714299       0.47135379 </v>
    <v>       0.58333333       0.08333333       0.38179910 </v>
    <v>       0.33333333       0.58333333       0.38179910 </v>
    <v>       0.08333333       0.83333333       0.38179910 </v>
    <v>       0.32687126       0.28352824       0.62259338 </v>
    <v>       0.07556127       0.85979748       0.64083110 </v>
    <v>       0.06042557       0.54768482       0.63744185 </v>
    <v>       0.80336305       0.84747326       0.62143383 </v>
    <v>       0.32935555       0.87771143       0.61782657 </v>
    <v>       0.81837638       0.08053704       0.62550219 </v>
    <v>       0.54506064       0.36653669       0.61959077 </v>
    <v>       0.57917192       0.84865197       0.60643448 </v>
    <v>       0.25379660       0.99870756       0.55723559 </v>
[...]
       <r>   -19.3872    11.9977    13.4534 </r>
       <r>   -19.2932     5.3052    13.9521 </r>
       <r>   -19.1992     1.8951    14.1302 </r>
       <r>   -19.1052     7.7362    14.8574 </r>
       <r>   -19.0112     9.4929    15.7497 </r>
       <r>   -18.9172     2.5225    15.9868 </r>
       <r>   -18.8232     0.1387    15.9999 </r>
       <r>   -18.7292     0.0015    16.0000 </r>
       <r>   -18.6352     0.0000    16.0000 </r>
       <r>   -18.5412     0.0000    16.0000 </r>
       <r>   -18.4472     0.0000    16.0000 </r>
       <r>   -18.3532     0.0000    16.0000 </r>
       <r>   -18.2592     0.0000    16.0000 </r>
       <r>   -18.1652     0.0000    16.0000 </r>
       <r>   -18.0712     0.0000    16.0000 </r>
       <r>   -17.9772     0.0000    16.0000 </r>
       <r>   -17.8832     0.0000    16.0000 </r>
       <r>   -17.7892     0.0000    16.0000 </r>
       <r>   -17.6952     0.0000    16.0000 </r>
       <r>   -17.6012     0.0000    16.0000 </r>
       <r>   -17.5072     0.0000    16.0000 </r>
       <r>   -17.4132     0.0000    16.0000 </r>
       <r>   -17.3192     0.0000    16.0000 </r>
       <r>   -17.2252     0.0000    16.0000 </r>
       <r>   -17.1312     0.0000    16.0000 </r>
       <r>   -17.0372     0.0000    16.0000 </r>
       <r>   -16.9432     0.0000    16.0000 </r>
       <r>   -16.8492     0.0000    16.0000 </r>
       <r>   -16.7552     0.0000    16.0000 </r>
       <r>   -16.6612     0.0000    16.0000 </r>
       <r>   -16.5672     0.0000    16.0000 </r>
       <r>   -16.4732     0.0000    16.0000 </r>
       <r>   -16.3792     0.0000    16.0000 </r>
       <r>   -16.2852     0.0000    16.0000 </r>
       <r>   -16.1912     0.0000    16.0000 </r>
       <r>   -16.0972     0.0000    16.0000 </r>
       <r>   -16.0032     0.0000    16.0000 </r>
       <r>   -15.9092     0.0000    16.0000 </r>
       <r>   -15.8152     0.0000    16.0000 </r>
       <r>   -15.7212     0.0000    16.0000 </r>
       <r>   -15.6272     0.0000    16.0000 </r>
       <r>   -15.5332     0.0000    16.0000 </r>
       <r>   -15.4392     0.0000    16.0000 </r>
       <r>   -15.3452     0.0000    16.0000 </r>
       <r>   -15.2512     0.0000    16.0000 </r>
       <r>   -15.1572     0.0000    16.0000 </r>
       <r>   -15.0632     0.0000    16.0000 </r>
       <r>   -14.9693     0.0000    16.0000 </r>
       <r>   -14.8753     0.0000    16.0000 </r>
       <r>   -14.7813     0.0000    16.0000 </r>
       <r>   -14.6873     0.0000    16.0000 </r>
       <r>   -14.5933     0.0000    16.0000 </r>
       <r>   -14.4993     0.0000    16.0000 </r>
       <r>   -14.4053     0.0000    16.0000 </r>
       <r>   -14.3113     0.0000    16.0000 </r>
       <r>   -14.2173     0.0000    16.0000 </r>
       <r>   -14.1233     0.0000    16.0000 </r>
       <r>   -14.0293     0.0000    16.0000 </r>
       <r>   -13.9353     0.0000    16.0000 </r>
       <r>   -13.8413     0.0000    16.0000 </r>
       <r>   -13.7473     0.0000    16.0000 </r>
       <r>   -13.6533     0.0000    16.0000 </r>
       <r>   -13.5593     0.0000    16.0000 </r>
       <r>   -13.4653     0.0000    16.0000 </r>
       <r>   -13.3713     0.0000    16.0000 </r>
       <r>   -13.2773     0.0000    16.0000 </r>
       <r>   -13.1833     0.0000    16.0000 </r>
       <r>   -13.0893     0.0000    16.0000 </r>
       <r>   -12.9953     0.0000    16.0000 </r>
       <r>   -12.9013     0.0000    16.0000 </r>
       <r>   -12.8073     0.0000    16.0000 </r>
       <r>   -12.7133     0.0000    16.0000 </r>
       <r>   -12.6193     0.0000    16.0000 </r>
       <r>   -12.5253     0.0000    16.0000 </r>
       <r>   -12.4313     0.0000    16.0000 </r>
       <r>   -12.3373     0.0000    16.0000 </r>
       <r>   -12.2433     0.0000    16.0000 </r>
       <r>   -12.1493     0.0000    16.0000 </r>
       <r>   -12.0553     0.0000    16.0000 </r>
       <r>   -11.9613     0.0000    16.0000 </r>
       <r>   -11.8673     0.0000    16.0000 </r>
       <r>   -11.7733     0.0000    16.0000 </r>
       <r>   -11.6793     0.0000    16.0000 </r>
       <r>   -11.5853     0.0000    16.0000 </r>
       <r>   -11.4913     0.0000    16.0000 </r>
       <r>   -11.3973     0.0000    16.0000 </r>
       <r>   -11.3033     0.0000    16.0000 </r>
       <r>   -11.2093     0.0000    16.0000 </r>
       <r>   -11.1153     0.0000    16.0000 </r>
       <r>   -11.0213     0.0000    16.0000 </r>
       <r>   -10.9273     0.0000    16.0000 </r>
       <r>   -10.8333     0.0000    16.0000 </r>
       <r>   -10.7393     0.0000    16.0000 </r>
       <r>   -10.6453     0.0000    16.0000 </r>
       <r>   -10.5513     0.0000    16.0000 </r>
       <r>   -10.4573     0.0000    16.0000 </r>
       <r>   -10.3633     0.0000    16.0000 </r>
       <r>   -10.2694     0.0000    16.0000 </r>
       <r>   -10.1754     0.0000    16.0000 </r>
       <r>   -10.0814     0.0000    16.0000 </r>
       <r>    -9.9874     0.0000    16.0000 </r>
       <r>    -9.8934     0.0000    16.0000 </r>
       <r>    -9.7994     0.0000    16.0000 </r>
       <r>    -9.7054     0.0000    16.0000 </r>
       <r>    -9.6114     0.0000    16.0000 </r>
       <r>    -9.5174     0.0000    16.0000 </r>
       <r>    -9.4234     0.0012    16.0001 </r>
       <r>    -9.3294     0.0929    16.0088 </r>
       <r>    -9.2354     1.4500    16.1451 </r>
       <r>    -9.1414     5.1399    16.6283 </r>
       <r>    -9.0474     6.1244    17.2040 </r>
       <r>    -8.9534     5.5489    17.7256 </r>
       <r>    -8.8594     2.5717    17.9673 </r>
       <r>    -8.7654     0.3797    18.0030 </r>
       <r>    -8.6714     0.6289    18.0621 </r>
       <r>    -8.5774     2.4029    18.2880 </r>
       <r>    -8.4834     4.6426    18.7244 </r>
       <r>    -8.3894     8.3009    19.5046 </r>
       <r>    -8.2954    11.8192    20.6156 </r>
       <r>    -8.2014    15.3568    22.0591 </r>
       <r>    -8.1074    22.3257    24.1577 </r>
       <r>    -8.0134    22.4595    26.2688 </r>
       <r>    -7.9194    21.0360    28.2462 </r>
       <r>    -7.8254    22.6024    30.3708 </r>
       <r>    -7.7314    22.7925    32.5132 </r>
       <r>    -7.6374    23.2917    34.7026 </r>
       <r>    -7.5434    24.3983    36.9960 </r>
       <r>    -7.4494    27.9065    39.6191 </r>
       <r>    -7.3554    37.4074    43.1353 </r>
       <r>    -7.2614    42.9439    47.1720 </r>
       <r>    -7.1674    48.6655    51.7464 </r>
       <r>    -7.0734    58.4604    57.2416 </r>
       <r>    -6.9794    69.3200    63.7575 </r>
       <r>    -6.8854    75.4422    70.8489 </r>
       <r>    -6.7914    74.0485    77.8094 </r>
       <r>    -6.6974    78.9551    85.2310 </r>
       <r>    -6.6034    83.1270    93.0447 </r>
       <r>    -6.5094    86.5212   101.1776 </r>
       <r>    -6.4154    88.3800   109.4851 </r>
       <r>    -6.3214    89.9876   117.9438 </r>
       <r>    -6.2274    87.1790   126.1384 </r>
       <r>    -6.1334    78.5522   133.5221 </r>
       <r>    -6.0394    76.9034   140.7509 </r>
       <r>    -5.9454    78.1182   148.0939 </r>
       <r>    -5.8514    79.1943   155.5380 </r>
       <r>    -5.7574    76.2676   162.7070 </r>
       <r>    -5.6635    73.8090   169.6449 </r>
       <r>    -5.5695    79.3096   177.0998 </r>
       <r>    -5.4755    86.3313   185.2148 </r>
       <r>    -5.3815    87.2771   193.4186 </r>
       <r>    -5.2875    89.9740   201.8760 </r>
       <r>    -5.1935    93.9827   210.7102 </r>
       <r>    -5.0995    89.3487   219.1088 </r>
       <r>    -5.0055    84.5480   227.0561 </r>
       <r>    -4.9115    85.9017   235.1307 </r>
       <r>    -4.8175    92.2601   243.8030 </r>
       <r>    -4.7235    97.1485   252.9347 </r>
       <r>    -4.6295    94.3544   261.8039 </r>
       <r>    -4.5355    90.6463   270.3244 </r>
       <r>    -4.4415    87.1554   278.5169 </r>
       <r>    -4.3475    82.8760   286.3070 </r>
       <r>    -4.2535    83.8686   294.1905 </r>
       <r>    -4.1595    92.6495   302.8994 </r>
       <r>    -4.0655    94.7886   311.8093 </r>
       <r>    -3.9715    90.4083   320.3075 </r>
       <r>    -3.8775    91.7431   328.9312 </r>
       <r>    -3.7835    95.2702   337.8864 </r>
       <r>    -3.6895    94.9406   346.8106 </r>
       <r>    -3.5955    95.6394   355.8005 </r>
       <r>    -3.5015    93.3780   364.5779 </r>
       <r>    -3.4075    90.7703   373.1101 </r>
       <r>    -3.3135    90.1535   381.5843 </r>
       <r>    -3.2195    94.0829   390.4279 </r>
       <r>    -3.1255    94.8110   399.3400 </r>
       <r>    -3.0315    95.2398   408.2923 </r>
       <r>    -2.9375    97.1718   417.4263 </r>
       <r>    -2.8435    98.3477   426.6708 </r>
       <r>    -2.7495    95.3930   435.6375 </r>
       <r>    -2.6555    93.3870   444.4157 </r>
       <r>    -2.5615    96.2033   453.4586 </r>
       <r>    -2.4675   101.0732   462.9593 </r>
       <r>    -2.3735   103.8028   472.7166 </r>
       <r>    -2.2795   103.4772   482.4432 </r>
       <r>    -2.1855   102.0630   492.0369 </r>
       <r>    -2.0915    97.1486   501.1687 </r>
       <r>    -1.9975    94.1014   510.0140 </r>
       <r>    -1.9035    96.3340   519.0692 </r>
       <r>    -1.8095    90.2408   527.5517 </r>
       <r>    -1.7155    78.8979   534.9679 </r>
       <r>    -1.6215    63.2378   540.9121 </r>
       <r>    -1.5275    51.3927   545.7430 </r>
       <r>    -1.4335    45.5749   550.0269 </r>
       <r>    -1.3395    35.9725   553.4083 </r>
       <r>    -1.2455    26.1895   555.8700 </r>
       <r>    -1.1515    25.9023   558.3048 </r>
       <r>    -1.0576    24.9849   560.6533 </r>
       <r>    -0.9636    25.4856   563.0489 </r>
       <r>    -0.8696    27.2661   565.6119 </r>
       <r>    -0.7756    27.1352   568.1625 </r>
       <r>    -0.6816    24.0098   570.4194 </r>
       <r>    -0.5876    22.9011   572.5720 </r>
       <r>    -0.4936    22.8548   574.7203 </r>
       <r>    -0.3996    19.3174   576.5361 </r>
       <r>    -0.3056    15.9469   578.0351 </r>
       <r>    -0.2116    12.9344   579.2509 </r>
       <r>    -0.1176     9.0132   580.0981 </r>
       <r>    -0.0236     8.5159   580.8986 </r>
       <r>     0.0704    15.6332   582.3681 </r>
       <r>     0.1644    18.0006   584.0601 </r>
       <r>     0.2584    17.8151   585.7347 </r>
       <r>     0.3524    21.9643   587.7993 </r>
       <r>     0.4464    23.8910   590.0450 </r>
       <r>     0.5404    21.6259   592.0778 </r>
       <r>     0.6344    19.9211   593.9504 </r>
       <r>     0.7284    17.5627   595.6012 </r>
       <r>     0.8224    15.6134   597.0688 </r>
       <r>     0.9164    15.1406   598.4920 </r>
       <r>     1.0104    13.9780   599.8059 </r>
       <r>     1.1044    11.5465   600.8913 </r>
       <r>     1.1984     9.5115   601.7853 </r>
       <r>     1.2924     8.0088   602.5382 </r>
       <r>     1.3864    10.9104   603.5637 </r>
       <r>     1.4804    12.8623   604.7727 </r>
       <r>     1.5744    15.6250   606.2415 </r>
       <r>     1.6684    20.1939   608.1397 </r>
       <r>     1.7624    21.5832   610.1684 </r>
       <r>     1.8564    18.4482   611.9025 </r>
       <r>     1.9504    15.2300   613.3341 </r>
       <r>     2.0444    15.4465   614.7861 </r>
       <r>     2.1384    16.1071   616.3001 </r>
       <r>     2.2324    17.0300   617.9009 </r>
       <r>     2.3264    14.5917   619.2725 </r>
       <r>     2.4204    12.7876   620.4745 </r>
       <r>     2.5144    13.9326   621.7841 </r>
       <r>     2.6084    12.7948   622.9868 </r>
       <r>     2.7024    11.1097   624.0311 </r>
       <r>     2.7964    11.6305   625.1243 </r>
       <r>     2.8904    12.8330   626.3306 </r>
       <r>     2.9844    15.8250   627.8181 </r>
       <r>     3.0784    16.6748   629.3855 </r>
       <r>     3.1724    15.2232   630.8165 </r>
       <r>     3.2664    16.9535   632.4101 </r>
       <r>     3.3604    17.6572   634.0698 </r>
       <r>     3.4544    15.5719   635.5335 </r>
       <r>     3.5483    15.9858   637.0362 </r>
       <r>     3.6423    15.6887   638.5109 </r>
       <r>     3.7363    15.4268   639.9609 </r>
       <r>     3.8303    13.5880   641.2382 </r>
       <r>     3.9243    16.1996   642.7609 </r>
       <r>     4.0183    17.1405   644.3721 </r>
       <r>     4.1123    18.3545   646.0974 </r>
       <r>     4.2063    19.5010   647.9304 </r>
       <r>     4.3003    15.8179   649.4173 </r>
       <r>     4.3943    14.9821   650.8256 </r>
       <r>     4.4883    18.6631   652.5799 </r>
       <r>     4.5823    24.0984   654.8451 </r>
       <r>     4.6763    25.1792   657.2119 </r>
       <r>     4.7703    26.0648   659.6619 </r>
       <r>     4.8643    27.3898   662.2365 </r>
       <r>     4.9583    29.7559   665.0335 </r>
       <r>     5.0523    31.1936   667.9656 </r>
       <r>     5.1463    25.6917   670.3806 </r>
       <r>     5.2403    13.8808   671.6853 </r>
       <r>     5.3343     3.1489   671.9813 </r>
       <r>     5.4283     0.1960   671.9997 </r>
       <r>     5.5223     0.0027   672.0000 </r>
       <r>     5.6163     0.0000   672.0000 </r>
       <r>     5.7103     0.0000   672.0000 </r>
       <r>     5.8043     0.0000   672.0000 </r>
       <r>     5.8983     0.0000   672.0000 </r>
       <r>     5.9923     0.0000   672.0000 </r>
       <r>     6.0863     0.0000   672.0000 </r>
       <r>     6.1803     0.0000   672.0000 </r>
       <r>     6.2743     0.0000   672.0000 </r>
       <r>     6.3683     0.0000   672.0000 </r>
       <r>     6.4623     0.0000   672.0000 </r>
      </set>
     </set>
    </array>
   </total>
  </dos>
 </calculation>
 <structure name="finalpos" >
  <crystal>
   <varray name="basis" >
    <v>      11.00258152       0.00000000       0.00000000 </v>
    <v>       5.50129076       9.52851510       0.00000000 </v>
    <v>       0.00000000       0.00000000      26.19178509 </v>
   </varray>
   <i name="volume">   2745.90128299 </i>
   <varray name="rec_basis" >
    <v>       0.09088776      -0.05247407       0.00000000 </v>
    <v>       0.00000000       0.10494815       0.00000000 </v>
    <v>       0.00000000       0.00000000       0.03817991 </v>
   </varray>
  </crystal>
  <varray name="positions" >
   <v>       0.08333333       0.08333333       0.38179910 </v>
   <v>       0.83333333       0.33333333       0.38179910 </v>
   <v>       0.67489635       0.91305323       0.47633279 </v>
   <v>       0.01441010       0.97448084       0.56116712 </v>
   <v>       0.75626765       0.49827707       0.56846109 </v>
   <v>       0.83333333       0.58333333       0.38179910 </v>
   <v>       0.92255941       0.41669263       0.47633928 </v>
   <v>       0.00527602       0.24373076       0.56932580 </v>
   <v>       0.74909826       0.25450744       0.56819919 </v>
   <v>       0.08333333       0.58333333       0.38179910 </v>
   <v>       0.66744595       0.41765333       0.47518438 </v>
   <v>       0.25522946       0.73139957       0.63658123 </v>
   <v>       0.01786869       0.50580113       0.56482873 </v>
   <v>       0.16251886       0.67230389       0.51701453 </v>
   <v>       0.67250824       0.16214763       0.47537520 </v>
   <v>       0.41680467       0.91615863       0.47170544 </v>
   <v>       0.58333333       0.83333333       0.38179910 </v>
   <v>       0.40983088       0.67003936       0.47647144 </v>
   <v>       0.49641359       0.25134878       0.56311299 </v>
   <v>       0.17083021       0.41895226       0.47352183 </v>
   <v>       0.41225710       0.42129527       0.47335407 </v>
   <v>       0.58333333       0.08333333       0.38179910 </v>
   <v>       0.33333333       0.58333333       0.38179910 </v>
   <v>       0.08333333       0.83333333       0.38179910 </v>
   <v>       0.34399462       0.28507385       0.62236113 </v>
   <v>       0.05564322       0.89441948       0.63744982 </v>
   <v>       0.05881770       0.53533261       0.64087670 </v>
   <v>       0.81471680       0.83153570       0.62437612 </v>
   <v>       0.34381596       0.85423837       0.61649967 </v>
   <v>       0.74361476       0.13926732       0.62798341 </v>
   <v>       0.41957282       0.53005976       0.63737001 </v>
   <v>       0.58463699       0.83549050       0.60417869 </v>
   <v>       0.25029697      -0.00457516       0.56135238 </v>
   <v>       0.58333333       0.58333333       0.38179910 </v>
   <v>       0.33333333       0.33333333       0.38179910 </v>
   <v>       0.49522111       0.00384965       0.56119354 </v>
   <v>       0.58333333       0.33333333       0.38179910 </v>
   <v>       0.41584760       0.16690364       0.47220940 </v>
   <v>       0.76574683       0.74268186       0.56576217 </v>
   <v>       0.25703653       0.49290013       0.63633136 </v>
   <v>       0.16785065       0.91125153       0.47195204 </v>
   <v>       0.48731954       0.50423478       0.56510657 </v>
   <v>       0.33333333       0.83333333       0.38179910 </v>
   <v>       0.16942599       0.16410771       0.47636075 </v>
   <v>       0.50278702       0.73673470       0.56719746 </v>
   <v>       0.83333333       0.08333333       0.38179910 </v>
   <v>       0.01875752       0.73303745       0.63709380 </v>
   <v>       0.75016946      -0.00051047       0.58104988 </v>
   <v>       0.92334686       0.91046127       0.47283664 </v>
   <v>       0.92562723       0.66871447       0.47620791 </v>
   <v>       0.08333333       0.33333333       0.38179910 </v>
   <v>       0.66931968       0.66684118       0.47720243 </v>
   <v>       0.83333333       0.83333333       0.38179910 </v>
   <v>       0.92315280       0.16129787       0.47634432 </v>
   <v>       0.24900850       0.24743309       0.56489399 </v>
   <v>       0.33333333       0.08333333       0.38179910 </v>
  </varray>
  <varray name="selective"  type="logical" >
   <v type="logical" >  F  F  F </v>
   <v type="logical" >  F  F  F </v>
   <v type="logical" >  T  T  T </v>
   <v type="logical" >  T  T  T </v>
   <v type="logical" >  T  T  T </v>
   <v type="logical" >  F  F  F </v>
   <v type="logical" >  T  T  T </v>
   <v type="logical" >  T  T  T </v>
   <v type="logical" >  T  T  T </v>
   <v type="logical" >  F  F  F </v>
   <v type="logical" >  T  T  T </v>
   <v type="logical" >  T  T  T </v>
   <v type="logical" >  T  T  T </v>
   <v type="logical" >  T  T  T </v>
   <v type="logical" >  T  T  T </v>
   <v type="logical" >  T  T  T </v>
   <v type="logical" >  F  F  F </v>
   <v type="logical" >  T  T  T </v>
   <v type="logical" >  T  T  T </v>
   <v type="logical" >  T  T  T </v>
   <v type="logical" >  T  T  T </v>
   <v type="logical" >  F  F  F </v>
   <v type="logical" >  F  F  F </v>
   <v type="logical" >  F  F  F </v>
   <v type="logical" >  T  T  T </v>
   <v type="logical" >  T  T  T </v>
   <v type="logical" >  T  T  T </v>
   <v type="logical" >  T  T  T </v>
   <v type="logical" >  T  T  T </v>
   <v type="logical" >  T  T  T </v>
   <v type="logical" >  T  T  T </v>
   <v type="logical" >  T  T  T </v>
   <v type="logical" >  T  T  T </v>
   <v type="logical" >  F  F  F </v>
   <v type="logical" >  F  F  F </v>
   <v type="logical" >  T  T  T </v>
   <v type="logical" >  F  F  F </v>
   <v type="logical" >  T  T  T </v>
   <v type="logical" >  T  T  T </v>
   <v type="logical" >  T  T  T </v>
   <v type="logical" >  T  T  T </v>
   <v type="logical" >  T  T  T </v>
   <v type="logical" >  F  F  F </v>
   <v type="logical" >  T  T  T </v>
   <v type="logical" >  T  T  T </v>
   <v type="logical" >  F  F  F </v>
   <v type="logical" >  T  T  T </v>
   <v type="logical" >  T  T  T </v>
   <v type="logical" >  T  T  T </v>
   <v type="logical" >  T  T  T </v>
   <v type="logical" >  F  F  F </v>
   <v type="logical" >  T  T  T </v>
   <v type="logical" >  F  F  F </v>
   <v type="logical" >  T  T  T </v>
   <v type="logical" >  T  T  T </v>
   <v type="logical" >  F  F  F </v>
  </varray>
  <nose>
   <v>      -3.00000000       0.00000000       0.00010000       0.00010000 </v>
  </nose>
 </structure>
</modeling>
