  48  48   0   0
  0.5349325E+02  0.1100258E-08  0.1100258E-08  0.2449179E-08  0.3500000E-15
  1.000000000000000E-004
  CAR 
 unknown system                          
      6.39507783     -9.75313943  301     -1.10482710      1.00000000
     -9.753  0.0000E+00  0.0000E+00
     -9.699  0.0000E+00  0.0000E+00
     -9.645  0.0000E+00  0.0000E+00
     -9.592  0.0000E+00  0.0000E+00
     -9.538  0.0000E+00  0.0000E+00
     -9.484  0.0000E+00  0.0000E+00
     -9.430  0.0000E+00  0.0000E+00
     -9.376  0.0000E+00  0.0000E+00
     -9.323  0.7563E-17  0.4071E-18
     -9.269  0.3053E-14  0.1648E-15
     -9.215  0.6835E-12  0.3696E-13
     -9.161  0.8691E-10  0.4715E-11
     -9.107  0.6287E-08  0.3431E-09
     -9.053  0.2593E-06  0.1430E-07
     -9.000  0.6110E-05  0.3432E-06
     -8.946  0.8245E-04  0.4781E-05
     -8.892  0.6388E-03  0.3917E-04
     -8.838  0.2848E-02  0.1925E-03
     -8.784  0.7331E-02  0.5871E-03
     -8.730  0.1102E-01  0.1180E-02
     -8.677  0.1037E-01  0.1738E-02
     -8.623  0.8525E-02  0.2197E-02
     -8.569  0.9720E-02  0.2721E-02
     -8.515  0.1088E-01  0.3306E-02
     -8.461  0.8082E-02  0.3741E-02
     -8.407  0.3667E-02  0.3939E-02
     -8.354  0.1153E-02  0.4001E-02
     -8.300  0.9890E-03  0.4054E-02
     -8.246  0.2549E-02  0.4191E-02
     -8.192  0.5129E-02  0.4467E-02
     -8.138  0.7718E-02  0.4882E-02
     -8.084  0.9111E-02  0.5373E-02
     -8.031  0.8643E-02  0.5838E-02
     -7.977  0.8788E-02  0.6311E-02
     -7.923  0.1230E-01  0.6973E-02
     -7.869  0.1686E-01  0.7881E-02
     -7.815  0.1837E-01  0.8870E-02
     -7.762  0.1696E-01  0.9783E-02
     -7.708  0.1548E-01  0.1062E-01
     -7.654  0.1381E-01  0.1136E-01
     -7.600  0.1129E-01  0.1197E-01
     -7.546  0.1132E-01  0.1258E-01
     -7.492  0.1584E-01  0.1343E-01
     -7.439  0.2102E-01  0.1456E-01
     -7.385  0.2195E-01  0.1574E-01
     -7.331  0.1873E-01  0.1675E-01
     -7.277  0.1611E-01  0.1762E-01
     -7.223  0.1921E-01  0.1865E-01
     -7.169  0.2896E-01  0.2021E-01
     -7.116  0.4088E-01  0.2241E-01
     -7.062  0.5022E-01  0.2511E-01
     -7.008  0.5588E-01  0.2812E-01
     -6.954  0.5964E-01  0.3133E-01
     -6.900  0.6295E-01  0.3472E-01
     -6.846  0.6609E-01  0.3828E-01
     -6.793  0.6986E-01  0.4204E-01
     -6.739  0.7496E-01  0.4607E-01
     -6.685  0.8194E-01  0.5048E-01
     -6.631  0.8833E-01  0.5524E-01
     -6.577  0.8958E-01  0.6006E-01
     -6.523  0.9105E-01  0.6496E-01
     -6.470  0.1024E+00  0.7047E-01
     -6.416  0.1177E+00  0.7681E-01
     -6.362  0.1251E+00  0.8354E-01
     -6.308  0.1265E+00  0.9035E-01
     -6.254  0.1319E+00  0.9745E-01
     -6.201  0.1416E+00  0.1051E+00
     -6.147  0.1488E+00  0.1131E+00
     -6.093  0.1532E+00  0.1213E+00
     -6.039  0.1584E+00  0.1298E+00
     -5.985  0.1616E+00  0.1385E+00
     -5.931  0.1599E+00  0.1472E+00
     -5.878  0.1559E+00  0.1555E+00
     -5.824  0.1529E+00  0.1638E+00
     -5.770  0.1499E+00  0.1718E+00
     -5.716  0.1472E+00  0.1798E+00
     -5.662  0.1465E+00  0.1876E+00
     -5.608  0.1459E+00  0.1955E+00
     -5.555  0.1444E+00  0.2033E+00
     -5.501  0.1450E+00  0.2111E+00
     -5.447  0.1465E+00  0.2190E+00
     -5.393  0.1442E+00  0.2267E+00
     -5.339  0.1443E+00  0.2345E+00
     -5.285  0.1535E+00  0.2428E+00
     -5.232  0.1641E+00  0.2516E+00
     -5.178  0.1677E+00  0.2606E+00
     -5.124  0.1667E+00  0.2696E+00
     -5.070  0.1656E+00  0.2785E+00
     -5.016  0.1653E+00  0.2874E+00
     -4.963  0.1664E+00  0.2964E+00
     -4.909  0.1696E+00  0.3055E+00
     -4.855  0.1749E+00  0.3149E+00
     -4.801  0.1804E+00  0.3246E+00
     -4.747  0.1826E+00  0.3344E+00
     -4.693  0.1815E+00  0.3442E+00
     -4.640  0.1806E+00  0.3539E+00
     -4.586  0.1805E+00  0.3637E+00
     -4.532  0.1795E+00  0.3733E+00
     -4.478  0.1782E+00  0.3829E+00
     -4.424  0.1777E+00  0.3925E+00
     -4.370  0.1761E+00  0.4020E+00
     -4.317  0.1731E+00  0.4113E+00
     -4.263  0.1705E+00  0.4204E+00
     -4.209  0.1696E+00  0.4296E+00
     -4.155  0.1726E+00  0.4389E+00
     -4.101  0.1781E+00  0.4485E+00
     -4.047  0.1807E+00  0.4582E+00
     -3.994  0.1789E+00  0.4678E+00
     -3.940  0.1770E+00  0.4773E+00
     -3.886  0.1777E+00  0.4869E+00
     -3.832  0.1800E+00  0.4966E+00
     -3.778  0.1815E+00  0.5064E+00
     -3.724  0.1824E+00  0.5162E+00
     -3.671  0.1863E+00  0.5262E+00
     -3.617  0.1937E+00  0.5366E+00
     -3.563  0.2006E+00  0.5474E+00
     -3.509  0.2033E+00  0.5584E+00
     -3.455  0.2011E+00  0.5692E+00
     -3.402  0.1967E+00  0.5798E+00
     -3.348  0.1929E+00  0.5902E+00
     -3.294  0.1908E+00  0.6004E+00
     -3.240  0.1903E+00  0.6107E+00
     -3.186  0.1905E+00  0.6209E+00
     -3.132  0.1910E+00  0.6312E+00
     -3.079  0.1919E+00  0.6416E+00
     -3.025  0.1920E+00  0.6519E+00
     -2.971  0.1923E+00  0.6622E+00
     -2.917  0.1932E+00  0.6726E+00
     -2.863  0.1915E+00  0.6829E+00
     -2.809  0.1866E+00  0.6930E+00
     -2.756  0.1827E+00  0.7028E+00
     -2.702  0.1835E+00  0.7127E+00
     -2.648  0.1876E+00  0.7228E+00
     -2.594  0.1885E+00  0.7330E+00
     -2.540  0.1847E+00  0.7429E+00
     -2.486  0.1827E+00  0.7527E+00
     -2.433  0.1865E+00  0.7628E+00
     -2.379  0.1922E+00  0.7731E+00
     -2.325  0.1947E+00  0.7836E+00
     -2.271  0.1918E+00  0.7939E+00
     -2.217  0.1846E+00  0.8039E+00
     -2.163  0.1771E+00  0.8134E+00
     -2.110  0.1749E+00  0.8228E+00
     -2.056  0.1794E+00  0.8325E+00
     -2.002  0.1854E+00  0.8424E+00
     -1.948  0.1890E+00  0.8526E+00
     -1.894  0.1923E+00  0.8630E+00
     -1.841  0.1986E+00  0.8737E+00
     -1.787  0.2062E+00  0.8848E+00
     -1.733  0.2102E+00  0.8961E+00
     -1.679  0.2086E+00  0.9073E+00
     -1.625  0.2047E+00  0.9183E+00
     -1.571  0.2029E+00  0.9292E+00
     -1.518  0.2024E+00  0.9401E+00
     -1.464  0.1989E+00  0.9508E+00
     -1.410  0.1920E+00  0.9612E+00
     -1.356  0.1849E+00  0.9711E+00
     -1.302  0.1785E+00  0.9807E+00
     -1.248  0.1684E+00  0.9898E+00
     -1.195  0.1486E+00  0.9978E+00
     -1.141  0.1220E+00  0.1004E+01
     -1.087  0.9715E-01  0.1010E+01
     -1.033  0.7478E-01  0.1014E+01
     -0.979  0.5349E-01  0.1017E+01
     -0.925  0.3612E-01  0.1018E+01
     -0.872  0.2402E-01  0.1020E+01
     -0.818  0.1662E-01  0.1021E+01
     -0.764  0.1455E-01  0.1021E+01
     -0.710  0.1653E-01  0.1022E+01
     -0.656  0.1954E-01  0.1023E+01
     -0.602  0.2404E-01  0.1025E+01
     -0.549  0.3235E-01  0.1026E+01
     -0.495  0.4143E-01  0.1029E+01
     -0.441  0.4595E-01  0.1031E+01
     -0.387  0.4428E-01  0.1033E+01
     -0.333  0.3968E-01  0.1036E+01
     -0.280  0.3941E-01  0.1038E+01
     -0.226  0.4281E-01  0.1040E+01
     -0.172  0.4009E-01  0.1042E+01
     -0.118  0.3070E-01  0.1044E+01
     -0.064  0.2307E-01  0.1045E+01
     -0.010  0.2105E-01  0.1046E+01
      0.043  0.2286E-01  0.1047E+01
      0.097  0.2652E-01  0.1049E+01
      0.151  0.3087E-01  0.1051E+01
      0.205  0.3235E-01  0.1052E+01
      0.259  0.2960E-01  0.1054E+01
      0.313  0.2945E-01  0.1055E+01
      0.366  0.3545E-01  0.1057E+01
      0.420  0.4199E-01  0.1060E+01
      0.474  0.4543E-01  0.1062E+01
      0.528  0.4664E-01  0.1065E+01
      0.582  0.4639E-01  0.1067E+01
      0.636  0.4639E-01  0.1070E+01
      0.689  0.4763E-01  0.1072E+01
      0.743  0.4602E-01  0.1075E+01
      0.797  0.3860E-01  0.1077E+01
      0.851  0.2828E-01  0.1078E+01
      0.905  0.1907E-01  0.1079E+01
      0.959  0.1462E-01  0.1080E+01
      1.012  0.1701E-01  0.1081E+01
      1.066  0.2194E-01  0.1082E+01
      1.120  0.2224E-01  0.1083E+01
      1.174  0.1895E-01  0.1084E+01
      1.228  0.1761E-01  0.1085E+01
      1.281  0.1726E-01  0.1086E+01
      1.335  0.1457E-01  0.1087E+01
      1.389  0.1189E-01  0.1088E+01
      1.443  0.1473E-01  0.1088E+01
      1.497  0.2468E-01  0.1090E+01
      1.551  0.3500E-01  0.1092E+01
      1.604  0.3774E-01  0.1094E+01
      1.658  0.3506E-01  0.1096E+01
      1.712  0.3389E-01  0.1097E+01
      1.766  0.3565E-01  0.1099E+01
      1.820  0.3551E-01  0.1101E+01
      1.874  0.2903E-01  0.1103E+01
      1.927  0.1989E-01  0.1104E+01
      1.981  0.1557E-01  0.1105E+01
      2.035  0.1644E-01  0.1106E+01
      2.089  0.1927E-01  0.1107E+01
      2.143  0.2393E-01  0.1108E+01
      2.197  0.3073E-01  0.1110E+01
      2.250  0.3857E-01  0.1112E+01
      2.304  0.4474E-01  0.1114E+01
      2.358  0.4825E-01  0.1117E+01
      2.412  0.5050E-01  0.1119E+01
      2.466  0.5051E-01  0.1122E+01
      2.520  0.4730E-01  0.1125E+01
      2.573  0.4420E-01  0.1127E+01
      2.627  0.4482E-01  0.1129E+01
      2.681  0.4756E-01  0.1132E+01
      2.735  0.4546E-01  0.1134E+01
      2.789  0.3486E-01  0.1136E+01
      2.842  0.2125E-01  0.1137E+01
      2.896  0.1251E-01  0.1138E+01
      2.950  0.1115E-01  0.1139E+01
      3.004  0.1217E-01  0.1139E+01
      3.058  0.1197E-01  0.1140E+01
      3.112  0.1441E-01  0.1141E+01
      3.165  0.2161E-01  0.1142E+01
      3.219  0.2778E-01  0.1143E+01
      3.273  0.2649E-01  0.1145E+01
      3.327  0.1958E-01  0.1146E+01
      3.381  0.1451E-01  0.1147E+01
      3.435  0.1440E-01  0.1148E+01
      3.488  0.1777E-01  0.1148E+01
      3.542  0.2298E-01  0.1150E+01
      3.596  0.2891E-01  0.1151E+01
      3.650  0.3578E-01  0.1153E+01
      3.704  0.4248E-01  0.1155E+01
      3.758  0.4316E-01  0.1158E+01
      3.811  0.3462E-01  0.1160E+01
      3.865  0.2371E-01  0.1161E+01
      3.919  0.1895E-01  0.1162E+01
      3.973  0.2225E-01  0.1163E+01
      4.027  0.2897E-01  0.1165E+01
      4.081  0.3146E-01  0.1166E+01
      4.134  0.2847E-01  0.1168E+01
      4.188  0.2550E-01  0.1169E+01
      4.242  0.2343E-01  0.1171E+01
      4.296  0.1905E-01  0.1172E+01
      4.350  0.1664E-01  0.1172E+01
      4.403  0.2182E-01  0.1174E+01
      4.457  0.3018E-01  0.1175E+01
      4.511  0.3749E-01  0.1177E+01
      4.565  0.4631E-01  0.1180E+01
      4.619  0.5492E-01  0.1183E+01
      4.673  0.5585E-01  0.1186E+01
      4.726  0.4752E-01  0.1188E+01
      4.780  0.3834E-01  0.1190E+01
      4.834  0.3714E-01  0.1192E+01
      4.888  0.4402E-01  0.1195E+01
      4.942  0.5337E-01  0.1198E+01
      4.996  0.6254E-01  0.1201E+01
      5.049  0.6989E-01  0.1205E+01
      5.103  0.7083E-01  0.1209E+01
      5.157  0.6625E-01  0.1212E+01
      5.211  0.6234E-01  0.1215E+01
      5.265  0.5701E-01  0.1219E+01
      5.319  0.4460E-01  0.1221E+01
      5.372  0.2908E-01  0.1223E+01
      5.426  0.1658E-01  0.1223E+01
      5.480  0.7795E-02  0.1224E+01
      5.534  0.2588E-02  0.1224E+01
      5.588  0.5417E-03  0.1224E+01
      5.641  0.6778E-04  0.1224E+01
      5.695  0.4961E-05  0.1224E+01
      5.749  0.2101E-06  0.1224E+01
      5.803  0.5114E-08  0.1224E+01
      5.857  0.7128E-10  0.1224E+01
      5.911  0.5666E-12  0.1224E+01
      5.964  0.2563E-14  0.1224E+01
      6.018  0.6875E-17  0.1224E+01
      6.072  0.0000E+00  0.1224E+01
      6.126  0.0000E+00  0.1224E+01
      6.180  0.0000E+00  0.1224E+01
      6.234  0.0000E+00  0.1224E+01
      6.287  0.0000E+00  0.1224E+01
      6.341  0.0000E+00  0.1224E+01
      6.395  0.0000E+00  0.1224E+01
