       N       E                     dE             d eps       ncg     rms          rms(c)
DAV:   1     0.320101134402E+04    0.32010E+04   -0.18983E+05  3672   0.112E+03
DAV:   2     0.140407990878E+02   -0.31870E+04   -0.29347E+04  4392   0.263E+02
DAV:   3    -0.200716596631E+03   -0.21476E+03   -0.20021E+03  4164   0.650E+01
DAV:   4    -0.206374877225E+03   -0.56583E+01   -0.55967E+01  4236   0.107E+01
DAV:   5    -0.206557142591E+03   -0.18227E+00   -0.18168E+00  4560   0.196E+00    0.624E+01
RMM:   6    -0.207589911694E+03   -0.10328E+01   -0.98395E+01  3678   0.154E+01    0.585E+01
RMM:   7    -0.219585385308E+03   -0.11995E+02   -0.65693E+01  3681   0.124E+01    0.531E+01
RMM:   8    -0.217408436185E+03    0.21769E+01   -0.90806E+01  3678   0.146E+01    0.418E+01
RMM:   9    -0.208578640839E+03    0.88298E+01   -0.46175E+01  3681   0.110E+01    0.328E+01
RMM:  10    -0.196099390211E+03    0.12479E+02   -0.22068E+01  3682   0.788E+00    0.186E+01
RMM:  11    -0.191871204211E+03    0.42282E+01   -0.11088E+01  3681   0.525E+00    0.125E+01
RMM:  12    -0.189397788237E+03    0.24734E+01   -0.39818E+00  3681   0.307E+00    0.834E+00
RMM:  13    -0.189278387349E+03    0.11940E+00   -0.11528E+00  3681   0.168E+00    0.682E+00
RMM:  14    -0.189182923645E+03    0.95464E-01   -0.45806E-01  3681   0.103E+00    0.650E+00
RMM:  15    -0.189198499140E+03   -0.15575E-01   -0.63467E-01  3678   0.125E+00    0.515E+00
RMM:  16    -0.188944865677E+03    0.25363E+00   -0.29394E-01  3681   0.837E-01    0.295E+00
RMM:  17    -0.188870882158E+03    0.73984E-01   -0.84537E-02  3679   0.439E-01    0.222E+00
RMM:  18    -0.188833691003E+03    0.37191E-01   -0.44292E-02  3680   0.317E-01    0.148E+00
RMM:  19    -0.188816315808E+03    0.17375E-01   -0.11583E-02  3681   0.160E-01    0.964E-01
RMM:  20    -0.188808042855E+03    0.82730E-02   -0.89800E-03  3679   0.136E-01    0.609E-01
RMM:  21    -0.188806365504E+03    0.16774E-02   -0.46114E-03  3681   0.101E-01    0.431E-01
RMM:  22    -0.188804802019E+03    0.15635E-02   -0.31648E-03  3679   0.801E-02    0.288E-01
RMM:  23    -0.188804365783E+03    0.43624E-03   -0.10429E-03  3682   0.491E-02    0.142E-01
RMM:  24    -0.188804367849E+03   -0.20662E-05   -0.39464E-04  3683   0.303E-02    0.825E-02
RMM:  25    -0.188804553489E+03   -0.18564E-03   -0.10809E-04  3681   0.154E-02    0.653E-02
RMM:  26    -0.188804810243E+03   -0.25675E-03   -0.83835E-05  3680   0.129E-02    0.521E-02
RMM:  27    -0.188805298863E+03   -0.48862E-03   -0.63333E-05  3672   0.113E-02    0.458E-02
RMM:  28    -0.188805766477E+03   -0.46761E-03   -0.44551E-05  3672   0.967E-03    0.275E-02
RMM:  29    -0.188806153441E+03   -0.38696E-03   -0.20938E-05  3634   0.656E-03    0.174E-02
RMM:  30    -0.188806844515E+03   -0.69107E-03   -0.34017E-05  3618   0.782E-03    0.206E-02
RMM:  31    -0.188807317074E+03   -0.47256E-03   -0.31414E-05  3541   0.758E-03    0.165E-02
RMM:  32    -0.188807600308E+03   -0.28323E-03   -0.19188E-05  3166   0.553E-03    0.121E-02
RMM:  33    -0.188807700370E+03   -0.10006E-03   -0.58767E-06  2710   0.302E-03    0.539E-03
RMM:  34    -0.188807811799E+03   -0.11143E-03   -0.32237E-06  2505   0.229E-03    0.244E-03
RMM:  35    -0.188807857309E+03   -0.45510E-04   -0.96226E-07  2174   0.132E-03    0.320E-03
RMM:  36    -0.188807898304E+03   -0.40995E-04   -0.71560E-07  2152   0.119E-03    0.185E-03
RMM:  37    -0.188807920753E+03   -0.22449E-04   -0.44576E-07  2120   0.896E-04    0.213E-03
RMM:  38    -0.188807931162E+03   -0.10409E-04   -0.26834E-07  1634   0.687E-04    0.118E-03
RMM:  39    -0.188807935582E+03   -0.44202E-05   -0.13679E-07  1479   0.525E-04    0.756E-04
RMM:  40    -0.188807937325E+03   -0.17424E-05   -0.58736E-08  1036   0.400E-04    0.503E-04
RMM:  41    -0.188807938643E+03   -0.13186E-05   -0.34662E-08   912   0.371E-04    0.370E-04
RMM:  42    -0.188807939916E+03   -0.12728E-05   -0.38701E-08   826   0.342E-04    0.335E-04
RMM:  43    -0.188807940748E+03   -0.83195E-06   -0.19973E-08   589   0.311E-04
   1 F= -.18880794E+03 E0= -.18867826E+03  d E =-.188808E+03
       N       E                     dE             d eps       ncg     rms          rms(c)
DAV:   1    -0.189899703440E+03   -0.10918E+01   -0.38066E+02  3672   0.299E+01    0.379E+00
RMM:   2    -0.190289856972E+03   -0.39015E+00   -0.39873E+00  3678   0.432E+00    0.231E+00
RMM:   3    -0.190403983753E+03   -0.11413E+00   -0.37751E-01  3705   0.107E+00    0.389E+00
RMM:   4    -0.190277723806E+03    0.12626E+00   -0.15981E-01  3687   0.673E-01    0.152E+00
RMM:   5    -0.190352223229E+03   -0.74499E-01   -0.95271E-02  3686   0.468E-01    0.296E+00
RMM:   6    -0.190276131622E+03    0.76092E-01   -0.59494E-02  3683   0.370E-01    0.123E+00
RMM:   7    -0.190261486508E+03    0.14645E-01   -0.19360E-02  3682   0.222E-01    0.538E-01
RMM:   8    -0.190259744047E+03    0.17425E-02   -0.60468E-03  3683   0.121E-01    0.385E-01
RMM:   9    -0.190258123996E+03    0.16201E-02   -0.25790E-03  3685   0.804E-02    0.136E-01
RMM:  10    -0.190258006619E+03    0.11738E-03   -0.78439E-04  3685   0.436E-02    0.969E-02
RMM:  11    -0.190257934174E+03    0.72445E-04   -0.17150E-04  3688   0.211E-02    0.521E-02
RMM:  12    -0.190257932434E+03    0.17402E-05   -0.49367E-05  3685   0.112E-02    0.437E-02
RMM:  13    -0.190257924387E+03    0.80465E-05   -0.28835E-05  3672   0.872E-03    0.273E-02
RMM:  14    -0.190257920622E+03    0.37651E-05   -0.13135E-05  3649   0.593E-03    0.139E-02
RMM:  15    -0.190257919752E+03    0.87059E-06   -0.38395E-06  2726   0.320E-03
   2 F= -.19025792E+03 E0= -.19013087E+03  d E =-.144998E+01
       N       E                     dE             d eps       ncg     rms          rms(c)
DAV:   1    -0.188670313734E+03    0.15876E+01   -0.35709E+03  3672   0.941E+01    0.894E+00
RMM:   2    -0.192123741881E+03   -0.34534E+01   -0.35405E+01  3680   0.130E+01    0.541E+00
RMM:   3    -0.192652886526E+03   -0.52914E+00   -0.23982E+00  3709   0.268E+00    0.948E+00
RMM:   4    -0.191998428235E+03    0.65446E+00   -0.75520E-01  3687   0.148E+00    0.426E+00
RMM:   5    -0.192481102053E+03   -0.48267E+00   -0.55999E-01  3687   0.112E+00    0.763E+00
RMM:   6    -0.192012206014E+03    0.46890E+00   -0.53659E-01  3684   0.112E+00    0.361E+00
RMM:   7    -0.191871065502E+03    0.14114E+00   -0.24376E-01  3682   0.782E-01    0.147E+00
RMM:   8    -0.191848324582E+03    0.22741E-01   -0.56106E-02  3682   0.374E-01    0.995E-01
RMM:   9    -0.191837204890E+03    0.11120E-01   -0.22456E-02  3685   0.234E-01    0.475E-01
RMM:  10    -0.191836248104E+03    0.95679E-03   -0.59860E-03  3683   0.121E-01    0.344E-01
RMM:  11    -0.191835227222E+03    0.10209E-02   -0.22204E-03  3686   0.751E-02    0.154E-01
RMM:  12    -0.191835217875E+03    0.93477E-05   -0.71028E-04  3683   0.428E-02    0.130E-01
RMM:  13    -0.191835077405E+03    0.14047E-03   -0.31675E-04  3679   0.291E-02    0.558E-02
RMM:  14    -0.191835072968E+03    0.44369E-05   -0.90407E-05  3683   0.153E-02    0.368E-02
RMM:  15    -0.191835067896E+03    0.50719E-05   -0.25945E-05  3680   0.824E-03    0.171E-02
RMM:  16    -0.191835074335E+03   -0.64386E-05   -0.70809E-06  3040   0.429E-03    0.127E-02
RMM:  17    -0.191835079997E+03   -0.56619E-05   -0.27954E-06  2494   0.281E-03    0.650E-03
RMM:  18    -0.191835088303E+03   -0.83059E-05   -0.95425E-07  2099   0.170E-03    0.536E-03
RMM:  19    -0.191835093409E+03   -0.51063E-05   -0.49382E-07  2068   0.123E-03    0.255E-03
RMM:  20    -0.191835099140E+03   -0.57308E-05   -0.20713E-07  1752   0.694E-04    0.135E-03
RMM:  21    -0.191835104250E+03   -0.51103E-05   -0.14784E-07  1491   0.572E-04    0.120E-03
RMM:  22    -0.191835114438E+03   -0.10188E-04   -0.39850E-07  1952   0.713E-04    0.103E-03
RMM:  23    -0.191835119300E+03   -0.48625E-05   -0.22881E-07  1406   0.551E-04    0.777E-04
RMM:  24    -0.191835123823E+03   -0.45220E-05   -0.31160E-07  1761   0.607E-04    0.467E-04
RMM:  25    -0.191835125173E+03   -0.13500E-05   -0.91291E-08   946   0.396E-04    0.416E-04
RMM:  26    -0.191835126318E+03   -0.11456E-05   -0.10080E-07  1031   0.416E-04    0.238E-04
RMM:  27    -0.191835126729E+03   -0.41121E-06   -0.44356E-08   761   0.376E-04
   3 F= -.19183513E+03 E0= -.19171400E+03  d E =-.302719E+01
       N       E                     dE             d eps       ncg     rms          rms(c)
DAV:   1    -0.191986073651E+03   -0.15095E+00   -0.37915E+02  3672   0.301E+01    0.268E+00
RMM:   2    -0.192395011405E+03   -0.40894E+00   -0.42533E+00  3687   0.440E+00    0.181E+00
RMM:   3    -0.192492198047E+03   -0.97187E-01   -0.31869E-01  3711   0.977E-01    0.383E+00
RMM:   4    -0.192390250686E+03    0.10195E+00   -0.87860E-02  3685   0.500E-01    0.157E+00
RMM:   5    -0.192389634265E+03    0.61642E-03   -0.39947E-02  3686   0.303E-01    0.155E+00
RMM:   6    -0.192377922736E+03    0.11712E-01   -0.56080E-02  3683   0.369E-01    0.105E+00
RMM:   7    -0.192365890035E+03    0.12033E-01   -0.19493E-02  3681   0.222E-01    0.411E-01
RMM:   8    -0.192364701599E+03    0.11884E-02   -0.55026E-03  3683   0.116E-01    0.348E-01
RMM:   9    -0.192363137369E+03    0.15642E-02   -0.21644E-03  3682   0.735E-02    0.121E-01
RMM:  10    -0.192363040683E+03    0.96686E-04   -0.50776E-04  3684   0.349E-02    0.793E-02
RMM:  11    -0.192362983652E+03    0.57031E-04   -0.17102E-04  3684   0.203E-02    0.425E-02
RMM:  12    -0.192362981957E+03    0.16949E-05   -0.59706E-05  3685   0.122E-02    0.351E-02
RMM:  13    -0.192362975426E+03    0.65310E-05   -0.22836E-05  3681   0.777E-03    0.185E-02
RMM:  14    -0.192362975207E+03    0.21928E-06   -0.53757E-06  2931   0.395E-03
   4 F= -.19236298E+03 E0= -.19224516E+03  d E =-.527848E+00
       N       E                     dE             d eps       ncg     rms          rms(c)
DAV:   1    -0.192346406104E+03    0.16569E-01   -0.59262E+01  3720   0.119E+01    0.961E-01
RMM:   2    -0.192412353387E+03   -0.65947E-01   -0.67800E-01  3686   0.176E+00    0.776E-01
RMM:   3    -0.192427583482E+03   -0.15230E-01   -0.51989E-02  3712   0.394E-01    0.151E+00
RMM:   4    -0.192411401309E+03    0.16182E-01   -0.13205E-02  3686   0.191E-01    0.666E-01
RMM:   5    -0.192408119245E+03    0.32821E-02   -0.46259E-03  3685   0.106E-01    0.414E-01
RMM:   6    -0.192408021913E+03    0.97332E-04   -0.87722E-03  3682   0.146E-01    0.363E-01
RMM:   7    -0.192406708604E+03    0.13133E-02   -0.30837E-03  3681   0.880E-02    0.162E-01
RMM:   8    -0.192406504870E+03    0.20373E-03   -0.76251E-04  3685   0.436E-02    0.130E-01
RMM:   9    -0.192406286359E+03    0.21851E-03   -0.30548E-04  3681   0.278E-02    0.470E-02
RMM:  10    -0.192406268813E+03    0.17547E-04   -0.81073E-05  3682   0.138E-02    0.316E-02
RMM:  11    -0.192406259254E+03    0.95591E-05   -0.29059E-05  3680   0.826E-03    0.156E-02
RMM:  12    -0.192406260580E+03   -0.13268E-05   -0.99151E-06  3671   0.494E-03    0.135E-02
RMM:  13    -0.192406260899E+03   -0.31826E-06   -0.39687E-06  2652   0.331E-03
   5 F= -.19240626E+03 E0= -.19228967E+03  d E =-.571134E+00
       N       E                     dE             d eps       ncg     rms          rms(c)
DAV:   1    -0.192420003592E+03   -0.13743E-01   -0.31261E+01  3708   0.864E+00    0.709E-01
RMM:   2    -0.192453267100E+03   -0.33264E-01   -0.34797E-01  3686   0.126E+00    0.508E-01
RMM:   3    -0.192466717911E+03   -0.13451E-01   -0.25205E-02  3712   0.271E-01    0.122E+00
RMM:   4    -0.192452200078E+03    0.14518E-01   -0.75438E-03  3684   0.140E-01    0.377E-01
RMM:   5    -0.192452103821E+03    0.96257E-04   -0.39064E-03  3682   0.998E-02    0.328E-01
RMM:   6    -0.192451636966E+03    0.46686E-03   -0.38505E-03  3684   0.987E-02    0.243E-01
RMM:   7    -0.192451105462E+03    0.53150E-03   -0.11273E-03  3681   0.532E-02    0.116E-01
RMM:   8    -0.192450960978E+03    0.14448E-03   -0.27134E-04  3686   0.271E-02    0.586E-02
RMM:   9    -0.192450917877E+03    0.43102E-04   -0.11083E-04  3681   0.164E-02    0.366E-02
RMM:  10    -0.192450901723E+03    0.16154E-04   -0.36371E-05  3681   0.944E-03    0.193E-02
RMM:  11    -0.192450898969E+03    0.27537E-05   -0.12055E-05  3672   0.540E-03    0.111E-02
RMM:  12    -0.192450899022E+03   -0.52161E-07   -0.58839E-06  3602   0.372E-03
   6 F= -.19245090E+03 E0= -.19233540E+03  d E =-.446381E-01
       N       E                     dE             d eps       ncg     rms          rms(c)
DAV:   1    -0.192450467410E+03    0.43156E-03   -0.36865E+00  3744   0.296E+00    0.237E-01
RMM:   2    -0.192454399662E+03   -0.39323E-02   -0.41078E-02  3686   0.433E-01    0.179E-01
RMM:   3    -0.192455884966E+03   -0.14853E-02   -0.29930E-03  3712   0.933E-02    0.409E-01
RMM:   4    -0.192454219271E+03    0.16657E-02   -0.86192E-04  3684   0.476E-02    0.130E-01
RMM:   5    -0.192454233673E+03   -0.14402E-04   -0.41254E-04  3682   0.325E-02    0.111E-01
RMM:   6    -0.192454199032E+03    0.34641E-04   -0.47922E-04  3684   0.346E-02    0.909E-02
RMM:   7    -0.192454121156E+03    0.77876E-04   -0.15260E-04  3681   0.196E-02    0.375E-02
RMM:   8    -0.192454105965E+03    0.15192E-04   -0.31236E-05  3683   0.922E-03    0.186E-02
RMM:   9    -0.192454101684E+03    0.42802E-05   -0.13473E-05  3672   0.570E-03    0.136E-02
RMM:  10    -0.192454099444E+03    0.22404E-05   -0.40206E-06  2698   0.323E-03    0.702E-03
RMM:  11    -0.192454099162E+03    0.28190E-06   -0.16140E-06  1977   0.225E-03
   7 F= -.19245410E+03 E0= -.19233897E+03  d E =-.478383E-01
       N       E                     dE             d eps       ncg     rms          rms(c)
DAV:   1    -0.192457988559E+03   -0.38891E-02   -0.61576E+00  3684   0.382E+00    0.226E-01
RMM:   2    -0.192464449711E+03   -0.64612E-02   -0.68898E-02  3684   0.562E-01    0.182E-01
RMM:   3    -0.192464571229E+03   -0.12152E-03   -0.39124E-03  3733   0.112E-01    0.177E-01
RMM:   4    -0.192464384565E+03    0.18666E-03   -0.61128E-04  3676   0.423E-02    0.143E-01
RMM:   5    -0.192464649230E+03   -0.26467E-03   -0.51600E-04  3686   0.342E-02    0.225E-01
RMM:   6    -0.192464231332E+03    0.41790E-03   -0.58475E-04  3681   0.374E-02    0.132E-01
RMM:   7    -0.192464164161E+03    0.67171E-04   -0.47292E-04  3684   0.342E-02    0.699E-02
RMM:   8    -0.192464135221E+03    0.28940E-04   -0.91864E-05  3682   0.154E-02    0.362E-02
RMM:   9    -0.192464121041E+03    0.14180E-04   -0.24386E-05  3677   0.781E-03    0.268E-02
RMM:  10    -0.192464108506E+03    0.12535E-04   -0.20972E-05  3674   0.697E-03    0.125E-02
RMM:  11    -0.192464106424E+03    0.20817E-05   -0.97409E-06  3672   0.470E-03    0.813E-03
RMM:  12    -0.192464105901E+03    0.52335E-06   -0.55630E-06  3366   0.352E-03
   8 F= -.19246411E+03 E0= -.19234901E+03  d E =-.100067E-01
       N       E                     dE             d eps       ncg     rms          rms(c)
DAV:   1    -0.192461540407E+03    0.25660E-02   -0.65322E+00  3684   0.394E+00    0.230E-01
RMM:   2    -0.192468394812E+03   -0.68544E-02   -0.72968E-02  3684   0.578E-01    0.187E-01
RMM:   3    -0.192468523181E+03   -0.12837E-03   -0.41388E-03  3732   0.115E-01    0.183E-01
RMM:   4    -0.192468329545E+03    0.19364E-03   -0.63218E-04  3676   0.430E-02    0.149E-01
RMM:   5    -0.192468587325E+03   -0.25778E-03   -0.51795E-04  3687   0.342E-02    0.232E-01
RMM:   6    -0.192468141082E+03    0.44624E-03   -0.64330E-04  3681   0.394E-02    0.130E-01
RMM:   7    -0.192468081809E+03    0.59273E-04   -0.51570E-04  3684   0.357E-02    0.712E-02
RMM:   8    -0.192468051775E+03    0.30034E-04   -0.98059E-05  3682   0.160E-02    0.377E-02
RMM:   9    -0.192468036754E+03    0.15020E-04   -0.25866E-05  3678   0.805E-03    0.284E-02
RMM:  10    -0.192468022967E+03    0.13788E-04   -0.22373E-05  3674   0.720E-03    0.132E-02
RMM:  11    -0.192468020643E+03    0.23234E-05   -0.10669E-05  3672   0.492E-03    0.873E-03
RMM:  12    -0.192468020045E+03    0.59857E-06   -0.63640E-06  3555   0.374E-03
   9 F= -.19246802E+03 E0= -.19235297E+03  d E =-.139209E-01
       N       E                     dE             d eps       ncg     rms          rms(c)
DAV:   1    -0.192469428492E+03   -0.14078E-02   -0.71991E+00  3672   0.413E+00    0.208E-01
RMM:   2    -0.192477020289E+03   -0.75918E-02   -0.79262E-02  3683   0.607E-01    0.211E-01
RMM:   3    -0.192477144727E+03   -0.12444E-03   -0.46562E-03  3777   0.122E-01    0.205E-01
RMM:   4    -0.192476977905E+03    0.16682E-03   -0.60054E-04  3676   0.416E-02    0.193E-01
RMM:   5    -0.192476805602E+03    0.17230E-03   -0.27470E-04  3688   0.262E-02    0.156E-01
RMM:   6    -0.192476668702E+03    0.13690E-03   -0.79600E-04  3681   0.430E-02    0.136E-01
RMM:   7    -0.192476597549E+03    0.71153E-04   -0.87156E-04  3684   0.455E-02    0.853E-02
RMM:   8    -0.192476563949E+03    0.33599E-04   -0.15772E-04  3683   0.200E-02    0.493E-02
RMM:   9    -0.192476543826E+03    0.20124E-04   -0.26100E-05  3682   0.815E-03    0.395E-02
RMM:  10    -0.192476520004E+03    0.23822E-04   -0.31818E-05  3679   0.863E-03    0.214E-02
RMM:  11    -0.192476513163E+03    0.68402E-05   -0.27217E-05  3681   0.773E-03    0.126E-02
RMM:  12    -0.192476511905E+03    0.12579E-05   -0.15644E-05  3672   0.585E-03    0.609E-03
RMM:  13    -0.192476511956E+03   -0.50386E-07   -0.15909E-06  2007   0.216E-03
  10 F= -.19247651E+03 E0= -.19236119E+03  d E =-.849191E-02
       N       E                     dE             d eps       ncg     rms          rms(c)
DAV:   1    -0.192465341138E+03    0.11171E-01   -0.17881E+01  3672   0.650E+00    0.327E-01
RMM:   2    -0.192484261132E+03   -0.18920E-01   -0.19656E-01  3683   0.957E-01    0.330E-01
RMM:   3    -0.192484571805E+03   -0.31067E-03   -0.11499E-02  3771   0.192E-01    0.318E-01
RMM:   4    -0.192484144897E+03    0.42691E-03   -0.14729E-03  3676   0.653E-02    0.300E-01
RMM:   5    -0.192483730719E+03    0.41418E-03   -0.66972E-04  3688   0.409E-02    0.247E-01
RMM:   6    -0.192483331896E+03    0.39882E-03   -0.19814E-03  3681   0.678E-02    0.211E-01
RMM:   7    -0.192483143444E+03    0.18845E-03   -0.21449E-03  3684   0.713E-02    0.133E-01
RMM:   8    -0.192483058437E+03    0.85006E-04   -0.37956E-04  3684   0.310E-02    0.782E-02
RMM:   9    -0.192483008150E+03    0.50288E-04   -0.64920E-05  3686   0.128E-02    0.622E-02
RMM:  10    -0.192482948863E+03    0.59286E-04   -0.80077E-05  3679   0.137E-02    0.335E-02
RMM:  11    -0.192482931659E+03    0.17205E-04   -0.67979E-05  3683   0.122E-02    0.193E-02
RMM:  12    -0.192482928867E+03    0.27922E-05   -0.38562E-05  3681   0.917E-03    0.969E-03
RMM:  13    -0.192482928954E+03   -0.87188E-07   -0.41474E-06  2805   0.334E-03
  11 F= -.19248293E+03 E0= -.19236718E+03  d E =-.149089E-01
       N       E                     dE             d eps       ncg     rms          rms(c)
DAV:   1    -0.192482239646E+03    0.68922E-03   -0.95170E-01  3732   0.150E+00    0.743E-02
RMM:   2    -0.192483228409E+03   -0.98876E-03   -0.10424E-02  3683   0.221E-01    0.762E-02
RMM:   3    -0.192483233256E+03   -0.48466E-05   -0.60598E-04  3784   0.443E-02    0.698E-02
RMM:   4    -0.192483214516E+03    0.18740E-04   -0.73567E-05  3675   0.147E-02    0.679E-02
RMM:   5    -0.192483200332E+03    0.14184E-04   -0.35237E-05  3689   0.938E-03    0.594E-02
RMM:   6    -0.192483184179E+03    0.16153E-04   -0.10829E-04  3680   0.158E-02    0.501E-02
RMM:   7    -0.192483177942E+03    0.62367E-05   -0.12093E-04  3684   0.169E-02    0.316E-02
RMM:   8    -0.192483173523E+03    0.44194E-05   -0.20848E-05  3672   0.727E-03    0.185E-02
RMM:   9    -0.192483170743E+03    0.27794E-05   -0.32725E-06  2532   0.296E-03    0.148E-02
RMM:  10    -0.192483167439E+03    0.33040E-05   -0.44396E-06  2972   0.340E-03    0.810E-03
RMM:  11    -0.192483166494E+03    0.94557E-06   -0.45204E-06  2958   0.336E-03
  12 F= -.19248317E+03 E0= -.19236732E+03  d E =-.151464E-01
       N       E                     dE             d eps       ncg     rms          rms(c)
DAV:   1    -0.192479295951E+03    0.38715E-02   -0.86892E+00  3672   0.454E+00    0.233E-01
RMM:   2    -0.192488499918E+03   -0.92040E-02   -0.94443E-02  3682   0.664E-01    0.236E-01
RMM:   3    -0.192488814228E+03   -0.31431E-03   -0.57287E-03  3740   0.134E-01    0.250E-01
RMM:   4    -0.192488363153E+03    0.45107E-03   -0.78862E-04  3679   0.467E-02    0.205E-01
RMM:   5    -0.192488112391E+03    0.25076E-03   -0.29849E-04  3685   0.281E-02    0.162E-01
RMM:   6    -0.192487978345E+03    0.13405E-03   -0.90888E-04  3683   0.465E-02    0.152E-01
RMM:   7    -0.192487856255E+03    0.12209E-03   -0.10004E-03  3682   0.491E-02    0.778E-02
RMM:   8    -0.192487844910E+03    0.11344E-04   -0.17312E-04  3678   0.210E-02    0.505E-02
RMM:   9    -0.192487823096E+03    0.21814E-04   -0.29081E-05  3682   0.872E-03    0.386E-02
RMM:  10    -0.192487799535E+03    0.23561E-04   -0.34236E-05  3682   0.904E-03    0.224E-02
RMM:  11    -0.192487792037E+03    0.74986E-05   -0.25976E-05  3677   0.763E-03    0.116E-02
RMM:  12    -0.192487791035E+03    0.10020E-05   -0.15592E-05  3674   0.583E-03    0.528E-03
RMM:  13    -0.192487791171E+03   -0.13650E-06   -0.14166E-06  2006   0.206E-03
  13 F= -.19248779E+03 E0= -.19237182E+03  d E =-.462468E-02
       N       E                     dE             d eps       ncg     rms          rms(c)
DAV:   1    -0.192486967818E+03    0.82322E-03   -0.12889E+00  3672   0.175E+00    0.891E-02
RMM:   2    -0.192488319239E+03   -0.13514E-02   -0.13970E-02  3682   0.256E-01    0.911E-02
RMM:   3    -0.192488359194E+03   -0.39955E-04   -0.84579E-04  3740   0.516E-02    0.955E-02
RMM:   4    -0.192488294461E+03    0.64733E-04   -0.11402E-04  3678   0.178E-02    0.785E-02
RMM:   5    -0.192488260200E+03    0.34261E-04   -0.42884E-05  3685   0.107E-02    0.623E-02
RMM:   6    -0.192488245165E+03    0.15035E-04   -0.13717E-04  3683   0.181E-02    0.587E-02
RMM:   7    -0.192488230522E+03    0.14642E-04   -0.15247E-04  3680   0.192E-02    0.304E-02
RMM:   8    -0.192488229358E+03    0.11642E-05   -0.26059E-05  3673   0.814E-03    0.197E-02
RMM:   9    -0.192488226120E+03    0.32383E-05   -0.41498E-06  2749   0.336E-03    0.151E-02
RMM:  10    -0.192488222485E+03    0.36349E-05   -0.52741E-06  3277   0.367E-03    0.870E-03
RMM:  11    -0.192488221369E+03    0.11163E-05   -0.40050E-06  2553   0.321E-03    0.464E-03
RMM:  12    -0.192488221288E+03    0.80676E-07   -0.25719E-06  1966   0.276E-03
  14 F= -.19248822E+03 E0= -.19237220E+03  d E =-.505479E-02
       N       E                     dE             d eps       ncg     rms          rms(c)
DAV:   1    -0.192487143136E+03    0.10782E-02   -0.31419E+00  3672   0.274E+00    0.143E-01
RMM:   2    -0.192490479616E+03   -0.33365E-02   -0.34364E-02  3682   0.400E-01    0.140E-01
RMM:   3    -0.192490651041E+03   -0.17142E-03   -0.21440E-03  3720   0.820E-02    0.186E-01
RMM:   4    -0.192490388789E+03    0.26225E-03   -0.26991E-04  3676   0.284E-02    0.101E-01
RMM:   5    -0.192490353160E+03    0.35629E-04   -0.11372E-04  3687   0.169E-02    0.938E-02
RMM:   6    -0.192490309979E+03    0.43182E-04   -0.29912E-04  3682   0.267E-02    0.860E-02
RMM:   7    -0.192490254459E+03    0.55520E-04   -0.33250E-04  3682   0.283E-02    0.335E-02
RMM:   8    -0.192490256905E+03   -0.24465E-05   -0.37187E-05  3677   0.981E-03    0.277E-02
RMM:   9    -0.192490249545E+03    0.73602E-05   -0.87452E-06  3470   0.487E-03    0.186E-02
RMM:  10    -0.192490244689E+03    0.48557E-05   -0.80737E-06  3668   0.441E-03    0.123E-02
RMM:  11    -0.192490242495E+03    0.21939E-05   -0.64942E-06  3581   0.385E-03    0.624E-03
RMM:  12    -0.192490242268E+03    0.22762E-06   -0.30859E-06  2109   0.284E-03
  15 F= -.19249024E+03 E0= -.19237417E+03  d E =-.202098E-02
       N       E                     dE             d eps       ncg     rms          rms(c)
DAV:   1    -0.192490100310E+03    0.14219E-03   -0.31970E-01  3732   0.873E-01    0.453E-02
RMM:   2    -0.192490438669E+03   -0.33836E-03   -0.34884E-03  3682   0.128E-01    0.459E-02
RMM:   3    -0.192490455040E+03   -0.16372E-04   -0.21847E-04  3725   0.262E-02    0.604E-02
RMM:   4    -0.192490426778E+03    0.28262E-04   -0.27082E-05  3676   0.897E-03    0.325E-02
RMM:   5    -0.192490423845E+03    0.29332E-05   -0.11455E-05  3676   0.539E-03    0.300E-02
RMM:   6    -0.192490421318E+03    0.25267E-05   -0.32001E-05  3679   0.873E-03    0.283E-02
RMM:   7    -0.192490416060E+03    0.52580E-05   -0.35296E-05  3675   0.921E-03    0.108E-02
RMM:   8    -0.192490416411E+03   -0.35045E-06   -0.35346E-06  2642   0.314E-03
  16 F= -.19249042E+03 E0= -.19237432E+03  d E =-.219512E-02
       N       E                     dE             d eps       ncg     rms          rms(c)
DAV:   1    -0.192489376198E+03    0.10399E-02   -0.28613E+00  3672   0.261E+00    0.122E-01
RMM:   2    -0.192492527050E+03   -0.31509E-02   -0.31306E-02  3681   0.383E-01    0.163E-01
RMM:   3    -0.192492640529E+03   -0.11348E-03   -0.20747E-03  3763   0.801E-02    0.177E-01
RMM:   4    -0.192492350411E+03    0.29012E-03   -0.24613E-04  3673   0.266E-02    0.964E-02
RMM:   5    -0.192492295719E+03    0.54691E-04   -0.74428E-05  3688   0.145E-02    0.796E-02
RMM:   6    -0.192492246969E+03    0.48751E-04   -0.43579E-04  3683   0.321E-02    0.682E-02
RMM:   7    -0.192492229299E+03    0.17669E-04   -0.23336E-04  3681   0.235E-02    0.344E-02
RMM:   8    -0.192492231917E+03   -0.26174E-05   -0.27323E-05  3686   0.840E-03    0.287E-02
RMM:   9    -0.192492225344E+03    0.65728E-05   -0.60594E-06  3024   0.410E-03    0.208E-02
RMM:  10    -0.192492219227E+03    0.61174E-05   -0.10794E-05  3672   0.507E-03    0.138E-02
RMM:  11    -0.192492216128E+03    0.30990E-05   -0.11186E-05  3674   0.502E-03    0.388E-03
RMM:  12    -0.192492216281E+03   -0.15352E-06   -0.24046E-06  2023   0.252E-03
  17 F= -.19249222E+03 E0= -.19237601E+03  d E =-.179987E-02
       N       E                     dE             d eps       ncg     rms          rms(c)
DAV:   1    -0.192489469239E+03    0.27469E-02   -0.37351E+00  3672   0.298E+00    0.137E-01
RMM:   2    -0.192493563217E+03   -0.40940E-02   -0.40629E-02  3681   0.437E-01    0.186E-01
RMM:   3    -0.192493683777E+03   -0.12056E-03   -0.26699E-03  3770   0.910E-02    0.196E-01
RMM:   4    -0.192493326076E+03    0.35770E-03   -0.30418E-04  3673   0.296E-02    0.110E-01
RMM:   5    -0.192493253996E+03    0.72080E-04   -0.92930E-05  3688   0.162E-02    0.932E-02
RMM:   6    -0.192493170484E+03    0.83512E-04   -0.65768E-04  3683   0.394E-02    0.737E-02
RMM:   7    -0.192493155049E+03    0.15435E-04   -0.29680E-04  3682   0.265E-02    0.397E-02
RMM:   8    -0.192493155083E+03   -0.33338E-07   -0.29922E-05  3688   0.886E-03    0.319E-02
RMM:   9    -0.192493146973E+03    0.81095E-05   -0.74342E-06  3251   0.449E-03    0.244E-02
RMM:  10    -0.192493138784E+03    0.81897E-05   -0.15322E-05  3672   0.601E-03    0.164E-02
RMM:  11    -0.192493134692E+03    0.40914E-05   -0.15082E-05  3672   0.582E-03    0.459E-03
RMM:  12    -0.192493134931E+03   -0.23827E-06   -0.29988E-06  2127   0.282E-03
  18 F= -.19249313E+03 E0= -.19237679E+03  d E =-.271852E-02
       N       E                     dE             d eps       ncg     rms          rms(c)
DAV:   1    -0.192492709471E+03    0.42522E-03   -0.17776E+00  3672   0.206E+00    0.906E-02
RMM:   2    -0.192494615844E+03   -0.19064E-02   -0.19434E-02  3681   0.302E-01    0.111E-01
RMM:   3    -0.192494631746E+03   -0.15902E-04   -0.12076E-03  3788   0.617E-02    0.105E-01
RMM:   4    -0.192494557629E+03    0.74116E-04   -0.12664E-04  3673   0.190E-02    0.839E-02
RMM:   5    -0.192494515186E+03    0.42443E-04   -0.38716E-05  3690   0.103E-02    0.678E-02
RMM:   6    -0.192494489469E+03    0.25717E-04   -0.24651E-04  3682   0.242E-02    0.649E-02
RMM:   7    -0.192494467882E+03    0.21587E-04   -0.18631E-04  3687   0.209E-02    0.319E-02
RMM:   8    -0.192494474889E+03   -0.70074E-05   -0.32723E-05  3678   0.897E-03    0.273E-02
RMM:   9    -0.192494469630E+03    0.52594E-05   -0.47968E-06  2846   0.368E-03    0.199E-02
RMM:  10    -0.192494464441E+03    0.51886E-05   -0.76492E-06  3615   0.429E-03    0.136E-02
RMM:  11    -0.192494461187E+03    0.32537E-05   -0.12481E-05  3672   0.531E-03    0.346E-03
RMM:  12    -0.192494461328E+03   -0.14051E-06   -0.23078E-06  2004   0.248E-03
  19 F= -.19249446E+03 E0= -.19237804E+03  d E =-.132640E-02
       N       E                     dE             d eps       ncg     rms          rms(c)
DAV:   1    -0.192493729223E+03    0.73196E-03   -0.14577E+00  3672   0.186E+00    0.817E-02
RMM:   2    -0.192495290056E+03   -0.15608E-02   -0.15920E-02  3681   0.273E-01    0.100E-01
RMM:   3    -0.192495300192E+03   -0.10137E-04   -0.98764E-04  3789   0.559E-02    0.939E-02
RMM:   4    -0.192495241900E+03    0.58292E-04   -0.10247E-04  3673   0.171E-02    0.761E-02
RMM:   5    -0.192495207716E+03    0.34184E-04   -0.31360E-05  3689   0.930E-03    0.617E-02
RMM:   6    -0.192495185611E+03    0.22105E-04   -0.20745E-04  3682   0.222E-02    0.576E-02
RMM:   7    -0.192495170279E+03    0.15332E-04   -0.15214E-04  3687   0.189E-02    0.290E-02
RMM:   8    -0.192495175951E+03   -0.56718E-05   -0.26479E-05  3678   0.807E-03    0.249E-02
RMM:   9    -0.192495171535E+03    0.44159E-05   -0.38698E-06  2702   0.332E-03    0.182E-02
RMM:  10    -0.192495167285E+03    0.42501E-05   -0.61837E-06  3400   0.389E-03    0.126E-02
RMM:  11    -0.192495164534E+03    0.27513E-05   -0.10314E-05  3672   0.487E-03    0.372E-03
RMM:  12    -0.192495164574E+03   -0.40767E-07   -0.17884E-06  1967   0.220E-03
  20 F= -.19249516E+03 E0= -.19237867E+03  d E =-.202964E-02
       N       E                     dE             d eps       ncg     rms          rms(c)
DAV:   1    -0.192489353261E+03    0.58113E-02   -0.58299E+00  3672   0.372E+00    0.164E-01
RMM:   2    -0.192495628514E+03   -0.62753E-02   -0.63779E-02  3681   0.547E-01    0.200E-01
RMM:   3    -0.192495702950E+03   -0.74436E-04   -0.39643E-03  3783   0.112E-01    0.189E-01
RMM:   4    -0.192495465305E+03    0.23764E-03   -0.41739E-04  3673   0.346E-02    0.152E-01
RMM:   5    -0.192495318036E+03    0.14727E-03   -0.12894E-04  3690   0.188E-02    0.122E-01
RMM:   6    -0.192495198961E+03    0.11908E-03   -0.81998E-04  3683   0.441E-02    0.113E-01
RMM:   7    -0.192495132218E+03    0.66742E-04   -0.58790E-04  3687   0.371E-02    0.582E-02
RMM:   8    -0.192495151624E+03   -0.19406E-04   -0.10366E-04  3685   0.160E-02    0.492E-02
RMM:   9    -0.192495134571E+03    0.17053E-04   -0.16096E-05  3679   0.661E-03    0.359E-02
RMM:  10    -0.192495117806E+03    0.16765E-04   -0.23838E-05  3672   0.748E-03    0.248E-02
RMM:  11    -0.192495106924E+03    0.10881E-04   -0.39746E-05  3683   0.941E-03    0.721E-03
RMM:  12    -0.192495107272E+03   -0.34814E-06   -0.82206E-06  3651   0.430E-03
  21 F= -.19249511E+03 E0= -.19237846E+03  d E =-.197234E-02
       N       E                     dE             d eps       ncg     rms          rms(c)
DAV:   1    -0.192493543645E+03    0.15633E-02   -0.18373E+00  3672   0.209E+00    0.942E-02
RMM:   2    -0.192495519759E+03   -0.19761E-02   -0.20207E-02  3681   0.307E-01    0.111E-01
RMM:   3    -0.192495553038E+03   -0.33279E-04   -0.12662E-03  3770   0.631E-02    0.111E-01
RMM:   4    -0.192495468794E+03    0.84244E-04   -0.14211E-04  3673   0.201E-02    0.856E-02
RMM:   5    -0.192495422076E+03    0.46718E-04   -0.44943E-05  3690   0.111E-02    0.666E-02
RMM:   6    -0.192495399962E+03    0.22114E-04   -0.22826E-04  3682   0.233E-02    0.645E-02
RMM:   7    -0.192495377033E+03    0.22929E-04   -0.17602E-04  3687   0.204E-02    0.307E-02
RMM:   8    -0.192495384539E+03   -0.75067E-05   -0.33078E-05  3678   0.902E-03    0.270E-02
RMM:   9    -0.192495379325E+03    0.52140E-05   -0.49037E-06  2859   0.372E-03    0.190E-02
RMM:  10    -0.192495374526E+03    0.47990E-05   -0.70440E-06  3545   0.412E-03    0.131E-02
RMM:  11    -0.192495371447E+03    0.30793E-05   -0.11382E-05  3672   0.508E-03    0.336E-03
RMM:  12    -0.192495371609E+03   -0.16217E-06   -0.21406E-06  1992   0.239E-03
  22 F= -.19249537E+03 E0= -.19237881E+03  d E =-.223668E-02
       N       E                     dE             d eps       ncg     rms          rms(c)
DAV:   1    -0.192494626013E+03    0.74543E-03   -0.15322E+00  3672   0.191E+00    0.870E-02
RMM:   2    -0.192496266141E+03   -0.16401E-02   -0.16911E-02  3680   0.280E-01    0.945E-02
RMM:   3    -0.192496281197E+03   -0.15057E-04   -0.10370E-03  3745   0.570E-02    0.906E-02
RMM:   4    -0.192496229998E+03    0.51200E-04   -0.11094E-04  3673   0.180E-02    0.751E-02
RMM:   5    -0.192496194803E+03    0.35195E-04   -0.32203E-05  3688   0.931E-03    0.583E-02
RMM:   6    -0.192496172832E+03    0.21970E-04   -0.17742E-04  3682   0.206E-02    0.512E-02
RMM:   7    -0.192496163558E+03    0.92743E-05   -0.13915E-04  3683   0.181E-02    0.282E-02
RMM:   8    -0.192496167679E+03   -0.41215E-05   -0.24370E-05  3677   0.775E-03    0.234E-02
RMM:   9    -0.192496163508E+03    0.41713E-05   -0.38553E-06  2685   0.331E-03    0.158E-02
RMM:  10    -0.192496160784E+03    0.27241E-05   -0.35756E-06  2576   0.308E-03    0.115E-02
RMM:  11    -0.192496158590E+03    0.21939E-05   -0.83992E-06  3652   0.451E-03    0.322E-03
RMM:  12    -0.192496158609E+03   -0.19078E-07   -0.19673E-06  1965   0.229E-03
  23 F= -.19249616E+03 E0= -.19237957E+03  d E =-.787000E-03
       N       E                     dE             d eps       ncg     rms          rms(c)
DAV:   1    -0.192495096073E+03    0.10625E-02   -0.13843E+00  3672   0.182E+00    0.814E-02
RMM:   2    -0.192496573469E+03   -0.14774E-02   -0.15215E-02  3680   0.266E-01    0.907E-02
RMM:   3    -0.192496573538E+03   -0.69223E-07   -0.92482E-04  3751   0.539E-02    0.819E-02
RMM:   4    -0.192496532754E+03    0.40784E-04   -0.92714E-05  3673   0.166E-02    0.703E-02
RMM:   5    -0.192496505105E+03    0.27649E-04   -0.26697E-05  3687   0.846E-03    0.573E-02
RMM:   6    -0.192496481739E+03    0.23366E-04   -0.17447E-04  3682   0.204E-02    0.490E-02
RMM:   7    -0.192496474420E+03    0.73184E-05   -0.13261E-04  3683   0.176E-02    0.277E-02
RMM:   8    -0.192496477832E+03   -0.34122E-05   -0.22041E-05  3677   0.738E-03    0.227E-02
RMM:   9    -0.192496473840E+03    0.39923E-05   -0.34958E-06  2591   0.315E-03    0.156E-02
RMM:  10    -0.192496471269E+03    0.25711E-05   -0.33092E-06  2470   0.299E-03    0.114E-02
RMM:  11    -0.192496469136E+03    0.21332E-05   -0.83209E-06  3642   0.450E-03    0.332E-03
RMM:  12    -0.192496469144E+03   -0.84983E-08   -0.18886E-06  1965   0.225E-03
  24 F= -.19249647E+03 E0= -.19237986E+03  d E =-.109754E-02
       N       E                     dE             d eps       ncg     rms          rms(c)
DAV:   1    -0.192496382802E+03    0.86334E-04   -0.55454E-01  3672   0.115E+00    0.594E-02
RMM:   2    -0.192496976589E+03   -0.59379E-03   -0.62141E-03  3681   0.169E-01    0.569E-02
RMM:   3    -0.192496984111E+03   -0.75224E-05   -0.37810E-04  3723   0.342E-02    0.573E-02
RMM:   4    -0.192496963448E+03    0.20663E-04   -0.44699E-05  3675   0.114E-02    0.475E-02
RMM:   5    -0.192496950851E+03    0.12596E-04   -0.17827E-05  3679   0.675E-03    0.379E-02
RMM:   6    -0.192496946774E+03    0.40769E-05   -0.73215E-05  3685   0.132E-02    0.353E-02
RMM:   7    -0.192496939689E+03    0.70850E-05   -0.47910E-05  3679   0.107E-02    0.161E-02
RMM:   8    -0.192496939873E+03   -0.18334E-06   -0.63669E-06  3035   0.409E-03
  25 F= -.19249694E+03 E0= -.19238040E+03  d E =-.470728E-03
