<?xml version="1.0" encoding="ISO-8859-1"?>
<modeling>
 <generator>
  <i name="program" type="string">vasp </i>
  <i name="version" type="string">5.4.1  </i>
  <i name="subversion" type="string">24Jun15 (build Mar 14 2019 10:18:33) complex                          parallel </i>
  <i name="platform" type="string">INTEL-19.0.2+OPENMPI-3.1.3 </i>
  <i name="date" type="string">2022 07 15 </i>
  <i name="time" type="string">14:37:29 </i>
 </generator>
 <incar>
  <i type="int" name="ISTART">     0</i>
  <i type="string" name="PREC">normal</i>
  <i type="string" name="ALGO"> Fast</i>
  <i type="int" name="NELM">   500</i>
  <i type="int" name="IBRION">     2</i>
  <i type="int" name="NFREE">     2</i>
  <i name="EDIFF">      0.00000100</i>
  <i name="EDIFFG">     -0.02000000</i>
  <i type="int" name="NSW">   500</i>
  <i type="int" name="ISIF">     0</i>
  <i type="int" name="ISYM">     2</i>
  <i name="ENCUT">    400.00000000</i>
  <i name="POTIM">      0.35000000</i>
  <i type="string" name="LREAL"> Auto</i>
  <i type="logical" name="LPLANE"> T  </i>
  <i type="int" name="ISMEAR">     0</i>
  <i name="SIGMA">      0.10000000</i>
  <i type="int" name="NWRITE">     1</i>
  <i type="logical" name="LWAVE"> F  </i>
  <i type="logical" name="LCHARG"> F  </i>
  <i type="logical" name="LVTOT"> F  </i>
  <i type="logical" name="LORBIT"> F  </i>
  <i type="logical" name="LAECHG"> F  </i>
  <v type="int" name="KPOINT_BSE">    -1     0     0     0</v>
  <i type="int" name="NELM">   500</i>
  <i type="string" name="GGA"> PE          ! optPBE-vdW XC-functional</i>
  <i type="int" name="VOSKOWN">     1</i>
  <i type="logical" name="LDIPOL"> T  </i>
  <i type="logical" name="LMONO"> F  </i>
  <i type="int" name="IDIPOL">     3</i>
  <v name="DIPOL">      0.00000000      0.00000000      0.50000000</v>
 </incar>
 <kpoints>
  <generation param="Monkhorst-Pack">
   <v type="int" name="divisions">       2        2        1 </v>
   <v name="usershift">      0.00000000       0.00000000       0.00000000 </v>
   <v name="genvec1">      0.50000000      -0.00000000       0.00000000 </v>
   <v name="genvec2">      0.00000000       0.50000000       0.00000000 </v>
   <v name="genvec3">      0.00000000       0.00000000       1.00000000 </v>
   <v name="shift">      0.50000000       0.50000000       0.00000000 </v>
  </generation>
  <varray name="kpointlist" >
   <v>       0.25000000       0.25000000       0.00000000 </v>
   <v>       0.00000000       0.25000000       0.00000000 </v>
   <v>      -0.25000000       0.00000000       0.00000000 </v>
   <v>      -0.25000000       0.25000000       0.00000000 </v>
   <v>       0.50000000      -0.25000000       0.00000000 </v>
   <v>      -0.25000000       0.50000000       0.00000000 </v>
  </varray>
  <varray name="weights" >
   <v>       0.16666667 </v>
   <v>       0.16666667 </v>
   <v>       0.16666667 </v>
   <v>       0.16666667 </v>
   <v>       0.16666667 </v>
   <v>       0.16666667 </v>
  </varray>
 </kpoints>
 <parameters>
  <separator name="general" >
   <i type="string" name="SYSTEM">unknown system</i>
   <i type="logical" name="LCOMPAT"> F  </i>
  </separator>
  <separator name="electronic" >
   <i type="string" name="PREC">normal</i>
   <i name="ENMAX">    400.00000000</i>
   <i name="ENAUG">    416.23000000</i>
   <i name="EDIFF">      0.00000100</i>
   <i type="int" name="IALGO">    68</i>
   <i type="int" name="IWAVPR">    11</i>
   <i type="int" name="NBANDS">   306</i>
   <i name="NELECT">    504.00000000</i>
   <i type="int" name="TURBO">     0</i>
   <i type="int" name="IRESTART">     0</i>
   <i type="int" name="NREBOOT">     0</i>
   <i type="int" name="NMIN">     0</i>
   <i name="EREF">      0.00000000</i>
   <separator name="electronic smearing" >
    <i type="int" name="ISMEAR">     0</i>
    <i name="SIGMA">      0.10000000</i>
    <i name="KSPACING">      0.50000000</i>
    <i type="logical" name="KGAMMA"> T  </i>
   </separator>
   <separator name="electronic projectors" >
    <i type="logical" name="LREAL"> T  </i>
    <v name="ROPT">     -0.00050000     -0.00050000</v>
    <i type="int" name="LMAXPAW">  -100</i>
    <i type="int" name="LMAXMIX">     2</i>
    <i type="logical" name="NLSPLINE"> F  </i>
   </separator>
   <separator name="electronic startup" >
    <i type="int" name="ISTART">     0</i>
    <i type="int" name="ICHARG">     2</i>
    <i type="int" name="INIWAV">     1</i>
   </separator>
   <separator name="electronic spin" >
    <i type="int" name="ISPIN">     1</i>
    <i type="logical" name="LNONCOLLINEAR"> F  </i>
    <v name="MAGMOM">      1.00000000      1.00000000      1.00000000      1.00000000      1.00000000      1.00000000      1.00000000      1.00000000      1.00000000      1.00000000      1.00000000      1.00000000      1.00000000      1.00000000      1.00000000      1.00000000      1.00000000      1.00000000      1.00000000      1.00000000
      1.00000000      1.00000000      1.00000000      1.00000000      1.00000000      1.00000000      1.00000000      1.00000000      1.00000000      1.00000000      1.00000000      1.00000000      1.00000000      1.00000000      1.00000000      1.00000000      1.00000000      1.00000000      1.00000000      1.00000000
      1.00000000      1.00000000      1.00000000      1.00000000      1.00000000      1.00000000      1.00000000      1.00000000</v>
    <i name="NUPDOWN">     -1.00000000</i>
    <i type="logical" name="LSORBIT"> F  </i>
    <v name="SAXIS">      0.00000000      0.00000000      1.00000000</v>
    <i type="logical" name="LSPIRAL"> F  </i>
    <v name="QSPIRAL">      0.00000000      0.00000000      0.00000000</v>
    <i type="logical" name="LZEROZ"> F  </i>
   </separator>
   <separator name="electronic exchange-correlation" >
    <i type="logical" name="LASPH"> F  </i>
    <i type="logical" name="LMETAGGA"> F  </i>
   </separator>
   <separator name="electronic convergence" >
    <i type="int" name="NELM">   500</i>
    <i type="int" name="NELMDL">    -5</i>
    <i type="int" name="NELMIN">     2</i>
    <i name="ENINI">    400.00000000</i>
    <separator name="electronic convergence detail" >
     <i type="logical" name="LDIAG"> T  </i>
     <i type="logical" name="LSUBROT"> F  </i>
     <i name="WEIMIN">      0.00100000</i>
     <i name="EBREAK">      0.00000000</i>
     <i name="DEPER">      0.30000000</i>
     <i type="int" name="NRMM">     4</i>
     <i name="TIME">      0.40000000</i>
    </separator>
   </separator>
   <separator name="electronic mixer" >
    <i name="AMIX">      0.40000000</i>
    <i name="BMIX">      1.00000000</i>
    <i name="AMIN">      0.10000000</i>
    <i name="AMIX_MAG">      1.60000000</i>
    <i name="BMIX_MAG">      1.00000000</i>
    <separator name="electronic mixer details" >
     <i type="int" name="IMIX">     4</i>
     <i type="logical" name="MIXFIRST"> F  </i>
     <i type="int" name="MAXMIX">   -45</i>
     <i name="WC">    100.00000000</i>
     <i type="int" name="INIMIX">     1</i>
     <i type="int" name="MIXPRE">     1</i>
     <i type="int" name="MREMOVE">     5</i>
    </separator>
   </separator>
   <separator name="electronic dipolcorrection" >
    <i type="logical" name="LDIPOL"> T  </i>
    <i type="logical" name="LMONO"> F  </i>
    <i type="int" name="IDIPOL">     3</i>
    <i name="EPSILON">      1.00000000</i>
    <v name="DIPOL">      0.00000000      0.00000000      0.50000000</v>
    <i name="EFIELD">      0.00000000</i>
   </separator>
  </separator>
  <separator name="grids" >
   <i type="int" name="NGX">    54</i>
   <i type="int" name="NGY">    54</i>
   <i type="int" name="NGZ">   120</i>
   <i type="int" name="NGXF">   108</i>
   <i type="int" name="NGYF">   108</i>
   <i type="int" name="NGZF">   240</i>
   <i type="logical" name="ADDGRID"> F  </i>
  </separator>
  <separator name="ionic" >
   <i type="int" name="NSW">   500</i>
   <i type="int" name="IBRION">     2</i>
   <i type="int" name="ISIF">     0</i>
   <i name="PSTRESS">      0.00000000</i>
   <i name="EDIFFG">     -0.02000000</i>
   <i type="int" name="NFREE">     2</i>
   <i name="POTIM">      0.35000000</i>
   <i name="SMASS">     -3.00000000</i>
   <i name="SCALEE">      1.00000000</i>
  </separator>
  <separator name="ionic md" >
   <i name="TEBEG">      0.00010000</i>
   <i name="TEEND">      0.00010000</i>
   <i type="int" name="NBLOCK">     1</i>
   <i type="int" name="KBLOCK">   500</i>
   <i type="int" name="NPACO">   256</i>
   <i name="APACO">     16.00000000</i>
  </separator>
  <separator name="symmetry" >
   <i type="int" name="ISYM">     2</i>
   <i name="SYMPREC">      0.00001000</i>
  </separator>
  <separator name="dos" >
   <i type="logical" name="LORBIT"> F  </i>
   <v name="RWIGS">     -1.00000000     -1.00000000</v>
   <i type="int" name="NEDOS">   301</i>
   <i name="EMIN">     10.00000000</i>
   <i name="EMAX">    -10.00000000</i>
   <i name="EFERMI">      0.00000000</i>
  </separator>
  <separator name="writing" >
   <i type="int" name="NWRITE">     1</i>
   <i type="logical" name="LWAVE"> F  </i>
   <i type="logical" name="LCHARG"> F  </i>
   <i type="logical" name="LPARD"> F  </i>
   <i type="logical" name="LVTOT"> F  </i>
   <i type="logical" name="LVHAR"> F  </i>
   <i type="logical" name="LELF"> F  </i>
   <i type="logical" name="LOPTICS"> F  </i>
   <v name="STM">      0.00000000      0.00000000      0.00000000      0.00000000      0.00000000      0.00000000      0.00000000</v>
  </separator>
  <separator name="performance" >
   <i type="int" name="NPAR">     6</i>
   <i type="int" name="NSIM">     4</i>
   <i type="int" name="NBLK">    -1</i>
   <i type="logical" name="LPLANE"> T  </i>
   <i type="logical" name="LSCALAPACK"> T  </i>
   <i type="logical" name="LSCAAWARE"> F  </i>
   <i type="logical" name="LSCALU"> F  </i>
   <i type="logical" name="LASYNC"> F  </i>
   <i type="logical" name="LORBITALREAL"> F  </i>
  </separator>
  <separator name="miscellaneous" >
   <i type="int" name="IDIOT">     3</i>
   <i type="logical" name="LMUSIC"> F  </i>
   <v name="POMASS">    196.96600000    106.42000000</v>
   <v name="DARWINR">      0.00000000      0.00000000</v>
   <v name="DARWINV">      1.00000000      1.00000000</v>
   <i type="logical" name="LCORR"> T  </i>
  </separator>
  <i type="logical" name="GGA_COMPAT"> T  </i>
  <i type="logical" name="LBERRY"> F  </i>
  <i type="int" name="ICORELEVEL">     0</i>
  <i type="logical" name="LDAU"> F  </i>
  <i type="int" name="I_CONSTRAINED_M">     0</i>
  <separator name="electronic exchange-correlation" >
   <i type="string" name="GGA">PE</i>
   <i type="int" name="VOSKOWN">     1</i>
   <i type="logical" name="LHFCALC"> F  </i>
   <i type="string" name="PRECFOCK"></i>
   <i type="logical" name="LSYMGRAD"> F  </i>
   <i type="logical" name="LHFONE"> F  </i>
   <i type="logical" name="LRHFCALC"> F  </i>
   <i type="logical" name="LTHOMAS"> F  </i>
   <i type="logical" name="LMODELHF"> F  </i>
   <i name="ENCUT4O">     -1.00000000</i>
   <i type="int" name="EXXOEP">     0</i>
   <i type="int" name="FOURORBIT">     0</i>
   <i name="AEXX">      0.00000000</i>
   <i name="HFALPHA">      0.00000000</i>
   <i name="MCALPHA">      0.00000000</i>
   <i name="ALDAX">      1.00000000</i>
   <i name="AGGAX">      1.00000000</i>
   <i name="ALDAC">      1.00000000</i>
   <i name="AGGAC">      1.00000000</i>
   <i type="int" name="NKREDX">     1</i>
   <i type="int" name="NKREDY">     1</i>
   <i type="int" name="NKREDZ">     1</i>
   <i type="logical" name="SHIFTRED"> F  </i>
   <i type="logical" name="ODDONLY"> F  </i>
   <i type="logical" name="EVENONLY"> F  </i>
   <i type="int" name="LMAXFOCK">     0</i>
   <i type="int" name="NMAXFOCKAE">     0</i>
   <i type="logical" name="LFOCKAEDFT"> F  </i>
   <i name="HFSCREEN">      0.00000000</i>
   <i name="HFSCREENC">      0.00000000</i>
   <i type="int" name="NBANDSGWLOW">     0</i>
  </separator>
  <separator name="vdW DFT" >
   <i type="logical" name="LUSE_VDW"> F  </i>
   <i name="Zab_VDW">     -0.84910000</i>
   <i name="PARAM1">      0.12340000</i>
   <i name="PARAM2">      1.00000000</i>
   <i name="PARAM3">      0.00000000</i>
  </separator>
  <separator name="model GW" >
   <i type="int" name="MODEL_GW">     0</i>
   <i name="MODEL_EPS0">     32.09595293</i>
   <i name="MODEL_ALPHA">      1.00000000</i>
  </separator>
  <separator name="linear response parameters" >
   <i type="logical" name="LEPSILON"> F  </i>
   <i type="logical" name="LRPA"> F  </i>
   <i type="logical" name="LNABLA"> F  </i>
   <i type="logical" name="LVEL"> F  </i>
   <i type="int" name="KINTER">     0</i>
   <i name="CSHIFT">      0.10000000</i>
   <i name="OMEGAMAX">     -1.00000000</i>
   <i name="DEG_THRESHOLD">      0.00200000</i>
  </separator>
  <separator name="orbital magnetization" >
   <i type="logical" name="NUCIND"> F  </i>
   <v name="MAGPOS">      0.00000000      0.00000000      0.00000000</v>
   <i type="logical" name="LNICSALL"> T  </i>
   <i type="logical" name="ORBITALMAG"> F  </i>
   <i type="logical" name="LMAGBLOCH"> F  </i>
   <i type="logical" name="LCHIMAG"> F  </i>
   <i type="logical" name="LGAUGE"> T  </i>
   <i type="int" name="MAGATOM">     0</i>
   <v name="MAGDIPOL">      0.00000000      0.00000000      0.00000000</v>
   <v name="AVECCONST">      0.00000000      0.00000000      0.00000000</v>
  </separator>
  <separator name="response functions" >
   <i type="logical" name="LADDER"> F  </i>
   <i type="logical" name="LFXC"> F  </i>
   <i type="logical" name="LHARTREE"> T  </i>
   <i type="int" name="IBSE">     0</i>
   <v type="int" name="KPOINT">    -1     0     0     0</v>
   <i type="logical" name="LTCTE"> F  </i>
   <i type="logical" name="LTETE"> F  </i>
   <i type="logical" name="LTRIPLET"> F  </i>
   <i type="logical" name="LFXCEPS"> F  </i>
   <i type="logical" name="LFXHEG"> F  </i>
   <i type="int" name="NATURALO">     0</i>
   <i type="logical" name="L2ORDER"> F  </i>
   <i type="logical" name="LUSEW"> F  </i>
   <i name="ENCUTGW">     -2.00000000</i>
   <i name="ENCUTGWSOFT">     -2.00000000</i>
   <i name="ENCUTLF">     -1.00000000</i>
   <i type="int" name="LMAXMP2">    -1</i>
   <i name="SCISSOR">      0.00000000</i>
   <i type="int" name="NOMEGA">     0</i>
   <i type="int" name="NOMEGAR">     0</i>
   <i type="int" name="NBANDSGW">    -1</i>
   <i type="int" name="NBANDSO">    -1</i>
   <i type="int" name="NBANDSV">    -1</i>
   <i type="int" name="NELM">   500</i>
   <i type="int" name="NELMHF">     1</i>
   <i type="int" name="DIM">     3</i>
   <i type="int" name="ANTIRES">     0</i>
   <i name="OMEGAMAX">    -30.00000000</i>
   <i name="OMEGAMIN">    -30.00000000</i>
   <i name="OMEGATL">   -200.00000000</i>
   <i type="int" name="OMEGAGRID">     0</i>
   <i name="CSHIFT">     -0.10000000</i>
   <i type="logical" name="SELFENERGY"> F  </i>
   <i type="logical" name="LSPECTRAL"> F  </i>
   <i type="logical" name="LSPECTRALGW"> F  </i>
   <i type="logical" name="LSINGLES"> F  </i>
   <i type="logical" name="LFERMIGW"> F  </i>
   <i type="logical" name="ODDONLYGW"> F  </i>
   <i type="logical" name="EVENONLYGW"> F  </i>
   <i type="int" name="NKREDLFX">     1</i>
   <i type="int" name="NKREDLFY">     1</i>
   <i type="int" name="NKREDLFZ">     1</i>
   <i type="int" name="MAXMEM">  1800</i>
   <i type="int" name="TELESCOPE">     0</i>
   <i type="int" name="TAUPAR">     1</i>
   <i type="int" name="OMEGAPAR">    -1</i>
   <i name="LAMBDA">      1.00000000</i>
  </separator>
  <separator name="External order field" >
   <i name="OFIELD_KAPPA">      0.00000000</i>
   <v name="OFIELD_K">      0.00000000      0.00000000      0.00000000</v>
   <i name="OFIELD_Q6_NEAR">      0.00000000</i>
   <i name="OFIELD_Q6_FAR">      0.00000000</i>
   <i name="OFIELD_A">      0.00000000</i>
  </separator>
 </parameters>
 <atominfo>
  <atoms>      48 </atoms>
  <types>       2 </types>
  <array name="atoms" >
   <dimension dim="1">ion</dimension>
   <field type="string">element</field>
   <field type="int">atomtype</field>
   <set>
    <rc><c>Au</c><c>   1</c></rc>
    <rc><c>Au</c><c>   1</c></rc>
    <rc><c>Au</c><c>   1</c></rc>
    <rc><c>Au</c><c>   1</c></rc>
    <rc><c>Au</c><c>   1</c></rc>
    <rc><c>Au</c><c>   1</c></rc>
    <rc><c>Au</c><c>   1</c></rc>
    <rc><c>Au</c><c>   1</c></rc>
    <rc><c>Au</c><c>   1</c></rc>
    <rc><c>Au</c><c>   1</c></rc>
    <rc><c>Au</c><c>   1</c></rc>
    <rc><c>Au</c><c>   1</c></rc>
    <rc><c>Au</c><c>   1</c></rc>
    <rc><c>Au</c><c>   1</c></rc>
    <rc><c>Au</c><c>   1</c></rc>
    <rc><c>Au</c><c>   1</c></rc>
    <rc><c>Au</c><c>   1</c></rc>
    <rc><c>Au</c><c>   1</c></rc>
    <rc><c>Au</c><c>   1</c></rc>
    <rc><c>Au</c><c>   1</c></rc>
    <rc><c>Au</c><c>   1</c></rc>
    <rc><c>Au</c><c>   1</c></rc>
    <rc><c>Au</c><c>   1</c></rc>
    <rc><c>Au</c><c>   1</c></rc>
    <rc><c>Pd</c><c>   2</c></rc>
    <rc><c>Pd</c><c>   2</c></rc>
    <rc><c>Pd</c><c>   2</c></rc>
    <rc><c>Pd</c><c>   2</c></rc>
    <rc><c>Pd</c><c>   2</c></rc>
    <rc><c>Pd</c><c>   2</c></rc>
    <rc><c>Pd</c><c>   2</c></rc>
    <rc><c>Pd</c><c>   2</c></rc>
    <rc><c>Pd</c><c>   2</c></rc>
    <rc><c>Pd</c><c>   2</c></rc>
    <rc><c>Pd</c><c>   2</c></rc>
    <rc><c>Pd</c><c>   2</c></rc>
    <rc><c>Pd</c><c>   2</c></rc>
    <rc><c>Pd</c><c>   2</c></rc>
    <rc><c>Pd</c><c>   2</c></rc>
    <rc><c>Pd</c><c>   2</c></rc>
    <rc><c>Pd</c><c>   2</c></rc>
    <rc><c>Pd</c><c>   2</c></rc>
    <rc><c>Pd</c><c>   2</c></rc>
    <rc><c>Pd</c><c>   2</c></rc>
    <rc><c>Pd</c><c>   2</c></rc>
    <rc><c>Pd</c><c>   2</c></rc>
    <rc><c>Pd</c><c>   2</c></rc>
    <rc><c>Pd</c><c>   2</c></rc>
   </set>
  </array>
  <array name="atomtypes" >
   <dimension dim="1">type</dimension>
   <field type="int">atomspertype</field>
   <field type="string">element</field>
   <field>mass</field>
   <field>valence</field>
   <field type="string">pseudopotential</field>
   <set>
    <rc><c>  24</c><c>Au</c><c>    196.96600000</c><c>     11.00000000</c><c>  PAW_PBE Au 04Oct2007                  </c></rc>
    <rc><c>  24</c><c>Pd</c><c>    106.42000000</c><c>     10.00000000</c><c>  PAW_PBE Pd 04Jan2005                  </c></rc>
   </set>
  </array>
 </atominfo>
 <structure name="initialpos" >
  <crystal>
   <varray name="basis" >
    <v>      11.00258152       0.00000000       0.00000000 </v>
    <v>       5.50129076       9.52851510       0.00000000 </v>
    <v>       0.00000000       0.00000000      24.49178509 </v>
   </varray>
   <i name="volume">   2567.67623402 </i>
   <varray name="rec_basis" >
    <v>       0.09088776      -0.05247407       0.00000000 </v>
    <v>       0.00000000       0.10494815       0.00000000 </v>
    <v>       0.00000000       0.00000000       0.04083002 </v>
   </varray>
  </crystal>
  <varray name="positions" >
   <v>       0.25000000       0.75000000       0.59169983 </v>
   <v>       0.58333333       0.33333333       0.40830017 </v>
   <v>       0.50000000       0.75000000       0.59169983 </v>
   <v>       0.66666667       0.91666667       0.50000000 </v>
   <v>       0.83333333       0.08333333       0.40830017 </v>
   <v>       0.33333333       0.83333333       0.40830017 </v>
   <v>       0.25000000       0.50000000       0.59169983 </v>
   <v>       0.66666667       0.16666667       0.50000000 </v>
   <v>       0.33333333       0.58333333       0.40830017 </v>
   <v>       0.16666667       0.41666667       0.50000000 </v>
   <v>       0.66666667       0.41666667       0.50000000 </v>
   <v>       0.16666667       0.16666667       0.50000000 </v>
   <v>       0.58333333       0.58333333       0.40830017 </v>
   <v>       0.75000000       0.25000000       0.59169983 </v>
   <v>       0.83333333       0.83333333       0.40830017 </v>
   <v>       0.00000000       0.00000000       0.59169983 </v>
   <v>       0.08333333       0.33333333       0.40830017 </v>
   <v>       0.91666667       0.41666667       0.50000000 </v>
   <v>       0.33333333       0.08333333       0.40830017 </v>
   <v>       0.08333333       0.58333333       0.40830017 </v>
   <v>       0.75000000       0.50000000       0.59169983 </v>
   <v>       0.83333333       0.58333333       0.40830017 </v>
   <v>       0.91666667       0.91666667       0.50000000 </v>
   <v>       0.91666667       0.66666667       0.50000000 </v>
   <v>       0.66666667       0.66666667       0.50000000 </v>
   <v>       0.75000000       0.00000000       0.59169983 </v>
   <v>       0.41666667       0.66666667       0.50000000 </v>
   <v>       0.41666667       0.91666667       0.50000000 </v>
   <v>       0.58333333       0.83333333       0.40830017 </v>
   <v>       0.50000000       0.50000000       0.59169983 </v>
   <v>       0.83333333       0.33333333       0.40830017 </v>
   <v>       0.08333333       0.08333333       0.40830017 </v>
   <v>       0.41666667       0.41666667       0.50000000 </v>
   <v>       0.50000000       0.00000000       0.59169983 </v>
   <v>       0.41666667       0.16666667       0.50000000 </v>
   <v>       0.58333333       0.08333333       0.40830017 </v>
   <v>       0.16666667       0.91666667       0.50000000 </v>
   <v>       0.16666667       0.66666667       0.50000000 </v>
   <v>       0.25000000       0.25000000       0.59169983 </v>
   <v>       0.33333333       0.33333333       0.40830017 </v>
   <v>       0.25000000       0.00000000       0.59169983 </v>
   <v>       0.00000000       0.75000000       0.59169983 </v>
   <v>       0.08333333       0.83333333       0.40830017 </v>
   <v>       0.00000000       0.50000000       0.59169983 </v>
   <v>       0.00000000       0.25000000       0.59169983 </v>
   <v>       0.91666667       0.16666667       0.50000000 </v>
   <v>       0.50000000       0.25000000       0.59169983 </v>
   <v>       0.75000000       0.75000000       0.59169983 </v>
  </varray>
 </structure>
 <calculation>
  <scstep>
   <time name="dav">    8.89    9.01</time>
   <time name="total">    8.95    9.08</time>
   <dipole>
    <v name="dipole">      0.00000000       0.00000000       0.00000296 </v>
    <i name="Tr[quadrupol]"> -10272.27808352 </i>
    <i name="Echarged">      0.00000000 </i>
    <i name="Edipol_quadrupol">      0.00000000 </i>
    <i name="Eion">      0.00000000 </i>
   </dipole>
   <energy>
    <i name="alphaZ">    805.86936616 </i>
    <i name="ewald"> 200166.23834628 </i>
    <i name="hartreedc">-242580.37618753 </i>
    <i name="XCdc">   -327.62899377 </i>
    <i name="pawpsdc">  40340.05962942 </i>
    <i name="pawaedc"> -38292.62782345 </i>
    <i name="eentropy">     -0.13581067 </i>
    <i name="bandstr">   1429.82694526 </i>
    <i name="atom">  41659.78587232 </i>
    <i name="e_fr_energy">   3201.01134402 </i>
    <i name="e_wo_entrp">   3201.14715469 </i>
    <i name="e_0_energy">   3201.07924935 </i>
   </energy>
  </scstep>
  <scstep>
   <time name="dav">   10.68   10.74</time>
   <time name="total">   10.69   10.75</time>
   <dipole>
    <v name="dipole">      0.00000000       0.00000000       0.00000296 </v>
    <i name="Tr[quadrupol]"> -10272.27808352 </i>
    <i name="Echarged">      0.00000000 </i>
    <i name="Edipol_quadrupol">      0.00000000 </i>
    <i name="Eion">      0.00000000 </i>
   </dipole>
   <energy>
    <i name="e_fr_energy">     14.04079909 </i>
    <i name="e_wo_entrp">     14.18155008 </i>
    <i name="e_0_energy">     14.11117458 </i>
   </energy>
  </scstep>
  <scstep>
   <time name="dav">   10.23   10.29</time>
   <time name="total">   10.23   10.30</time>
   <dipole>
    <v name="dipole">      0.00000000       0.00000000       0.00000296 </v>
    <i name="Tr[quadrupol]"> -10272.27808352 </i>
    <i name="Echarged">      0.00000000 </i>
    <i name="Edipol_quadrupol">      0.00000000 </i>
    <i name="Eion">      0.00000000 </i>
   </dipole>
   <energy>
    <i name="e_fr_energy">   -200.71659663 </i>
    <i name="e_wo_entrp">   -200.52001274 </i>
    <i name="e_0_energy">   -200.61830469 </i>
   </energy>
  </scstep>
  <scstep>
   <time name="dav">   10.36   10.41</time>
   <time name="total">   10.36   10.42</time>
   <dipole>
    <v name="dipole">      0.00000000       0.00000000       0.00000296 </v>
    <i name="Tr[quadrupol]"> -10272.27808352 </i>
    <i name="Echarged">      0.00000000 </i>
    <i name="Edipol_quadrupol">      0.00000000 </i>
    <i name="Eion">      0.00000000 </i>
   </dipole>
   <energy>
    <i name="e_fr_energy">   -206.37487722 </i>
    <i name="e_wo_entrp">   -206.17153347 </i>
    <i name="e_0_energy">   -206.27320535 </i>
   </energy>
  </scstep>
  <scstep>
   <time name="dav">   10.91   11.04</time>
   <time name="total">   11.14   11.28</time>
   <dipole>
    <v name="dipole">      0.00000000       0.00000000       0.00000296 </v>
    <i name="Tr[quadrupol]"> -10272.27808352 </i>
    <i name="Echarged">      0.00000000 </i>
    <i name="Edipol_quadrupol">      0.00000000 </i>
    <i name="Eion">      0.00000000 </i>
   </dipole>
   <energy>
    <i name="e_fr_energy">   -206.55714259 </i>
    <i name="e_wo_entrp">   -206.35381164 </i>
    <i name="e_0_energy">   -206.45547712 </i>
   </energy>
  </scstep>
  <scstep>
   <time name="diag">    1.59    1.62</time>
   <time name="diis">    4.88    4.93</time>
   <time name="orth">    0.39    0.39</time>
   <time name="total">    7.16    7.24</time>
   <dipole>
    <v name="dipole">      0.00000000       0.00000000       1.34160235 </v>
    <i name="Tr[quadrupol]"> -10273.68720976 </i>
    <i name="Echarged">      0.00000000 </i>
    <i name="Edipol_quadrupol">      0.00000000 </i>
    <i name="Eion">      0.00000000 </i>
   </dipole>
   <energy>
    <i name="e_fr_energy">   -207.58991169 </i>
    <i name="e_wo_entrp">   -207.33085969 </i>
    <i name="e_0_energy">   -207.46038569 </i>
   </energy>
  </scstep>
  <scstep>
   <time name="diag">    1.60    1.61</time>
   <time name="diis">    4.92    4.94</time>
   <time name="orth">    0.39    0.39</time>
   <time name="total">    7.20    7.24</time>
   <dipole>
    <v name="dipole">      0.00000000       0.00000000      -1.49681713 </v>
    <i name="Tr[quadrupol]"> -10272.95535661 </i>
    <i name="Echarged">      0.00000000 </i>
    <i name="Edipol_quadrupol">      0.00000000 </i>
    <i name="Eion">      0.00000000 </i>
   </dipole>
   <energy>
    <i name="e_fr_energy">   -219.58538531 </i>
    <i name="e_wo_entrp">   -219.34605480 </i>
    <i name="e_0_energy">   -219.46572006 </i>
   </energy>
  </scstep>
  <scstep>
   <time name="diag">    1.63    1.64</time>
   <time name="diis">    4.90    4.92</time>
   <time name="orth">    0.39    0.39</time>
   <time name="total">    7.21    7.25</time>
   <dipole>
    <v name="dipole">      0.00000000       0.00000000       1.28434533 </v>
    <i name="Tr[quadrupol]"> -10273.46797922 </i>
    <i name="Echarged">      0.00000000 </i>
    <i name="Edipol_quadrupol">      0.00000000 </i>
    <i name="Eion">      0.00000000 </i>
   </dipole>
   <energy>
    <i name="e_fr_energy">   -217.40843618 </i>
    <i name="e_wo_entrp">   -217.17153759 </i>
    <i name="e_0_energy">   -217.28998689 </i>
   </energy>
  </scstep>
  <scstep>
   <time name="diag">    1.64    1.65</time>
   <time name="diis">    4.87    4.90</time>
   <time name="orth">    0.39    0.39</time>
   <time name="total">    7.19    7.23</time>
   <dipole>
    <v name="dipole">      0.00000000       0.00000000      -0.30264747 </v>
    <i name="Tr[quadrupol]"> -10274.05126007 </i>
    <i name="Echarged">      0.00000000 </i>
    <i name="Edipol_quadrupol">      0.00000000 </i>
    <i name="Eion">      0.00000000 </i>
   </dipole>
   <energy>
    <i name="e_fr_energy">   -208.57864084 </i>
    <i name="e_wo_entrp">   -208.37336340 </i>
    <i name="e_0_energy">   -208.47600212 </i>
   </energy>
  </scstep>
  <scstep>
   <time name="diag">    1.62    1.63</time>
   <time name="diis">    4.85    4.96</time>
   <time name="orth">    0.39    0.39</time>
   <time name="total">    7.14    7.27</time>
   <dipole>
    <v name="dipole">      0.00000000       0.00000000       0.45225082 </v>
    <i name="Tr[quadrupol]"> -10273.39809993 </i>
    <i name="Echarged">      0.00000000 </i>
    <i name="Edipol_quadrupol">      0.00000000 </i>
    <i name="Eion">      0.00000000 </i>
   </dipole>
   <energy>
    <i name="e_fr_energy">   -196.09939021 </i>
    <i name="e_wo_entrp">   -195.96054552 </i>
    <i name="e_0_energy">   -196.02996787 </i>
   </energy>
  </scstep>
  <scstep>
   <time name="diag">    1.60    1.60</time>
   <time name="diis">    4.93    4.96</time>
   <time name="orth">    0.38    0.39</time>
   <time name="total">    7.20    7.24</time>
   <dipole>
    <v name="dipole">      0.00000000       0.00000000       0.19161580 </v>
    <i name="Tr[quadrupol]"> -10274.58079327 </i>
    <i name="Echarged">      0.00000000 </i>
    <i name="Edipol_quadrupol">      0.00000000 </i>
    <i name="Eion">      0.00000000 </i>
   </dipole>
   <energy>
    <i name="e_fr_energy">   -191.87120421 </i>
    <i name="e_wo_entrp">   -191.65307223 </i>
    <i name="e_0_energy">   -191.76213822 </i>
   </energy>
  </scstep>
  <scstep>
   <time name="diag">    1.63    1.64</time>
   <time name="diis">    4.94    4.97</time>
   <time name="orth">    0.39    0.39</time>
   <time name="total">    7.25    7.30</time>
   <dipole>
    <v name="dipole">      0.00000000       0.00000000       0.20636194 </v>
    <i name="Tr[quadrupol]"> -10274.51116885 </i>
    <i name="Echarged">      0.00000000 </i>
    <i name="Edipol_quadrupol">      0.00000000 </i>
    <i name="Eion">      0.00000000 </i>
   </dipole>
   <energy>
    <i name="e_fr_energy">   -189.39778824 </i>
    <i name="e_wo_entrp">   -189.18765947 </i>
    <i name="e_0_energy">   -189.29272386 </i>
   </energy>
  </scstep>
  <scstep>
   <time name="diag">    1.64    1.65</time>
   <time name="diis">    4.93    4.95</time>
   <time name="orth">    0.39    0.39</time>
   <time name="total">    7.24    7.28</time>
   <dipole>
    <v name="dipole">      0.00000000       0.00000000       0.14116800 </v>
    <i name="Tr[quadrupol]"> -10275.01650482 </i>
    <i name="Echarged">      0.00000000 </i>
    <i name="Edipol_quadrupol">      0.00000000 </i>
    <i name="Eion">      0.00000000 </i>
   </dipole>
   <energy>
    <i name="e_fr_energy">   -189.27838735 </i>
    <i name="e_wo_entrp">   -189.02097424 </i>
    <i name="e_0_energy">   -189.14968079 </i>
   </energy>
  </scstep>
  <scstep>
   <time name="diag">    1.63    1.63</time>
   <time name="diis">    4.87    4.95</time>
   <time name="orth">    0.38    0.39</time>
   <time name="total">    7.17    7.26</time>
   <dipole>
    <v name="dipole">      0.00000000       0.00000000       0.12425104 </v>
    <i name="Tr[quadrupol]"> -10275.18249601 </i>
    <i name="Echarged">      0.00000000 </i>
    <i name="Edipol_quadrupol">      0.00000000 </i>
    <i name="Eion">      0.00000000 </i>
   </dipole>
   <energy>
    <i name="e_fr_energy">   -189.18292364 </i>
    <i name="e_wo_entrp">   -188.96358840 </i>
    <i name="e_0_energy">   -189.07325602 </i>
   </energy>
  </scstep>
  <scstep>
   <time name="diag">    1.60    1.61</time>
   <time name="diis">    4.90    4.93</time>
   <time name="orth">    0.38    0.38</time>
   <time name="total">    7.17    7.22</time>
   <dipole>
    <v name="dipole">      0.00000000       0.00000000       0.11792685 </v>
    <i name="Tr[quadrupol]"> -10275.68867149 </i>
    <i name="Echarged">      0.00000000 </i>
    <i name="Edipol_quadrupol">      0.00000000 </i>
    <i name="Eion">      0.00000000 </i>
   </dipole>
   <energy>
    <i name="e_fr_energy">   -189.19849914 </i>
    <i name="e_wo_entrp">   -188.94998981 </i>
    <i name="e_0_energy">   -189.07424448 </i>
   </energy>
  </scstep>
  <scstep>
   <time name="diag">    1.62    1.64</time>
   <time name="diis">    4.82    4.94</time>
   <time name="orth">    0.38    0.38</time>
   <time name="total">    7.12    7.26</time>
   <dipole>
    <v name="dipole">      0.00000000       0.00000000       0.10499618 </v>
    <i name="Tr[quadrupol]"> -10276.01337109 </i>
    <i name="Echarged">      0.00000000 </i>
    <i name="Edipol_quadrupol">      0.00000000 </i>
    <i name="Eion">      0.00000000 </i>
   </dipole>
   <energy>
    <i name="e_fr_energy">   -188.94486568 </i>
    <i name="e_wo_entrp">   -188.68832213 </i>
    <i name="e_0_energy">   -188.81659390 </i>
   </energy>
  </scstep>
  <scstep>
   <time name="diag">    1.65    1.66</time>
   <time name="diis">    4.91    4.94</time>
   <time name="orth">    0.38    0.38</time>
   <time name="total">    7.23    7.27</time>
   <dipole>
    <v name="dipole">      0.00000000       0.00000000       0.09756564 </v>
    <i name="Tr[quadrupol]"> -10276.15189128 </i>
    <i name="Echarged">      0.00000000 </i>
    <i name="Edipol_quadrupol">      0.00000000 </i>
    <i name="Eion">      0.00000000 </i>
   </dipole>
   <energy>
    <i name="e_fr_energy">   -188.87088216 </i>
    <i name="e_wo_entrp">   -188.61388217 </i>
    <i name="e_0_energy">   -188.74238216 </i>
   </energy>
  </scstep>
  <scstep>
   <time name="diag">    1.61    1.61</time>
   <time name="diis">    4.92    4.95</time>
   <time name="orth">    0.38    0.38</time>
   <time name="total">    7.19    7.24</time>
   <dipole>
    <v name="dipole">      0.00000000       0.00000000       0.07418134 </v>
    <i name="Tr[quadrupol]"> -10276.33480629 </i>
    <i name="Echarged">      0.00000000 </i>
    <i name="Edipol_quadrupol">      0.00000000 </i>
    <i name="Eion">      0.00000000 </i>
   </dipole>
   <energy>
    <i name="e_fr_energy">   -188.83369100 </i>
    <i name="e_wo_entrp">   -188.57429302 </i>
    <i name="e_0_energy">   -188.70399201 </i>
   </energy>
  </scstep>
  <scstep>
   <time name="diag">    1.59    1.60</time>
   <time name="diis">    4.91    4.94</time>
   <time name="orth">    0.38    0.38</time>
   <time name="total">    7.17    7.21</time>
   <dipole>
    <v name="dipole">      0.00000000       0.00000000       0.06564303 </v>
    <i name="Tr[quadrupol]"> -10276.43292650 </i>
    <i name="Echarged">      0.00000000 </i>
    <i name="Edipol_quadrupol">      0.00000000 </i>
    <i name="Eion">      0.00000000 </i>
   </dipole>
   <energy>
    <i name="e_fr_energy">   -188.81631581 </i>
    <i name="e_wo_entrp">   -188.55515115 </i>
    <i name="e_0_energy">   -188.68573348 </i>
   </energy>
  </scstep>
  <scstep>
   <time name="diag">    1.62    1.63</time>
   <time name="diis">    4.92    4.94</time>
   <time name="orth">    0.38    0.38</time>
   <time name="total">    7.22    7.26</time>
   <dipole>
    <v name="dipole">      0.00000000       0.00000000       0.05512506 </v>
    <i name="Tr[quadrupol]"> -10276.59101173 </i>
    <i name="Echarged">      0.00000000 </i>
    <i name="Edipol_quadrupol">      0.00000000 </i>
    <i name="Eion">      0.00000000 </i>
   </dipole>
   <energy>
    <i name="e_fr_energy">   -188.80804286 </i>
    <i name="e_wo_entrp">   -188.54919690 </i>
    <i name="e_0_energy">   -188.67861988 </i>
   </energy>
  </scstep>
  <scstep>
   <time name="diag">    1.65    1.66</time>
   <time name="diis">    4.84    4.93</time>
   <time name="orth">    0.37    0.39</time>
   <time name="total">    7.15    7.28</time>
   <dipole>
    <v name="dipole">      0.00000000       0.00000000       0.05161869 </v>
    <i name="Tr[quadrupol]"> -10276.75142956 </i>
    <i name="Echarged">      0.00000000 </i>
    <i name="Edipol_quadrupol">      0.00000000 </i>
    <i name="Eion">      0.00000000 </i>
   </dipole>
   <energy>
    <i name="e_fr_energy">   -188.80636550 </i>
    <i name="e_wo_entrp">   -188.54747550 </i>
    <i name="e_0_energy">   -188.67692050 </i>
   </energy>
  </scstep>
  <scstep>
   <time name="diag">    1.61    1.62</time>
   <time name="diis">    4.85    4.90</time>
   <time name="orth">    0.38    0.38</time>
   <time name="total">    7.12    7.19</time>
   <dipole>
    <v name="dipole">      0.00000000       0.00000000       0.04949193 </v>
    <i name="Tr[quadrupol]"> -10276.95154687 </i>
    <i name="Echarged">      0.00000000 </i>
    <i name="Edipol_quadrupol">      0.00000000 </i>
    <i name="Eion">      0.00000000 </i>
   </dipole>
   <energy>
    <i name="e_fr_energy">   -188.80480202 </i>
    <i name="e_wo_entrp">   -188.54713003 </i>
    <i name="e_0_energy">   -188.67596602 </i>
   </energy>
  </scstep>
  <scstep>
   <time name="diag">    1.59    1.60</time>
   <time name="diis">    4.91    4.93</time>
   <time name="orth">    0.38    0.38</time>
   <time name="total">    7.17    7.21</time>
   <dipole>
    <v name="dipole">      0.00000000       0.00000000       0.04226818 </v>
    <i name="Tr[quadrupol]"> -10277.04592336 </i>
    <i name="Echarged">      0.00000000 </i>
    <i name="Edipol_quadrupol">      0.00000000 </i>
    <i name="Eion">      0.00000000 </i>
   </dipole>
   <energy>
    <i name="e_fr_energy">   -188.80436578 </i>
    <i name="e_wo_entrp">   -188.54542253 </i>
    <i name="e_0_energy">   -188.67489416 </i>
   </energy>
  </scstep>
  <scstep>
   <time name="diag">    1.62    1.64</time>
   <time name="diis">    4.90    4.92</time>
   <time name="orth">    0.38    0.38</time>
   <time name="total">    7.19    7.23</time>
   <dipole>
    <v name="dipole">      0.00000000       0.00000000       0.03767133 </v>
    <i name="Tr[quadrupol]"> -10277.10559366 </i>
    <i name="Echarged">      0.00000000 </i>
    <i name="Edipol_quadrupol">      0.00000000 </i>
    <i name="Eion">      0.00000000 </i>
   </dipole>
   <energy>
    <i name="e_fr_energy">   -188.80436785 </i>
    <i name="e_wo_entrp">   -188.54447568 </i>
    <i name="e_0_energy">   -188.67442177 </i>
   </energy>
  </scstep>
  <scstep>
   <time name="diag">    1.64    1.65</time>
   <time name="diis">    4.94    4.97</time>
   <time name="orth">    0.38    0.38</time>
   <time name="total">    7.26    7.30</time>
   <dipole>
    <v name="dipole">      0.00000000       0.00000000       0.03434022 </v>
    <i name="Tr[quadrupol]"> -10277.15545035 </i>
    <i name="Echarged">      0.00000000 </i>
    <i name="Edipol_quadrupol">      0.00000000 </i>
    <i name="Eion">      0.00000000 </i>
   </dipole>
   <energy>
    <i name="e_fr_energy">   -188.80455349 </i>
    <i name="e_wo_entrp">   -188.54497300 </i>
    <i name="e_0_energy">   -188.67476325 </i>
   </energy>
  </scstep>
  <scstep>
   <time name="diag">    1.60    1.61</time>
   <time name="diis">    4.91    4.94</time>
   <time name="orth">    0.38    0.38</time>
   <time name="total">    7.18    7.22</time>
   <dipole>
    <v name="dipole">      0.00000000       0.00000000       0.03159102 </v>
    <i name="Tr[quadrupol]"> -10277.21698408 </i>
    <i name="Echarged">      0.00000000 </i>
    <i name="Edipol_quadrupol">      0.00000000 </i>
    <i name="Eion">      0.00000000 </i>
   </dipole>
   <energy>
    <i name="e_fr_energy">   -188.80481024 </i>
    <i name="e_wo_entrp">   -188.54519467 </i>
    <i name="e_0_energy">   -188.67500246 </i>
   </energy>
  </scstep>
  <scstep>
   <time name="diag">    1.59    1.60</time>
   <time name="diis">    4.82    4.93</time>
   <time name="orth">    0.38    0.38</time>
   <time name="total">    7.08    7.21</time>
   <dipole>
    <v name="dipole">      0.00000000       0.00000000       0.02796007 </v>
    <i name="Tr[quadrupol]"> -10277.29334122 </i>
    <i name="Echarged">      0.00000000 </i>
    <i name="Edipol_quadrupol">      0.00000000 </i>
    <i name="Eion">      0.00000000 </i>
   </dipole>
   <energy>
    <i name="e_fr_energy">   -188.80529886 </i>
    <i name="e_wo_entrp">   -188.54597771 </i>
    <i name="e_0_energy">   -188.67563829 </i>
   </energy>
  </scstep>
  <scstep>
   <time name="diag">    1.63    1.63</time>
   <time name="diis">    5.00    5.02</time>
   <time name="orth">    0.38    0.38</time>
   <time name="total">    7.29    7.33</time>
   <dipole>
    <v name="dipole">      0.00000000       0.00000000       0.02527133 </v>
    <i name="Tr[quadrupol]"> -10277.34860287 </i>
    <i name="Echarged">      0.00000000 </i>
    <i name="Edipol_quadrupol">      0.00000000 </i>
    <i name="Eion">      0.00000000 </i>
   </dipole>
   <energy>
    <i name="e_fr_energy">   -188.80576648 </i>
    <i name="e_wo_entrp">   -188.54647866 </i>
    <i name="e_0_energy">   -188.67612257 </i>
   </energy>
  </scstep>
  <scstep>
   <time name="diag">    1.64    1.65</time>
   <time name="diis">    4.84    4.87</time>
   <time name="orth">    0.38    0.38</time>
   <time name="total">    7.16    7.20</time>
   <dipole>
    <v name="dipole">      0.00000000       0.00000000       0.02277020 </v>
    <i name="Tr[quadrupol]"> -10277.38797036 </i>
    <i name="Echarged">      0.00000000 </i>
    <i name="Edipol_quadrupol">      0.00000000 </i>
    <i name="Eion">      0.00000000 </i>
   </dipole>
   <energy>
    <i name="e_fr_energy">   -188.80615344 </i>
    <i name="e_wo_entrp">   -188.54682141 </i>
    <i name="e_0_energy">   -188.67648742 </i>
   </energy>
  </scstep>
  <scstep>
   <time name="diag">    1.60    1.61</time>
   <time name="diis">    4.81    4.83</time>
   <time name="orth">    0.37    0.38</time>
   <time name="total">    7.07    7.11</time>
   <dipole>
    <v name="dipole">      0.00000000       0.00000000       0.01842913 </v>
    <i name="Tr[quadrupol]"> -10277.45692182 </i>
    <i name="Echarged">      0.00000000 </i>
    <i name="Edipol_quadrupol">      0.00000000 </i>
    <i name="Eion">      0.00000000 </i>
   </dipole>
   <energy>
    <i name="e_fr_energy">   -188.80684452 </i>
    <i name="e_wo_entrp">   -188.54752522 </i>
    <i name="e_0_energy">   -188.67718487 </i>
   </energy>
  </scstep>
  <scstep>
   <time name="diag">    1.59    1.60</time>
   <time name="diis">    4.71    4.74</time>
   <time name="orth">    0.37    0.38</time>
   <time name="total">    6.97    7.01</time>
   <dipole>
    <v name="dipole">      0.00000000       0.00000000       0.01484246 </v>
    <i name="Tr[quadrupol]"> -10277.50926005 </i>
    <i name="Echarged">      0.00000000 </i>
    <i name="Edipol_quadrupol">      0.00000000 </i>
    <i name="Eion">      0.00000000 </i>
   </dipole>
   <energy>
    <i name="e_fr_energy">   -188.80731707 </i>
    <i name="e_wo_entrp">   -188.54785768 </i>
    <i name="e_0_energy">   -188.67758738 </i>
   </energy>
  </scstep>
  <scstep>
   <time name="diag">    1.63    1.64</time>
   <time name="diis">    4.25    4.28</time>
   <time name="orth">    0.37    0.37</time>
   <time name="total">    6.55    6.59</time>
   <dipole>
    <v name="dipole">      0.00000000       0.00000000       0.01231078 </v>
    <i name="Tr[quadrupol]"> -10277.54553435 </i>
    <i name="Echarged">      0.00000000 </i>
    <i name="Edipol_quadrupol">      0.00000000 </i>
    <i name="Eion">      0.00000000 </i>
   </dipole>
   <energy>
    <i name="e_fr_energy">   -188.80760031 </i>
    <i name="e_wo_entrp">   -188.54820899 </i>
    <i name="e_0_energy">   -188.67790465 </i>
   </energy>
  </scstep>
  <scstep>
   <time name="diag">    1.60    1.68</time>
   <time name="diis">    3.70    3.72</time>
   <time name="orth">    0.37    0.37</time>
   <time name="total">    5.97    6.08</time>
   <dipole>
    <v name="dipole">      0.00000000       0.00000000       0.01115039 </v>
    <i name="Tr[quadrupol]"> -10277.56042503 </i>
    <i name="Echarged">      0.00000000 </i>
    <i name="Edipol_quadrupol">      0.00000000 </i>
    <i name="Eion">      0.00000000 </i>
   </dipole>
   <energy>
    <i name="e_fr_energy">   -188.80770037 </i>
    <i name="e_wo_entrp">   -188.54833351 </i>
    <i name="e_0_energy">   -188.67801694 </i>
   </energy>
  </scstep>
  <scstep>
   <time name="diag">    1.60    1.61</time>
   <time name="diis">    3.42    3.43</time>
   <time name="orth">    0.37    0.37</time>
   <time name="total">    5.68    5.71</time>
   <dipole>
    <v name="dipole">      0.00000000       0.00000000       0.00964519 </v>
    <i name="Tr[quadrupol]"> -10277.57583302 </i>
    <i name="Echarged">      0.00000000 </i>
    <i name="Edipol_quadrupol">      0.00000000 </i>
    <i name="Eion">      0.00000000 </i>
   </dipole>
   <energy>
    <i name="e_fr_energy">   -188.80781180 </i>
    <i name="e_wo_entrp">   -188.54846062 </i>
    <i name="e_0_energy">   -188.67813621 </i>
   </energy>
  </scstep>
  <scstep>
   <time name="diag">    1.59    1.60</time>
   <time name="diis">    3.06    3.08</time>
   <time name="orth">    0.37    0.37</time>
   <time name="total">    5.32    5.35</time>
   <dipole>
    <v name="dipole">      0.00000000       0.00000000       0.00881073 </v>
    <i name="Tr[quadrupol]"> -10277.58252774 </i>
    <i name="Echarged">      0.00000000 </i>
    <i name="Edipol_quadrupol">      0.00000000 </i>
    <i name="Eion">      0.00000000 </i>
   </dipole>
   <energy>
    <i name="e_fr_energy">   -188.80785731 </i>
    <i name="e_wo_entrp">   -188.54849047 </i>
    <i name="e_0_energy">   -188.67817389 </i>
   </energy>
  </scstep>
  <scstep>
   <time name="diag">    1.62    1.63</time>
   <time name="diis">    3.03    3.04</time>
   <time name="orth">    0.37    0.37</time>
   <time name="total">    5.31    5.35</time>
   <dipole>
    <v name="dipole">      0.00000000       0.00000000       0.00792980 </v>
    <i name="Tr[quadrupol]"> -10277.58841619 </i>
    <i name="Echarged">      0.00000000 </i>
    <i name="Edipol_quadrupol">      0.00000000 </i>
    <i name="Eion">      0.00000000 </i>
   </dipole>
   <energy>
    <i name="e_fr_energy">   -188.80789830 </i>
    <i name="e_wo_entrp">   -188.54853727 </i>
    <i name="e_0_energy">   -188.67821778 </i>
   </energy>
  </scstep>
  <scstep>
   <time name="diag">    1.65    1.65</time>
   <time name="diis">    2.98    3.00</time>
   <time name="orth">    0.37    0.37</time>
   <time name="total">    5.29    5.32</time>
   <dipole>
    <v name="dipole">      0.00000000       0.00000000       0.00722347 </v>
    <i name="Tr[quadrupol]"> -10277.59302808 </i>
    <i name="Echarged">      0.00000000 </i>
    <i name="Edipol_quadrupol">      0.00000000 </i>
    <i name="Eion">      0.00000000 </i>
   </dipole>
   <energy>
    <i name="e_fr_energy">   -188.80792075 </i>
    <i name="e_wo_entrp">   -188.54856251 </i>
    <i name="e_0_energy">   -188.67824163 </i>
   </energy>
  </scstep>
  <scstep>
   <time name="diag">    1.60    1.61</time>
   <time name="diis">    2.67    2.68</time>
   <time name="orth">    0.37    0.37</time>
   <time name="total">    4.93    4.96</time>
   <dipole>
    <v name="dipole">      0.00000000       0.00000000       0.00668524 </v>
    <i name="Tr[quadrupol]"> -10277.59682863 </i>
    <i name="Echarged">      0.00000000 </i>
    <i name="Edipol_quadrupol">      0.00000000 </i>
    <i name="Eion">      0.00000000 </i>
   </dipole>
   <energy>
    <i name="e_fr_energy">   -188.80793116 </i>
    <i name="e_wo_entrp">   -188.54857344 </i>
    <i name="e_0_energy">   -188.67825230 </i>
   </energy>
  </scstep>
  <scstep>
   <time name="diag">    1.58    1.59</time>
   <time name="diis">    2.57    2.58</time>
   <time name="orth">    0.37    0.37</time>
   <time name="total">    4.82    4.84</time>
   <dipole>
    <v name="dipole">      0.00000000       0.00000000       0.00627065 </v>
    <i name="Tr[quadrupol]"> -10277.59995317 </i>
    <i name="Echarged">      0.00000000 </i>
    <i name="Edipol_quadrupol">      0.00000000 </i>
    <i name="Eion">      0.00000000 </i>
   </dipole>
   <energy>
    <i name="e_fr_energy">   -188.80793558 </i>
    <i name="e_wo_entrp">   -188.54858104 </i>
    <i name="e_0_energy">   -188.67825831 </i>
   </energy>
  </scstep>
  <scstep>
   <time name="diag">    1.62    1.63</time>
   <time name="diis">    2.18    2.29</time>
   <time name="orth">    0.37    0.37</time>
   <time name="total">    4.47    4.59</time>
   <dipole>
    <v name="dipole">      0.00000000       0.00000000       0.00600541 </v>
    <i name="Tr[quadrupol]"> -10277.60196574 </i>
    <i name="Echarged">      0.00000000 </i>
    <i name="Edipol_quadrupol">      0.00000000 </i>
    <i name="Eion">      0.00000000 </i>
   </dipole>
   <energy>
    <i name="e_fr_energy">   -188.80793732 </i>
    <i name="e_wo_entrp">   -188.54858358 </i>
    <i name="e_0_energy">   -188.67826045 </i>
   </energy>
  </scstep>
  <scstep>
   <time name="diag">    1.64    1.65</time>
   <time name="diis">    2.18    2.19</time>
   <time name="orth">    0.37    0.37</time>
   <time name="total">    4.48    4.51</time>
   <dipole>
    <v name="dipole">      0.00000000       0.00000000       0.00576779 </v>
    <i name="Tr[quadrupol]"> -10277.60380591 </i>
    <i name="Echarged">      0.00000000 </i>
    <i name="Edipol_quadrupol">      0.00000000 </i>
    <i name="Eion">      0.00000000 </i>
   </dipole>
   <energy>
    <i name="e_fr_energy">   -188.80793864 </i>
    <i name="e_wo_entrp">   -188.54858462 </i>
    <i name="e_0_energy">   -188.67826163 </i>
   </energy>
  </scstep>
  <scstep>
   <time name="diag">    1.58    1.62</time>
   <time name="diis">    2.07    2.10</time>
   <time name="orth">    0.37    0.37</time>
   <time name="total">    4.32    4.39</time>
   <dipole>
    <v name="dipole">      0.00000000       0.00000000       0.00555246 </v>
    <i name="Tr[quadrupol]"> -10277.60569427 </i>
    <i name="Echarged">      0.00000000 </i>
    <i name="Edipol_quadrupol">      0.00000000 </i>
    <i name="Eion">      0.00000000 </i>
   </dipole>
   <energy>
    <i name="e_fr_energy">   -188.80793992 </i>
    <i name="e_wo_entrp">   -188.54858605 </i>
    <i name="e_0_energy">   -188.67826298 </i>
   </energy>
  </scstep>
  <scstep>
   <time name="diag">    1.60    1.60</time>
   <time name="diis">    1.99    2.00</time>
   <time name="orth">    0.37    0.37</time>
   <time name="total">    4.01    4.04</time>
   <dipole>
    <v name="dipole">      0.00000000       0.00000000       0.00540525 </v>
    <i name="Tr[quadrupol]"> -10277.60705604 </i>
    <i name="Echarged">      0.00000000 </i>
    <i name="Edipol_quadrupol">      0.00000000 </i>
    <i name="Eion">      0.00000000 </i>
   </dipole>
   <energy>
    <i name="alphaZ">    805.87278540 </i>
    <i name="ewald"> 200166.23834628 </i>
    <i name="hartreedc">-242353.63142710 </i>
    <i name="XCdc">   -343.40576377 </i>
    <i name="pawpsdc">  49360.82580992 </i>
    <i name="pawaedc"> -47438.84393419 </i>
    <i name="eentropy">     -0.25935390 </i>
    <i name="bandstr">  -2045.39027569 </i>
    <i name="atom">  41659.78587232 </i>
    <i name="e_fr_energy">   -188.80794075 </i>
    <i name="e_wo_entrp">   -188.54858685 </i>
    <i name="e_0_energy">   -188.67826380 </i>
   </energy>
  </scstep>
  <structure>
   <crystal>
    <varray name="basis" >
     <v>      11.00258152       0.00000000       0.00000000 </v>
     <v>       5.50129076       9.52851510       0.00000000 </v>
     <v>       0.00000000       0.00000000      24.49178509 </v>
    </varray>
    <i name="volume">   2567.67623402 </i>
    <varray name="rec_basis" >
     <v>       0.09088776      -0.05247407       0.00000000 </v>
     <v>       0.00000000       0.10494815       0.00000000 </v>
     <v>       0.00000000       0.00000000       0.04083002 </v>
    </varray>
   </crystal>
   <varray name="positions" >
    <v>       0.25000000       0.75000000       0.59169983 </v>
    <v>       0.58333333       0.33333333       0.40830017 </v>
    <v>       0.50000000       0.75000000       0.59169983 </v>
    <v>       0.66666667       0.91666667       0.50000000 </v>
    <v>       0.83333333       0.08333333       0.40830017 </v>
    <v>       0.33333333       0.83333333       0.40830017 </v>
    <v>       0.25000000       0.50000000       0.59169983 </v>
    <v>       0.66666667       0.16666667       0.50000000 </v>
    <v>       0.33333333       0.58333333       0.40830017 </v>
    <v>       0.16666667       0.41666667       0.50000000 </v>
    <v>       0.66666667       0.41666667       0.50000000 </v>
    <v>       0.16666667       0.16666667       0.50000000 </v>
    <v>       0.58333333       0.58333333       0.40830017 </v>
    <v>       0.75000000       0.25000000       0.59169983 </v>
    <v>       0.83333333       0.83333333       0.40830017 </v>
    <v>       0.00000000       0.00000000       0.59169983 </v>
    <v>       0.08333333       0.33333333       0.40830017 </v>
    <v>       0.91666667       0.41666667       0.50000000 </v>
    <v>       0.33333333       0.08333333       0.40830017 </v>
    <v>       0.08333333       0.58333333       0.40830017 </v>
    <v>       0.75000000       0.50000000       0.59169983 </v>
    <v>       0.83333333       0.58333333       0.40830017 </v>
    <v>       0.91666667       0.91666667       0.50000000 </v>
    <v>       0.91666667       0.66666667       0.50000000 </v>
    <v>       0.66666667       0.66666667       0.50000000 </v>
    <v>       0.75000000       0.00000000       0.59169983 </v>
    <v>       0.41666667       0.66666667       0.50000000 </v>
    <v>       0.41666667       0.91666667       0.50000000 </v>
    <v>       0.58333333       0.83333333       0.40830017 </v>
    <v>       0.50000000       0.50000000       0.59169983 </v>
    <v>       0.83333333       0.33333333       0.40830017 </v>
    <v>       0.08333333       0.08333333       0.40830017 </v>
    <v>       0.41666667       0.41666667       0.50000000 </v>
    <v>       0.50000000       0.00000000       0.59169983 </v>
    <v>       0.41666667       0.16666667       0.50000000 </v>
    <v>       0.58333333       0.08333333       0.40830017 </v>
    <v>       0.16666667       0.91666667       0.50000000 </v>
    <v>       0.16666667       0.66666667       0.50000000 </v>
    <v>       0.25000000       0.25000000       0.59169983 </v>
    <v>       0.33333333       0.33333333       0.40830017 </v>
    <v>       0.25000000       0.00000000       0.59169983 </v>
    <v>       0.00000000       0.75000000       0.59169983 </v>
    <v>       0.08333333       0.83333333       0.40830017 </v>
    <v>       0.00000000       0.50000000       0.59169983 </v>
    <v>       0.00000000       0.25000000       0.59169983 </v>
    <v>       0.91666667       0.16666667       0.50000000 </v>
    <v>       0.50000000       0.25000000       0.59169983 </v>
    <v>       0.75000000       0.75000000       0.59169983 </v>
   </varray>
  </structure>
  <varray name="forces" >
   <v>       0.00567231      -0.01187460       1.11623346 </v>
   <v>      -0.27881869      -0.15698556      -1.56592260 </v>
   <v>       0.11201281       0.22882978       1.11949513 </v>
   <v>      -0.73907489       0.10991204       0.32752978 </v>
   <v>       0.43234801       0.07996848      -1.56597530 </v>
   <v>      -0.14535855       0.19444650      -1.07681026 </v>
   <v>       0.05132684      -0.13234828       1.30748039 </v>
   <v>      -0.55312336       0.06644662       0.30491797 </v>
   <v>      -0.23209600       0.01533127      -1.11869462 </v>
   <v>       0.61552050      -0.22133432       0.37140047 </v>
   <v>      -0.15152984       0.22231661       0.05194173 </v>
   <v>      -0.18054158      -0.60318364       0.55582179 </v>
   <v>       0.23311585       0.18182481      -1.34926152 </v>
   <v>      -0.11804717      -0.09442401       1.60853794 </v>
   <v>      -0.13097857       0.19854221      -1.86095381 </v>
   <v>       0.10663660       0.07099518       1.36456674 </v>
   <v>      -0.11554646      -0.26152182      -1.87369972 </v>
   <v>      -0.28465698      -0.24812115       0.33075970 </v>
   <v>       0.33949986      -0.06895872      -1.34319924 </v>
   <v>       0.39518246       0.05912053      -1.63670489 </v>
   <v>       0.23433565       0.16708255       1.59104193 </v>
   <v>      -0.37018633       0.06721636      -1.67396381 </v>
   <v>       0.57352586      -0.22102878       0.28754221 </v>
   <v>       0.01204120       0.07345788       0.86268507 </v>
   <v>      -0.16236960       0.39556914       0.06925678 </v>
   <v>      -0.26792056      -0.12243059       1.00139584 </v>
   <v>      -0.10689630       0.13179180       0.15284734 </v>
   <v>       0.04357459      -0.07451593       0.20280741 </v>
   <v>      -0.01212989       0.14004167      -0.71065908 </v>
   <v>      -0.18201415      -0.11899822       0.76182471 </v>
   <v>       0.07302344      -0.17773804      -0.94949099 </v>
   <v>      -0.21495106      -0.05048863      -0.74504212 </v>
   <v>      -0.11410232      -0.02735572       0.19641404 </v>
   <v>       0.03921351       0.21096125       0.65668158 </v>
   <v>       0.09584918       0.01712092       0.22949644 </v>
   <v>      -0.30956681       0.04312311      -0.84165435 </v>
   <v>       0.06818795      -0.00915078      -0.16700253 </v>
   <v>       0.27407464       0.20237054       0.01642443 </v>
   <v>       0.02975316      -0.26437763       0.77307785 </v>
   <v>       0.14250547      -0.15050756      -0.80105975 </v>
   <v>       0.22054140       0.19183216       0.59964748 </v>
   <v>      -0.25251560      -0.05910044       0.85605635 </v>
   <v>       0.19489858       0.11348633      -0.73076750 </v>
   <v>      -0.02246234       0.04158584       0.99803971 </v>
   <v>       0.26230715      -0.06450866       0.86318047 </v>
   <v>       0.39501071      -0.09125802      -0.13120333 </v>
   <v>      -0.15055331      -0.07776509       0.71008033 </v>
   <v>       0.14528263       0.08460264       0.85488034 </v>
  </varray>
  <energy>
   <i name="e_fr_energy">   -188.80794075 </i>
   <i name="e_wo_entrp">   -188.67826380 </i>
   <i name="e_0_energy">     -0.25935390 </i>
  </energy>
  <time name="totalsc">  302.31  304.90</time>
 </calculation>
 <calculation>
  <scstep>
   <time name="dav">    9.08    9.14</time>
   <time name="total">    9.36    9.42</time>
   <dipole>
    <v name="dipole">      0.00000000       0.00000000       0.00528700 </v>
    <i name="Tr[quadrupol]"> -10273.11851365 </i>
    <i name="Echarged">      0.00000000 </i>
    <i name="Edipol_quadrupol">      0.00000000 </i>
    <i name="Eion">      0.00000000 </i>
   </dipole>
   <energy>
    <i name="alphaZ">    805.87275921 </i>
    <i name="ewald"> 197454.10624450 </i>
    <i name="hartreedc">-239657.72963823 </i>
    <i name="XCdc">   -345.62784429 </i>
    <i name="pawpsdc">  49360.82681758 </i>
    <i name="pawaedc"> -47438.84491247 </i>
    <i name="eentropy">     -0.25151689 </i>
    <i name="bandstr">  -2028.03748517 </i>
    <i name="atom">  41659.78587232 </i>
    <i name="e_fr_energy">   -189.89970344 </i>
    <i name="e_wo_entrp">   -189.64818655 </i>
    <i name="e_0_energy">   -189.77394499 </i>
   </energy>
  </scstep>
  <scstep>
   <time name="diag">    1.63    1.64</time>
   <time name="diis">    4.97    5.00</time>
   <time name="orth">    0.37    0.38</time>
   <time name="total">    7.28    7.32</time>
   <dipole>
    <v name="dipole">      0.00000000       0.00000000      -0.01037355 </v>
    <i name="Tr[quadrupol]"> -10272.87858692 </i>
    <i name="Echarged">      0.00000000 </i>
    <i name="Edipol_quadrupol">      0.00000000 </i>
    <i name="Eion">      0.00000000 </i>
   </dipole>
   <energy>
    <i name="e_fr_energy">   -190.28985697 </i>
    <i name="e_wo_entrp">   -190.03871451 </i>
    <i name="e_0_energy">   -190.16428574 </i>
   </energy>
  </scstep>
  <scstep>
   <time name="diag">    1.61    1.62</time>
   <time name="diis">    4.96    5.08</time>
   <time name="orth">    0.37    0.38</time>
   <time name="total">    7.24    7.37</time>
   <dipole>
    <v name="dipole">      0.00000000       0.00000000       0.03752951 </v>
    <i name="Tr[quadrupol]"> -10273.34730054 </i>
    <i name="Echarged">      0.00000000 </i>
    <i name="Edipol_quadrupol">      0.00000000 </i>
    <i name="Eion">      0.00000000 </i>
   </dipole>
   <energy>
    <i name="e_fr_energy">   -190.40398375 </i>
    <i name="e_wo_entrp">   -190.14738296 </i>
    <i name="e_0_energy">   -190.27568335 </i>
   </energy>
  </scstep>
  <scstep>
   <time name="diag">    1.61    1.62</time>
   <time name="diis">    5.03    5.06</time>
   <time name="orth">    0.37    0.37</time>
   <time name="total">    7.30    7.34</time>
   <dipole>
    <v name="dipole">      0.00000000       0.00000000       0.01919099 </v>
    <i name="Tr[quadrupol]"> -10273.23671564 </i>
    <i name="Echarged">      0.00000000 </i>
    <i name="Edipol_quadrupol">      0.00000000 </i>
    <i name="Eion">      0.00000000 </i>
   </dipole>
   <energy>
    <i name="e_fr_energy">   -190.27772381 </i>
    <i name="e_wo_entrp">   -190.03115012 </i>
    <i name="e_0_energy">   -190.15443696 </i>
   </energy>
  </scstep>
  <scstep>
   <time name="diag">    1.59    1.60</time>
   <time name="diis">    5.00    5.02</time>
   <time name="orth">    0.37    0.37</time>
   <time name="total">    7.24    7.28</time>
   <dipole>
    <v name="dipole">      0.00000000       0.00000000      -0.07349305 </v>
    <i name="Tr[quadrupol]"> -10273.22318659 </i>
    <i name="Echarged">      0.00000000 </i>
    <i name="Edipol_quadrupol">      0.00000000 </i>
    <i name="Eion">      0.00000000 </i>
   </dipole>
   <energy>
    <i name="e_fr_energy">   -190.35222323 </i>
    <i name="e_wo_entrp">   -190.08673265 </i>
    <i name="e_0_energy">   -190.21947794 </i>
   </energy>
  </scstep>
  <scstep>
   <time name="diag">    1.63    1.64</time>
   <time name="diis">    5.00    5.03</time>
   <time name="orth">    0.38    0.38</time>
   <time name="total">    7.31    7.35</time>
   <dipole>
    <v name="dipole">      0.00000000       0.00000000       0.02147956 </v>
    <i name="Tr[quadrupol]"> -10273.19585403 </i>
    <i name="Echarged">      0.00000000 </i>
    <i name="Edipol_quadrupol">      0.00000000 </i>
    <i name="Eion">      0.00000000 </i>
   </dipole>
   <energy>
    <i name="e_fr_energy">   -190.27613162 </i>
    <i name="e_wo_entrp">   -190.03051863 </i>
    <i name="e_0_energy">   -190.15332513 </i>
   </energy>
  </scstep>
  <scstep>
   <time name="diag">    1.61    1.62</time>
   <time name="diis">    4.91    4.99</time>
   <time name="orth">    0.37    0.37</time>
   <time name="total">    7.18    7.28</time>
   <dipole>
    <v name="dipole">      0.00000000       0.00000000      -0.00710897 </v>
    <i name="Tr[quadrupol]"> -10273.21047164 </i>
    <i name="Echarged">      0.00000000 </i>
    <i name="Edipol_quadrupol">      0.00000000 </i>
    <i name="Eion">      0.00000000 </i>
   </dipole>
   <energy>
    <i name="e_fr_energy">   -190.26148651 </i>
    <i name="e_wo_entrp">   -190.00706618 </i>
    <i name="e_0_energy">   -190.13427635 </i>
   </energy>
  </scstep>
  <scstep>
   <time name="diag">    1.61    1.62</time>
   <time name="diis">    4.96    4.99</time>
   <time name="orth">    0.37    0.37</time>
   <time name="total">    7.23    7.28</time>
   <dipole>
    <v name="dipole">      0.00000000       0.00000000       0.00327534 </v>
    <i name="Tr[quadrupol]"> -10273.17243055 </i>
    <i name="Echarged">      0.00000000 </i>
    <i name="Edipol_quadrupol">      0.00000000 </i>
    <i name="Eion">      0.00000000 </i>
   </dipole>
   <energy>
    <i name="e_fr_energy">   -190.25974405 </i>
    <i name="e_wo_entrp">   -190.00664981 </i>
    <i name="e_0_energy">   -190.13319693 </i>
   </energy>
  </scstep>
  <scstep>
   <time name="diag">    1.55    1.62</time>
   <time name="diis">    4.95    5.01</time>
   <time name="orth">    0.37    0.37</time>
   <time name="total">    7.16    7.29</time>
   <dipole>
    <v name="dipole">      0.00000000       0.00000000       0.00194236 </v>
    <i name="Tr[quadrupol]"> -10273.16257806 </i>
    <i name="Echarged">      0.00000000 </i>
    <i name="Edipol_quadrupol">      0.00000000 </i>
    <i name="Eion">      0.00000000 </i>
   </dipole>
   <energy>
    <i name="e_fr_energy">   -190.25812400 </i>
    <i name="e_wo_entrp">   -190.00468008 </i>
    <i name="e_0_energy">   -190.13140204 </i>
   </energy>
  </scstep>
  <scstep>
   <time name="diag">    1.63    1.64</time>
   <time name="diis">    4.98    5.01</time>
   <time name="orth">    0.37    0.37</time>
   <time name="total">    7.28    7.32</time>
   <dipole>
    <v name="dipole">      0.00000000       0.00000000       0.00017007 </v>
    <i name="Tr[quadrupol]"> -10273.15753403 </i>
    <i name="Echarged">      0.00000000 </i>
    <i name="Edipol_quadrupol">      0.00000000 </i>
    <i name="Eion">      0.00000000 </i>
   </dipole>
   <energy>
    <i name="e_fr_energy">   -190.25800662 </i>
    <i name="e_wo_entrp">   -190.00367269 </i>
    <i name="e_0_energy">   -190.13083965 </i>
   </energy>
  </scstep>
  <scstep>
   <time name="diag">    1.63    1.64</time>
   <time name="diis">    5.00    5.02</time>
   <time name="orth">    0.37    0.37</time>
   <time name="total">    7.29    7.33</time>
   <dipole>
    <v name="dipole">      0.00000000       0.00000000      -0.00056717 </v>
    <i name="Tr[quadrupol]"> -10273.15805336 </i>
    <i name="Echarged">      0.00000000 </i>
    <i name="Edipol_quadrupol">      0.00000000 </i>
    <i name="Eion">      0.00000000 </i>
   </dipole>
   <energy>
    <i name="e_fr_energy">   -190.25793417 </i>
    <i name="e_wo_entrp">   -190.00370342 </i>
    <i name="e_0_energy">   -190.13081880 </i>
   </energy>
  </scstep>
  <scstep>
   <time name="diag">    1.61    1.62</time>
   <time name="diis">    4.99    5.01</time>
   <time name="orth">    0.37    0.37</time>
   <time name="total">    7.26    7.30</time>
   <dipole>
    <v name="dipole">      0.00000000       0.00000000       0.00032203 </v>
    <i name="Tr[quadrupol]"> -10273.16214546 </i>
    <i name="Echarged">      0.00000000 </i>
    <i name="Edipol_quadrupol">      0.00000000 </i>
    <i name="Eion">      0.00000000 </i>
   </dipole>
   <energy>
    <i name="e_fr_energy">   -190.25793243 </i>
    <i name="e_wo_entrp">   -190.00378140 </i>
    <i name="e_0_energy">   -190.13085692 </i>
   </energy>
  </scstep>
  <scstep>
   <time name="diag">    1.59    1.59</time>
   <time name="diis">    5.05    5.08</time>
   <time name="orth">    0.37    0.37</time>
   <time name="total">    7.30    7.34</time>
   <dipole>
    <v name="dipole">      0.00000000       0.00000000       0.00031116 </v>
    <i name="Tr[quadrupol]"> -10273.16608287 </i>
    <i name="Echarged">      0.00000000 </i>
    <i name="Edipol_quadrupol">      0.00000000 </i>
    <i name="Eion">      0.00000000 </i>
   </dipole>
   <energy>
    <i name="e_fr_energy">   -190.25792439 </i>
    <i name="e_wo_entrp">   -190.00370979 </i>
    <i name="e_0_energy">   -190.13081709 </i>
   </energy>
  </scstep>
  <scstep>
   <time name="diag">    1.63    1.64</time>
   <time name="diis">    4.82    4.94</time>
   <time name="orth">    0.37    0.37</time>
   <time name="total">    7.12    7.26</time>
   <dipole>
    <v name="dipole">      0.00000000       0.00000000       0.00031324 </v>
    <i name="Tr[quadrupol]"> -10273.16943950 </i>
    <i name="Echarged">      0.00000000 </i>
    <i name="Edipol_quadrupol">      0.00000000 </i>
    <i name="Eion">      0.00000000 </i>
   </dipole>
   <energy>
    <i name="e_fr_energy">   -190.25792062 </i>
    <i name="e_wo_entrp">   -190.00383875 </i>
    <i name="e_0_energy">   -190.13087969 </i>
   </energy>
  </scstep>
  <scstep>
   <time name="diag">    1.61    1.62</time>
   <time name="diis">    3.73    3.76</time>
   <time name="orth">    0.37    0.37</time>
   <time name="total">    5.77    5.82</time>
   <dipole>
    <v name="dipole">      0.00000000       0.00000000       0.00033875 </v>
    <i name="Tr[quadrupol]"> -10273.17145594 </i>
    <i name="Echarged">      0.00000000 </i>
    <i name="Edipol_quadrupol">      0.00000000 </i>
    <i name="Eion">      0.00000000 </i>
   </dipole>
   <energy>
    <i name="alphaZ">    805.86958186 </i>
    <i name="ewald"> 197454.10624450 </i>
    <i name="hartreedc">-239660.56674420 </i>
    <i name="XCdc">   -345.56182108 </i>
    <i name="pawpsdc">  48911.85320256 </i>
    <i name="pawaedc"> -46986.68743804 </i>
    <i name="eentropy">     -0.25410107 </i>
    <i name="bandstr">  -2028.80271659 </i>
    <i name="atom">  41659.78587232 </i>
    <i name="e_fr_energy">   -190.25791975 </i>
    <i name="e_wo_entrp">   -190.00381868 </i>
    <i name="e_0_energy">   -190.13086922 </i>
   </energy>
  </scstep>
  <structure>
   <crystal>
    <varray name="basis" >
     <v>      11.00258152       0.00000000       0.00000000 </v>
     <v>       5.50129076       9.52851510       0.00000000 </v>
     <v>       0.00000000       0.00000000      24.49178509 </v>
    </varray>
    <i name="volume">   2567.67623402 </i>
    <varray name="rec_basis" >
     <v>       0.09088776      -0.05247407       0.00000000 </v>
     <v>       0.00000000       0.10494815       0.00000000 </v>
     <v>       0.00000000       0.00000000       0.04083002 </v>
    </varray>
   </crystal>
   <varray name="positions" >
    <v>       0.25003845       0.74995792       0.59323892 </v>
    <v>       0.58275575       0.33277696       0.40614104 </v>
    <v>       0.49993830       0.75081099       0.59324342 </v>
    <v>       0.66420348       0.91705620       0.50045161 </v>
    <v>       0.83451862       0.08361675       0.40614097 </v>
    <v>       0.33254262       0.83402247       0.40681544 </v>
    <v>       0.25039206       0.49953095       0.59350262 </v>
    <v>       0.66485124       0.16690216       0.50042043 </v>
    <v>       0.33259380       0.58338767       0.40675769 </v>
    <v>       0.16894808       0.41588224       0.50051210 </v>
    <v>       0.66580763       0.41745458       0.50007162 </v>
    <v>       0.16718140       0.16452893       0.50076638 </v>
    <v>       0.58372663       0.58397774       0.40643978 </v>
    <v>       0.74980501       0.24966535       0.59391772 </v>
    <v>       0.83257950       0.83403698       0.40573424 </v>
    <v>       0.00020149       0.00025161       0.59358133 </v>
    <v>       0.08344212       0.33240648       0.40571667 </v>
    <v>       0.91623266       0.41578730       0.50045606 </v>
    <v>       0.33449755       0.08308894       0.40644813 </v>
    <v>       0.08444149       0.58354286       0.40604344 </v>
    <v>       0.75042316       0.50059215       0.59389360 </v>
    <v>       0.83207802       0.58357155       0.40599207 </v>
    <v>       0.91881864       0.91588332       0.50039647 </v>
    <v>       0.91657345       0.66692701       0.50118949 </v>
    <v>       0.66546735       0.66806860       0.50009549 </v>
    <v>       0.74939463      -0.00043390       0.59308058 </v>
    <v>       0.41610503       0.66713375       0.50021075 </v>
    <v>       0.41693245       0.91640258       0.50027964 </v>
    <v>       0.58304794       0.83382965       0.40732030 </v>
    <v>       0.49965222       0.49957826       0.59275025 </v>
    <v>       0.83387242       0.33270341       0.40699099 </v>
    <v>       0.08276306       0.08315440       0.40727289 </v>
    <v>       0.41636493       0.41656972       0.50027082 </v>
    <v>       0.49974652       0.00074766       0.59260528 </v>
    <v>       0.41693051       0.16672734       0.50031644 </v>
    <v>       0.58230677       0.08348617       0.40713968 </v>
    <v>       0.16689217       0.91663424       0.49976973 </v>
    <v>       0.16714927       0.66738388       0.50002265 </v>
    <v>       0.25055981       0.24906302       0.59276577 </v>
    <v>       0.33403743       0.33279992       0.40719565 </v>
    <v>       0.25033697       0.00067987       0.59252664 </v>
    <v>      -0.00067031       0.74979054       0.59288018 </v>
    <v>       0.08373043       0.83373554       0.40729257 </v>
    <v>      -0.00014263       0.50014738       0.59307595 </v>
    <v>       0.00091940       0.24977138       0.59289000 </v>
    <v>       0.91804077       0.16634324       0.49981909 </v>
    <v>       0.49967571       0.24972439       0.59267891 </v>
    <v>       0.75029599       0.75029984       0.59287856 </v>
   </varray>
  </structure>
  <varray name="forces" >
   <v>      -0.00660559       0.02781270       0.86531919 </v>
   <v>      -0.12193891      -0.09982410      -1.10610807 </v>
   <v>       0.07594636       0.13321077       0.89530369 </v>
   <v>      -0.20685148       0.01728460       0.06370028 </v>
   <v>       0.15410089       0.03709330      -1.03176910 </v>
   <v>      -0.05367141       0.11415819      -0.81210410 </v>
   <v>       0.00582407      -0.06215095       1.04996032 </v>
   <v>      -0.10408363      -0.01900606       0.07726429 </v>
   <v>      -0.03566316      -0.01076575      -0.82219945 </v>
   <v>       0.17543578      -0.10747861       0.03394128 </v>
   <v>      -0.12251344       0.09047086       0.02050966 </v>
   <v>       0.02100038      -0.24081991       0.08465798 </v>
   <v>       0.04321584       0.08300158      -0.97737642 </v>
   <v>      -0.04647917      -0.05228801       1.12465834 </v>
   <v>      -0.06538016       0.11524702      -1.15297926 </v>
   <v>       0.07064611       0.05279297       1.03896257 </v>
   <v>      -0.03268907      -0.13443016      -1.18747197 </v>
   <v>      -0.02792229      -0.05423590       0.04415314 </v>
   <v>       0.13901748       0.00227696      -0.93289033 </v>
   <v>       0.04492180       0.02155959      -1.05217182 </v>
   <v>       0.10287402       0.09505686       1.18188073 </v>
   <v>      -0.04325396       0.02360425      -1.07334904 </v>
   <v>       0.15213398      -0.01177203       0.05429230 </v>
   <v>      -0.00326940      -0.02044090       0.15556776 </v>
   <v>      -0.10400583       0.12121957       0.03372721 </v>
   <v>      -0.15705954      -0.09250251       0.74277018 </v>
   <v>      -0.06016168       0.10422193       0.03643609 </v>
   <v>      -0.08157798      -0.04885391       0.05126621 </v>
   <v>      -0.00210792       0.10757790      -0.56084687 </v>
   <v>      -0.05782192      -0.07744567       0.59847770 </v>
   <v>       0.00535376      -0.05544811      -0.67842852 </v>
   <v>      -0.03707787      -0.00635152      -0.59625911 </v>
   <v>      -0.00707124       0.05662979       0.05451724 </v>
   <v>       0.02225109       0.15614329       0.62667048 </v>
   <v>      -0.08272407       0.00214906       0.07733053 </v>
   <v>      -0.10070279      -0.00317366      -0.62166498 </v>
   <v>       0.07294790      -0.07495739      -0.03861209 </v>
   <v>       0.18096112       0.04054348       0.01233191 </v>
   <v>       0.01426716      -0.15520173       0.66860771 </v>
   <v>       0.02410833      -0.08423096      -0.59955832 </v>
   <v>       0.14240173       0.06578392       0.56701366 </v>
   <v>      -0.11111961      -0.03597584       0.75615176 </v>
   <v>       0.06516107       0.08322253      -0.59253778 </v>
   <v>       0.02480742      -0.04759503       0.78810954 </v>
   <v>       0.14941415      -0.01250029       0.74012246 </v>
   <v>       0.02578859      -0.07287735      -0.00923316 </v>
   <v>      -0.10187626      -0.05522602       0.64820853 </v>
   <v>       0.06104935       0.08449124       0.75364767 </v>
  </varray>
  <energy>
   <i name="e_fr_energy">   -190.25791975 </i>
   <i name="e_wo_entrp">   -190.13086922 </i>
   <i name="e_0_energy">     -0.25410107 </i>
  </energy>
  <time name="totalsc">  112.48  113.49</time>
 </calculation>
 <calculation>
  <scstep>
   <time name="dav">    9.09    9.14</time>
   <time name="total">    9.37   11.27</time>
   <dipole>
    <v name="dipole">      0.00000000       0.00000000       0.00037142 </v>
    <i name="Tr[quadrupol]"> -10260.57525216 </i>
    <i name="Echarged">      0.00000000 </i>
    <i name="Edipol_quadrupol">      0.00000000 </i>
    <i name="Eion">      0.00000000 </i>
   </dipole>
   <energy>
    <i name="alphaZ">    805.86961310 </i>
    <i name="ewald"> 189442.35716796 </i>
    <i name="hartreedc">-231690.72967126 </i>
    <i name="XCdc">   -351.07465646 </i>
    <i name="pawpsdc">  48911.74370546 </i>
    <i name="pawaedc"> -46986.57793133 </i>
    <i name="eentropy">     -0.23828479 </i>
    <i name="bandstr">  -1979.80612875 </i>
    <i name="atom">  41659.78587232 </i>
    <i name="e_fr_energy">   -188.67031373 </i>
    <i name="e_wo_entrp">   -188.43202895 </i>
    <i name="e_0_energy">   -188.55117134 </i>
   </energy>
  </scstep>
  <scstep>
   <time name="diag">    1.62    1.63</time>
   <time name="diis">    4.98    5.00</time>
   <time name="orth">    0.37    0.37</time>
   <time name="total">    7.25    7.30</time>
   <dipole>
    <v name="dipole">      0.00000000       0.00000000      -0.03701328 </v>
    <i name="Tr[quadrupol]"> -10259.79401260 </i>
    <i name="Echarged">      0.00000000 </i>
    <i name="Edipol_quadrupol">      0.00000000 </i>
    <i name="Eion">      0.00000000 </i>
   </dipole>
   <energy>
    <i name="e_fr_energy">   -192.12374188 </i>
    <i name="e_wo_entrp">   -191.89278273 </i>
    <i name="e_0_energy">   -192.00826230 </i>
   </energy>
  </scstep>
  <scstep>
   <time name="diag">    1.59    1.60</time>
   <time name="diis">    5.06    5.09</time>
   <time name="orth">    0.37    0.37</time>
   <time name="total">    7.31    7.35</time>
   <dipole>
    <v name="dipole">      0.00000000       0.00000000       0.01739384 </v>
    <i name="Tr[quadrupol]"> -10260.94204023 </i>
    <i name="Echarged">      0.00000000 </i>
    <i name="Edipol_quadrupol">      0.00000000 </i>
    <i name="Eion">      0.00000000 </i>
   </dipole>
   <energy>
    <i name="e_fr_energy">   -192.65288653 </i>
    <i name="e_wo_entrp">   -192.43364547 </i>
    <i name="e_0_energy">   -192.54326600 </i>
   </energy>
  </scstep>
  <scstep>
   <time name="diag">    1.64    1.65</time>
   <time name="diis">    4.91    5.03</time>
   <time name="orth">    0.38    0.38</time>
   <time name="total">    7.21    7.35</time>
   <dipole>
    <v name="dipole">      0.00000000       0.00000000       0.05564288 </v>
    <i name="Tr[quadrupol]"> -10260.66923700 </i>
    <i name="Echarged">      0.00000000 </i>
    <i name="Edipol_quadrupol">      0.00000000 </i>
    <i name="Eion">      0.00000000 </i>
   </dipole>
   <energy>
    <i name="e_fr_energy">   -191.99842824 </i>
    <i name="e_wo_entrp">   -191.78968196 </i>
    <i name="e_0_energy">   -191.89405510 </i>
   </energy>
  </scstep>
  <scstep>
   <time name="diag">    1.60    1.61</time>
   <time name="diis">    4.98    5.01</time>
   <time name="orth">    0.37    0.37</time>
   <time name="total">    7.24    7.28</time>
   <dipole>
    <v name="dipole">      0.00000000       0.00000000      -0.22171642 </v>
    <i name="Tr[quadrupol]"> -10260.80046887 </i>
    <i name="Echarged">      0.00000000 </i>
    <i name="Edipol_quadrupol">      0.00000000 </i>
    <i name="Eion">      0.00000000 </i>
   </dipole>
   <energy>
    <i name="e_fr_energy">   -192.48110205 </i>
    <i name="e_wo_entrp">   -192.26020509 </i>
    <i name="e_0_energy">   -192.37065357 </i>
   </energy>
  </scstep>
  <scstep>
   <time name="diag">    1.61    1.62</time>
   <time name="diis">    4.97    5.00</time>
   <time name="orth">    0.37    0.37</time>
   <time name="total">    7.23    7.27</time>
   <dipole>
    <v name="dipole">      0.00000000       0.00000000       0.03925002 </v>
    <i name="Tr[quadrupol]"> -10260.88250976 </i>
    <i name="Echarged">      0.00000000 </i>
    <i name="Edipol_quadrupol">      0.00000000 </i>
    <i name="Eion">      0.00000000 </i>
   </dipole>
   <energy>
    <i name="e_fr_energy">   -192.01220601 </i>
    <i name="e_wo_entrp">   -191.77100402 </i>
    <i name="e_0_energy">   -191.89160502 </i>
   </energy>
  </scstep>
  <scstep>
   <time name="diag">    1.58    1.59</time>
   <time name="diis">    5.02    5.05</time>
   <time name="orth">    0.37    0.37</time>
   <time name="total">    7.26    7.30</time>
   <dipole>
    <v name="dipole">      0.00000000       0.00000000      -0.01866958 </v>
    <i name="Tr[quadrupol]"> -10260.76640980 </i>
    <i name="Echarged">      0.00000000 </i>
    <i name="Edipol_quadrupol">      0.00000000 </i>
    <i name="Eion">      0.00000000 </i>
[...]
       <r>    2.3516    0.0000 </r>
       <r>    2.3891    0.0000 </r>
       <r>    2.4583    0.0000 </r>
       <r>    2.5430    0.0000 </r>
       <r>    2.6938    0.0000 </r>
       <r>    2.9556    0.0000 </r>
       <r>    3.1436    0.0000 </r>
       <r>    3.2069    0.0000 </r>
       <r>    3.5155    0.0000 </r>
       <r>    3.6343    0.0000 </r>
       <r>    3.7271    0.0000 </r>
       <r>    3.9623    0.0000 </r>
       <r>    4.1040    0.0000 </r>
       <r>    4.2304    0.0000 </r>
       <r>    4.4366    0.0000 </r>
       <r>    4.5332    0.0000 </r>
       <r>    4.5852    0.0000 </r>
       <r>    4.6281    0.0000 </r>
       <r>    4.6418    0.0000 </r>
       <r>    4.7797    0.0000 </r>
       <r>    4.8738    0.0000 </r>
       <r>    4.9505    0.0000 </r>
       <r>    4.9692    0.0000 </r>
       <r>    5.0399    0.0000 </r>
       <r>    5.0600    0.0000 </r>
       <r>    5.0927    0.0000 </r>
       <r>    5.1796    0.0000 </r>
       <r>    5.2546    0.0000 </r>
      </set>
     </set>
    </set>
   </array>
  </eigenvalues>
  <separator name="orbital magnetization" >
   <v name="MAGDIPOLOUT">      0.00000000      0.00000000      0.00000000</v>
  </separator>
  <dos>
   <i name="efermi">     -1.10482710 </i>
   <total>
    <array>
     <dimension dim="1">gridpoints</dimension>
     <dimension dim="2">spin</dimension>
     <field>energy</field>
     <field>total</field>
     <field>integrated</field>
     <set>
      <set comment="spin 1">
       <r>    -9.7531     0.0000     0.0000 </r>
       <r>    -9.6993     0.0000     0.0000 </r>
       <r>    -9.6455     0.0000     0.0000 </r>
       <r>    -9.5917     0.0000     0.0000 </r>
       <r>    -9.5378     0.0000     0.0000 </r>
       <r>    -9.4840     0.0000     0.0000 </r>
       <r>    -9.4302     0.0000     0.0000 </r>
       <r>    -9.3763     0.0000     0.0000 </r>
       <r>    -9.3225     0.0000     0.0000 </r>
       <r>    -9.2687     0.0000     0.0000 </r>
       <r>    -9.2149     0.0000     0.0000 </r>
       <r>    -9.1610     0.0000     0.0000 </r>
       <r>    -9.1072     0.0000     0.0000 </r>
       <r>    -9.0534     0.0001     0.0000 </r>
       <r>    -8.9996     0.0031     0.0002 </r>
       <r>    -8.9457     0.0412     0.0024 </r>
       <r>    -8.8919     0.3194     0.0196 </r>
       <r>    -8.8381     1.4239     0.0962 </r>
       <r>    -8.7842     3.6654     0.2935 </r>
       <r>    -8.7304     5.5102     0.5901 </r>
       <r>    -8.6766     5.1853     0.8692 </r>
       <r>    -8.6228     4.2626     1.0987 </r>
       <r>    -8.5689     4.8601     1.3603 </r>
       <r>    -8.5151     5.4385     1.6530 </r>
       <r>    -8.4613     4.0410     1.8706 </r>
       <r>    -8.4075     1.8336     1.9693 </r>
       <r>    -8.3536     0.5764     2.0003 </r>
       <r>    -8.2998     0.4945     2.0269 </r>
       <r>    -8.2460     1.2745     2.0955 </r>
       <r>    -8.1921     2.5643     2.2335 </r>
       <r>    -8.1383     3.8588     2.4412 </r>
       <r>    -8.0845     4.5555     2.6865 </r>
       <r>    -8.0307     4.3213     2.9191 </r>
       <r>    -7.9768     4.3942     3.1556 </r>
       <r>    -7.9230     6.1516     3.4867 </r>
       <r>    -7.8692     8.4283     3.9404 </r>
       <r>    -7.8154     9.1872     4.4349 </r>
       <r>    -7.7615     8.4795     4.8913 </r>
       <r>    -7.7077     7.7407     5.3080 </r>
       <r>    -7.6539     6.9067     5.6798 </r>
       <r>    -7.6000     5.6460     5.9837 </r>
       <r>    -7.5462     5.6586     6.2883 </r>
       <r>    -7.4924     7.9201     6.7146 </r>
       <r>    -7.4386    10.5090     7.2802 </r>
       <r>    -7.3847    10.9742     7.8710 </r>
       <r>    -7.3309     9.3629     8.3749 </r>
       <r>    -7.2771     8.0548     8.8085 </r>
       <r>    -7.2233     9.6075     9.3257 </r>
       <r>    -7.1694    14.4815    10.1052 </r>
       <r>    -7.1156    20.4385    11.2053 </r>
       <r>    -7.0618    25.1076    12.5568 </r>
       <r>    -7.0079    27.9408    14.0608 </r>
       <r>    -6.9541    29.8185    15.6658 </r>
       <r>    -6.9003    31.4769    17.3601 </r>
       <r>    -6.8465    33.0446    19.1388 </r>
       <r>    -6.7926    34.9306    21.0191 </r>
       <r>    -6.7388    37.4803    23.0365 </r>
       <r>    -6.6850    40.9682    25.2417 </r>
       <r>    -6.6312    44.1668    27.6191 </r>
       <r>    -6.5773    44.7907    30.0301 </r>
       <r>    -6.5235    45.5252    32.4806 </r>
       <r>    -6.4697    51.1763    35.2353 </r>
       <r>    -6.4158    58.8524    38.4031 </r>
       <r>    -6.3620    62.5507    41.7701 </r>
       <r>    -6.3082    63.2536    45.1749 </r>
       <r>    -6.2544    65.9251    48.7234 </r>
       <r>    -6.2005    70.7793    52.5333 </r>
       <r>    -6.1467    74.3982    56.5380 </r>
       <r>    -6.0929    76.6066    60.6615 </r>
       <r>    -6.0390    79.1758    64.9233 </r>
       <r>    -5.9852    80.8041    69.2728 </r>
       <r>    -5.9314    79.9265    73.5750 </r>
       <r>    -5.8776    77.9591    77.7714 </r>
       <r>    -5.8237    76.4334    81.8856 </r>
       <r>    -5.7699    74.9552    85.9202 </r>
       <r>    -5.7161    73.5838    89.8811 </r>
       <r>    -5.6623    73.2368    93.8232 </r>
       <r>    -5.6084    72.9622    97.7506 </r>
       <r>    -5.5546    72.1856   101.6361 </r>
       <r>    -5.5008    72.5241   105.5399 </r>
       <r>    -5.4469    73.2295   109.4817 </r>
       <r>    -5.3931    72.0854   113.3618 </r>
       <r>    -5.3393    72.1556   117.2458 </r>
       <r>    -5.2855    76.7563   121.3774 </r>
       <r>    -5.2316    82.0444   125.7936 </r>
       <r>    -5.1778    83.8329   130.3061 </r>
       <r>    -5.1240    83.3680   134.7936 </r>
       <r>    -5.0702    82.7838   139.2496 </r>
       <r>    -5.0163    82.6473   143.6983 </r>
       <r>    -4.9625    83.2077   148.1772 </r>
       <r>    -4.9087    84.7866   152.7410 </r>
       <r>    -4.8548    87.4424   157.4478 </r>
       <r>    -4.8010    90.2127   162.3037 </r>
       <r>    -4.7472    91.3209   167.2193 </r>
       <r>    -4.6934    90.7626   172.1048 </r>
       <r>    -4.6395    90.3153   176.9662 </r>
       <r>    -4.5857    90.2657   181.8250 </r>
       <r>    -4.5319    89.7686   186.6570 </r>
       <r>    -4.4781    89.1152   191.4539 </r>
       <r>    -4.4242    88.8358   196.2357 </r>
       <r>    -4.3704    88.0491   200.9751 </r>
       <r>    -4.3166    86.5608   205.6345 </r>
       <r>    -4.2627    85.2330   210.2223 </r>
       <r>    -4.2089    84.8112   214.7875 </r>
       <r>    -4.1551    86.2921   219.4324 </r>
       <r>    -4.1013    89.0626   224.2264 </r>
       <r>    -4.0474    90.3414   229.0892 </r>
       <r>    -3.9936    89.4400   233.9035 </r>
       <r>    -3.9398    88.5083   238.6677 </r>
       <r>    -3.8860    88.8646   243.4511 </r>
       <r>    -3.8321    89.9777   248.2943 </r>
       <r>    -3.7783    90.7545   253.1794 </r>
       <r>    -3.7245    91.2227   258.0897 </r>
       <r>    -3.6706    93.1529   263.1039 </r>
       <r>    -3.6168    96.8644   268.3178 </r>
       <r>    -3.5630   100.2924   273.7163 </r>
       <r>    -3.5092   101.6498   279.1878 </r>
       <r>    -3.4553   100.5523   284.6003 </r>
       <r>    -3.4015    98.3394   289.8937 </r>
       <r>    -3.3477    96.4690   295.0863 </r>
       <r>    -3.2939    95.3785   300.2203 </r>
       <r>    -3.2400    95.1661   305.3429 </r>
       <r>    -3.1862    95.2701   310.4710 </r>
       <r>    -3.1324    95.5217   315.6127 </r>
       <r>    -3.0785    95.9667   320.7783 </r>
       <r>    -3.0247    96.0089   325.9462 </r>
       <r>    -2.9709    96.1461   331.1215 </r>
       <r>    -2.9171    96.5852   336.3204 </r>
       <r>    -2.8632    95.7297   341.4733 </r>
       <r>    -2.8094    93.3093   346.4959 </r>
       <r>    -2.7556    91.3591   351.4135 </r>
       <r>    -2.7018    91.7596   356.3527 </r>
       <r>    -2.6479    93.8065   361.4021 </r>
       <r>    -2.5941    94.2748   366.4767 </r>
       <r>    -2.5403    92.3312   371.4466 </r>
       <r>    -2.4864    91.3530   376.3639 </r>
       <r>    -2.4326    93.2475   381.3832 </r>
       <r>    -2.3788    96.1017   386.5561 </r>
       <r>    -2.3250    97.3538   391.7964 </r>
       <r>    -2.2711    95.9083   396.9589 </r>
       <r>    -2.2173    92.2983   401.9270 </r>
       <r>    -2.1635    88.5666   406.6944 </r>
       <r>    -2.1096    87.4722   411.4028 </r>
       <r>    -2.0558    89.7161   416.2319 </r>
       <r>    -2.0020    92.7203   421.2228 </r>
       <r>    -1.9482    94.5217   426.3107 </r>
       <r>    -1.8943    96.1697   431.4873 </r>
       <r>    -1.8405    99.2800   436.8312 </r>
       <r>    -1.7867   103.1055   442.3811 </r>
       <r>    -1.7329   105.1173   448.0393 </r>
       <r>    -1.6790   104.3074   453.6539 </r>
       <r>    -1.6252   102.3661   459.1640 </r>
       <r>    -1.5714   101.4256   464.6235 </r>
       <r>    -1.5175   101.1825   470.0699 </r>
       <r>    -1.4637    99.4427   475.4226 </r>
       <r>    -1.4099    96.0034   480.5902 </r>
       <r>    -1.3561    92.4531   485.5667 </r>
       <r>    -1.3022    89.2297   490.3697 </r>
       <r>    -1.2484    84.2065   494.9024 </r>
       <r>    -1.1946    74.3090   498.9022 </r>
       <r>    -1.1408    61.0145   502.1865 </r>
       <r>    -1.0869    48.5743   504.8011 </r>
       <r>    -1.0331    37.3910   506.8138 </r>
       <r>    -0.9793    26.7438   508.2533 </r>
       <r>    -0.9254    18.0614   509.2255 </r>
       <r>    -0.8716    12.0100   509.8720 </r>
       <r>    -0.8178     8.3119   510.3194 </r>
       <r>    -0.7640     7.2728   510.7109 </r>
       <r>    -0.7101     8.2665   511.1558 </r>
       <r>    -0.6563     9.7722   511.6818 </r>
       <r>    -0.6025    12.0190   512.3288 </r>
       <r>    -0.5487    16.1729   513.1993 </r>
       <r>    -0.4948    20.7149   514.3144 </r>
       <r>    -0.4410    22.9732   515.5509 </r>
       <r>    -0.3872    22.1389   516.7426 </r>
       <r>    -0.3333    19.8378   517.8104 </r>
       <r>    -0.2795    19.7073   518.8712 </r>
       <r>    -0.2257    21.4068   520.0235 </r>
       <r>    -0.1719    20.0463   521.1025 </r>
       <r>    -0.1180    15.3512   521.9289 </r>
       <r>    -0.0642    11.5375   522.5499 </r>
       <r>    -0.0104    10.5271   523.1165 </r>
       <r>     0.0434    11.4315   523.7319 </r>
       <r>     0.0973    13.2622   524.4457 </r>
       <r>     0.1511    15.4371   525.2767 </r>
       <r>     0.2049    16.1738   526.1473 </r>
       <r>     0.2588    14.7981   526.9438 </r>
       <r>     0.3126    14.7272   527.7365 </r>
       <r>     0.3664    17.7244   528.6906 </r>
       <r>     0.4202    20.9936   529.8206 </r>
       <r>     0.4741    22.7153   531.0433 </r>
       <r>     0.5279    23.3187   532.2985 </r>
       <r>     0.5817    23.1927   533.5469 </r>
       <r>     0.6355    23.1971   534.7956 </r>
       <r>     0.6894    23.8126   536.0773 </r>
       <r>     0.7432    23.0084   537.3158 </r>
       <r>     0.7970    19.3022   538.3548 </r>
       <r>     0.8509    14.1410   539.1160 </r>
       <r>     0.9047     9.5374   539.6293 </r>
       <r>     0.9585     7.3095   540.0228 </r>
       <r>     1.0123     8.5038   540.4805 </r>
       <r>     1.0662    10.9703   541.0710 </r>
       <r>     1.1200    11.1209   541.6696 </r>
       <r>     1.1738     9.4727   542.1795 </r>
       <r>     1.2276     8.8035   542.6534 </r>
       <r>     1.2815     8.6275   543.1178 </r>
       <r>     1.3353     7.2842   543.5099 </r>
       <r>     1.3891     5.9465   543.8300 </r>
       <r>     1.4430     7.3651   544.2264 </r>
       <r>     1.4968    12.3377   544.8905 </r>
       <r>     1.5506    17.4986   545.8324 </r>
       <r>     1.6044    18.8677   546.8480 </r>
       <r>     1.6583    17.5301   547.7916 </r>
       <r>     1.7121    16.9455   548.7038 </r>
       <r>     1.7659    17.8241   549.6632 </r>
       <r>     1.8197    17.7566   550.6190 </r>
       <r>     1.8736    14.5139   551.4002 </r>
       <r>     1.9274     9.9452   551.9355 </r>
       <r>     1.9812     7.7829   552.3545 </r>
       <r>     2.0351     8.2193   552.7969 </r>
       <r>     2.0889     9.6361   553.3156 </r>
       <r>     2.1427    11.9650   553.9596 </r>
       <r>     2.1965    15.3650   554.7867 </r>
       <r>     2.2504    19.2855   555.8248 </r>
       <r>     2.3042    22.3704   557.0289 </r>
       <r>     2.3580    24.1248   558.3275 </r>
       <r>     2.4119    25.2477   559.6865 </r>
       <r>     2.4657    25.2556   561.0459 </r>
       <r>     2.5195    23.6505   562.3190 </r>
       <r>     2.5733    22.1018   563.5087 </r>
       <r>     2.6272    22.4092   564.7149 </r>
       <r>     2.6810    23.7823   565.9950 </r>
       <r>     2.7348    22.7281   567.2184 </r>
       <r>     2.7886    17.4324   568.1568 </r>
       <r>     2.8425    10.6239   568.7286 </r>
       <r>     2.8963     6.2548   569.0653 </r>
       <r>     2.9501     5.5733   569.3653 </r>
       <r>     3.0040     6.0863   569.6929 </r>
       <r>     3.0578     5.9848   570.0151 </r>
       <r>     3.1116     7.2070   570.4030 </r>
       <r>     3.1654    10.8045   570.9846 </r>
       <r>     3.2193    13.8880   571.7321 </r>
       <r>     3.2731    13.2438   572.4450 </r>
       <r>     3.3269     9.7892   572.9719 </r>
       <r>     3.3807     7.2574   573.3626 </r>
       <r>     3.4346     7.1998   573.7501 </r>
       <r>     3.4884     8.8874   574.2285 </r>
       <r>     3.5422    11.4918   574.8471 </r>
       <r>     3.5961    14.4528   575.6250 </r>
       <r>     3.6499    17.8890   576.5879 </r>
       <r>     3.7037    21.2405   577.7313 </r>
       <r>     3.7575    21.5814   578.8929 </r>
       <r>     3.8114    17.3099   579.8247 </r>
       <r>     3.8652    11.8525   580.4627 </r>
       <r>     3.9190     9.4740   580.9726 </r>
       <r>     3.9728    11.1261   581.5715 </r>
       <r>     4.0267    14.4827   582.3511 </r>
       <r>     4.0805    15.7323   583.1979 </r>
       <r>     4.1343    14.2331   583.9640 </r>
       <r>     4.1882    12.7484   584.6503 </r>
       <r>     4.2420    11.7152   585.2808 </r>
       <r>     4.2958     9.5240   585.7935 </r>
       <r>     4.3496     8.3191   586.2413 </r>
       <r>     4.4035    10.9093   586.8285 </r>
       <r>     4.4573    15.0923   587.6409 </r>
       <r>     4.5111    18.7463   588.6500 </r>
       <r>     4.5649    23.1535   589.8963 </r>
       <r>     4.6188    27.4601   591.3744 </r>
       <r>     4.6726    27.9246   592.8775 </r>
       <r>     4.7264    23.7624   594.1565 </r>
       <r>     4.7803    19.1695   595.1884 </r>
       <r>     4.8341    18.5705   596.1880 </r>
       <r>     4.8879    22.0124   597.3729 </r>
       <r>     4.9417    26.6854   598.8093 </r>
       <r>     4.9956    31.2709   600.4925 </r>
       <r>     5.0494    34.9450   602.3735 </r>
       <r>     5.1032    35.4135   604.2797 </r>
       <r>     5.1570    33.1258   606.0628 </r>
       <r>     5.2109    31.1690   607.7405 </r>
       <r>     5.2647    28.5054   609.2749 </r>
       <r>     5.3185    22.3001   610.4753 </r>
       <r>     5.3724    14.5377   611.2578 </r>
       <r>     5.4262     8.2896   611.7040 </r>
       <r>     5.4800     3.8977   611.9138 </r>
       <r>     5.5338     1.2942   611.9835 </r>
       <r>     5.5877     0.2708   611.9980 </r>
       <r>     5.6415     0.0339   611.9999 </r>
       <r>     5.6953     0.0025   612.0000 </r>
       <r>     5.7491     0.0001   612.0000 </r>
       <r>     5.8030     0.0000   612.0000 </r>
       <r>     5.8568     0.0000   612.0000 </r>
       <r>     5.9106     0.0000   612.0000 </r>
       <r>     5.9645     0.0000   612.0000 </r>
       <r>     6.0183     0.0000   612.0000 </r>
       <r>     6.0721     0.0000   612.0000 </r>
       <r>     6.1259     0.0000   612.0000 </r>
       <r>     6.1798     0.0000   612.0000 </r>
       <r>     6.2336     0.0000   612.0000 </r>
       <r>     6.2874     0.0000   612.0000 </r>
       <r>     6.3413     0.0000   612.0000 </r>
       <r>     6.3951     0.0000   612.0000 </r>
      </set>
     </set>
    </array>
   </total>
  </dos>
 </calculation>
 <structure name="finalpos" >
  <crystal>
   <varray name="basis" >
    <v>      11.00258152       0.00000000       0.00000000 </v>
    <v>       5.50129076       9.52851510       0.00000000 </v>
    <v>       0.00000000       0.00000000      24.49178509 </v>
   </varray>
   <i name="volume">   2567.67623402 </i>
   <varray name="rec_basis" >
    <v>       0.09088776      -0.05247407       0.00000000 </v>
    <v>       0.00000000       0.10494815       0.00000000 </v>
    <v>       0.00000000       0.00000000       0.04083002 </v>
   </varray>
  </crystal>
  <varray name="positions" >
   <v>       0.25146798       0.74922806       0.60191479 </v>
   <v>       0.58112539       0.33313418       0.39613189 </v>
   <v>       0.50211801       0.75175472       0.60142087 </v>
   <v>       0.66438344       0.91566532       0.50011021 </v>
   <v>       0.83410642       0.08552552       0.39885055 </v>
   <v>       0.32928433       0.83716861       0.40127451 </v>
   <v>       0.25244163       0.49701995       0.60227477 </v>
   <v>       0.66430026       0.16728201       0.50088348 </v>
   <v>       0.33084763       0.58465635       0.40119167 </v>
   <v>       0.16962158       0.41501206       0.49893246 </v>
   <v>       0.66419058       0.41754123       0.50155961 </v>
   <v>       0.16760101       0.16288139       0.50016694 </v>
   <v>       0.58206722       0.58613772       0.39957158 </v>
   <v>       0.75085779       0.24868880       0.60573318 </v>
   <v>       0.83001946       0.83713828       0.39189810 </v>
   <v>       0.00203511      -0.00017023       0.60519824 </v>
   <v>       0.08187004       0.33223876       0.39134259 </v>
   <v>       0.91599958       0.41495304       0.50043336 </v>
   <v>       0.33381855       0.08488944       0.39773460 </v>
   <v>       0.08253062       0.58505297       0.39519631 </v>
   <v>       0.75313437       0.50026277       0.60545415 </v>
   <v>       0.83101831       0.58488314       0.39539007 </v>
   <v>       0.91940587       0.91529540       0.50128431 </v>
   <v>       0.91692300       0.66607877       0.49918452 </v>
   <v>       0.66487624       0.66634851       0.50109675 </v>
   <v>       0.75023875      -0.00180361       0.59837677 </v>
   <v>       0.41456826       0.66842960       0.50147506 </v>
   <v>       0.41629056       0.91450182       0.50067512 </v>
   <v>       0.58197632       0.83588314       0.40358961 </v>
   <v>       0.50193027       0.49806168       0.59815709 </v>
   <v>       0.83180110       0.33472654       0.40388298 </v>
   <v>       0.08059559       0.08556923       0.40479586 </v>
   <v>       0.41587536       0.41667048       0.50047688 </v>
   <v>       0.50133634       0.00185672       0.59731899 </v>
   <v>       0.41591454       0.16521094       0.49961243 </v>
   <v>       0.58154311       0.08435929       0.40250569 </v>
   <v>       0.16714766       0.91465426       0.50212532 </v>
   <v>       0.16915144       0.66542660       0.50103777 </v>
   <v>       0.25232558       0.24727358       0.59672186 </v>
   <v>       0.33227256       0.33386310       0.40174487 </v>
   <v>       0.25282191       0.00108584       0.59751911 </v>
   <v>       0.00020771       0.74823731       0.59772985 </v>
   <v>       0.08110169       0.83573903       0.40428573 </v>
   <v>       0.00222291       0.49896330       0.59715626 </v>
   <v>       0.00379742       0.24946820       0.59886221 </v>
   <v>       0.91710611       0.16455865       0.50305622 </v>
   <v>       0.50089644       0.24839618       0.59725116 </v>
   <v>       0.75283396       0.75020132       0.59741363 </v>
  </varray>
 </structure>
</modeling>
