unknown system                          
           1
    11.002582    0.000000    0.000000
     5.501291    9.528515    0.000000
     0.000000    0.000000   24.491785
   Au   Pd
  24  24
Direct configuration=     1
   0.25000000  0.75000000  0.59169983
   0.58333333  0.33333333  0.40830017
   0.50000000  0.75000000  0.59169983
   0.66666667  0.91666667  0.50000000
   0.83333333  0.08333333  0.40830017
   0.33333333  0.83333333  0.40830017
   0.25000000  0.50000000  0.59169983
   0.66666667  0.16666667  0.50000000
   0.33333333  0.58333333  0.40830017
   0.16666667  0.41666667  0.50000000
   0.66666667  0.41666667  0.50000000
   0.16666667  0.16666667  0.50000000
   0.58333333  0.58333333  0.40830017
   0.75000000  0.25000000  0.59169983
   0.83333333  0.83333333  0.40830017
   0.00000000  0.00000000  0.59169983
   0.08333333  0.33333333  0.40830017
   0.91666667  0.41666667  0.50000000
   0.33333333  0.08333333  0.40830017
   0.08333333  0.58333333  0.40830017
   0.75000000  0.50000000  0.59169983
   0.83333333  0.58333333  0.40830017
   0.91666667  0.91666667  0.50000000
   0.91666667  0.66666667  0.50000000
   0.66666667  0.66666667  0.50000000
   0.75000000  0.00000000  0.59169983
   0.41666667  0.66666667  0.50000000
   0.41666667  0.91666667  0.50000000
   0.58333333  0.83333333  0.40830017
   0.50000000  0.50000000  0.59169983
   0.83333333  0.33333333  0.40830017
   0.08333333  0.08333333  0.40830017
   0.41666667  0.41666667  0.50000000
   0.50000000  0.00000000  0.59169983
   0.41666667  0.16666667  0.50000000
   0.58333333  0.08333333  0.40830017
   0.16666667  0.91666667  0.50000000
   0.16666667  0.66666667  0.50000000
   0.25000000  0.25000000  0.59169983
   0.33333333  0.33333333  0.40830017
   0.25000000  0.00000000  0.59169983
   0.00000000  0.75000000  0.59169983
   0.08333333  0.83333333  0.40830017
   0.00000000  0.50000000  0.59169983
   0.00000000  0.25000000  0.59169983
   0.91666667  0.16666667  0.50000000
   0.50000000  0.25000000  0.59169983
   0.75000000  0.75000000  0.59169983
Direct configuration=     2
   0.25003845  0.74995792  0.59323892
   0.58275575  0.33277696  0.40614104
   0.49993830  0.75081099  0.59324342
   0.66420348  0.91705620  0.50045161
   0.83451862  0.08361675  0.40614097
   0.33254262  0.83402247  0.40681544
   0.25039206  0.49953095  0.59350262
   0.66485124  0.16690216  0.50042043
   0.33259380  0.58338767  0.40675769
   0.16894808  0.41588224  0.50051210
   0.66580763  0.41745458  0.50007162
   0.16718140  0.16452893  0.50076638
   0.58372663  0.58397774  0.40643978
   0.74980501  0.24966535  0.59391772
   0.83257950  0.83403698  0.40573424
   0.00020149  0.00025161  0.59358133
   0.08344212  0.33240648  0.40571667
   0.91623266  0.41578730  0.50045606
   0.33449755  0.08308894  0.40644813
   0.08444149  0.58354286  0.40604344
   0.75042316  0.50059215  0.59389360
   0.83207802  0.58357155  0.40599207
   0.91881864  0.91588332  0.50039647
   0.91657345  0.66692701  0.50118949
   0.66546735  0.66806860  0.50009549
   0.74939463 -0.00043390  0.59308058
   0.41610503  0.66713375  0.50021075
   0.41693245  0.91640258  0.50027964
   0.58304794  0.83382965  0.40732030
   0.49965222  0.49957826  0.59275025
   0.83387242  0.33270341  0.40699099
   0.08276306  0.08315440  0.40727289
   0.41636493  0.41656972  0.50027082
   0.49974652  0.00074766  0.59260528
   0.41693051  0.16672734  0.50031644
   0.58230677  0.08348617  0.40713968
   0.16689217  0.91663424  0.49976973
   0.16714927  0.66738388  0.50002265
   0.25055981  0.24906302  0.59276577
   0.33403743  0.33279992  0.40719565
   0.25033697  0.00067987  0.59252664
  -0.00067031  0.74979054  0.59288018
   0.08373043  0.83373554  0.40729257
  -0.00014263  0.50014738  0.59307595
   0.00091940  0.24977138  0.59289000
   0.91804077  0.16634324  0.49981909
   0.49967571  0.24972439  0.59267891
   0.75029599  0.75029984  0.59287856
Direct configuration=     3
   0.25015381  0.74983166  0.59785619
   0.58102300  0.33110785  0.39966364
   0.49975320  0.75324397  0.59787418
   0.65681392  0.91822482  0.50180642
   0.83807447  0.08446699  0.39966335
   0.33017049  0.83608987  0.40236124
   0.25156825  0.49812379  0.59891097
   0.65940495  0.16760864  0.50168171
   0.33037520  0.58355067  0.40213024
   0.17579231  0.41352896  0.50204838
   0.66323051  0.41981830  0.50028647
   0.16872561  0.15811573  0.50306552
   0.58490651  0.58591094  0.40085859
   0.74922002  0.24866141  0.60057139
   0.83031800  0.83614793  0.39803646
   0.00080596  0.00100645  0.59922582
   0.08376847  0.32962591  0.39796616
   0.91493064  0.41314922  0.50182424
   0.33799019  0.08235575  0.40089203
   0.08776596  0.58417145  0.39927326
   0.75169265  0.50236862  0.60047490
   0.82831209  0.58428622  0.39906776
   0.92527457  0.91353329  0.50158588
   0.91629382  0.66770803  0.50475796
   0.66186938  0.67227439  0.50038197
   0.74757853 -0.00173562  0.59722282
   0.41442013  0.66853499  0.50084300
   0.41772982  0.91561030  0.50111854
   0.58219177  0.83531861  0.40438067
   0.49860888  0.49831304  0.59590152
   0.83548968  0.33081366  0.40306345
   0.08105224  0.08261759  0.40419104
   0.41545973  0.41627886  0.50108328
   0.49898610  0.00299066  0.59532162
   0.41772206  0.16690938  0.50126574
   0.57922710  0.08394466  0.40365820
   0.16756868  0.91653694  0.49907893
   0.16859706  0.66953554  0.50009059
   0.25223923  0.24625209  0.59596358
   0.33614971  0.33119969  0.40388209
   0.25134786  0.00271948  0.59500706
  -0.00268124  0.74916217  0.59642123
   0.08492171  0.83494215  0.40426977
  -0.00057054  0.50058953  0.59720431
   0.00367761  0.24908550  0.59646053
   0.92216309  0.16537296  0.49927637
   0.49870286  0.24889758  0.59561613
   0.75118397  0.75119936  0.59641475
Direct configuration=     4
   0.24970015  0.75044215  0.59924979
   0.58209738  0.33117604  0.39814207
   0.49997388  0.75298506  0.59944577
   0.66112994  0.91758636  0.50120156
   0.83615219  0.08412713  0.39842503
   0.33096825  0.83595500  0.40109162
   0.25079725  0.49844372  0.60083183
   0.66374248  0.16637817  0.50125900
   0.33284309  0.58322843  0.40102650
   0.17227118  0.41425518  0.50142117
   0.66309174  0.41909020  0.50019367
   0.16978427  0.16064682  0.50184683
   0.58306840  0.58527731  0.39954103
   0.74948472  0.24888988  0.60208041
   0.83074159  0.83614949  0.39669116
   0.00075737  0.00108899  0.60092188
   0.08406892  0.33028140  0.39653489
   0.91602121  0.41492691  0.50131433
   0.33601068  0.08311320  0.39968967
   0.08465695  0.58390345  0.39803071
   0.75110704  0.50203632  0.60230339
   0.83154326  0.58390791  0.39782220
   0.92122246  0.91596164  0.50127516
   0.91669250  0.66644331  0.50333719
   0.66298212  0.66974928  0.50037620
   0.74796199 -0.00184813  0.59818917
   0.41435907  0.66883822  0.50063547
   0.41551657  0.91546453  0.50069932
   0.58222585  0.83553508  0.40351446
   0.49966425  0.49819184  0.59684985
   0.83429465  0.33200496  0.40228833
   0.08279659  0.08311040  0.40321954
   0.41606239  0.41792202  0.50074758
   0.49884388  0.00327349  0.59693009
   0.41508131  0.16685365  0.50082802
   0.58147176  0.08331409  0.40287734
   0.16919557  0.91492406  0.49935920
   0.16976240  0.66762276  0.50012491
   0.25186747  0.24683028  0.59732588
   0.33471875  0.33149677  0.40309562
   0.25201889  0.00128055  0.59659176
  -0.00173752  0.74936388  0.59811126
   0.08361435  0.83511083  0.40327861
   0.00075840  0.49925828  0.59857867
   0.00298902  0.24972530  0.59796084
   0.91874482  0.16502148  0.49956990
   0.49870947  0.24888003  0.59711791
   0.75017105  0.75178225  0.59805318
Direct configuration=     5
   0.24952051  0.75068390  0.59980163
   0.58252281  0.33120303  0.39753955
   0.50006126  0.75288254  0.60006810
   0.66283901  0.91733354  0.50096205
   0.83539100  0.08399255  0.39793468
   0.33128415  0.83590160  0.40058887
   0.25049195  0.49857041  0.60159246
   0.66546006  0.16589093  0.50109162
   0.33382032  0.58310083  0.40058944
   0.17087688  0.41454276  0.50117281
   0.66303680  0.41880189  0.50015691
   0.17020348  0.16164908  0.50136425
   0.58234055  0.58502640  0.39901930
   0.74958954  0.24898035  0.60267796
   0.83090933  0.83615011  0.39615845
   0.00073813  0.00112167  0.60159350
   0.08418790  0.33054096  0.39596814
   0.91645305  0.41563085  0.50111242
   0.33522683  0.08341314  0.39921356
   0.08342584  0.58379733  0.39753868
   0.75087515  0.50190473  0.60302743
   0.83282275  0.58375811  0.39732898
   0.91961789  0.91692322  0.50115213
   0.91685038  0.66594250  0.50277459
   0.66342275  0.66874938  0.50037391
   0.74811383 -0.00189269  0.59857182
   0.41433490  0.66895830  0.50055329
   0.41464016  0.91540681  0.50053331
   0.58223934  0.83562079  0.40317146
   0.50008216  0.49814385  0.59722537
   0.83382144  0.33247669  0.40198139
   0.08348732  0.08330554  0.40283485
   0.41630104  0.41857268  0.50061465
   0.49878757  0.00338549  0.59756701
   0.41403562  0.16683158  0.50065468
   0.58236060  0.08306440  0.40256813
   0.16983980  0.91428539  0.49947019
   0.17022385  0.66686534  0.50013850
   0.25172026  0.24705924  0.59786533
   0.33415212  0.33161440  0.40278419
   0.25228460  0.00071077  0.59721928
  -0.00136382  0.74944376  0.59878049
   0.08309666  0.83517762  0.40288613
   0.00128463  0.49873112  0.59912289
   0.00271636  0.24997865  0.59855494
   0.91739124  0.16488230  0.49968613
   0.49871209  0.24887308  0.59771259
   0.74976995  0.75201306  0.59870197
Direct configuration=     6
   0.24964110  0.75048654  0.60019378
   0.58279534  0.33106982  0.39712865
   0.50031334  0.75245782  0.60047078
   0.66352207  0.91669188  0.50077565
   0.83526045  0.08402313  0.39766019
   0.33148449  0.83567024  0.40015449
   0.25049558  0.49856188  0.60205467
   0.66473719  0.16700386  0.50097401
   0.33283022  0.58311538  0.40036513
   0.16987704  0.41569732  0.50087333
   0.66426159  0.41826737  0.50015264
   0.16796751  0.16302198  0.50095394
   0.58334517  0.58473251  0.39873436
   0.74968541  0.24919158  0.60307123
   0.83120902  0.83587284  0.39579361
   0.00065674  0.00115730  0.60199337
   0.08378305  0.33109898  0.39550665
   0.91626894  0.41526499  0.50086920
   0.33513257  0.08360133  0.39882950
   0.08361313  0.58391476  0.39738411
   0.75096335  0.50145106  0.60347292
   0.83254406  0.58380792  0.39713938
   0.91982155  0.91571315  0.50104871
   0.91714389  0.66635080  0.50225117
   0.66407170  0.66778369  0.50040278
   0.74841358 -0.00164722  0.59876404
   0.41484718  0.66889704  0.50052862
   0.41584163  0.91481001  0.50040810
   0.58277462  0.83503674  0.40316524
   0.50038665  0.49840543  0.59745924
   0.83338769  0.33327915  0.40210822
   0.08311290  0.08376474  0.40285221
   0.41621617  0.41780839  0.50051222
   0.49916364  0.00301509  0.59784709
   0.41549361  0.16629646  0.50049227
   0.58262460  0.08318720  0.40259547
   0.16850188  0.91475906  0.49974449
   0.16933528  0.66640060  0.50015251
   0.25127860  0.24751027  0.59825404
   0.33365488  0.33243893  0.40272293
   0.25188899  0.00081327  0.59758293
  -0.00127342  0.74949753  0.59895449
   0.08277409  0.83475942  0.40286515
   0.00126456  0.49877990  0.59932308
   0.00241690  0.25002012  0.59866244
   0.91743759  0.16538742  0.49999209
   0.49905191  0.24899360  0.59784260
   0.74998194  0.75177869  0.59891626
Direct configuration=     7
   0.24968252  0.75041875  0.60032847
   0.58288895  0.33102406  0.39698752
   0.50039993  0.75231194  0.60060909
   0.66375668  0.91647149  0.50071162
   0.83521560  0.08403364  0.39756592
   0.33155331  0.83559077  0.40000529
   0.25049683  0.49855895  0.60221343
   0.66448890  0.16738612  0.50093361
   0.33249015  0.58312037  0.40028809
   0.16953363  0.41609387  0.50077047
   0.66468227  0.41808378  0.50015118
   0.16719952  0.16349354  0.50081300
   0.58369023  0.58463157  0.39863649
   0.74971834  0.24926413  0.60320631
   0.83131196  0.83577760  0.39566829
   0.00062879  0.00116954  0.60213071
   0.08364400  0.33129064  0.39534814
   0.91620571  0.41513933  0.50078566
   0.33510019  0.08366596  0.39869759
   0.08367745  0.58395509  0.39733102
   0.75099365  0.50129524  0.60362593
   0.83244834  0.58382503  0.39707426
   0.91989150  0.91529752  0.50101319
   0.91724471  0.66649104  0.50207139
   0.66429460  0.66745200  0.50041270
   0.74851654 -0.00156291  0.59883006
   0.41502314  0.66887600  0.50052014
   0.41625430  0.91460503  0.50036509
   0.58295847  0.83483614  0.40316310
   0.50049124  0.49849527  0.59753956
   0.83323871  0.33355477  0.40215179
   0.08298429  0.08392246  0.40285817
   0.41618702  0.41754588  0.50047704
   0.49929282  0.00288786  0.59794328
   0.41599439  0.16611266  0.50043648
   0.58271528  0.08322937  0.40260486
   0.16804234  0.91492176  0.49983871
   0.16903008  0.66624098  0.50015732
   0.25112691  0.24766519  0.59838755
   0.33348409  0.33272213  0.40270189
   0.25175310  0.00084847  0.59770783
  -0.00124237  0.74951600  0.59901426
   0.08266329  0.83461578  0.40285795
   0.00125767  0.49879666  0.59939184
   0.00231404  0.25003437  0.59869936
   0.91745351  0.16556092  0.50009718
   0.49916863  0.24903500  0.59788725
   0.75005475  0.75169819  0.59898987
Direct configuration=     8
   0.24988509  0.75015564  0.60049282
   0.58262696  0.33140230  0.39672802
   0.50046333  0.75225264  0.60078714
   0.66390749  0.91613825  0.50075374
   0.83556986  0.08412288  0.39750977
   0.33138097  0.83545061  0.39987569
   0.25078245  0.49837108  0.60239718
   0.66441874  0.16756468  0.50093321
   0.33234376  0.58323185  0.40027134
   0.16975739  0.41579137  0.50073394
   0.66468987  0.41801184  0.50021984
   0.16737610  0.16336101  0.50074349
   0.58371739  0.58460917  0.39851192
   0.74968214  0.24929735  0.60347093
   0.83131802  0.83569201  0.39532823
   0.00056901  0.00108913  0.60232321
   0.08338300  0.33160587  0.39495910
   0.91592501  0.41559055  0.50075963
   0.33534319  0.08373254  0.39855131
   0.08368944  0.58406985  0.39716484
   0.75132611  0.50108100  0.60388994
   0.83226798  0.58400638  0.39695227
   0.91985168  0.91538141  0.50100624
   0.91694626  0.66641971  0.50189436
   0.66485595  0.66706313  0.50055689
   0.74868063 -0.00137308  0.59878910
   0.41499836  0.66873941  0.50048052
   0.41633492  0.91490839  0.50037372
   0.58312681  0.83474448  0.40324602
   0.50049606  0.49864422  0.59754517
   0.83326440  0.33352426  0.40227952
   0.08250604  0.08402101  0.40298734
   0.41604323  0.41734045  0.50049113
   0.49944401  0.00267290  0.59791905
   0.41602832  0.16592736  0.50044301
   0.58252070  0.08329571  0.40268494
   0.16750664  0.91515822  0.50005779
   0.16915751  0.66608961  0.50028478
   0.25100859  0.24770772  0.59831327
   0.33345037  0.33292903  0.40270102
   0.25155866  0.00124125  0.59763941
  -0.00133051  0.74945914  0.59896911
   0.08265173  0.83467966  0.40296920
   0.00094957  0.49910453  0.59927117
   0.00230096  0.25002946  0.59866300
   0.91738030  0.16516680  0.50036238
   0.49933804  0.24914411  0.59783009
   0.75050745  0.75135314  0.59888421
Direct configuration=     9
   0.25009371  0.74988467  0.60066209
   0.58235715  0.33179184  0.39646077
   0.50052863  0.75219156  0.60097051
   0.66406281  0.91579504  0.50079711
   0.83593470  0.08421480  0.39745195
   0.33120348  0.83530625  0.39974222
   0.25107661  0.49817760  0.60258643
   0.66434649  0.16774858  0.50093280
   0.33219299  0.58334666  0.40025409
   0.16998784  0.41547983  0.50069631
   0.66469769  0.41793775  0.50029054
   0.16755796  0.16322452  0.50067190
   0.58374536  0.58458611  0.39838362
   0.74964485  0.24933157  0.60374346
   0.83132426  0.83560386  0.39497800
   0.00050745  0.00100632  0.60252146
   0.08311420  0.33193051  0.39455843
   0.91563593  0.41605526  0.50073281
   0.33559346  0.08380110  0.39840066
   0.08370179  0.58418805  0.39699368
   0.75166852  0.50086035  0.60416185
   0.83208223  0.58419314  0.39682665
   0.91981067  0.91546780  0.50099908
   0.91663889  0.66634625  0.50171204
   0.66543409  0.66666263  0.50070540
   0.74884963 -0.00117758  0.59874691
   0.41497284  0.66859873  0.50043972
   0.41641796  0.91522082  0.50038260
   0.58330018  0.83465007  0.40333141
   0.50050103  0.49879762  0.59755094
   0.83329086  0.33349283  0.40241107
   0.08201349  0.08412249  0.40312037
   0.41589513  0.41712887  0.50050564
   0.49959973  0.00245151  0.59789409
   0.41606326  0.16573652  0.50044973
   0.58232031  0.08336402  0.40276741
   0.16695492  0.91540175  0.50028341
   0.16928875  0.66593372  0.50041605
   0.25088672  0.24775151  0.59823678
   0.33341564  0.33314210  0.40270012
   0.25135840  0.00164578  0.59756895
  -0.00142128  0.74940058  0.59892261
   0.08263983  0.83474545  0.40308377
   0.00063227  0.49942160  0.59914691
   0.00228749  0.25002440  0.59862556
   0.91730490  0.16476091  0.50063551
   0.49951251  0.24925648  0.59777121
   0.75097367  0.75099777  0.59877540
Direct configuration=    10
   0.25019541  0.74985805  0.60081423
   0.58224714  0.33196940  0.39618420
   0.50060215  0.75224591  0.60108623
   0.66417698  0.91581153  0.50085814
   0.83571526  0.08438917  0.39743849
   0.33096053  0.83556601  0.39973149
   0.25119792  0.49798436  0.60276169
   0.66436004  0.16755376  0.50088264
   0.33218618  0.58351924  0.40028440
   0.17006119  0.41516278  0.50068532
   0.66442528  0.41796011  0.50038340
   0.16765547  0.16316555  0.50053579
   0.58352601  0.58472108  0.39830747
   0.74961183  0.24944518  0.60408495
   0.83124038  0.83588256  0.39451663
   0.00063395  0.00078368  0.60278791
   0.08307682  0.33190594  0.39409621
   0.91586768  0.41573588  0.50071708
   0.33540476  0.08384143  0.39826499
   0.08359423  0.58430946  0.39679309
   0.75181951  0.50071507  0.60448721
   0.83202021  0.58427715  0.39663382
   0.91951091  0.91540833  0.50099312
   0.91686602  0.66624672  0.50146263
   0.66522080  0.66662227  0.50091336
   0.74890729 -0.00114618  0.59864730
   0.41489556  0.66871674  0.50039439
   0.41627694  0.91515095  0.50038815
   0.58316967  0.83469050  0.40346215
   0.50066164  0.49886778  0.59752041
   0.83326546  0.33348657  0.40260748
   0.08204826  0.08424969  0.40334422
   0.41589155  0.41705786  0.50053589
   0.49980859  0.00230177  0.59783562
   0.41604202  0.16556575  0.50048693
   0.58247177  0.08345788  0.40289084
   0.16716870  0.91526540  0.50054069
   0.16934165  0.66583023  0.50060781
   0.25088186  0.24782394  0.59807993
   0.33334047  0.33324614  0.40268463
   0.25134239  0.00181225  0.59743485
  -0.00128825  0.74921591  0.59878862
   0.08258339  0.83484555  0.40327080
   0.00067700  0.49957764  0.59892624
   0.00232704  0.25004282  0.59853846
   0.91718533  0.16479874  0.50097339
   0.49961448  0.24921086  0.59768385
   0.75121052  0.75085059  0.59865286
Direct configuration=    11
   0.25035565  0.74981610  0.60105398
   0.58207380  0.33224918  0.39574840
   0.50071800  0.75233154  0.60126858
   0.66435689  0.91583750  0.50095432
   0.83536949  0.08466394  0.39741729
   0.33057771  0.83597531  0.39971459
   0.25138906  0.49767987  0.60303786
   0.66438141  0.16724677  0.50080360
   0.33217546  0.58379117  0.40033216
   0.17017677  0.41466322  0.50066801
   0.66399604  0.41799535  0.50052971
   0.16780912  0.16307261  0.50032133
   0.58318037  0.58493377  0.39818749
   0.74955979  0.24962419  0.60462302
   0.83110820  0.83632172  0.39378965
   0.00083327  0.00043286  0.60320776
   0.08301790  0.33186722  0.39336789
   0.91623285  0.41523264  0.50069229
   0.33510743  0.08390499  0.39805122
   0.08342475  0.58450077  0.39647701
   0.75205744  0.50048615  0.60499989
   0.83192250  0.58440952  0.39632999
   0.91903859  0.91531461  0.50098373
   0.91722392  0.66608989  0.50106963
   0.66488473  0.66655866  0.50124105
   0.74899814 -0.00109669  0.59849035
   0.41477379  0.66890268  0.50032296
   0.41605475  0.91504086  0.50039689
   0.58296403  0.83475421  0.40366815
   0.50091470  0.49897833  0.59747229
   0.83322544  0.33347671  0.40291696
   0.08210304  0.08445011  0.40369693
   0.41588592  0.41694597  0.50058355
   0.50013771  0.00206582  0.59774350
   0.41600855  0.16529666  0.50054556
   0.58271042  0.08360577  0.40308534
   0.16750555  0.91505054  0.50094608
   0.16942500  0.66566716  0.50090997
   0.25087418  0.24793807  0.59783278
   0.33322202  0.33341008  0.40266021
   0.25131715  0.00207457  0.59722355
  -0.00107863  0.74892493  0.59857749
   0.08249447  0.83500327  0.40356550
   0.00074748  0.49982350  0.59857853
   0.00238935  0.25007185  0.59840121
   0.91699691  0.16485836  0.50150580
   0.49977516  0.24913898  0.59754620
   0.75158373  0.75061867  0.59845979
Direct configuration=    12
   0.25039262  0.74980643  0.60110928
   0.58203381  0.33231372  0.39564787
   0.50074472  0.75235130  0.60131064
   0.66439840  0.91584349  0.50097651
   0.83528973  0.08472733  0.39741240
   0.33048941  0.83606973  0.39971070
   0.25143316  0.49760963  0.60310156
   0.66438633  0.16717596  0.50078537
   0.33217298  0.58385390  0.40034318
   0.17020343  0.41454798  0.50066402
   0.66389702  0.41800348  0.50056346
   0.16784456  0.16305118  0.50027186
   0.58310064  0.58498283  0.39815981
   0.74954779  0.24966549  0.60474714
   0.83107771  0.83642303  0.39362195
   0.00087925  0.00035193  0.60330461
   0.08300431  0.33185829  0.39319988
   0.91631709  0.41511656  0.50068657
   0.33503884  0.08391965  0.39800191
   0.08338566  0.58454491  0.39640410
   0.75211232  0.50043335  0.60511816
   0.83189995  0.58444006  0.39625991
   0.91892963  0.91529300  0.50098156
   0.91730648  0.66605371  0.50097897
   0.66480720  0.66654399  0.50131664
   0.74901910 -0.00108528  0.59845414
   0.41474570  0.66894558  0.50030648
   0.41600349  0.91501547  0.50039891
   0.58291660  0.83476891  0.40371567
   0.50097307  0.49900383  0.59746119
   0.83321621  0.33347444  0.40298835
   0.08211568  0.08449635  0.40377829
   0.41588461  0.41692016  0.50059454
   0.50021363  0.00201139  0.59772224
   0.41600083  0.16523459  0.50055908
   0.58276548  0.08363989  0.40313021
   0.16758326  0.91500098  0.50103960
   0.16944423  0.66562954  0.50097968
   0.25087241  0.24796440  0.59777577
   0.33319470  0.33344789  0.40265457
   0.25131133  0.00213508  0.59717481
  -0.00103028  0.74885781  0.59852878
   0.08247395  0.83503965  0.40363348
   0.00076374  0.49988022  0.59849832
   0.00240372  0.25007854  0.59836955
   0.91695344  0.16487212  0.50162861
   0.49981222  0.24912240  0.59751445
   0.75166982  0.75056518  0.59841525
Direct configuration=    13
   0.25054462  0.74980254  0.60127160
   0.58206686  0.33231029  0.39546146
   0.50083036  0.75241594  0.60136920
   0.66421279  0.91548654  0.50086014
   0.83511674  0.08492166  0.39751634
   0.33039412  0.83642172  0.39984471
   0.25155666  0.49762356  0.60320922
   0.66432613  0.16746549  0.50070528
   0.33187633  0.58398952  0.40047459
   0.17016128  0.41483658  0.50046431
   0.66402289  0.41785439  0.50063763
   0.16766766  0.16299006  0.50004512
   0.58313942  0.58519452  0.39822917
   0.74970919  0.24946493  0.60506614
   0.83090695  0.83659654  0.39312021
   0.00093344  0.00037652  0.60359122
   0.08302240  0.33188232  0.39270610
   0.91603415  0.41503057  0.50059629
   0.33501171  0.08413587  0.39790655
   0.08331478  0.58457118  0.39623708
   0.75211377  0.50061954  0.60539935
   0.83179626  0.58444564  0.39610911
   0.91938952  0.91523943  0.50092167
   0.91750290  0.66566675  0.50053880
   0.66472295  0.66653068  0.50143047
   0.74915830 -0.00119537  0.59843344
   0.41463580  0.66903899  0.50031120
   0.41620643  0.91458378  0.50036795
   0.58280979  0.83498756  0.40392275
   0.50099651  0.49899975  0.59747102
   0.83292914  0.33382180  0.40324102
   0.08200862  0.08464807  0.40407553
   0.41585249  0.41692498  0.50058600
   0.50028183  0.00213000  0.59770389
   0.41604194  0.16506795  0.50048008
   0.58256359  0.08375538  0.40321746
   0.16747974  0.91474355  0.50125366
   0.16942866  0.66549789  0.50111927
   0.25112709  0.24783248  0.59766459
   0.33306067  0.33338498  0.40265371
   0.25160351  0.00186457  0.59712353
  -0.00068223  0.74871317  0.59836405
   0.08222863  0.83521712  0.40392328
   0.00100062  0.49964577  0.59828996
   0.00251325  0.25002087  0.59836266
   0.91682668  0.16483406  0.50196773
   0.49988991  0.24901281  0.59744484
   0.75166514  0.75059706  0.59831059
Direct configuration=    14
   0.25060316  0.74980105  0.60133411
   0.58207959  0.33230897  0.39538968
   0.50086333  0.75244084  0.60139175
   0.66414131  0.91534908  0.50081533
   0.83505013  0.08499650  0.39755637
   0.33035743  0.83655727  0.39989631
   0.25160422  0.49762892  0.60325068
   0.66430294  0.16757699  0.50067445
   0.33176209  0.58404175  0.40052520
   0.17014505  0.41494772  0.50038740
   0.66407136  0.41779697  0.50066620
   0.16759953  0.16296652  0.49995780
   0.58315436  0.58527604  0.39825588
   0.74977134  0.24938770  0.60518899
   0.83084119  0.83666336  0.39292699
   0.00095430  0.00038599  0.60370160
   0.08302937  0.33189158  0.39251594
   0.91592520  0.41499745  0.50056152
   0.33500126  0.08421914  0.39786983
   0.08328749  0.58458129  0.39617276
   0.75211433  0.50069124  0.60550764
   0.83175633  0.58444779  0.39605104
   0.91956662  0.91521880  0.50089860
   0.91757854  0.66551773  0.50036930
   0.66469050  0.66652555  0.50147431
   0.74921191 -0.00123777  0.59842547
   0.41459347  0.66907496  0.50031301
   0.41628457  0.91441754  0.50035603
   0.58276866  0.83507176  0.40400249
   0.50100554  0.49899818  0.59747480
   0.83281859  0.33395557  0.40333832
   0.08196740  0.08470649  0.40419000
   0.41584012  0.41692684  0.50058272
   0.50030810  0.00217567  0.59769683
   0.41605778  0.16500377  0.50044966
   0.58248585  0.08379986  0.40325106
   0.16743987  0.91464442  0.50133610
   0.16942266  0.66544719  0.50117303
   0.25122516  0.24778168  0.59762178
   0.33300905  0.33336075  0.40265337
   0.25171603  0.00176039  0.59710379
  -0.00054820  0.74865747  0.59830061
   0.08213416  0.83528546  0.40403488
   0.00109184  0.49955549  0.59820972
   0.00255543  0.24999866  0.59836000
   0.91677787  0.16481940  0.50209832
   0.49991983  0.24897061  0.59741803
   0.75166334  0.75060934  0.59827028
Direct configuration=    15
   0.25075794  0.74978275  0.60143305
   0.58187490  0.33248938  0.39539686
   0.50092956  0.75239644  0.60140043
   0.66457697  0.91520899  0.50070718
   0.83505831  0.08508892  0.39772695
   0.33033449  0.83656683  0.40007503
   0.25169608  0.49767451  0.60321779
   0.66437871  0.16742758  0.50068569
   0.33170319  0.58403748  0.40066600
   0.17009881  0.41496459  0.50017950
   0.66402903  0.41791697  0.50075067
   0.16756330  0.16302727  0.49993227
   0.58299420  0.58545177  0.39842330
   0.74982630  0.24927799  0.60530009
   0.83070773  0.83660350  0.39271483
   0.00101321  0.00046345  0.60388838
   0.08287563  0.33199506  0.39227703
   0.91575246  0.41516223  0.50053107
   0.33501842  0.08438200  0.39783220
   0.08315389  0.58463163  0.39607919
   0.75215292  0.50075887  0.60557521
   0.83179289  0.58448663  0.39598209
   0.91940739  0.91520273  0.50092390
   0.91720903  0.66572026  0.50012036
   0.66496483  0.66616845  0.50144010
   0.74941946 -0.00145607  0.59836876
   0.41466093  0.66877818  0.50039094
   0.41615783  0.91440081  0.50038201
   0.58283969  0.83517019  0.40403006
   0.50107647  0.49884244  0.59750171
   0.83270529  0.33413328  0.40343252
   0.08160240  0.08491313  0.40431894
   0.41589459  0.41698704  0.50054544
   0.50030546  0.00232695  0.59770413
   0.41593974  0.16505348  0.50033786
   0.58225986  0.08385450  0.40322277
   0.16734562  0.91462181  0.50143253
   0.16948456  0.66533715  0.50117903
   0.25142210  0.24759854  0.59752363
   0.33297019  0.33340919  0.40261007
   0.25194732  0.00155207  0.59710867
  -0.00052900  0.74871435  0.59816832
   0.08201221  0.83532716  0.40415667
   0.00126474  0.49927405  0.59808901
   0.00272692  0.24994975  0.59841886
   0.91680813  0.16469507  0.50224669
   0.50001988  0.24894161  0.59738412
   0.75179541  0.75068904  0.59818809
Direct configuration=    16
   0.25080731  0.74977691  0.60146461
   0.58180961  0.33254692  0.39539915
   0.50095068  0.75238228  0.60140319
   0.66471591  0.91516431  0.50067269
   0.83506092  0.08511840  0.39778136
   0.33032718  0.83656988  0.40013204
   0.25172538  0.49768905  0.60320730
   0.66440287  0.16737992  0.50068928
   0.33168441  0.58403612  0.40071090
   0.17008406  0.41496997  0.50011319
   0.66401552  0.41795524  0.50077761
   0.16755175  0.16304665  0.49992412
   0.58294312  0.58550781  0.39847670
   0.74984383  0.24924300  0.60533552
   0.83066516  0.83658441  0.39264717
   0.00103200  0.00048816  0.60394795
   0.08282660  0.33202806  0.39220083
   0.91569736  0.41521479  0.50052136
   0.33502390  0.08443395  0.39782019
   0.08311128  0.58464768  0.39604935
   0.75216522  0.50078044  0.60559675
   0.83180456  0.58449902  0.39596010
   0.91935660  0.91519761  0.50093196
   0.91709118  0.66578485  0.50004096
   0.66505232  0.66605455  0.50142919
   0.74948566 -0.00152569  0.59835067
   0.41468245  0.66868352  0.50041579
   0.41611741  0.91439547  0.50039030
   0.58286235  0.83520158  0.40403885
   0.50109909  0.49879277  0.59751030
   0.83266916  0.33418996  0.40346256
   0.08148599  0.08497903  0.40436007
   0.41591196  0.41700624  0.50053356
   0.50030462  0.00237520  0.59770646
   0.41590210  0.16506933  0.50030220
   0.58218778  0.08387192  0.40321375
   0.16731557  0.91461460  0.50146329
   0.16950430  0.66530205  0.50118095
   0.25148491  0.24754013  0.59749233
   0.33295780  0.33342464  0.40259626
   0.25202109  0.00148563  0.59711023
  -0.00052287  0.74873249  0.59812612
   0.08197332  0.83534046  0.40419551
   0.00131989  0.49918429  0.59805051
   0.00278161  0.24993415  0.59843763
   0.91681779  0.16465542  0.50229401
   0.50005179  0.24893236  0.59737331
   0.75183753  0.75071446  0.59816188
Direct configuration=    17
   0.25088891  0.74972675  0.60154728
   0.58171131  0.33263686  0.39550151
   0.50119715  0.75225451  0.60137900
   0.66462942  0.91533461  0.50058103