  48  48   0   0
  0.5349325E+02  0.1100258E-08  0.1100258E-08  0.2449179E-08  0.3500000E-15
  1.000000000000000E-004
  CAR 
 unknown system                          
      6.38109432     -9.89411562  301     -1.09960637      1.00000000
     -9.894  0.0000E+00  0.0000E+00
     -9.840  0.0000E+00  0.0000E+00
     -9.786  0.0000E+00  0.0000E+00
     -9.731  0.0000E+00  0.0000E+00
     -9.677  0.0000E+00  0.0000E+00
     -9.623  0.0000E+00  0.0000E+00
     -9.569  0.0000E+00  0.0000E+00
     -9.514  0.0000E+00  0.0000E+00
     -9.460  0.1569E-16  0.8512E-18
     -9.406  0.6107E-14  0.3321E-15
     -9.352  0.1341E-11  0.7306E-13
     -9.297  0.1653E-09  0.9040E-11
     -9.243  0.1147E-07  0.6312E-09
     -9.189  0.4487E-06  0.2497E-07
     -9.135  0.9925E-05  0.5634E-06
     -9.080  0.1244E-03  0.7312E-05
     -9.026  0.8859E-03  0.5537E-04
     -8.972  0.3594E-02  0.2503E-03
     -8.918  0.8328E-02  0.7021E-03
     -8.863  0.1113E-01  0.1306E-02
     -8.809  0.9185E-02  0.1804E-02
     -8.755  0.7071E-02  0.2188E-02
     -8.701  0.8959E-02  0.2674E-02
     -8.646  0.1098E-01  0.3270E-02
     -8.592  0.8479E-02  0.3730E-02
     -8.538  0.3831E-02  0.3937E-02
     -8.484  0.1074E-02  0.3996E-02
     -8.429  0.6829E-03  0.4033E-02
     -8.375  0.2229E-02  0.4154E-02
     -8.321  0.5644E-02  0.4460E-02
     -8.267  0.9068E-02  0.4952E-02
     -8.212  0.9519E-02  0.5468E-02
     -8.158  0.7264E-02  0.5862E-02
     -8.104  0.6792E-02  0.6231E-02
     -8.050  0.1167E-01  0.6864E-02
     -7.995  0.1860E-01  0.7873E-02
     -7.941  0.1966E-01  0.8940E-02
     -7.887  0.1330E-01  0.9661E-02
     -7.833  0.7164E-02  0.1005E-01
     -7.778  0.7268E-02  0.1044E-01
     -7.724  0.1132E-01  0.1106E-01
     -7.670  0.1388E-01  0.1181E-01
     -7.616  0.1453E-01  0.1260E-01
     -7.561  0.1551E-01  0.1344E-01
     -7.507  0.1718E-01  0.1437E-01
     -7.453  0.2016E-01  0.1547E-01
     -7.399  0.2327E-01  0.1673E-01
     -7.344  0.2483E-01  0.1808E-01
     -7.290  0.2606E-01  0.1949E-01
     -7.236  0.2627E-01  0.2091E-01
     -7.182  0.2548E-01  0.2230E-01
     -7.127  0.2962E-01  0.2390E-01
     -7.073  0.4130E-01  0.2614E-01
     -7.019  0.5530E-01  0.2914E-01
     -6.965  0.6521E-01  0.3268E-01
     -6.910  0.7002E-01  0.3648E-01
     -6.856  0.7461E-01  0.4053E-01
     -6.802  0.8109E-01  0.4493E-01
     -6.748  0.8504E-01  0.4954E-01
     -6.693  0.8409E-01  0.5410E-01
     -6.639  0.8305E-01  0.5861E-01
     -6.585  0.8678E-01  0.6332E-01
     -6.531  0.9252E-01  0.6834E-01
     -6.476  0.9544E-01  0.7351E-01
     -6.422  0.9945E-01  0.7891E-01
     -6.368  0.1133E+00  0.8505E-01
     -6.314  0.1342E+00  0.9233E-01
     -6.259  0.1520E+00  0.1006E+00
     -6.205  0.1630E+00  0.1094E+00
     -6.151  0.1671E+00  0.1185E+00
     -6.097  0.1673E+00  0.1276E+00
     -6.042  0.1697E+00  0.1368E+00
     -5.988  0.1704E+00  0.1460E+00
     -5.934  0.1615E+00  0.1548E+00
     -5.880  0.1468E+00  0.1627E+00
     -5.825  0.1353E+00  0.1701E+00
     -5.771  0.1309E+00  0.1772E+00
     -5.717  0.1320E+00  0.1843E+00
     -5.663  0.1340E+00  0.1916E+00
     -5.608  0.1330E+00  0.1988E+00
     -5.554  0.1311E+00  0.2059E+00
     -5.500  0.1323E+00  0.2131E+00
     -5.446  0.1371E+00  0.2206E+00
     -5.391  0.1427E+00  0.2283E+00
     -5.337  0.1469E+00  0.2363E+00
     -5.283  0.1503E+00  0.2444E+00
     -5.229  0.1554E+00  0.2528E+00
     -5.174  0.1615E+00  0.2616E+00
     -5.120  0.1673E+00  0.2707E+00
     -5.066  0.1726E+00  0.2800E+00
     -5.012  0.1754E+00  0.2896E+00
     -4.957  0.1757E+00  0.2991E+00
     -4.903  0.1749E+00  0.3086E+00
     -4.849  0.1728E+00  0.3180E+00
     -4.795  0.1708E+00  0.3272E+00
     -4.740  0.1703E+00  0.3365E+00
     -4.686  0.1707E+00  0.3457E+00
     -4.632  0.1700E+00  0.3549E+00
     -4.578  0.1667E+00  0.3640E+00
     -4.523  0.1617E+00  0.3728E+00
     -4.469  0.1588E+00  0.3814E+00
     -4.415  0.1601E+00  0.3901E+00
     -4.361  0.1654E+00  0.3990E+00
     -4.306  0.1729E+00  0.4084E+00
     -4.252  0.1787E+00  0.4181E+00
     -4.198  0.1785E+00  0.4278E+00
     -4.144  0.1757E+00  0.4373E+00
     -4.089  0.1764E+00  0.4469E+00
     -4.035  0.1806E+00  0.4567E+00
     -3.981  0.1833E+00  0.4666E+00
     -3.927  0.1828E+00  0.4766E+00
     -3.872  0.1820E+00  0.4864E+00
     -3.818  0.1842E+00  0.4964E+00
     -3.764  0.1881E+00  0.5066E+00
     -3.710  0.1914E+00  0.5170E+00
     -3.655  0.1936E+00  0.5275E+00
     -3.601  0.1958E+00  0.5381E+00
     -3.547  0.2007E+00  0.5490E+00
     -3.493  0.2072E+00  0.5603E+00
     -3.438  0.2110E+00  0.5717E+00
     -3.384  0.2096E+00  0.5831E+00
     -3.330  0.2047E+00  0.5942E+00
     -3.276  0.1998E+00  0.6050E+00
     -3.221  0.1959E+00  0.6157E+00
     -3.167  0.1907E+00  0.6260E+00
     -3.113  0.1829E+00  0.6359E+00
     -3.059  0.1766E+00  0.6455E+00
     -3.004  0.1755E+00  0.6550E+00
     -2.950  0.1781E+00  0.6647E+00
     -2.896  0.1823E+00  0.6746E+00
     -2.842  0.1882E+00  0.6848E+00
     -2.787  0.1946E+00  0.6953E+00
     -2.733  0.1982E+00  0.7061E+00
     -2.679  0.1989E+00  0.7169E+00
     -2.625  0.1974E+00  0.7276E+00
     -2.570  0.1939E+00  0.7381E+00
     -2.516  0.1903E+00  0.7484E+00
     -2.462  0.1882E+00  0.7587E+00
     -2.408  0.1853E+00  0.7687E+00
     -2.353  0.1794E+00  0.7784E+00
     -2.299  0.1727E+00  0.7878E+00
     -2.245  0.1689E+00  0.7970E+00
     -2.191  0.1699E+00  0.8062E+00
     -2.136  0.1750E+00  0.8157E+00
     -2.082  0.1843E+00  0.8257E+00
     -2.028  0.1962E+00  0.8363E+00
     -1.974  0.2063E+00  0.8475E+00
     -1.919  0.2116E+00  0.8590E+00
     -1.865  0.2143E+00  0.8706E+00
     -1.811  0.2169E+00  0.8824E+00
     -1.757  0.2184E+00  0.8942E+00
     -1.702  0.2144E+00  0.9059E+00
     -1.648  0.2039E+00  0.9169E+00
     -1.594  0.1933E+00  0.9274E+00
     -1.540  0.1873E+00  0.9376E+00
     -1.485  0.1849E+00  0.9476E+00
     -1.431  0.1832E+00  0.9575E+00
     -1.377  0.1807E+00  0.9674E+00
     -1.323  0.1767E+00  0.9769E+00
     -1.268  0.1692E+00  0.9861E+00
     -1.214  0.1541E+00  0.9945E+00
     -1.160  0.1316E+00  0.1002E+01
     -1.106  0.1074E+00  0.1007E+01
     -1.051  0.8515E-01  0.1012E+01
     -0.997  0.6194E-01  0.1015E+01
     -0.943  0.3842E-01  0.1018E+01
     -0.888  0.2335E-01  0.1019E+01
     -0.834  0.1819E-01  0.1020E+01
     -0.780  0.1709E-01  0.1021E+01
     -0.726  0.1801E-01  0.1022E+01
     -0.671  0.2184E-01  0.1023E+01
     -0.617  0.2879E-01  0.1024E+01
     -0.563  0.3774E-01  0.1026E+01
     -0.509  0.4661E-01  0.1029E+01
     -0.454  0.5026E-01  0.1032E+01
     -0.400  0.4491E-01  0.1034E+01
     -0.346  0.3715E-01  0.1036E+01
     -0.292  0.3655E-01  0.1038E+01
     -0.237  0.4109E-01  0.1040E+01
     -0.183  0.4181E-01  0.1043E+01
     -0.129  0.3610E-01  0.1045E+01
     -0.075  0.2736E-01  0.1046E+01
     -0.020  0.1933E-01  0.1047E+01
      0.034  0.1537E-01  0.1048E+01
      0.088  0.1849E-01  0.1049E+01
      0.142  0.2539E-01  0.1050E+01
      0.197  0.2877E-01  0.1052E+01
      0.251  0.3049E-01  0.1054E+01
      0.305  0.3445E-01  0.1055E+01
      0.359  0.3677E-01  0.1057E+01
      0.414  0.3729E-01  0.1059E+01
      0.468  0.4007E-01  0.1062E+01
      0.522  0.4416E-01  0.1064E+01
      0.576  0.4800E-01  0.1067E+01
      0.631  0.5104E-01  0.1069E+01
      0.685  0.5020E-01  0.1072E+01
      0.739  0.4570E-01  0.1075E+01
      0.793  0.3997E-01  0.1077E+01
      0.848  0.3255E-01  0.1079E+01
      0.902  0.2492E-01  0.1080E+01
      0.956  0.1964E-01  0.1081E+01
      1.010  0.1641E-01  0.1082E+01
      1.065  0.1627E-01  0.1083E+01
      1.119  0.1992E-01  0.1084E+01
      1.173  0.2234E-01  0.1085E+01
      1.227  0.1990E-01  0.1086E+01
      1.282  0.1541E-01  0.1087E+01
      1.336  0.1153E-01  0.1088E+01
      1.390  0.9897E-02  0.1088E+01
      1.444  0.1451E-01  0.1089E+01
      1.499  0.2524E-01  0.1090E+01
      1.553  0.3421E-01  0.1092E+01
      1.607  0.3581E-01  0.1094E+01
      1.661  0.3209E-01  0.1096E+01
      1.716  0.2860E-01  0.1097E+01
      1.770  0.2881E-01  0.1099E+01
      1.824  0.3079E-01  0.1101E+01
      1.878  0.3115E-01  0.1102E+01
      1.933  0.2924E-01  0.1104E+01
      1.987  0.2587E-01  0.1105E+01
      2.041  0.2434E-01  0.1107E+01
      2.095  0.2762E-01  0.1108E+01
      2.150  0.3326E-01  0.1110E+01
      2.204  0.3845E-01  0.1112E+01
      2.258  0.4233E-01  0.1114E+01
      2.312  0.4470E-01  0.1117E+01
      2.367  0.4653E-01  0.1119E+01
      2.421  0.4679E-01  0.1122E+01
      2.475  0.4368E-01  0.1124E+01
      2.529  0.3912E-01  0.1126E+01
      2.584  0.3725E-01  0.1128E+01
      2.638  0.4027E-01  0.1130E+01
      2.692  0.4498E-01  0.1133E+01
      2.746  0.4298E-01  0.1135E+01
      2.801  0.3103E-01  0.1137E+01
      2.855  0.1724E-01  0.1138E+01
      2.909  0.1097E-01  0.1138E+01
      2.963  0.1117E-01  0.1139E+01
      3.018  0.1082E-01  0.1140E+01
      3.072  0.8927E-02  0.1140E+01
      3.126  0.9709E-02  0.1141E+01
      3.180  0.1417E-01  0.1141E+01
      3.235  0.1989E-01  0.1142E+01
      3.289  0.2388E-01  0.1144E+01
      3.343  0.2379E-01  0.1145E+01
      3.397  0.2232E-01  0.1146E+01
      3.452  0.2474E-01  0.1148E+01
      3.506  0.2906E-01  0.1149E+01
      3.560  0.3162E-01  0.1151E+01
      3.614  0.3442E-01  0.1153E+01
      3.669  0.3787E-01  0.1155E+01
      3.723  0.3910E-01  0.1157E+01
      3.777  0.3573E-01  0.1159E+01
      3.831  0.2908E-01  0.1160E+01
      3.886  0.2392E-01  0.1162E+01
      3.940  0.2360E-01  0.1163E+01
      3.994  0.2712E-01  0.1165E+01
      4.048  0.2919E-01  0.1166E+01
      4.103  0.2664E-01  0.1168E+01
      4.157  0.2364E-01  0.1169E+01
      4.211  0.2267E-01  0.1170E+01
      4.265  0.1974E-01  0.1171E+01
      4.320  0.1524E-01  0.1172E+01
      4.374  0.1640E-01  0.1173E+01
      4.428  0.2409E-01  0.1174E+01
      4.482  0.3055E-01  0.1176E+01
      4.537  0.3540E-01  0.1178E+01
      4.591  0.4563E-01  0.1180E+01
      4.645  0.5745E-01  0.1183E+01
      4.699  0.5999E-01  0.1187E+01
      4.754  0.5411E-01  0.1190E+01
      4.808  0.4859E-01  0.1192E+01
      4.862  0.4702E-01  0.1195E+01
      4.916  0.4885E-01  0.1197E+01
      4.971  0.5395E-01  0.1200E+01
      5.025  0.6221E-01  0.1204E+01
      5.079  0.6850E-01  0.1207E+01
      5.133  0.6572E-01  0.1211E+01
      5.188  0.5813E-01  0.1214E+01
      5.242  0.5392E-01  0.1217E+01
      5.296  0.4948E-01  0.1220E+01
      5.350  0.3881E-01  0.1222E+01
      5.405  0.2431E-01  0.1223E+01
      5.459  0.1151E-01  0.1224E+01
      5.513  0.3774E-02  0.1224E+01
      5.567  0.7909E-03  0.1224E+01
      5.622  0.1004E-03  0.1224E+01
      5.676  0.7501E-05  0.1224E+01
      5.730  0.3242E-06  0.1224E+01
      5.784  0.8024E-08  0.1224E+01
      5.839  0.1130E-09  0.1224E+01
      5.893  0.9015E-12  0.1224E+01
      5.947  0.4057E-14  0.1224E+01
      6.001  0.1091E-16  0.1224E+01
      6.056  0.0000E+00  0.1224E+01
      6.110  0.0000E+00  0.1224E+01
      6.164  0.0000E+00  0.1224E+01
      6.218  0.0000E+00  0.1224E+01
      6.273  0.0000E+00  0.1224E+01
      6.327  0.0000E+00  0.1224E+01
      6.381  0.0000E+00  0.1224E+01
