 vasp.5.4.1 24Jun15 (build Mar 14 2019 10:18:33) complex                        
  
 executed on INTEL-19.0.2+OPENMPI date 2022.07.11  15:06:27
 running on   36 total cores
 distrk:  each k-point on   36 cores,    1 groups
 distr:  one band on NCORES_PER_BAND=   6 cores,    6 groups


--------------------------------------------------------------------------------------------------------


 INCAR:
 POTCAR:    PAW_PBE Au 04Oct2007                  
 POTCAR:    PAW_PBE Pd 04Jan2005                  
 POTCAR:    PAW_PBE Au 04Oct2007                  
  local pseudopotential read in
  partial core-charges read in
  partial kinetic energy density read in
  atomic valenz-charges read in
  non local Contribution for L=           2  read in
    real space projection operators read in
  non local Contribution for L=           2  read in
    real space projection operators read in
  non local Contribution for L=           0  read in
    real space projection operators read in
  non local Contribution for L=           0  read in
    real space projection operators read in
  non local Contribution for L=           1  read in
    real space projection operators read in
  non local Contribution for L=           1  read in
    real space projection operators read in
    PAW grid and wavefunctions read in
 
   number of l-projection  operators is LMAX  =           6
   number of lm-projection operators is LMMAX =          18
 
 POTCAR:    PAW_PBE Pd 04Jan2005                  
  local pseudopotential read in
  partial core-charges read in
  partial kinetic energy density read in
  atomic valenz-charges read in
  non local Contribution for L=           2  read in
    real space projection operators read in
  non local Contribution for L=           2  read in
    real space projection operators read in
  non local Contribution for L=           0  read in
    real space projection operators read in
  non local Contribution for L=           0  read in
    real space projection operators read in
  non local Contribution for L=           1  read in
    real space projection operators read in
  non local Contribution for L=           1  read in
    real space projection operators read in
    PAW grid and wavefunctions read in
 
   number of l-projection  operators is LMAX  =           6
   number of lm-projection operators is LMMAX =          18
 
 Optimization of the real space projectors (new method)

 maximal supplied QI-value         = 15.12
 optimisation between [QCUT,QGAM] = [ 10.13, 20.41] = [ 28.73,116.64] Ry 
 Optimized for a Real-space Cutoff    1.51 Angstroem

   l    n(q)    QCUT    max X(q) W(low)/X(q) W(high)/X(q)  e(spline) 
   2      8    10.129    60.898    0.46E-03    0.46E-03    0.14E-06
   2      8    10.129    58.894    0.47E-03    0.47E-03    0.14E-06
   0      9    10.129   109.617    0.16E-03    0.11E-03    0.54E-07
   0      9    10.129    75.026    0.15E-03    0.11E-03    0.52E-07
   1      9    10.129    16.344    0.96E-04    0.15E-03    0.14E-06
   1      9    10.129    10.160    0.81E-04    0.12E-03    0.11E-06
 Optimization of the real space projectors (new method)

 maximal supplied QI-value         = 14.36
 optimisation between [QCUT,QGAM] = [ 10.20, 20.39] = [ 29.12,116.47] Ry 
 Optimized for a Real-space Cutoff    1.51 Angstroem

   l    n(q)    QCUT    max X(q) W(low)/X(q) W(high)/X(q)  e(spline) 
   2      8    10.197    59.108    0.26E-03    0.14E-03    0.96E-07
   2      8    10.197    58.101    0.27E-03    0.14E-03    0.98E-07
   0      9    10.197   102.235    0.54E-04    0.60E-05    0.72E-07
   0      9    10.197    58.388    0.52E-04    0.60E-05    0.68E-07
   1      9    10.197    22.191    0.18E-03    0.25E-03    0.79E-07
   1      9    10.197    15.590    0.15E-03    0.21E-03    0.69E-07
  PAW_PBE Au 04Oct2007                  :
 energy of atom  1       EATOM= -926.0867
 kinetic energy error for atom=    0.0062 (will be added to EATOM!!)
  PAW_PBE Pd 04Jan2005                  :
 energy of atom  2       EATOM= -809.7530
 kinetic energy error for atom=    0.0091 (will be added to EATOM!!)
 
 
 POSCAR: Au Pd                                   
  positions in cartesian coordinates
  No initial velocities read in
 exchange correlation table for  LEXCH =        8
   RHO(1)=    0.500       N(1)  =     2000
   RHO(2)=  100.500       N(2)  =     4000

 VTST: version 3.2, (02/03/18)

 CHAIN: initializing optimizer
 
 OPT: Using VASP Conjugate-Gradient optimizer
 CHAIN: Read ICHAIN            0
 
 POSCAR: Au Pd                                   
  positions in cartesian coordinates
  No initial velocities read in
 


--------------------------------------------------------------------------------------------------------


 ion  position               nearest neighbor table
   1  0.167  0.417  0.500-  20 2.75   9 2.75  15 2.75  14 2.75   7 2.75  13 2.75  45 2.75  36 2.75
                            46 2.75  17 2.75   6 2.75  40 2.75
   2  0.583  0.083  0.408-  24 2.75  19 2.75  33 2.75  37 2.75  40 2.75  25 2.75  41 2.75   3 2.75
                            13 2.75
   3  0.667  0.917  0.500-  33 2.75  48 2.75  38 2.75  13 2.75  24 2.75  45 2.75  30 2.75  27 2.75
                            43 2.75   2 2.75   5 2.75  19 2.75
   4  0.167  0.917  0.500-  44 2.75  34 2.75  21 2.75   7 2.75  22 2.75  10 2.75  14 2.75  43 2.75
                            27 2.75  28 2.75  12 2.75  39 2.75
   5  0.750  0.000  0.592-  24 2.75  43 2.75  35 2.75  42 2.75  32 2.75  48 2.75  38 2.75  21 2.75
                             3 2.75
   6  0.250  0.500  0.592-   7 2.75  36 2.75  34 2.75  35 2.75   9 2.75  42 2.75  15 2.75  47 2.75
                             1 2.75
   7  0.167  0.667  0.500-  17 2.75   6 2.75  42 2.75   4 2.75  36 2.75   1 2.75  43 2.75  10 2.75
                            45 2.75  44 2.75  34 2.75   8 2.75
   8  0.333  0.583  0.408-  10 2.75  37 2.75  39 2.75  40 2.75  44 2.75  16 2.75  17 2.75  36 2.75
                             7 2.75
   9  0.250  0.250  0.592-   1 2.75  13 2.75  12 2.75   6 2.75  15 2.75  38 2.75  35 2.75  18 2.75
                            14 2.75
  10  0.417  0.667  0.500-   8 2.75  47 2.75  34 2.75  27 2.75   4 2.75  36 2.75  23 2.75  30 2.75
                             7 2.75  39 2.75  16 2.75  26 2.75
  11  0.833  0.333  0.408-  46 2.75  25 2.75  28 2.75  29 2.75  16 2.75  37 2.75  20 2.75  22 2.75
                            23 2.75
  12  0.250  0.000  0.592-  14 2.75  27 2.75  18 2.75  26 2.75   9 2.75  34 2.75  21 2.75  38 2.75
                             4 2.75
  13  0.417  0.167  0.500-  41 2.75  38 2.75   9 2.75  27 2.75  36 2.75   3 2.75   1 2.75  14 2.75
                            24 2.75  40 2.75   2 2.75  35 2.75
  14  0.167  0.167  0.500-  28 2.75  12 2.75  18 2.75   4 2.75  27 2.75   1 2.75  46 2.75  22 2.75
                            13 2.75  20 2.75  41 2.75   9 2.75
  15  0.000  0.500  0.592-  45 2.75   1 2.75  18 2.75  42 2.75   9 2.75  48 2.75  31 2.75   6 2.75
                            46 2.75
  16  0.583  0.583  0.408-  30 2.75  11 2.75  33 2.75  37 2.75  39 2.75   8 2.75  29 2.75  23 2.75
                            10 2.75
  17  0.083  0.583  0.408-   7 2.75  19 2.75  20 2.75  40 2.75  44 2.75   8 2.75  29 2.75   1 2.75
                            45 2.75
  18  0.000  0.250  0.592-  46 2.75  14 2.75  15 2.75  21 2.75  31 2.75  12 2.75  32 2.75   9 2.75
                            22 2.75
  19  0.833  0.833  0.408-  43 2.75  17 2.75  25 2.75  29 2.75   2 2.75  33 2.75  44 2.75  45 2.75
                             3 2.75
  20  0.083  0.333  0.408-   1 2.75  17 2.75  28 2.75  29 2.75  41 2.75  40 2.75  11 2.75  14 2.75
                            46 2.75
  21  0.000  0.000  0.592-  22 2.75   4 2.75  18 2.75  32 2.75  34 2.75  42 2.75  12 2.75   5 2.75
                            43 2.75
  22  0.917  0.167  0.500-  25 2.75  21 2.75  32 2.75   4 2.75  23 2.75  43 2.75  46 2.75  14 2.75
                            24 2.75  11 2.75  28 2.75  18 2.75
  23  0.667  0.417  0.500-  37 2.75  32 2.75  47 2.75  30 2.75  10 2.75  22 2.75  24 2.75  46 2.75
                            36 2.75  16 2.75  31 2.75  11 2.75
  24  0.667  0.167  0.500-   2 2.75   5 2.75  35 2.75  23 2.75   3 2.75  36 2.75  43 2.75  13 2.75
                            22 2.75  37 2.75  25 2.75  32 2.75
  25  0.833  0.083  0.408-  22 2.75  19 2.75  11 2.75  37 2.75  44 2.75   2 2.75  28 2.75  43 2.75
                            24 2.75
  26  0.500  0.750  0.592-  27 2.75  30 2.75  12 2.75  31 2.75  38 2.75  47 2.75  34 2.75  48 2.75
                            10 2.75
  27  0.417  0.917  0.500-  39 2.75  26 2.75  12 2.75  14 2.75  10 2.75  30 2.75  13 2.75   4 2.75
                             3 2.75  41 2.75  33 2.75  38 2.75
  28  0.083  0.083  0.408-  14 2.75  11 2.75  20 2.75  39 2.75  44 2.75  41 2.75  25 2.75   4 2.75
                            22 2.75
  29  0.833  0.583  0.408-  45 2.75  19 2.75  20 2.75  33 2.75  11 2.75  16 2.75  17 2.75  46 2.75
                            30 2.75
  30  0.667  0.667  0.500-  16 2.75  31 2.75  26 2.75   3 2.75  27 2.75  23 2.75  46 2.75  45 2.75
                            10 2.75  33 2.75  29 2.75  48 2.75
  31  0.750  0.500  0.592-  30 2.75  46 2.75  18 2.75  32 2.75  26 2.75  48 2.75  47 2.75  15 2.75
                            23 2.75
  32  0.750  0.250  0.592-  23 2.75  22 2.75   5 2.75  21 2.75  31 2.75  47 2.75  35 2.75  18 2.75
                            24 2.75
  33  0.583  0.833  0.408-   3 2.75   2 2.75  16 2.75  29 2.75  41 2.75  39 2.75  19 2.75  30 2.75
                            27 2.75
  34  0.250  0.750  0.592-   4 2.75  10 2.75   6 2.75  12 2.75  21 2.75  47 2.75  42 2.75  26 2.75
                             7 2.75
  35  0.500  0.250  0.592-  36 2.75  24 2.75   5 2.75   6 2.75  38 2.75  47 2.75  32 2.75   9 2.75
                            13 2.75
  36  0.417  0.417  0.500-  40 2.75  35 2.75   6 2.75  13 2.75  24 2.75   7 2.75  10 2.75  23 2.75
                             1 2.75   8 2.75  37 2.75  47 2.75
  37  0.583  0.333  0.408-  23 2.75   8 2.75  16 2.75   2 2.75  25 2.75  11 2.75  40 2.75  24 2.75
                            36 2.75
  38  0.500  0.000  0.592-  13 2.75   3 2.75   9 2.75  26 2.75  35 2.75  48 2.75   5 2.75  12 2.75
                            27 2.75
  39  0.333  0.833  0.408-  27 2.75  16 2.75   8 2.75  28 2.75  41 2.75  33 2.75  44 2.75  10 2.75
                             4 2.75
  40  0.333  0.333  0.408-  36 2.75   8 2.75  17 2.75   2 2.75  41 2.75  37 2.75  20 2.75  13 2.75
                             1 2.75
  41  0.333  0.083  0.408-  13 2.75  20 2.75  33 2.75  39 2.75  40 2.75  28 2.75   2 2.75  27 2.75
                            14 2.75
  42  0.000  0.750  0.592-  43 2.75   7 2.75   5 2.75  15 2.75  21 2.75   6 2.75  34 2.75  48 2.75
                            45 2.75
  43  0.917  0.917  0.500-  19 2.75  42 2.75   5 2.75  22 2.75  24 2.75   7 2.75  45 2.75   4 2.75
                             3 2.75  25 2.75  44 2.75  21 2.75
  44  0.083  0.833  0.408-   4 2.75   8 2.75  17 2.75  25 2.75  28 2.75  19 2.75  39 2.75   7 2.75
                            43 2.75
  45  0.917  0.667  0.500-  29 2.75  15 2.75  48 2.75   3 2.75  43 2.75  46 2.75   1 2.75  30 2.75
                             7 2.75  19 2.75  42 2.75  17 2.75
  46  0.917  0.417  0.500-  11 2.75  18 2.75  31 2.75  22 2.75  30 2.75  14 2.75  45 2.75  23 2.75
                             1 2.75  29 2.75  15 2.75  20 2.75
  47  0.500  0.500  0.592-  10 2.75  23 2.75  26 2.75  32 2.75  34 2.75  35 2.75  31 2.75   6 2.75
                            36 2.75
  48  0.750  0.750  0.592-   3 2.75  45 2.75  15 2.75  31 2.75  38 2.75   5 2.75  42 2.75  26 2.75
                            30 2.75
 
  LATTYP: Found a hexagonal cell.
 ALAT       =    11.0025815153
 C/A-ratio  =     2.2260035120
  
  Lattice vectors:
  
 A1 = (   5.5012907576,  -9.5285150994,   0.0000000000)
 A2 = ( -11.0025815153,   0.0000000000,   0.0000000000)
 A3 = (   0.0000000000,   0.0000000000, -24.4917850943)


Analysis of symmetry for initial positions (statically):
=====================================================================
 Subroutine PRICEL returns:
 Original cell was already a primitive cell.
 

 Routine SETGRP: Setting up the symmetry group for a 
 hexagonal supercell.


 Subroutine GETGRP returns: Found  1 space group operations
 (whereof  1 operations were pure point group operations)
 out of a pool of 24 trial point group operations.


The static configuration has the point symmetry C_1 .


Analysis of symmetry for dynamics (positions and initial velocities):
=====================================================================
 Subroutine PRICEL returns:
 Original cell was already a primitive cell.
 

 Routine SETGRP: Setting up the symmetry group for a 
 hexagonal supercell.


 Subroutine GETGRP returns: Found  1 space group operations
 (whereof  1 operations were pure point group operations)
 out of a pool of 24 trial point group operations.


The dynamic configuration has the point symmetry C_1 .
 
 
 KPOINTS: Automatic mesh                          

Automatic generation of k-mesh.
Space group operators:
 irot       det(A)        alpha          n_x          n_y          n_z        tau_x        tau_y        tau_z
    1     1.000000     0.000000     1.000000     0.000000     0.000000     0.000000     0.000000     0.000000
 
 Subroutine IBZKPT returns following result:
 ===========================================
 
 Found      6 irreducible k-points:
 
 Following reciprocal coordinates:
            Coordinates               Weight
  0.250000  0.250000  0.000000     16.000000
  0.000000  0.250000  0.000000     16.000000
 -0.250000  0.000000  0.000000     16.000000
 -0.250000  0.250000  0.000000     16.000000
  0.500000 -0.250000  0.000000     16.000000
 -0.250000  0.500000  0.000000     16.000000
 
 Following cartesian coordinates:
            Coordinates               Weight
  0.022722  0.013119  0.000000     16.000000
  0.000000  0.026237  0.000000     16.000000
 -0.022722  0.013119  0.000000     16.000000
 -0.022722  0.039356  0.000000     16.000000
  0.045444 -0.052474  0.000000     16.000000
 -0.022722  0.065593  0.000000     16.000000
 


--------------------------------------------------------------------------------------------------------




 Dimension of arrays:
   k-points           NKPTS =      6   k-points in BZ     NKDIM =      6   number of bands    NBANDS=    306
   number of dos      NEDOS =    301   number of ions     NIONS =     48
   non local maximal  LDIM  =      6   non local SUM 2l+1 LMDIM =     18
   total plane-waves  NPLWV = 349920
   max r-space proj   IRMAX =   2009   max aug-charges    IRDMAX=   8532
   dimension x,y,z NGX =    54 NGY =   54 NGZ =  120
   dimension x,y,z NGXF=   108 NGYF=  108 NGZF=  240
   support grid    NGXF=   108 NGYF=  108 NGZF=  240
   ions per type =              24  24
 NGX,Y,Z   is equivalent  to a cutoff of   8.16,  8.16,  8.15 a.u.
 NGXF,Y,Z  is equivalent  to a cutoff of  16.32, 16.32, 16.29 a.u.


 I would recommend the setting:
   dimension x,y,z NGX =    54 NGY =   54 NGZ =  120
 SYSTEM =  unknown system                          
 POSCAR =  Au Pd                                   

 Startparameter for this run:
   NWRITE =      1    write-flag & timer
   PREC   = normal    normal or accurate (medium, high low for compatibility)
   ISTART =      0    job   : 0-new  1-cont  2-samecut
   ICHARG =      2    charge: 1-file 2-atom 10-const
   ISPIN  =      1    spin polarized calculation?
   LNONCOLLINEAR =      F non collinear calculations
   LSORBIT =      F    spin-orbit coupling
   INIWAV =      1    electr: 0-lowe 1-rand  2-diag
   LASPH  =      F    aspherical Exc in radial PAW
   METAGGA=      F    non-selfconsistent MetaGGA calc.

 Electronic Relaxation 1
   ENCUT  =  400.0 eV  29.40 Ry    5.42 a.u.  17.94 17.94 39.94*2*pi/ulx,y,z
   ENINI  =  400.0     initial cutoff
   ENAUG  =  416.2 eV  augmentation charge cutoff
   NELM   =    500;   NELMIN=  2; NELMDL= -5     # of ELM steps 
   EDIFF  = 0.1E-05   stopping-criterion for ELM
   LREAL  =      T    real-space projection
   NLSPLINE    = F    spline interpolate recip. space projectors
   LCOMPAT=      F    compatible to vasp.4.4
   GGA_COMPAT  = T    GGA compatible to vasp.4.4-vasp.4.6
   LMAXPAW     = -100 max onsite density
   LMAXMIX     =    2 max onsite mixed and CHGCAR
   VOSKOWN=      1    Vosko Wilk Nusair interpolation
   ROPT   =   -0.00050  -0.00050
 Ionic relaxation
   EDIFFG = -.2E-01   stopping-criterion for IOM
   NSW    =    500    number of steps for IOM
   NBLOCK =      1;   KBLOCK =    500    inner block; outer block 
   IBRION =      2    ionic relax: 0-MD 1-quasi-New 2-CG
   NFREE  =      2    steps in history (QN), initial steepest desc. (CG)
   ISIF   =      0    stress and relaxation
   IWAVPR =     11    prediction:  0-non 1-charg 2-wave 3-comb
   ISYM   =      2    0-nonsym 1-usesym 2-fastsym
   LCORR  =      T    Harris-Foulkes like correction to forces

   POTIM  = 0.3500    time-step for ionic-motion
   TEIN   =    0.0    initial temperature
   TEBEG  =    0.0;   TEEND  =   0.0 temperature during run
   SMASS  =  -3.00    Nose mass-parameter (am)
   estimated Nose-frequenzy (Omega)   =  0.10E-29 period in steps =****** mass=  -0.277E-26a.u.
   SCALEE = 1.0000    scale energy and forces
   NPACO  =    256;   APACO  = 16.0  distance and # of slots for P.C.
   PSTRESS=    0.0 pullay stress

  Mass of Ions in am
   POMASS = 196.97106.42
  Ionic Valenz
   ZVAL   =  11.00 10.00
  Atomic Wigner-Seitz radii
   RWIGS  =  -1.00 -1.00
  virtual crystal weights 
   VCA    =   1.00  1.00
   NELECT =     504.0000    total number of electrons
   NUPDOWN=      -1.0000    fix difference up-down

 DOS related values:
   EMIN   =  10.00;   EMAX   =-10.00  energy-range for DOS
   EFERMI =   0.00
   ISMEAR =     0;   SIGMA  =   0.10  broadening in eV -4-tet -1-fermi 0-gaus

 Electronic relaxation 2 (details)
   IALGO  =     68    algorithm
   LDIAG  =      T    sub-space diagonalisation (order eigenvalues)
   LSUBROT=      F    optimize rotation matrix (better conditioning)
   TURBO    =      0    0=normal 1=particle mesh
   IRESTART =      0    0=no restart 2=restart with 2 vectors
   NREBOOT  =      0    no. of reboots
   NMIN     =      0    reboot dimension
   EREF     =   0.00    reference energy to select bands
   IMIX   =      4    mixing-type and parameters
     AMIX     =   0.40;   BMIX     =  1.00
     AMIX_MAG =   1.60;   BMIX_MAG =  1.00
     AMIN     =   0.10
     WC   =   100.;   INIMIX=   1;  MIXPRE=   1;  MAXMIX= -45

 Intra band minimization:
   WEIMIN = 0.0010     energy-eigenvalue tresh-hold
   EBREAK =  0.82E-09  absolut break condition
   DEPER  =   0.30     relativ break condition  

   TIME   =   0.40     timestep for ELM

  volume/ion in A,a.u.               =      53.49       360.99
  Fermi-wavevector in a.u.,A,eV,Ry     =   0.951418  1.797920 12.315955  0.905197
  Thomas-Fermi vector in A             =   2.079887
 
 Write flags
   LWAVE  =      F    write WAVECAR
   LCHARG =      F    write CHGCAR
   LVTOT  =      F    write LOCPOT, total local potential
   LVHAR  =      F    write LOCPOT, Hartree potential only
   LELF   =      F    write electronic localiz. function (ELF)
   LORBIT =      0    0 simple, 1 ext, 2 COOP (PROOUT)


 Dipole corrections
   LMONO  =      F    monopole corrections only (constant potential shift)
   LDIPOL =      T    correct potential (dipole corrections)
   IDIPOL =      3    1-x, 2-y, 3-z, 4-all directions 
   EPSILON=  1.0000000 bulk dielectric constant

 Exchange correlation treatment:
   GGA     =    PE    GGA type
   LEXCH   =     8    internal setting for exchange type
   VOSKOWN=      1    Vosko Wilk Nusair interpolation
   LHFCALC =     F    Hartree Fock is set to
   LHFONE  =     F    Hartree Fock one center treatment
   AEXX    =    0.0000 exact exchange contribution

 Linear response parameters
   LEPSILON=     F    determine dielectric tensor
   LRPA    =     F    only Hartree local field effects (RPA)
   LNABLA  =     F    use nabla operator in PAW spheres
   LVEL    =     F    velocity operator in full k-point grid
   LINTERFAST=   F  fast interpolation
   KINTER  =     0    interpolate to denser k-point grid
   CSHIFT  =0.1000    complex shift for real part using Kramers Kronig
   OMEGAMAX=  -1.0    maximum frequency
   DEG_THRESHOLD= 0.2000000E-02 threshold for treating states as degnerate
   RTIME   =    0.100 relaxation time in fs

 Orbital magnetization related:
   ORBITALMAG=     F  switch on orbital magnetization
   LCHIMAG   =     F  perturbation theory with respect to B field
   DQ        =  0.001000  dq finite difference perturbation B field



--------------------------------------------------------------------------------------------------------


 conjugate gradient relaxation of ions
 charge density and potential will be updated during run
 non-spin polarized calculation
 RMM-DIIS sequential band-by-band and
  variant of blocked Davidson during initial phase
 perform sub-space diagonalisation
    before iterative eigenvector-optimisation
 modified Broyden-mixing scheme, WC =      100.0
 initial mixing is a Kerker type mixing with AMIX =  0.4000 and BMIX =      1.0000
 Hartree-type preconditioning will be used
 using additional bands           54
 real space projection scheme for non local part
 use partial core corrections
 calculate Harris-corrections to forces 
   (improved forces if not selfconsistent)
 use gradient corrections 
 use of overlap-Matrix (Vanderbilt PP)
 Gauss-broadening in eV      SIGMA  =   0.10


--------------------------------------------------------------------------------------------------------


  energy-cutoff  :      400.00
  volume of cell :     2567.68
      direct lattice vectors                 reciprocal lattice vectors
    11.002581515  0.000000000  0.000000000     0.090887761 -0.052474073  0.000000000
     5.501290758  9.528515099  0.000000000     0.000000000  0.104948147  0.000000000
     0.000000000  0.000000000 24.491785094     0.000000000  0.000000000  0.040830017

  length of vectors
    11.002581515 11.002581515 24.491785094     0.104948147  0.104948147  0.040830017


 
 k-points in units of 2pi/SCALE and weight: Automatic mesh                          
   0.02272194  0.01311852  0.00000000       0.167
   0.00000000  0.02623704  0.00000000       0.167
  -0.02272194  0.01311852  0.00000000       0.167
  -0.02272194  0.03935555  0.00000000       0.167
   0.04544388 -0.05247407  0.00000000       0.167
  -0.02272194  0.06559259  0.00000000       0.167
 
 k-points in reciprocal lattice and weights: Automatic mesh                          
   0.25000000  0.25000000  0.00000000       0.167
   0.00000000  0.25000000  0.00000000       0.167
  -0.25000000  0.00000000  0.00000000       0.167
  -0.25000000  0.25000000  0.00000000       0.167
   0.50000000 -0.25000000  0.00000000       0.167
  -0.25000000  0.50000000  0.00000000       0.167
 
 position of ions in fractional coordinates (direct lattice) 
   0.16666667  0.41666667  0.50000000
   0.58333333  0.08333333  0.40830017
   0.66666667  0.91666667  0.50000000
   0.16666667  0.91666667  0.50000000
   0.75000000  0.00000000  0.59169983
   0.25000000  0.50000000  0.59169983
   0.16666667  0.66666667  0.50000000
   0.33333333  0.58333333  0.40830017
   0.25000000  0.25000000  0.59169983
   0.41666667  0.66666667  0.50000000
   0.83333333  0.33333333  0.40830017
   0.25000000  0.00000000  0.59169983
   0.41666667  0.16666667  0.50000000
   0.16666667  0.16666667  0.50000000
   0.00000000  0.50000000  0.59169983
   0.58333333  0.58333333  0.40830017
   0.08333333  0.58333333  0.40830017
   0.00000000  0.25000000  0.59169983
   0.83333333  0.83333333  0.40830017
   0.08333333  0.33333333  0.40830017
   0.00000000  0.00000000  0.59169983
   0.91666667  0.16666667  0.50000000
   0.66666667  0.41666667  0.50000000
   0.66666667  0.16666667  0.50000000
   0.83333333  0.08333333  0.40830017
   0.50000000  0.75000000  0.59169983
   0.41666667  0.91666667  0.50000000
   0.08333333  0.08333333  0.40830017
   0.83333333  0.58333333  0.40830017
   0.66666667  0.66666667  0.50000000
   0.75000000  0.50000000  0.59169983
   0.75000000  0.25000000  0.59169983
   0.58333333  0.83333333  0.40830017
   0.25000000  0.75000000  0.59169983
   0.50000000  0.25000000  0.59169983
   0.41666667  0.41666667  0.50000000
   0.58333333  0.33333333  0.40830017
   0.50000000  0.00000000  0.59169983
   0.33333333  0.83333333  0.40830017
   0.33333333  0.33333333  0.40830017
   0.33333333  0.08333333  0.40830017
   0.00000000  0.75000000  0.59169983
   0.91666667  0.91666667  0.50000000
   0.08333333  0.83333333  0.40830017
   0.91666667  0.66666667  0.50000000
   0.91666667  0.41666667  0.50000000
   0.50000000  0.50000000  0.59169983
   0.75000000  0.75000000  0.59169983
 
 position of ions in cartesian coordinates  (Angst):
   4.12596807  3.97021462 12.24589255
   6.87661345  0.79404292 10.00000000
  12.37790420  8.73447217 12.24589255
   6.87661345  8.73447217 12.24589255
   8.25193614  0.00000000 14.49178509
   5.50129076  4.76425755 14.49178509
   5.50129076  6.35234340 12.24589255
   6.87661345  5.55830047 10.00000000
   4.12596807  2.38212877 14.49178509
   8.25193614  6.35234340 12.24589255
  11.00258152  3.17617170 10.00000000
   2.75064538  0.00000000 14.49178509
   5.50129076  1.58808585 12.24589255
   2.75064538  1.58808585 12.24589255
   2.75064538  4.76425755 14.49178509
   9.62725883  5.55830047 10.00000000
   4.12596807  5.55830047 10.00000000
   1.37532269  2.38212877 14.49178509
  13.75322689  7.94042925 10.00000000
   2.75064538  3.17617170 10.00000000
   0.00000000  0.00000000 14.49178509
  11.00258152  1.58808585 12.24589255
   9.62725883  3.97021462 12.24589255
   8.25193614  1.58808585 12.24589255
   9.62725883  0.79404292 10.00000000
   9.62725883  7.14638632 14.49178509
   9.62725883  8.73447217 12.24589255
   1.37532269  0.79404292 10.00000000
  12.37790420  5.55830047 10.00000000
  11.00258152  6.35234340 12.24589255
  11.00258152  4.76425755 14.49178509
   9.62725883  2.38212877 14.49178509
  11.00258152  7.94042925 10.00000000
   6.87661345  7.14638632 14.49178509
   6.87661345  2.38212877 14.49178509
   6.87661345  3.97021462 12.24589255
   8.25193614  3.17617170 10.00000000
   5.50129076  0.00000000 14.49178509
   8.25193614  7.94042925 10.00000000
   5.50129076  3.17617170 10.00000000
   4.12596807  0.79404292 10.00000000
   4.12596807  7.14638632 14.49178509
  15.12854958  8.73447217 12.24589255
   5.50129076  7.94042925 10.00000000
  13.75322689  6.35234340 12.24589255
  12.37790420  3.97021462 12.24589255
   8.25193614  4.76425755 14.49178509
  12.37790420  7.14638632 14.49178509
 


--------------------------------------------------------------------------------------------------------


 k-point  1 :   0.2500 0.2500 0.0000  plane waves:   46635
 k-point  2 :   0.0000 0.2500 0.0000  plane waves:   46635
 k-point  3 :  -0.2500 0.0000 0.0000  plane waves:   46635
 k-point  4 :  -0.2500 0.2500 0.0000  plane waves:   46644
 k-point  5 :   0.5000-0.2500 0.0000  plane waves:   46644
 k-point  6 :  -0.2500 0.5000 0.0000  plane waves:   46644

 maximum and minimum number of plane-waves per node :      7818     7732

 maximum number of plane-waves:     46644
 maximum index in each direction: 
   IXMAX=   18   IYMAX=   18   IZMAX=   39
   IXMIN=  -18   IYMIN=  -18   IZMIN=  -39

 WARNING: aliasing errors must be expected set NGX to  74 to avoid them
 WARNING: aliasing errors must be expected set NGY to  74 to avoid them
 WARNING: aliasing errors must be expected set NGZ to 158 to avoid them
 aliasing errors are usually negligible using standard VASP settings
 and one can safely disregard these warnings

 real space projection operators:
  total allocation   :      12803.06 KBytes
  max/ min on nodes  :       2145.66       2127.94


 parallel 3D FFT for wavefunctions:
    minimum data exchange during FFTs selected (reduces bandwidth)
 parallel 3D FFT for charge:
    minimum data exchange during FFTs selected (reduces bandwidth)


 total amount of memory used by VASP on root node    84353. kBytes
========================================================================

   base      :      30000. kBytes
   nonlr-proj:       4285. kBytes
   fftplans  :       4447. kBytes
   grid      :       6721. kBytes
   one-center:        124. kBytes
   wavefun   :      38776. kBytes
 
     INWAV:  cpu time    0.0000: real time    0.0000
 Broyden mixing: mesh for mixing (old mesh)
   NGX = 35   NGY = 35   NGZ = 79
  (NGX  =108   NGY  =108   NGZ  =240)
  gives a total of  96775 points

 initial charge density was supplied:
 charge density of overlapping atoms calculated
 number of electron     504.0000000 magnetization 
 keeping initial charge density in first step


--------------------------------------------------------------------------------------------------------


 Maximum index for non-local projection operator          355
 Maximum index for augmentation-charges          437 (set IRDMAX)


--------------------------------------------------------------------------------------------------------


 First call to EWALD:  gamma=   0.129
 Maximum number of real-space cells 4x 4x 2
 Maximum number of reciprocal cells 2x 2x 5

 FEWALD executed in parallel
    FEWALD:  cpu time    0.0024: real time    0.0024


----------------------------------------- Iteration    1(   1)  ---------------------------------------


    POTLOK:  cpu time    0.0555: real time    0.0557
    SETDIJ:  cpu time    0.0067: real time    0.0067
     EDDAV:  cpu time    9.1961: real time    9.2024
       DOS:  cpu time    0.0014: real time    0.0014
    --------------------------------------------
      LOOP:  cpu time    9.2636: real time    9.2730

 eigenvalue-minimisations  :  3672
 total energy-change (2. order) : 0.3201729E+04  (-0.1897818E+05)
 number of electron     504.0000000 magnetization 
 augmentation part      504.0000000 magnetization 

 DIPCOR: dipole corrections for dipol
 direction  3 min pos     1,
 dipolmoment           0.000000      0.000000      0.000000 electrons x Angstroem
 Tr[quadrupol]    -10225.200430

 energy correction for charged system         0.000000 eV
 dipol+quadrupol energy correction           -0.000000 eV
 added-field ion interaction          0.000000 eV  (added to PSCEN)


 Free energy of the ion-electron system (eV)
  ---------------------------------------------------
  alpha Z        PSCENC =       805.86936429
  Ewald energy   TEWEN  =    200635.49736355
  -Hartree energ DENC   =   -243051.84689169
  -exchange      EXHF   =         0.00000000
  -V(xc)+E(xc)   XCENC  =      -327.49327847
  PAW double counting   =     40340.05962942   -38292.62782345
  entropy T*S    EENTRO =        -0.14044895
  eigenvalues    EBANDS =      1432.62570414
  atomic energy  EATOM  =     41659.78587232
  Solvation  Ediel_sol  =         0.00000000
  ---------------------------------------------------
  free energy    TOTEN  =      3201.72949115 eV

  energy without entropy =     3201.86994010  energy(sigma->0) =     3201.79971563


--------------------------------------------------------------------------------------------------------




----------------------------------------- Iteration    1(   2)  ---------------------------------------


     EDDAV:  cpu time   10.9993: real time   11.0840
       DOS:  cpu time    0.0015: real time    0.0015
    --------------------------------------------
      LOOP:  cpu time   11.0017: real time   11.0878

 eigenvalue-minimisations  :  4380
 total energy-change (2. order) :-0.3186114E+04  (-0.2929473E+04)
 number of electron     504.0000000 magnetization 
 augmentation part      504.0000000 magnetization 

 DIPCOR: dipole corrections for dipol
 direction  3 min pos     1,
 dipolmoment           0.000000      0.000000      0.000000 electrons x Angstroem
 Tr[quadrupol]    -10225.200430

 energy correction for charged system         0.000000 eV
 dipol+quadrupol energy correction           -0.000000 eV
 added-field ion interaction          0.000000 eV  (added to PSCEN)


 Free energy of the ion-electron system (eV)
  ---------------------------------------------------
  alpha Z        PSCENC =       805.86936429
  Ewald energy   TEWEN  =    200635.49736355
  -Hartree energ DENC   =   -243051.84689169
  -exchange      EXHF   =         0.00000000
  -V(xc)+E(xc)   XCENC  =      -327.49327847
  PAW double counting   =     40340.05962942   -38292.62782345
  entropy T*S    EENTRO =        -0.13177347
  eigenvalues    EBANDS =     -1753.49690091
  atomic energy  EATOM  =     41659.78587232
  Solvation  Ediel_sol  =         0.00000000
  ---------------------------------------------------
  free energy    TOTEN  =        15.61556158 eV

  energy without entropy =       15.74733505  energy(sigma->0) =       15.68144832


--------------------------------------------------------------------------------------------------------




----------------------------------------- Iteration    1(   3)  ---------------------------------------


     EDDAV:  cpu time   11.3670: real time   11.3982
       DOS:  cpu time    0.0016: real time    0.0016
    --------------------------------------------
      LOOP:  cpu time   11.3788: real time   11.4130

 eigenvalue-minimisations  :  4176
 total energy-change (2. order) :-0.2153108E+03  (-0.2004150E+03)
 number of electron     504.0000000 magnetization 
 augmentation part      504.0000000 magnetization 

 DIPCOR: dipole corrections for dipol
 direction  3 min pos     1,
 dipolmoment           0.000000      0.000000      0.000000 electrons x Angstroem
 Tr[quadrupol]    -10225.200430

 energy correction for charged system         0.000000 eV
 dipol+quadrupol energy correction           -0.000000 eV
 added-field ion interaction          0.000000 eV  (added to PSCEN)


 Free energy of the ion-electron system (eV)
  ---------------------------------------------------
  alpha Z        PSCENC =       805.86936429
  Ewald energy   TEWEN  =    200635.49736355
  -Hartree energ DENC   =   -243051.84689169
  -exchange      EXHF   =         0.00000000
  -V(xc)+E(xc)   XCENC  =      -327.49327847
  PAW double counting   =     40340.05962942   -38292.62782345
  entropy T*S    EENTRO =        -0.21308265
  eigenvalues    EBANDS =     -1968.72639665
  atomic energy  EATOM  =     41659.78587232
  Solvation  Ediel_sol  =         0.00000000
  ---------------------------------------------------
  free energy    TOTEN  =      -199.69524334 eV

  energy without entropy =     -199.48216069  energy(sigma->0) =     -199.58870201


--------------------------------------------------------------------------------------------------------




----------------------------------------- Iteration    1(   4)  ---------------------------------------


     EDDAV:  cpu time   10.9063: real time   10.9128
       DOS:  cpu time    0.0016: real time    0.0016
    --------------------------------------------
      LOOP:  cpu time   10.9103: real time   10.9225

 eigenvalue-minimisations  :  4260
 total energy-change (2. order) :-0.5761773E+01  (-0.5688473E+01)
 number of electron     504.0000000 magnetization 
 augmentation part      504.0000000 magnetization 

 DIPCOR: dipole corrections for dipol
 direction  3 min pos     1,
 dipolmoment           0.000000      0.000000      0.000000 electrons x Angstroem
 Tr[quadrupol]    -10225.200430

 energy correction for charged system         0.000000 eV
 dipol+quadrupol energy correction           -0.000000 eV
 added-field ion interaction          0.000000 eV  (added to PSCEN)


 Free energy of the ion-electron system (eV)
  ---------------------------------------------------
  alpha Z        PSCENC =       805.86936429
  Ewald energy   TEWEN  =    200635.49736355
  -Hartree energ DENC   =   -243051.84689169
  -exchange      EXHF   =         0.00000000
  -V(xc)+E(xc)   XCENC  =      -327.49327847
  PAW double counting   =     40340.05962942   -38292.62782345
  entropy T*S    EENTRO =        -0.22716864
  eigenvalues    EBANDS =     -1974.47408402
  atomic energy  EATOM  =     41659.78587232
  Solvation  Ediel_sol  =         0.00000000
  ---------------------------------------------------
  free energy    TOTEN  =      -205.45701670 eV

  energy without entropy =     -205.22984806  energy(sigma->0) =     -205.34343238


--------------------------------------------------------------------------------------------------------




----------------------------------------- Iteration    1(   5)  ---------------------------------------


     EDDAV:  cpu time   11.2777: real time   11.2940
       DOS:  cpu time    0.0017: real time    0.0017
    CHARGE:  cpu time    0.3160: real time    0.3162
    MIXING:  cpu time    0.0023: real time    0.0024
    --------------------------------------------
      LOOP:  cpu time   11.5984: real time   11.6175

 eigenvalue-minimisations  :  4464
 total energy-change (2. order) :-0.1773602E+00  (-0.1767821E+00)
 number of electron     503.9998406 magnetization 
 augmentation part      191.3885690 magnetization 

 DIPCOR: dipole corrections for dipol
 direction  3 min pos     1,
 dipolmoment           0.000000      0.000000      0.000000 electrons x Angstroem
 Tr[quadrupol]    -10225.200430

 energy correction for charged system         0.000000 eV
 dipol+quadrupol energy correction           -0.000000 eV
 added-field ion interaction          0.000000 eV  (added to PSCEN)


 Broyden mixing:
  rms(total) = 0.62740E+01    rms(broyden)= 0.62739E+01
  rms(prec ) = 0.63928E+01
  weight for this iteration     100.00

 Free energy of the ion-electron system (eV)
  ---------------------------------------------------
  alpha Z        PSCENC =       805.86936429
  Ewald energy   TEWEN  =    200635.49736355
  -Hartree energ DENC   =   -243051.84689169
  -exchange      EXHF   =         0.00000000
  -V(xc)+E(xc)   XCENC  =      -327.49327847
  PAW double counting   =     40340.05962942   -38292.62782345
  entropy T*S    EENTRO =        -0.22803887
  eigenvalues    EBANDS =     -1974.65057398
  atomic energy  EATOM  =     41659.78587232
  Solvation  Ediel_sol  =         0.00000000
  ---------------------------------------------------
  free energy    TOTEN  =      -205.63437689 eV

  energy without entropy =     -205.40633802  energy(sigma->0) =     -205.52035745


--------------------------------------------------------------------------------------------------------




----------------------------------------- Iteration    1(   6)  ---------------------------------------


    POTLOK:  cpu time    0.0518: real time    0.0519
    SETDIJ:  cpu time    0.0060: real time    0.0062
    EDDIAG:  cpu time    1.6123: real time    1.6800
  RMM-DIIS:  cpu time    4.3087: real time    4.3111
    ORTHCH:  cpu time    0.4039: real time    0.4041
       DOS:  cpu time    0.0016: real time    0.0016
    CHARGE:  cpu time    0.3092: real time    0.3092
    MIXING:  cpu time    0.0022: real time    0.0022
    --------------------------------------------
      LOOP:  cpu time    6.6965: real time    6.7702

 eigenvalue-minimisations  :  3678
 total energy-change (2. order) : 0.7725561E+01  (-0.9312216E+01)
 number of electron     503.9998419 magnetization 
 augmentation part      192.1980246 magnetization 

 DIPCOR: dipole corrections for dipol
 direction  3 min pos     1,
 dipolmoment           0.000000      0.000000     -0.011959 electrons x Angstroem
 Tr[quadrupol]    -10225.192143

 energy correction for charged system         0.000000 eV
 dipol+quadrupol energy correction           -0.000005 eV
 added-field ion interaction          0.000000 eV  (added to PSCEN)


 Broyden mixing:
  rms(total) = 0.54948E+01    rms(broyden)= 0.54946E+01
  rms(prec ) = 0.56605E+01
  weight for this iteration     100.00

 eigenvalues of (default mixing * dielectric matrix)
  average eigenvalue GAMMA=   0.7688
  0.7688

 Free energy of the ion-electron system (eV)
  ---------------------------------------------------
  alpha Z        PSCENC =       805.86935925
  Ewald energy   TEWEN  =    200635.49736355
  -Hartree energ DENC   =   -242754.85366230
  -exchange      EXHF   =         0.00000000
  -V(xc)+E(xc)   XCENC  =      -339.77584533
  PAW double counting   =     43941.49752085   -41953.06999924
  entropy T*S    EENTRO =        -0.23635744
  eigenvalues    EBANDS =     -2192.62306798
  atomic energy  EATOM  =     41659.78587232
  Solvation  Ediel_sol  =         0.00000000
  ---------------------------------------------------
  free energy    TOTEN  =      -197.90881631 eV

  energy without entropy =     -197.67245887  energy(sigma->0) =     -197.79063759


--------------------------------------------------------------------------------------------------------




----------------------------------------- Iteration    1(   7)  ---------------------------------------


    POTLOK:  cpu time    0.0510: real time    0.0518
    SETDIJ:  cpu time    0.0061: real time    0.0061
    EDDIAG:  cpu time    1.6600: real time    1.6624
  RMM-DIIS:  cpu time    4.4435: real time    4.4454
    ORTHCH:  cpu time    0.4041: real time    0.4044
       DOS:  cpu time    0.0017: real time    0.0017
    CHARGE:  cpu time    0.3061: real time    0.3061
    MIXING:  cpu time    0.0021: real time    0.0021
    --------------------------------------------
      LOOP:  cpu time    6.8756: real time    6.8840

 eigenvalue-minimisations  :  3684
 total energy-change (2. order) :-0.1953110E+01  (-0.4945165E+01)
 number of electron     503.9998364 magnetization 
 augmentation part      196.8179610 magnetization 

 DIPCOR: dipole corrections for dipol
 direction  3 min pos     1,
 dipolmoment           0.000000      0.000000     -0.417309 electrons x Angstroem
 Tr[quadrupol]    -10225.193006

 energy correction for charged system         0.000000 eV
 dipol+quadrupol energy correction           -0.006136 eV
 added-field ion interaction          0.000000 eV  (added to PSCEN)


 Broyden mixing:
  rms(total) = 0.37648E+01    rms(broyden)= 0.37646E+01
  rms(prec ) = 0.40513E+01
  weight for this iteration     100.00

 eigenvalues of (default mixing * dielectric matrix)
  average eigenvalue GAMMA=   1.0534
  1.6730  0.4338

 Free energy of the ion-electron system (eV)
  ---------------------------------------------------
  alpha Z        PSCENC =       805.86322781
  Ewald energy   TEWEN  =    200635.49736355
  -Hartree energ DENC   =   -242651.46515183
  -exchange      EXHF   =         0.00000000
  -V(xc)+E(xc)   XCENC  =      -342.23698102
  PAW double counting   =     45502.72002952   -43540.67278452
  entropy T*S    EENTRO =        -0.19196672
  eigenvalues    EBANDS =     -2269.16153554
  atomic energy  EATOM  =     41659.78587232
  Solvation  Ediel_sol  =         0.00000000
  ---------------------------------------------------
  free energy    TOTEN  =      -199.86192644 eV

  energy without entropy =     -199.66995972  energy(sigma->0) =     -199.76594308


--------------------------------------------------------------------------------------------------------




----------------------------------------- Iteration    1(   8)  ---------------------------------------


    POTLOK:  cpu time    0.0501: real time    0.0501
    SETDIJ:  cpu time    0.0060: real time    0.0060
    EDDIAG:  cpu time    1.6533: real time    1.6540
  RMM-DIIS:  cpu time    4.4495: real time    4.4516
    ORTHCH:  cpu time    0.4043: real time    0.4043
       DOS:  cpu time    0.0016: real time    0.0016
    CHARGE:  cpu time    0.3059: real time    0.3061
    MIXING:  cpu time    0.0022: real time    0.0022
    --------------------------------------------
      LOOP:  cpu time    6.8738: real time    6.8792

 eigenvalue-minimisations  :  3678
 total energy-change (2. order) :-0.1319468E+02  (-0.6484708E+01)
 number of electron     503.9998366 magnetization 
 augmentation part      196.5538102 magnetization 

 DIPCOR: dipole corrections for dipol
 direction  3 min pos     1,
 dipolmoment           0.000000      0.000000      1.480574 electrons x Angstroem
 Tr[quadrupol]    -10226.933957

 energy correction for charged system         0.000000 eV
 dipol+quadrupol energy correction           -0.077244 eV
 added-field ion interaction          0.000000 eV  (added to PSCEN)


 Broyden mixing:
  rms(total) = 0.36437E+01    rms(broyden)= 0.36433E+01
  rms(prec ) = 0.44128E+01
  weight for this iteration     100.00

 eigenvalues of (default mixing * dielectric matrix)
  average eigenvalue GAMMA=   1.0010
  2.1825  0.4796  0.3408

 Free energy of the ion-electron system (eV)
  ---------------------------------------------------
  alpha Z        PSCENC =       805.79212055
  Ewald energy   TEWEN  =    200635.49736355
  -Hartree energ DENC   =   -242652.50344442
  -exchange      EXHF   =         0.00000000
  -V(xc)+E(xc)   XCENC  =      -344.12263447
  PAW double counting   =     47753.29231071   -45820.53763650
  entropy T*S    EENTRO =        -0.26315220
  eigenvalues    EBANDS =     -2249.99740187
  atomic energy  EATOM  =     41659.78587232
  Solvation  Ediel_sol  =         0.00000000
  ---------------------------------------------------
  free energy    TOTEN  =      -213.05660233 eV

  energy without entropy =     -212.79345013  energy(sigma->0) =     -212.92502623


--------------------------------------------------------------------------------------------------------




----------------------------------------- Iteration    1(   9)  ---------------------------------------


    POTLOK:  cpu time    0.0498: real time    0.0498
    SETDIJ:  cpu time    0.0061: real time    0.0061
    EDDIAG:  cpu time    1.6527: real time    1.6540
  RMM-DIIS:  cpu time    4.4964: real time    4.5125
    ORTHCH:  cpu time    0.4983: real time    0.5005
       DOS:  cpu time    0.0016: real time    0.0016
    CHARGE:  cpu time    0.4290: real time    0.4313
    MIXING:  cpu time    0.0044: real time    0.0044
    --------------------------------------------
      LOOP:  cpu time    7.1391: real time    7.1635

 eigenvalue-minimisations  :  3677
 total energy-change (2. order) : 0.3189811E+01  (-0.3623305E+01)
 number of electron     503.9998354 magnetization 
 augmentation part      196.6936968 magnetization 

 DIPCOR: dipole corrections for dipol
 direction  3 min pos     1,
 dipolmoment           0.000000      0.000000     -1.152412 electrons x Angstroem
 Tr[quadrupol]    -10227.816655

 energy correction for charged system         0.000000 eV
 dipol+quadrupol energy correction           -0.046797 eV
 added-field ion interaction          0.000000 eV  (added to PSCEN)


 Broyden mixing:
  rms(total) = 0.37380E+01    rms(broyden)= 0.37376E+01
  rms(prec ) = 0.46411E+01
  weight for this iteration     100.00

 eigenvalues of (default mixing * dielectric matrix)
  average eigenvalue GAMMA=   0.8413
  2.2912  0.4831  0.3305  0.2603

 Free energy of the ion-electron system (eV)
  ---------------------------------------------------
  alpha Z        PSCENC =       805.82256721
  Ewald energy   TEWEN  =    200635.49736355
  -Hartree energ DENC   =   -242658.13006372
  -exchange      EXHF   =         0.00000000
  -V(xc)+E(xc)   XCENC  =      -345.23246472
  PAW double counting   =     48955.29209314   -47038.96556406
  entropy T*S    EENTRO =        -0.20418055
  eigenvalues    EBANDS =     -2223.73241407
  atomic energy  EATOM  =     41659.78587232
  Solvation  Ediel_sol  =         0.00000000
  ---------------------------------------------------
  free energy    TOTEN  =      -209.86679091 eV

  energy without entropy =     -209.66261036  energy(sigma->0) =     -209.76470063


--------------------------------------------------------------------------------------------------------




----------------------------------------- Iteration    1(  10)  ---------------------------------------


    POTLOK:  cpu time    0.0661: real time    0.0677
    SETDIJ:  cpu time    0.0068: real time    0.0069
    EDDIAG:  cpu time    1.9990: real time    2.0105
  RMM-DIIS:  cpu time    4.4369: real time    4.4418
    ORTHCH:  cpu time    0.4012: real time    0.4013
       DOS:  cpu time    0.0015: real time    0.0015
    CHARGE:  cpu time    0.3043: real time    0.3045
    MIXING:  cpu time    0.0026: real time    0.0026
    --------------------------------------------
      LOOP:  cpu time    7.2192: real time    7.2401

 eigenvalue-minimisations  :  3684
 total energy-change (2. order) : 0.1625875E+02  (-0.1911203E+01)
 number of electron     503.9998338 magnetization 
 augmentation part      199.2507917 magnetization 

 DIPCOR: dipole corrections for dipol
 direction  3 min pos     1,
 dipolmoment           0.000000      0.000000      0.176234 electrons x Angstroem
 Tr[quadrupol]    -10227.733223

 energy correction for charged system         0.000000 eV
 dipol+quadrupol energy correction           -0.001094 eV
 added-field ion interaction          0.000000 eV  (added to PSCEN)


 Broyden mixing:
  rms(total) = 0.17432E+01    rms(broyden)= 0.17428E+01
  rms(prec ) = 0.19291E+01
  weight for this iteration     100.00

 eigenvalues of (default mixing * dielectric matrix)
  average eigenvalue GAMMA=   0.7638
  2.2804  0.4985  0.4985  0.3376  0.2040

 Free energy of the ion-electron system (eV)
  ---------------------------------------------------
  alpha Z        PSCENC =       805.86826987
  Ewald energy   TEWEN  =    200635.49736355
  -Hartree energ DENC   =   -242654.78791722
  -exchange      EXHF   =         0.00000000
  -V(xc)+E(xc)   XCENC  =      -345.40244780
  PAW double counting   =     49253.77611399   -47341.73355339
  entropy T*S    EENTRO =        -0.21291150
  eigenvalues    EBANDS =     -2206.39883326
  atomic energy  EATOM  =     41659.78587232
  Solvation  Ediel_sol  =         0.00000000
  ---------------------------------------------------
  free energy    TOTEN  =      -193.60804344 eV

  energy without entropy =     -193.39513194  energy(sigma->0) =     -193.50158769


--------------------------------------------------------------------------------------------------------




----------------------------------------- Iteration    1(  11)  ---------------------------------------


    POTLOK:  cpu time    0.0504: real time    0.0504
    SETDIJ:  cpu time    0.0063: real time    0.0063
    EDDIAG:  cpu time    1.6547: real time    1.6553
  RMM-DIIS:  cpu time    4.4225: real time    4.4371
    ORTHCH:  cpu time    0.3757: real time    0.4049
       DOS:  cpu time    0.0017: real time    0.0018
    CHARGE:  cpu time    0.3023: real time    0.3238
    MIXING:  cpu time    0.0025: real time    0.0026
    --------------------------------------------
      LOOP:  cpu time    6.8170: real time    6.8845

 eigenvalue-minimisations  :  3681
 total energy-change (2. order) : 0.4643499E+01  (-0.8544863E+00)
 number of electron     503.9998352 magnetization 
 augmentation part      198.5560425 magnetization 

 DIPCOR: dipole corrections for dipol
 direction  3 min pos     1,
 dipolmoment           0.000000      0.000000      0.044055 electrons x Angstroem
 Tr[quadrupol]    -10227.231904

 energy correction for charged system         0.000000 eV
 dipol+quadrupol energy correction           -0.000068 eV
 added-field ion interaction          0.000000 eV  (added to PSCEN)


 Broyden mixing:
  rms(total) = 0.85377E+00    rms(broyden)= 0.85354E+00
  rms(prec ) = 0.95659E+00
  weight for this iteration     100.00

 eigenvalues of (default mixing * dielectric matrix)
  average eigenvalue GAMMA=   0.7382
  2.2925  0.6130  0.6130  0.3409  0.3409  0.2288

 Free energy of the ion-electron system (eV)
  ---------------------------------------------------
  alpha Z        PSCENC =       805.86929590
  Ewald energy   TEWEN  =    200635.49736355
  -Hartree energ DENC   =   -242665.10079159
  -exchange      EXHF   =         0.00000000
  -V(xc)+E(xc)   XCENC  =      -344.64604804
  PAW double counting   =     49337.80594579   -47423.34910185
  entropy T*S    EENTRO =        -0.18891650
  eigenvalues    EBANDS =     -2194.63816450
  atomic energy  EATOM  =     41659.78587232
  Solvation  Ediel_sol  =         0.00000000
  ---------------------------------------------------
  free energy    TOTEN  =      -188.96454492 eV

  energy without entropy =     -188.77562842  energy(sigma->0) =     -188.87008667


--------------------------------------------------------------------------------------------------------




----------------------------------------- Iteration    1(  12)  ---------------------------------------


    POTLOK:  cpu time    0.0492: real time    0.0515
    SETDIJ:  cpu time    0.0061: real time    0.0061
    EDDIAG:  cpu time    1.6404: real time    1.6419
  RMM-DIIS:  cpu time    4.3624: real time    4.3640
    ORTHCH:  cpu time    0.3890: real time    0.3891
       DOS:  cpu time    0.0016: real time    0.0016
    CHARGE:  cpu time    0.3010: real time    0.3012
    MIXING:  cpu time    0.0028: real time    0.0028
    --------------------------------------------
      LOOP:  cpu time    6.7533: real time    6.7649

 eigenvalue-minimisations  :  3678
 total energy-change (2. order) : 0.8187701E+00  (-0.2456982E+00)
 number of electron     503.9998360 magnetization 
 augmentation part      197.4846808 magnetization 

 DIPCOR: dipole corrections for dipol
 direction  3 min pos     1,
 dipolmoment           0.000000      0.000000      0.035100 electrons x Angstroem
 Tr[quadrupol]    -10228.140245

 energy correction for charged system         0.000000 eV
 dipol+quadrupol energy correction           -0.000043 eV
 added-field ion interaction          0.000000 eV  (added to PSCEN)


 Broyden mixing:
  rms(total) = 0.62675E+00    rms(broyden)= 0.62664E+00
  rms(prec ) = 0.68598E+00
  weight for this iteration     100.00

 eigenvalues of (default mixing * dielectric matrix)
  average eigenvalue GAMMA=   0.7289
  2.2749  0.7902  0.5990  0.5990  0.3071  0.3071  0.2248

 Free energy of the ion-electron system (eV)
  ---------------------------------------------------
  alpha Z        PSCENC =       805.86932087
  Ewald energy   TEWEN  =    200635.49736355
  -Hartree energ DENC   =   -242719.96724646
  -exchange      EXHF   =         0.00000000
  -V(xc)+E(xc)   XCENC  =      -344.03798953
  PAW double counting   =     49419.47234222   -47502.33492637
  entropy T*S    EENTRO =        -0.25854633
  eigenvalues    EBANDS =     -2142.17196508
  atomic energy  EATOM  =     41659.78587232
  Solvation  Ediel_sol  =         0.00000000
  ---------------------------------------------------
  free energy    TOTEN  =      -188.14577483 eV

  energy without entropy =     -187.88722849  energy(sigma->0) =     -188.01650166


--------------------------------------------------------------------------------------------------------




----------------------------------------- Iteration    1(  13)  ---------------------------------------


    POTLOK:  cpu time    0.0503: real time    0.0506
    SETDIJ:  cpu time    0.0053: real time    0.0061
    EDDIAG:  cpu time    1.6343: real time    1.6367
  RMM-DIIS:  cpu time    4.4377: real time    4.4421
    ORTHCH:  cpu time    0.3885: real time    0.3889
       DOS:  cpu time    0.0016: real time    0.0016
    CHARGE:  cpu time    0.3020: real time    0.3023
    MIXING:  cpu time    0.0028: real time    0.0028
    --------------------------------------------
      LOOP:  cpu time    6.8234: real time    6.8350

 eigenvalue-minimisations  :  3679
 total energy-change (2. order) : 0.3593159E-02  (-0.7906920E-01)
 number of electron     503.9998361 magnetization 
 augmentation part      197.3443387 magnetization 

 DIPCOR: dipole corrections for dipol
 direction  3 min pos     1,
 dipolmoment           0.000000      0.000000      0.004910 electrons x Angstroem
 Tr[quadrupol]    -10228.168953

 energy correction for charged system         0.000000 eV
 dipol+quadrupol energy correction           -0.000001 eV
 added-field ion interaction          0.000000 eV  (added to PSCEN)


 Broyden mixing:
  rms(total) = 0.61904E+00    rms(broyden)= 0.61894E+00
  rms(prec ) = 0.67439E+00
  weight for this iteration     100.00

 eigenvalues of (default mixing * dielectric matrix)
  average eigenvalue GAMMA=   0.7385
  2.2735  0.8294  0.8294  0.8283  0.3379  0.3379  0.2360  0.2360

 Free energy of the ion-electron system (eV)
  ---------------------------------------------------
  alpha Z        PSCENC =       805.86936344
  Ewald energy   TEWEN  =    200635.49736355
  -Hartree energ DENC   =   -242725.99203901
  -exchange      EXHF   =         0.00000000
  -V(xc)+E(xc)   XCENC  =      -343.81291375
  PAW double counting   =     49429.27770276   -47511.21054837
  entropy T*S    EENTRO =        -0.24933154
  eigenvalues    EBANDS =     -2137.30765105
  atomic energy  EATOM  =     41659.78587232
  Solvation  Ediel_sol  =         0.00000000
  ---------------------------------------------------
  free energy    TOTEN  =      -188.14218167 eV

  energy without entropy =     -187.89285013  energy(sigma->0) =     -188.01751590


--------------------------------------------------------------------------------------------------------




----------------------------------------- Iteration    1(  14)  ---------------------------------------


    POTLOK:  cpu time    0.0497: real time    0.0497
    SETDIJ:  cpu time    0.0060: real time    0.0060
    EDDIAG:  cpu time    1.6310: real time    1.6324
  RMM-DIIS:  cpu time    4.4351: real time    4.4399
    ORTHCH:  cpu time    0.3884: real time    0.3888
       DOS:  cpu time    0.0016: real time    0.0016
    CHARGE:  cpu time    0.3021: real time    0.3024
    MIXING:  cpu time    0.0030: real time    0.0030
    --------------------------------------------
      LOOP:  cpu time    6.8178: real time    6.8262

 eigenvalue-minimisations  :  3679
 total energy-change (2. order) : 0.7587363E-01  (-0.6368936E-01)
 number of electron     503.9998362 magnetization 
 augmentation part      197.4385465 magnetization 

 DIPCOR: dipole corrections for dipol
 direction  3 min pos     1,
 dipolmoment           0.000000      0.000000     -0.032787 electrons x Angstroem
 Tr[quadrupol]    -10228.401319

 energy correction for charged system         0.000000 eV
 dipol+quadrupol energy correction           -0.000038 eV
 added-field ion interaction          0.000000 eV  (added to PSCEN)


 Broyden mixing:
  rms(total) = 0.43191E+00    rms(broyden)= 0.43177E+00
  rms(prec ) = 0.48648E+00
  weight for this iteration     100.00

 eigenvalues of (default mixing * dielectric matrix)
  average eigenvalue GAMMA=   0.7254
  2.2210  1.0055  1.0055  0.7916  0.3930  0.3930  0.2635  0.2277  0.2277

 Free energy of the ion-electron system (eV)
  ---------------------------------------------------
  alpha Z        PSCENC =       805.86932641
  Ewald energy   TEWEN  =    200635.49736355
  -Hartree energ DENC   =   -242734.59400989
  -exchange      EXHF   =         0.00000000
  -V(xc)+E(xc)   XCENC  =      -343.71312909
  PAW double counting   =     49438.83426514   -47520.11743701
  entropy T*S    EENTRO =        -0.24135078
  eigenvalues    EBANDS =     -2129.38720868
  atomic energy  EATOM  =     41659.78587232
  Solvation  Ediel_sol  =         0.00000000
  ---------------------------------------------------
  free energy    TOTEN  =      -188.06630804 eV

  energy without entropy =     -187.82495726  energy(sigma->0) =     -187.94563265


--------------------------------------------------------------------------------------------------------




----------------------------------------- Iteration    1(  15)  ---------------------------------------


    POTLOK:  cpu time    0.0514: real time    0.0516
    SETDIJ:  cpu time    0.0060: real time    0.0062
    EDDIAG:  cpu time    1.6329: real time    1.6348
  RMM-DIIS:  cpu time    4.4469: real time    4.4511
    ORTHCH:  cpu time    0.3888: real time    0.3890
       DOS:  cpu time    0.0017: real time    0.0017
    CHARGE:  cpu time    0.3018: real time    0.3019
    MIXING:  cpu time    0.0033: real time    0.0033
    --------------------------------------------
      LOOP:  cpu time    6.8334: real time    6.8416

 eigenvalue-minimisations  :  3679
 total energy-change (2. order) : 0.1278642E+00  (-0.1983576E-01)
 number of electron     503.9998362 magnetization 
 augmentation part      197.3324843 magnetization 

 DIPCOR: dipole corrections for dipol
 direction  3 min pos     1,
 dipolmoment           0.000000      0.000000     -0.022285 electrons x Angstroem
 Tr[quadrupol]    -10228.625589

 energy correction for charged system         0.000000 eV
 dipol+quadrupol energy correction           -0.000017 eV
 added-field ion interaction          0.000000 eV  (added to PSCEN)


 Broyden mixing:
  rms(total) = 0.31821E+00    rms(broyden)= 0.31814E+00
  rms(prec ) = 0.35670E+00
  weight for this iteration     100.00

 eigenvalues of (default mixing * dielectric matrix)
  average eigenvalue GAMMA=   0.7267
  2.1242  1.2776  1.2776  0.5851  0.5851  0.3877  0.2895  0.2895  0.2254  0.2254

 Free energy of the ion-electron system (eV)
  ---------------------------------------------------
  alpha Z        PSCENC =       805.86934679
  Ewald energy   TEWEN  =    200635.49736355
  -Hartree energ DENC   =   -242748.14004606
  -exchange      EXHF   =         0.00000000
  -V(xc)+E(xc)   XCENC  =      -343.49948955
  PAW double counting   =     49434.07225963   -47513.94836610
  entropy T*S    EENTRO =        -0.24772503
  eigenvalues    EBANDS =     -2117.32765940
  atomic energy  EATOM  =     41659.78587232
  Solvation  Ediel_sol  =         0.00000000
  ---------------------------------------------------
  free energy    TOTEN  =      -187.93844385 eV

  energy without entropy =     -187.69071882  energy(sigma->0) =     -187.81458133


--------------------------------------------------------------------------------------------------------




----------------------------------------- Iteration    1(  16)  ---------------------------------------


    POTLOK:  cpu time    0.0500: real time    0.0500
    SETDIJ:  cpu time    0.0060: real time    0.0060
    EDDIAG:  cpu time    1.6378: real time    1.6408
  RMM-DIIS:  cpu time    4.3614: real time    4.3662
    ORTHCH:  cpu time    0.3897: real time    0.3899
       DOS:  cpu time    0.0016: real time    0.0016
    CHARGE:  cpu time    0.3014: real time    0.3018
    MIXING:  cpu time    0.0034: real time    0.0034
    --------------------------------------------
      LOOP:  cpu time    6.7521: real time    6.7627

 eigenvalue-minimisations  :  3678
 total energy-change (2. order) : 0.8295436E-01  (-0.1168117E-01)
 number of electron     503.9998365 magnetization 
 augmentation part      197.1792903 magnetization 

 DIPCOR: dipole corrections for dipol
 direction  3 min pos     1,
 dipolmoment           0.000000      0.000000     -0.032116 electrons x Angstroem
 Tr[quadrupol]    -10228.894053

 energy correction for charged system         0.000000 eV
 dipol+quadrupol energy correction           -0.000036 eV
 added-field ion interaction          0.000000 eV  (added to PSCEN)


 Broyden mixing:
  rms(total) = 0.21369E+00    rms(broyden)= 0.21365E+00
  rms(prec ) = 0.23662E+00
  weight for this iteration     100.00

 eigenvalues of (default mixing * dielectric matrix)
  average eigenvalue GAMMA=   0.7648
  2.1330  1.5927  1.5927  0.5794  0.5794  0.5387  0.3475  0.3475  0.2668  0.2271
  0.2079

 Free energy of the ion-electron system (eV)
  ---------------------------------------------------
  alpha Z        PSCENC =       805.86932794
  Ewald energy   TEWEN  =    200635.49736355
  -Hartree energ DENC   =   -242762.85885307
  -exchange      EXHF   =         0.00000000
  -V(xc)+E(xc)   XCENC  =      -343.29927335
  PAW double counting   =     49433.60740887   -47512.11228878
  entropy T*S    EENTRO =        -0.24840112
  eigenvalues    EBANDS =     -2104.09664585
  atomic energy  EATOM  =     41659.78587232
  Solvation  Ediel_sol  =         0.00000000
  ---------------------------------------------------
  free energy    TOTEN  =      -187.85548949 eV

  energy without entropy =     -187.60708837  energy(sigma->0) =     -187.73128893


--------------------------------------------------------------------------------------------------------




----------------------------------------- Iteration    1(  17)  ---------------------------------------


    POTLOK:  cpu time    0.0502: real time    0.0503
    SETDIJ:  cpu time    0.0061: real time    0.0061
    EDDIAG:  cpu time    1.6370: real time    1.6393
  RMM-DIIS:  cpu time    4.3365: real time    4.4160
    ORTHCH:  cpu time    0.3941: real time    0.3944
       DOS:  cpu time    0.0016: real time    0.0016
    CHARGE:  cpu time    0.3029: real time    0.3031
    MIXING:  cpu time    0.0036: real time    0.0036
    --------------------------------------------
      LOOP:  cpu time    6.7329: real time    6.8179

 eigenvalue-minimisations  :  3679
 total energy-change (2. order) : 0.1310468E-01  (-0.7294227E-02)
 number of electron     503.9998364 magnetization 
 augmentation part      197.1806722 magnetization 

 DIPCOR: dipole corrections for dipol
 direction  3 min pos     1,
 dipolmoment           0.000000      0.000000     -0.011827 electrons x Angstroem
 Tr[quadrupol]    -10229.213754

 energy correction for charged system         0.000000 eV
 dipol+quadrupol energy correction           -0.000005 eV
 added-field ion interaction          0.000000 eV  (added to PSCEN)


 Broyden mixing:
  rms(total) = 0.17203E+00    rms(broyden)= 0.17197E+00
  rms(prec ) = 0.19577E+00
  weight for this iteration     100.00

 eigenvalues of (default mixing * dielectric matrix)
  average eigenvalue GAMMA=   0.7444
  2.2089  1.7848  1.4369  0.6037  0.6037  0.6502  0.3501  0.3501  0.2641  0.2488
  0.2156  0.2156

 Free energy of the ion-electron system (eV)
  ---------------------------------------------------
  alpha Z        PSCENC =       805.86935936
  Ewald energy   TEWEN  =    200635.49736355
  -Hartree energ DENC   =   -242775.28332323
  -exchange      EXHF   =         0.00000000
  -V(xc)+E(xc)   XCENC  =      -343.22652039
  PAW double counting   =     49453.67879787   -47531.61446448
  entropy T*S    EENTRO =        -0.25192727
  eigenvalues    EBANDS =     -2092.29754254
  atomic energy  EATOM  =     41659.78587232
  Solvation  Ediel_sol  =         0.00000000
  ---------------------------------------------------
  free energy    TOTEN  =      -187.84238482 eV

  energy without entropy =     -187.59045754  energy(sigma->0) =     -187.71642118


--------------------------------------------------------------------------------------------------------




----------------------------------------- Iteration    1(  18)  ---------------------------------------


    POTLOK:  cpu time    0.0507: real time    0.0509
    SETDIJ:  cpu time    0.0065: real time    0.0065
    EDDIAG:  cpu time    1.6424: real time    1.6443
  RMM-DIIS:  cpu time    5.0408: real time    5.0756
    ORTHCH:  cpu time    0.3989: real time    0.4012
       DOS:  cpu time    0.0016: real time    0.0016
    CHARGE:  cpu time    0.3035: real time    0.3039
    MIXING:  cpu time    0.0037: real time    0.0037
    --------------------------------------------
      LOOP:  cpu time    7.4491: real time    7.4900

 eigenvalue-minimisations  :  3683
 total energy-change (2. order) : 0.2933711E-01  (-0.2231778E-02)
 number of electron     503.9998364 magnetization 
 augmentation part      197.1927315 magnetization 

 DIPCOR: dipole corrections for dipol
 direction  3 min pos     1,
 dipolmoment           0.000000      0.000000     -0.010871 electrons x Angstroem
 Tr[quadrupol]    -10229.328779

 energy correction for charged system         0.000000 eV
 dipol+quadrupol energy correction           -0.000004 eV
 added-field ion interaction          0.000000 eV  (added to PSCEN)


 Broyden mixing:
  rms(total) = 0.84976E-01    rms(broyden)= 0.84945E-01
  rms(prec ) = 0.96427E-01
  weight for this iteration     100.00

 eigenvalues of (default mixing * dielectric matrix)
  average eigenvalue GAMMA=   0.7362
  2.1907  2.0330  1.3355  0.6621  0.6621  0.5712  0.4208  0.4208  0.3006  0.3006
  0.2350  0.2350  0.2030

 Free energy of the ion-electron system (eV)
  ---------------------------------------------------
  alpha Z        PSCENC =       805.86936012
  Ewald energy   TEWEN  =    200635.49736355
  -Hartree energ DENC   =   -242779.41476978
  -exchange      EXHF   =         0.00000000
  -V(xc)+E(xc)   XCENC  =      -343.21044564
  PAW double counting   =     49462.82045842   -47540.70154558
  entropy T*S    EENTRO =        -0.25696300
  eigenvalues    EBANDS =     -2088.20237812
  atomic energy  EATOM  =     41659.78587232
  Solvation  Ediel_sol  =         0.00000000
  ---------------------------------------------------
  free energy    TOTEN  =      -187.81304771 eV

  energy without entropy =     -187.55608470  energy(sigma->0) =     -187.68456621


--------------------------------------------------------------------------------------------------------




----------------------------------------- Iteration    1(  19)  ---------------------------------------


    POTLOK:  cpu time    0.0504: real time    0.0505
    SETDIJ:  cpu time    0.0061: real time    0.0061
    EDDIAG:  cpu time    1.6390: real time    1.6408
  RMM-DIIS:  cpu time    4.3427: real time    4.3484
    ORTHCH:  cpu time    0.3926: real time    0.3930
       DOS:  cpu time    0.0015: real time    0.0015
    CHARGE:  cpu time    0.3027: real time    0.3028
    MIXING:  cpu time    0.0040: real time    0.0040
    --------------------------------------------
      LOOP:  cpu time    6.7398: real time    6.7490

 eigenvalue-minimisations  :  3682
 total energy-change (2. order) : 0.4972209E-02  (-0.6662507E-03)
 number of electron     503.9998364 magnetization 
 augmentation part      197.1740598 magnetization 

 DIPCOR: dipole corrections for dipol
 direction  3 min pos     1,
 dipolmoment           0.000000      0.000000     -0.014139 electrons x Angstroem
 Tr[quadrupol]    -10229.434125

 energy correction for charged system         0.000000 eV
 dipol+quadrupol energy correction           -0.000007 eV
 added-field ion interaction          0.000000 eV  (added to PSCEN)


 Broyden mixing:
  rms(total) = 0.59315E-01    rms(broyden)= 0.59303E-01
  rms(prec ) = 0.65728E-01
  weight for this iteration     100.00

 eigenvalues of (default mixing * dielectric matrix)
  average eigenvalue GAMMA=   0.7658
  2.2815  2.2815  1.2643  0.8752  0.8752  0.6001  0.6001  0.3354  0.3354  0.3353
  0.2909  0.2230  0.2230  0.2008

 Free energy of the ion-electron system (eV)
  ---------------------------------------------------
  alpha Z        PSCENC =       805.86935724
  Ewald energy   TEWEN  =    200635.49736355
  -Hartree energ DENC   =   -242783.75067752
  -exchange      EXHF   =         0.00000000
  -V(xc)+E(xc)   XCENC  =      -343.18420614
  PAW double counting   =     49466.53578975   -47544.29839005
  entropy T*S    EENTRO =        -0.25851038
  eigenvalues    EBANDS =     -2084.00467427
  atomic energy  EATOM  =     41659.78587232
  Solvation  Ediel_sol  =         0.00000000
  ---------------------------------------------------
  free energy    TOTEN  =      -187.80807550 eV

  energy without entropy =     -187.54956512  energy(sigma->0) =     -187.67882031


--------------------------------------------------------------------------------------------------------




----------------------------------------- Iteration    1(  20)  ---------------------------------------


    POTLOK:  cpu time    0.0510: real time    0.0512
    SETDIJ:  cpu time    0.0061: real time    0.0061
    EDDIAG:  cpu time    1.6428: real time    1.6444
  RMM-DIIS:  cpu time    4.4526: real time    4.4543
    ORTHCH:  cpu time    0.3926: real time    0.3927
       DOS:  cpu time    0.0016: real time    0.0016
    CHARGE:  cpu time    0.3054: real time    0.3056
    MIXING:  cpu time    0.0040: real time    0.0040
    --------------------------------------------
      LOOP:  cpu time    6.8568: real time    6.8628

 eigenvalue-minimisations  :  3681
 total energy-change (2. order) : 0.1081767E-02  (-0.5860480E-03)
 number of electron     503.9998365 magnetization 
 augmentation part      197.1353894 magnetization 

 DIPCOR: dipole corrections for dipol
 direction  3 min pos     1,
 dipolmoment           0.000000      0.000000     -0.011548 electrons x Angstroem
 Tr[quadrupol]    -10229.594888

 energy correction for charged system         0.000000 eV
 dipol+quadrupol energy correction           -0.000005 eV
 added-field ion interaction          0.000000 eV  (added to PSCEN)


 Broyden mixing:
  rms(total) = 0.46780E-01    rms(broyden)= 0.46773E-01
  rms(prec ) = 0.53735E-01
  weight for this iteration     100.00

 eigenvalues of (default mixing * dielectric matrix)
  average eigenvalue GAMMA=   0.7738
  2.4225  2.4225  1.1461  1.0604  1.0604  0.6149  0.6149  0.3625  0.3625  0.3195
  0.3195  0.2524  0.2243  0.2243  0.2004

 Free energy of the ion-electron system (eV)
  ---------------------------------------------------
  alpha Z        PSCENC =       805.86935959
  Ewald energy   TEWEN  =    200635.49736355
  -Hartree energ DENC   =   -242790.46661412
  -exchange      EXHF   =         0.00000000
  -V(xc)+E(xc)   XCENC  =      -343.14044520
  PAW double counting   =     49468.49312454   -47546.04946413
  entropy T*S    EENTRO =        -0.25772164
  eigenvalues    EBANDS =     -2077.53846864
  atomic energy  EATOM  =     41659.78587232
  Solvation  Ediel_sol  =         0.00000000
  ---------------------------------------------------
  free energy    TOTEN  =      -187.80699373 eV

  energy without entropy =     -187.54927209  energy(sigma->0) =     -187.67813291


--------------------------------------------------------------------------------------------------------




----------------------------------------- Iteration    1(  21)  ---------------------------------------


    POTLOK:  cpu time    0.0502: real time    0.0503
    SETDIJ:  cpu time    0.0060: real time    0.0060
    EDDIAG:  cpu time    1.6382: real time    1.6397
  RMM-DIIS:  cpu time    4.2959: real time    4.3011
    ORTHCH:  cpu time    0.3922: real time    0.3925
       DOS:  cpu time    0.0015: real time    0.0016
    CHARGE:  cpu time    0.3030: real time    0.3030
    MIXING:  cpu time    0.0042: real time    0.0042
    --------------------------------------------
      LOOP:  cpu time    6.6921: real time    6.7049

 eigenvalue-minimisations  :  3680
 total energy-change (2. order) : 0.1814786E-02  (-0.2815604E-03)
 number of electron     503.9998365 magnetization 
 augmentation part      197.1096879 magnetization 

 DIPCOR: dipole corrections for dipol
 direction  3 min pos     1,
 dipolmoment           0.000000      0.000000     -0.014296 electrons x Angstroem
 Tr[quadrupol]    -10229.743841

 energy correction for charged system         0.000000 eV
 dipol+quadrupol energy correction           -0.000007 eV
 added-field ion interaction          0.000000 eV  (added to PSCEN)


 Broyden mixing:
  rms(total) = 0.32835E-01    rms(broyden)= 0.32829E-01
  rms(prec ) = 0.39935E-01
  weight for this iteration     100.00

 eigenvalues of (default mixing * dielectric matrix)
  average eigenvalue GAMMA=   0.7668
  2.4474  2.4474  1.2074  1.2074  1.0178  0.6177  0.6177  0.4732  0.3610  0.3610
  0.3145  0.2885  0.2650  0.2216  0.2216  0.1999

 Free energy of the ion-electron system (eV)
  ---------------------------------------------------
  alpha Z        PSCENC =       805.86935708
  Ewald energy   TEWEN  =    200635.49736355
  -Hartree energ DENC   =   -242796.23769274
  -exchange      EXHF   =         0.00000000
  -V(xc)+E(xc)   XCENC  =      -343.11248634
  PAW double counting   =     49471.32181248   -47548.79055384
  entropy T*S    EENTRO =        -0.25884686
  eigenvalues    EBANDS =     -2071.88000459
  atomic energy  EATOM  =     41659.78587232
  Solvation  Ediel_sol  =         0.00000000
  ---------------------------------------------------
  free energy    TOTEN  =      -187.80517895 eV

  energy without entropy =     -187.54633208  energy(sigma->0) =     -187.67575551


--------------------------------------------------------------------------------------------------------




----------------------------------------- Iteration    1(  22)  ---------------------------------------


    POTLOK:  cpu time    0.0505: real time    0.0505
    SETDIJ:  cpu time    0.0060: real time    0.0060
    EDDIAG:  cpu time    1.6267: real time    1.6282
  RMM-DIIS:  cpu time    4.4344: real time    4.4369
    ORTHCH:  cpu time    0.3930: real time    0.3930
       DOS:  cpu time    0.0016: real time    0.0016
    CHARGE:  cpu time    0.3030: real time    0.3033
    MIXING:  cpu time    0.0042: real time    0.0042
    --------------------------------------------
      LOOP:  cpu time    6.8202: real time    6.8259

 eigenvalue-minimisations  :  3683
 total energy-change (2. order) : 0.7395790E-03  (-0.6300455E-04)
 number of electron     503.9998365 magnetization 
 augmentation part      197.1089894 magnetization 

 DIPCOR: dipole corrections for dipol
 direction  3 min pos     1,
 dipolmoment           0.000000      0.000000     -0.011641 electrons x Angstroem
 Tr[quadrupol]    -10229.828609

 energy correction for charged system         0.000000 eV
 dipol+quadrupol energy correction           -0.000005 eV
 added-field ion interaction          0.000000 eV  (added to PSCEN)


 Broyden mixing:
  rms(total) = 0.19834E-01    rms(broyden)= 0.19831E-01
  rms(prec ) = 0.23402E-01
  weight for this iteration     100.00

 eigenvalues of (default mixing * dielectric matrix)
  average eigenvalue GAMMA=   0.7772
  2.3890  2.3890  1.4953  1.4953  0.7337  0.7337  0.6158  0.6158  0.5344  0.3676
  0.3322  0.3322  0.2781  0.2576  0.2213  0.2213  0.2000

 Free energy of the ion-electron system (eV)
  ---------------------------------------------------
  alpha Z        PSCENC =       805.86935951
  Ewald energy   TEWEN  =    200635.49736355
  -Hartree energ DENC   =   -242799.16017935
  -exchange      EXHF   =         0.00000000
  -V(xc)+E(xc)   XCENC  =      -343.10654931
  PAW double counting   =     49472.17455819   -47549.67907729
  entropy T*S    EENTRO =        -0.25893038
  eigenvalues    EBANDS =     -2068.92685660
  atomic energy  EATOM  =     41659.78587232
  Solvation  Ediel_sol  =         0.00000000
  ---------------------------------------------------
  free energy    TOTEN  =      -187.80443937 eV

  energy without entropy =     -187.54550899  energy(sigma->0) =     -187.67497418


--------------------------------------------------------------------------------------------------------




----------------------------------------- Iteration    1(  23)  ---------------------------------------


    POTLOK:  cpu time    0.0504: real time    0.0505
    SETDIJ:  cpu time    0.0061: real time    0.0062
    EDDIAG:  cpu time    1.6353: real time    1.6367
  RMM-DIIS:  cpu time    4.2858: real time    4.3638
    ORTHCH:  cpu time    0.3929: real time    0.3932
       DOS:  cpu time    0.0016: real time    0.0016
    CHARGE:  cpu time    0.3029: real time    0.3030
    MIXING:  cpu time    0.0044: real time    0.0044
    --------------------------------------------
      LOOP:  cpu time    6.6804: real time    6.7615

 eigenvalue-minimisations  :  3680
 total energy-change (2. order) : 0.1053290E-03  (-0.5120794E-04)
 number of electron     503.9998365 magnetization 
 augmentation part      197.1169955 magnetization 

 DIPCOR: dipole corrections for dipol
 direction  3 min pos     1,
 dipolmoment           0.000000      0.000000     -0.009215 electrons x Angstroem
 Tr[quadrupol]    -10229.920229

 energy correction for charged system         0.000000 eV
 dipol+quadrupol energy correction           -0.000003 eV
[...]
    262      -0.3098      0.00000
    263      -0.2241      0.00000
    264       0.1352      0.00000
    265       0.2794      0.00000
    266       0.3128      0.00000
    267       0.4208      0.00000
    268       0.4986      0.00000
    269       0.6814      0.00000
    270       0.7688      0.00000
    271       1.1318      0.00000
    272       1.2302      0.00000
    273       1.4904      0.00000
    274       1.5879      0.00000
    275       1.7266      0.00000
    276       1.8140      0.00000
    277       2.1520      0.00000
    278       2.2064      0.00000
    279       2.2978      0.00000
    280       2.3544      0.00000
    281       2.3868      0.00000
    282       2.4827      0.00000
    283       2.6612      0.00000
    284       2.9329      0.00000
    285       3.1785      0.00000
    286       3.2905      0.00000
    287       3.4841      0.00000
    288       3.6052      0.00000
    289       3.7390      0.00000
    290       3.9330      0.00000
    291       4.0872      0.00000
    292       4.1702      0.00000
    293       4.4222      0.00000
    294       4.5552      0.00000
    295       4.5949      0.00000
    296       4.6289      0.00000
    297       4.7077      0.00000
    298       4.7774      0.00000
    299       4.8650      0.00000
    300       4.9413      0.00000
    301       4.9740      0.00000
    302       5.0566      0.00000
    303       5.0825      0.00000
    304       5.1298      0.00000
    305       5.1906      0.00000
    306       5.2477      0.00000


--------------------------------------------------------------------------------------------------------


 soft charge-density along one line, spin component           1
         0         1         2         3         4         5         6         7         8         9
 total charge-density along one line
 
 pseudopotential strength for first ion, spin component:           1
 -8.116   0.003   0.006  -0.003   0.001  -8.261   0.002   0.005
  0.003  -8.065  -0.005  -0.002   0.000   0.002  -8.211  -0.004
  0.006  -0.005  -8.078   0.004  -0.006   0.005  -0.004  -8.224
 -0.003  -0.002   0.004  -8.059   0.002  -0.003  -0.002   0.004
  0.001   0.000  -0.006   0.002  -8.114   0.001   0.000  -0.006
 -8.261   0.002   0.005  -0.003   0.001  -8.390   0.002   0.005
  0.002  -8.211  -0.004  -0.002   0.000   0.002  -8.341  -0.004
  0.005  -0.004  -8.224   0.004  -0.006   0.005  -0.004  -8.354
 -0.003  -0.002   0.004  -8.205   0.002  -0.003  -0.001   0.004
  0.001   0.000  -0.006   0.002  -8.260   0.001   0.000  -0.006
  0.001   0.002  -0.013  -0.003  -0.002   0.001   0.002  -0.013
  0.001   0.004  -0.018  -0.004  -0.002   0.001   0.004  -0.018
 -0.000   0.003   0.001  -0.000   0.002  -0.000   0.003   0.001
 -0.000  -0.002   0.004  -0.001   0.000  -0.000  -0.002   0.004
 -0.002  -0.000   0.000   0.004  -0.001  -0.002  -0.000   0.000
 -0.000   0.004   0.002  -0.000   0.003  -0.000   0.004   0.002
 -0.000  -0.002   0.005  -0.001   0.000  -0.000  -0.002   0.005
 -0.002  -0.000   0.000   0.004  -0.001  -0.002  -0.000   0.000
 total augmentation occupancy for first ion, spin component:           1
  5.089  -0.010  -0.011   0.275  -0.097  -3.207   0.018   0.046  -0.287   0.104  -0.068   0.069  -0.042   0.003   0.010   0.002
 -0.010   5.015  -0.073   0.008   0.153   0.019  -2.695   0.016   0.011  -0.172  -0.108   0.005   0.019  -0.027   0.003   0.003
 -0.011  -0.073   4.774   0.135   0.168   0.045   0.017  -2.838  -0.083  -0.186   0.499  -0.028  -0.025   0.018   0.024   0.003
  0.275   0.008   0.135   5.143  -0.044  -0.287   0.011  -0.083  -2.833   0.042   0.081   0.025  -0.001   0.002   0.007  -0.000
 -0.097   0.153   0.168  -0.044   4.742   0.104  -0.172  -0.187   0.042  -2.863   0.137  -0.106  -0.004  -0.006   0.014   0.003
 -3.207   0.019   0.045  -0.287   0.104   3.225  -0.025  -0.072   0.295  -0.108   0.061  -0.058   0.036  -0.001  -0.008  -0.002
  0.018  -2.695   0.017   0.011  -0.172  -0.025   2.362   0.028  -0.024   0.186   0.097  -0.009  -0.020   0.024  -0.001  -0.000
  0.046   0.016  -2.838  -0.083  -0.187  -0.072   0.028   2.803   0.041   0.200  -0.507   0.049   0.020  -0.025  -0.018  -0.002
 -0.287   0.011  -0.083  -2.833   0.042   0.295  -0.024   0.041   2.506  -0.040  -0.075  -0.018   0.002   0.002  -0.011   0.000
  0.104  -0.172  -0.186   0.042  -2.863  -0.108   0.186   0.200  -0.040   2.887  -0.120   0.093   0.001   0.005  -0.012  -0.001
 -0.068  -0.108   0.499   0.081   0.137   0.061   0.097  -0.507  -0.075  -0.120   2.674  -0.674  -0.001  -0.019   0.008  -0.000
  0.069   0.005  -0.028   0.025  -0.106  -0.058  -0.009   0.049  -0.018   0.093  -0.674   0.204   0.006  -0.000  -0.004  -0.000
 -0.042   0.019  -0.025  -0.001  -0.004   0.036  -0.020   0.020   0.002   0.001  -0.001   0.006   0.207   0.007  -0.000  -0.007
  0.003  -0.027   0.018   0.002  -0.006  -0.001   0.024  -0.025   0.002   0.005  -0.019  -0.000   0.007   0.145  -0.005  -0.000
  0.010   0.003   0.024   0.007   0.014  -0.008  -0.001  -0.018  -0.011  -0.012   0.008  -0.004  -0.000  -0.005   0.204  -0.000
  0.002   0.003   0.003  -0.000   0.003  -0.002  -0.000  -0.002   0.000  -0.001  -0.000  -0.000  -0.007  -0.000  -0.000   0.000
 -0.000  -0.001   0.004  -0.001   0.000   0.000  -0.001  -0.000   0.001  -0.000   0.002  -0.000  -0.000  -0.006   0.000   0.000
 -0.003  -0.001  -0.002   0.004  -0.001   0.001   0.000   0.001  -0.001   0.001  -0.001   0.000  -0.000   0.000  -0.006   0.000


------------------------ aborting loop because EDIFF is reached ----------------------------------------


    CHARGE:  cpu time    0.3023: real time    0.3025
    FORLOC:  cpu time    0.0187: real time    0.0187
    FORNL :  cpu time    1.6135: real time    1.6141
    FORCOR:  cpu time    0.0675: real time    0.0694
    FORHAR:  cpu time    0.0293: real time    0.0293
    MIXING:  cpu time    0.0029: real time    0.0029
    OFIELD:  cpu time    0.0000: real time    0.0000

 VOLUME and BASIS-vectors are now :
 -----------------------------------------------------------------------------
  energy-cutoff  :      400.00
  volume of cell :     2567.68
      direct lattice vectors                 reciprocal lattice vectors
    11.002581515  0.000000000  0.000000000     0.090887761 -0.052474073  0.000000000
     5.501290758  9.528515099  0.000000000     0.000000000  0.104948147  0.000000000
     0.000000000  0.000000000 24.491785094     0.000000000  0.000000000  0.040830017

  length of vectors
    11.002581515 11.002581515 24.491785094     0.104948147  0.104948147  0.040830017


 FORCES acting on ions
    electron-ion (+dipol)            ewald-force                    non-local-force                 convergence-correction
 -----------------------------------------------------------------------------------------------
   0.689E+01 0.292E+01 -.166E+01   -.692E+01 -.263E+01 0.105E+01   0.328E-01 -.297E+00 0.604E+00   0.393E-02 0.739E-03 0.243E-02
   0.925E+01 0.340E+00 0.232E+04   -.948E+01 0.178E+00 -.232E+04   0.221E+00 -.510E+00 0.116E+00   0.380E-03 0.559E-02 -.106E-01
   -.116E+02 -.922E+01 0.107E+02   0.111E+02 0.791E+01 -.100E+02   0.517E+00 0.130E+01 -.609E+00   0.796E-02 0.568E-02 0.351E-02
   0.213E+01 -.869E+01 -.581E+02   -.214E+01 0.854E+01 0.570E+02   0.292E-01 0.146E+00 0.114E+01   -.676E-02 -.818E-02 0.431E-03
   0.108E+02 0.319E+01 -.227E+04   -.110E+02 -.330E+01 0.227E+04   0.169E+00 0.114E+00 0.204E+00   0.343E-02 -.722E-02 -.303E-02
   -.136E+02 -.983E+01 -.227E+04   0.147E+02 0.100E+02 0.227E+04   -.108E+01 -.179E+00 -.996E-02   -.234E-02 0.428E-02 0.889E-02
   0.333E+01 0.121E+02 0.725E+01   -.399E+01 -.116E+02 -.665E+01   0.668E+00 -.496E+00 -.597E+00   -.277E-02 0.674E-02 0.438E-02
   0.296E+01 -.959E+01 0.228E+04   -.304E+01 0.926E+01 -.228E+04   0.816E-01 0.339E+00 -.659E-01   -.523E-02 -.446E-02 -.333E-02
   -.108E+02 -.676E+01 -.234E+04   0.116E+02 0.619E+01 0.234E+04   -.780E+00 0.570E+00 -.231E+00   0.286E-02 0.375E-02 0.206E-02
   0.266E+01 0.624E+01 0.259E+02   -.207E+01 -.602E+01 -.249E+02   -.584E+00 -.215E+00 -.102E+01   -.921E-02 -.184E-02 0.649E-02
   -.516E+01 0.159E+02 0.230E+04   0.495E+01 -.162E+02 -.230E+04   0.213E+00 0.214E+00 0.218E-01   0.114E-02 -.771E-02 -.352E-02
   -.946E+01 0.194E+02 -.231E+04   0.102E+02 -.204E+02 0.231E+04   -.740E+00 0.103E+01 0.440E-01   -.359E-03 -.285E-02 0.593E-03
   0.377E+01 -.377E+01 -.237E+02   -.387E+01 0.390E+01 0.237E+02   0.930E-01 -.136E+00 -.156E-01   0.106E-02 0.122E-02 -.257E-03
   -.113E+01 -.130E+02 -.496E+02   0.116E+01 0.128E+02 0.485E+02   -.197E-01 0.259E+00 0.111E+01   0.716E-02 -.121E-02 -.109E-01
   0.140E+02 -.188E+02 -.222E+04   -.147E+02 0.198E+02 0.222E+04   0.624E+00 -.102E+01 0.238E+00   0.625E-02 0.871E-02 0.480E-02
   -.317E+00 -.133E+02 0.231E+04   0.841E+00 0.138E+02 -.231E+04   -.532E+00 -.539E+00 -.204E+00   0.583E-03 -.993E-02 -.298E-02
   -.172E+01 -.250E+01 0.229E+04   0.147E+01 0.276E+01 -.229E+04   0.247E+00 -.260E+00 -.778E-01   0.617E-02 -.263E-02 -.609E-02
   0.164E+02 -.216E+02 -.226E+04   -.172E+02 0.223E+02 0.226E+04   0.770E+00 -.679E+00 0.135E+00   0.681E-02 -.147E-02 -.986E-04
   -.373E+01 -.520E+01 0.224E+04   0.396E+01 0.505E+01 -.224E+04   -.231E+00 0.146E+00 -.259E+00   0.713E-02 0.217E-02 0.337E-02
   -.527E+01 0.180E+02 0.228E+04   0.515E+01 -.181E+02 -.228E+04   0.122E+00 0.125E+00 0.119E-01   0.574E-02 -.805E-02 -.992E-02
   0.148E+02 0.470E+01 -.231E+04   -.150E+02 -.534E+01 0.231E+04   0.277E+00 0.646E+00 -.546E-01   -.225E-02 -.102E-01 0.344E-02
   -.780E+01 -.245E+01 -.202E+02   0.764E+01 0.227E+01 0.196E+02   0.154E+00 0.206E+00 0.510E+00   -.585E-02 -.967E-02 -.506E-02
   -.656E+01 -.516E+00 0.527E+02   0.660E+01 0.946E+00 -.516E+02   -.341E-01 -.426E+00 -.109E+01   -.451E-02 -.277E-02 -.321E-02
   0.411E+01 0.106E+02 0.229E+02   -.393E+01 -.102E+02 -.229E+02   -.171E+00 -.381E+00 0.499E-02   -.179E-02 -.676E-02 -.487E-02
   -.104E+02 0.928E+01 0.198E+04   0.106E+02 -.951E+01 -.198E+04   -.225E+00 0.235E+00 -.158E+01   -.105E-02 -.188E-02 -.194E-03
   -.118E+02 0.213E+02 -.199E+04   0.121E+02 -.213E+02 0.199E+04   -.289E+00 -.670E-01 0.187E+01   -.776E-02 0.826E-02 0.334E-02
   0.229E+01 -.445E+01 -.409E+02   -.202E+01 0.413E+01 0.406E+02   -.272E+00 0.308E+00 0.354E+00   -.382E-02 0.717E-02 0.839E-04
   -.553E+01 0.143E+02 0.198E+04   0.536E+01 -.149E+02 -.198E+04   0.167E+00 0.543E+00 -.144E+01   -.161E-02 0.145E-02 -.137E-01
   -.869E+00 -.535E+01 0.197E+04   0.728E+00 0.566E+01 -.197E+04   0.137E+00 -.293E+00 -.184E+01   0.547E-02 -.744E-02 0.394E-02
   -.300E+00 0.321E+01 0.400E+02   0.830E+00 -.311E+01 -.397E+02   -.526E+00 -.961E-01 -.318E+00   0.265E-02 0.928E-03 0.640E-02
   0.126E+02 -.122E+02 -.195E+04   -.128E+02 0.125E+02 0.195E+04   0.168E+00 -.311E+00 0.180E+01   0.174E-02 0.700E-02 0.140E-01
   0.124E+02 -.201E+02 -.199E+04   -.125E+02 0.205E+02 0.199E+04   0.715E-01 -.389E+00 0.127E+01   -.601E-02 -.139E-02 0.120E-02
   0.856E+01 -.886E+01 0.198E+04   -.903E+01 0.864E+01 -.198E+04   0.468E+00 0.221E+00 -.160E+01   0.760E-02 0.321E-02 -.143E-02
   -.724E+01 0.195E+02 -.201E+04   0.735E+01 -.195E+02 0.200E+04   -.105E+00 0.315E-01 0.125E+01   -.883E-02 0.702E-03 -.856E-02
   -.167E+02 -.764E+01 -.198E+04   0.169E+02 0.776E+01 0.198E+04   -.187E+00 -.123E+00 0.136E+01   -.982E-02 0.553E-02 0.435E-02
   0.613E+01 -.468E+01 0.842E+01   -.604E+01 0.436E+01 -.843E+01   -.859E-01 0.335E+00 0.108E-01   -.338E-02 -.183E-02 0.495E-02
   0.742E+01 0.714E+01 0.200E+04   -.767E+01 -.732E+01 -.200E+04   0.250E+00 0.188E+00 -.132E+01   -.367E-02 -.722E-02 0.618E-04
   -.121E+02 0.176E+02 -.200E+04   0.119E+02 -.179E+02 0.200E+04   0.191E+00 0.253E+00 0.147E+01   -.124E-02 0.275E-02 0.164E-03
   0.592E+01 -.194E+02 0.198E+04   -.553E+01 0.200E+02 -.198E+04   -.390E+00 -.545E+00 -.155E+01   -.246E-02 0.504E-02 -.488E-03
   0.937E+00 0.970E+01 0.198E+04   -.482E+00 -.988E+01 -.197E+04   -.461E+00 0.180E+00 -.143E+01   0.115E-02 -.411E-02 -.590E-02
   0.822E+01 0.600E+01 0.197E+04   -.824E+01 -.656E+01 -.197E+04   0.605E-02 0.562E+00 -.150E+01   0.439E-02 0.848E-02 -.114E-01
   0.104E+02 0.392E+01 -.197E+04   -.106E+02 -.380E+01 0.197E+04   0.144E+00 -.126E+00 0.168E+01   0.209E-02 0.200E-02 -.830E-02
   0.337E+01 -.218E+01 -.321E+02   -.330E+01 0.177E+01 0.316E+02   -.781E-01 0.420E+00 0.423E+00   0.457E-02 -.262E-04 0.491E-02
   -.858E+01 -.160E+02 0.197E+04   0.861E+01 0.166E+02 -.197E+04   -.315E-01 -.614E+00 -.140E+01   -.421E-02 -.595E-03 -.564E-03
   -.619E+01 0.342E+01 0.232E+02   0.559E+01 -.340E+01 -.228E+02   0.597E+00 -.250E-01 -.427E+00   0.639E-02 0.360E-02 0.974E-02
   -.712E+01 0.104E+02 0.251E+02   0.701E+01 -.950E+01 -.250E+02   0.105E+00 -.900E+00 -.159E+00   0.244E-02 0.173E-02 -.468E-03
   -.135E+02 -.633E-02 -.199E+04   0.135E+02 -.989E-01 0.198E+04   0.687E-01 0.901E-01 0.168E+01   -.128E-01 0.787E-02 0.753E-02
   0.816E+01 0.697E+01 -.197E+04   -.835E+01 -.722E+01 0.197E+04   0.182E+00 0.238E+00 0.169E+01   0.894E-02 0.255E-02 0.475E-03
 -----------------------------------------------------------------------------------------------
   0.856E-01 -.513E-01 -.199E+00   0.622E-13 0.338E-12 -.159E-11   -.554E-01 0.723E-01 0.202E+00   0.283E-03 -.228E-02 -.133E-01
 
 
 POSITION                                       TOTAL-FORCE (eV/Angst)
 -----------------------------------------------------------------------------------
      4.10998      3.98758     12.23343         0.002902     -0.000058      0.000347
      6.86379      0.81770      9.64677        -0.008249      0.013422      0.004970
     12.35188      8.70340     12.24129         0.001835     -0.015364      0.005431
      6.86265      8.73779     12.30022         0.009156     -0.011738      0.001262
      8.25055     -0.01329     14.77336         0.005961     -0.001698      0.004641
      5.54813      4.75739     14.78071        -0.000181     -0.006226     -0.002506
      5.47122      6.36461     12.24454         0.006073      0.002362      0.008095
      6.87833      5.56389      9.68611        -0.009951      0.003783      0.004683
      4.17148      2.35807     14.92976        -0.001867     -0.000276     -0.005559
      8.26042      6.35864     12.22657         0.000655     -0.000732      0.008112
     10.99091      3.16734      9.65691         0.003729      0.000939      0.002572
      2.78866     -0.04654     14.86870         0.007012     -0.001489     -0.004406
      5.48843      1.59273     12.27090        -0.003102     -0.002685     -0.000932
      2.74489      1.59332     12.28245         0.007901      0.005080      0.000566
      2.74959      4.78164     14.72448        -0.004816     -0.001892      0.002337
      9.63941      5.59376      9.64469        -0.008364     -0.002387      0.000934
      4.11864      5.57318      9.67674         0.004840      0.005511      0.000948
      1.36907      2.38921     14.80214         0.005090      0.002052      0.003040
     13.75465      7.95652      9.75004         0.002182      0.001403     -0.011051
      2.74509      3.16191      9.69880         0.003955     -0.002166     -0.003515
      0.00158     -0.03082     14.87198        -0.001926     -0.003886     -0.014184
     10.98773      1.59279     12.26014        -0.010047      0.010864      0.002849
      9.62480      3.98601     12.19467         0.007665      0.000541      0.000911
      8.23018      1.59315     12.22063         0.012697     -0.005376      0.003316
      9.63320      0.79118      9.85795         0.001411      0.002352     -0.001946
      9.65702      7.12022     14.60939         0.006300     -0.003125      0.004228
      9.61879      8.72969     12.29472        -0.006017     -0.003011      0.007349
      1.36968      0.78225      9.89370        -0.004875      0.005344     -0.001214
     12.37056      5.57033      9.85059         0.000826      0.005472     -0.003530
     10.99943      6.34505     12.19466         0.005285      0.003156      0.003640
     11.00698      4.76763     14.56408         0.008983     -0.006917     -0.003616
      9.63330      2.39159     14.63562         0.002446     -0.007713     -0.007111
     10.98435      7.95952      9.86695         0.002632      0.003420     -0.000874
      6.90563      7.12089     14.66410        -0.002485      0.000659      0.002703
      6.90750      2.37424     14.63633        -0.003188      0.003204     -0.006980
      6.86199      3.98742     12.23413        -0.000891      0.013024      0.000992
      8.24348      3.18066      9.81416        -0.005570      0.001605      0.000035
      5.51954     -0.02105     14.66151        -0.003192     -0.003624     -0.000563
      8.26132      7.97519      9.88077        -0.012428      0.006164      0.003783
      5.49905      3.17634      9.85417        -0.005880     -0.000223     -0.006132
      4.11869      0.77910      9.89384        -0.007151      0.010279      0.002743
      4.13202      7.13369     14.62770        -0.000365     -0.004358     -0.000296
     15.09955      8.73202     12.28177        -0.003933      0.003358     -0.001304
      5.51095      7.96787      9.88130        -0.003885      0.001101      0.001496
     13.72751      6.34954     12.21692        -0.001448      0.000725      0.006053
     12.37179      3.99356     12.21412        -0.006190     -0.005006     -0.002015
      8.28008      4.75106     14.60049         0.006004     -0.007644     -0.004657
     12.37073      7.12936     14.58785         0.000458     -0.008227     -0.005649
 -----------------------------------------------------------------------------------
    total drift:                                0.030496      0.018777     -0.009957


--------------------------------------------------------------------------------------------------------



  FREE ENERGIE OF THE ION-ELECTRON SYSTEM (eV)
  ---------------------------------------------------
  free  energy   TOTEN  =      -191.71726967 eV

  energy  without entropy=     -191.48310590  energy(sigma->0) =     -191.60018779
 
 d Force = 0.7666444E-04[ 0.423E-04, 0.111E-03]  d Energy = 0.7976182E-04-0.310E-05
 d Force =-0.8314896E+01[-0.831E+01,-0.832E+01]  d Ewald  =-0.8314896E+01-0.630E-06


--------------------------------------------------------------------------------------------------------


    POTLOK:  cpu time    0.0596: real time    0.0599


--------------------------------------------------------------------------------------------------------


 stress matrix after NEB project (eV)
      0.00000      0.00000      0.00000
      0.00000      0.00000      0.00000
      0.00000      0.00000      0.00000
  FORCES: max atom, RMS     0.016520    0.009399
  FORCE total and by dimension    0.065121    0.015364
  Stress total and by dimension    0.000000    0.000000


--------------------------------------------------------------------------------------------------------


  
 reached required accuracy - stopping structural energy minimisation
     LOOP+:  cpu time   55.9071: real time   56.9286
    4ORBIT:  cpu time    0.0000: real time    0.0000

 total amount of memory used by VASP on root node    84353. kBytes
========================================================================

   base      :      30000. kBytes
   nonlr-proj:       4285. kBytes
   fftplans  :       4447. kBytes
   grid      :       6721. kBytes
   one-center:        124. kBytes
   wavefun   :      38776. kBytes
 
  
  
 General timing and accounting informations for this job:
 ========================================================
  
                  Total CPU time used (sec):     2656.232
                            User time (sec):     2548.127
                          System time (sec):      108.105
                         Elapsed time (sec):     2669.685
  
                   Maximum memory used (kb):     1039860.
                   Average memory used (kb):           0.
  
                          Minor page faults:      1103892
                          Major page faults:            2
                 Voluntary context switches:        12226
