<?xml version="1.0" encoding="ISO-8859-1"?>
<modeling>
 <generator>
  <i name="program" type="string">vasp </i>
  <i name="version" type="string">5.4.1  </i>
  <i name="subversion" type="string">24Jun15 (build Mar 14 2019 10:18:33) complex                          parallel </i>
  <i name="platform" type="string">INTEL-19.0.2+OPENMPI-3.1.3 </i>
  <i name="date" type="string">2022 07 11 </i>
  <i name="time" type="string">15:06:27 </i>
 </generator>
 <incar>
  <i type="int" name="ISTART">     0</i>
  <i type="string" name="PREC">normal</i>
  <i type="string" name="ALGO"> Fast</i>
  <i type="int" name="NELM">   500</i>
  <i type="int" name="IBRION">     2</i>
  <i type="int" name="NFREE">     2</i>
  <i name="EDIFF">      0.00000100</i>
  <i name="EDIFFG">     -0.02000000</i>
  <i type="int" name="NSW">   500</i>
  <i type="int" name="ISIF">     0</i>
  <i type="int" name="ISYM">     2</i>
  <i name="ENCUT">    400.00000000</i>
  <i name="POTIM">      0.35000000</i>
  <i type="string" name="LREAL"> Auto</i>
  <i type="logical" name="LPLANE"> T  </i>
  <i type="int" name="ISMEAR">     0</i>
  <i name="SIGMA">      0.10000000</i>
  <i type="int" name="NWRITE">     1</i>
  <i type="logical" name="LWAVE"> F  </i>
  <i type="logical" name="LCHARG"> F  </i>
  <i type="logical" name="LVTOT"> F  </i>
  <i type="logical" name="LORBIT"> F  </i>
  <i type="logical" name="LAECHG"> F  </i>
  <v type="int" name="KPOINT_BSE">    -1     0     0     0</v>
  <i type="int" name="NELM">   500</i>
  <i type="string" name="GGA"> PE          ! optPBE-vdW XC-functional</i>
  <i type="int" name="VOSKOWN">     1</i>
  <i type="logical" name="LDIPOL"> T  </i>
  <i type="logical" name="LMONO"> F  </i>
  <i type="int" name="IDIPOL">     3</i>
  <v name="DIPOL">      0.00000000      0.00000000      0.50000000</v>
 </incar>
 <kpoints>
  <generation param="Monkhorst-Pack">
   <v type="int" name="divisions">       2        2        1 </v>
   <v name="usershift">      0.00000000       0.00000000       0.00000000 </v>
   <v name="genvec1">      0.50000000      -0.00000000       0.00000000 </v>
   <v name="genvec2">      0.00000000       0.50000000       0.00000000 </v>
   <v name="genvec3">      0.00000000       0.00000000       1.00000000 </v>
   <v name="shift">      0.50000000       0.50000000       0.00000000 </v>
  </generation>
  <varray name="kpointlist" >
   <v>       0.25000000       0.25000000       0.00000000 </v>
   <v>       0.00000000       0.25000000       0.00000000 </v>
   <v>      -0.25000000       0.00000000       0.00000000 </v>
   <v>      -0.25000000       0.25000000       0.00000000 </v>
   <v>       0.50000000      -0.25000000       0.00000000 </v>
   <v>      -0.25000000       0.50000000       0.00000000 </v>
  </varray>
  <varray name="weights" >
   <v>       0.16666667 </v>
   <v>       0.16666667 </v>
   <v>       0.16666667 </v>
   <v>       0.16666667 </v>
   <v>       0.16666667 </v>
   <v>       0.16666667 </v>
  </varray>
 </kpoints>
 <parameters>
  <separator name="general" >
   <i type="string" name="SYSTEM">unknown system</i>
   <i type="logical" name="LCOMPAT"> F  </i>
  </separator>
  <separator name="electronic" >
   <i type="string" name="PREC">normal</i>
   <i name="ENMAX">    400.00000000</i>
   <i name="ENAUG">    416.23000000</i>
   <i name="EDIFF">      0.00000100</i>
   <i type="int" name="IALGO">    68</i>
   <i type="int" name="IWAVPR">    11</i>
   <i type="int" name="NBANDS">   306</i>
   <i name="NELECT">    504.00000000</i>
   <i type="int" name="TURBO">     0</i>
   <i type="int" name="IRESTART">     0</i>
   <i type="int" name="NREBOOT">     0</i>
   <i type="int" name="NMIN">     0</i>
   <i name="EREF">      0.00000000</i>
   <separator name="electronic smearing" >
    <i type="int" name="ISMEAR">     0</i>
    <i name="SIGMA">      0.10000000</i>
    <i name="KSPACING">      0.50000000</i>
    <i type="logical" name="KGAMMA"> T  </i>
   </separator>
   <separator name="electronic projectors" >
    <i type="logical" name="LREAL"> T  </i>
    <v name="ROPT">     -0.00050000     -0.00050000</v>
    <i type="int" name="LMAXPAW">  -100</i>
    <i type="int" name="LMAXMIX">     2</i>
    <i type="logical" name="NLSPLINE"> F  </i>
   </separator>
   <separator name="electronic startup" >
    <i type="int" name="ISTART">     0</i>
    <i type="int" name="ICHARG">     2</i>
    <i type="int" name="INIWAV">     1</i>
   </separator>
   <separator name="electronic spin" >
    <i type="int" name="ISPIN">     1</i>
    <i type="logical" name="LNONCOLLINEAR"> F  </i>
    <v name="MAGMOM">      1.00000000      1.00000000      1.00000000      1.00000000      1.00000000      1.00000000      1.00000000      1.00000000      1.00000000      1.00000000      1.00000000      1.00000000      1.00000000      1.00000000      1.00000000      1.00000000      1.00000000      1.00000000      1.00000000      1.00000000
      1.00000000      1.00000000      1.00000000      1.00000000      1.00000000      1.00000000      1.00000000      1.00000000      1.00000000      1.00000000      1.00000000      1.00000000      1.00000000      1.00000000      1.00000000      1.00000000      1.00000000      1.00000000      1.00000000      1.00000000
      1.00000000      1.00000000      1.00000000      1.00000000      1.00000000      1.00000000      1.00000000      1.00000000</v>
    <i name="NUPDOWN">     -1.00000000</i>
    <i type="logical" name="LSORBIT"> F  </i>
    <v name="SAXIS">      0.00000000      0.00000000      1.00000000</v>
    <i type="logical" name="LSPIRAL"> F  </i>
    <v name="QSPIRAL">      0.00000000      0.00000000      0.00000000</v>
    <i type="logical" name="LZEROZ"> F  </i>
   </separator>
   <separator name="electronic exchange-correlation" >
    <i type="logical" name="LASPH"> F  </i>
    <i type="logical" name="LMETAGGA"> F  </i>
   </separator>
   <separator name="electronic convergence" >
    <i type="int" name="NELM">   500</i>
    <i type="int" name="NELMDL">    -5</i>
    <i type="int" name="NELMIN">     2</i>
    <i name="ENINI">    400.00000000</i>
    <separator name="electronic convergence detail" >
     <i type="logical" name="LDIAG"> T  </i>
     <i type="logical" name="LSUBROT"> F  </i>
     <i name="WEIMIN">      0.00100000</i>
     <i name="EBREAK">      0.00000000</i>
     <i name="DEPER">      0.30000000</i>
     <i type="int" name="NRMM">     4</i>
     <i name="TIME">      0.40000000</i>
    </separator>
   </separator>
   <separator name="electronic mixer" >
    <i name="AMIX">      0.40000000</i>
    <i name="BMIX">      1.00000000</i>
    <i name="AMIN">      0.10000000</i>
    <i name="AMIX_MAG">      1.60000000</i>
    <i name="BMIX_MAG">      1.00000000</i>
    <separator name="electronic mixer details" >
     <i type="int" name="IMIX">     4</i>
     <i type="logical" name="MIXFIRST"> F  </i>
     <i type="int" name="MAXMIX">   -45</i>
     <i name="WC">    100.00000000</i>
     <i type="int" name="INIMIX">     1</i>
     <i type="int" name="MIXPRE">     1</i>
     <i type="int" name="MREMOVE">     5</i>
    </separator>
   </separator>
   <separator name="electronic dipolcorrection" >
    <i type="logical" name="LDIPOL"> T  </i>
    <i type="logical" name="LMONO"> F  </i>
    <i type="int" name="IDIPOL">     3</i>
    <i name="EPSILON">      1.00000000</i>
    <v name="DIPOL">      0.00000000      0.00000000      0.50000000</v>
    <i name="EFIELD">      0.00000000</i>
   </separator>
  </separator>
  <separator name="grids" >
   <i type="int" name="NGX">    54</i>
   <i type="int" name="NGY">    54</i>
   <i type="int" name="NGZ">   120</i>
   <i type="int" name="NGXF">   108</i>
   <i type="int" name="NGYF">   108</i>
   <i type="int" name="NGZF">   240</i>
   <i type="logical" name="ADDGRID"> F  </i>
  </separator>
  <separator name="ionic" >
   <i type="int" name="NSW">   500</i>
   <i type="int" name="IBRION">     2</i>
   <i type="int" name="ISIF">     0</i>
   <i name="PSTRESS">      0.00000000</i>
   <i name="EDIFFG">     -0.02000000</i>
   <i type="int" name="NFREE">     2</i>
   <i name="POTIM">      0.35000000</i>
   <i name="SMASS">     -3.00000000</i>
   <i name="SCALEE">      1.00000000</i>
  </separator>
  <separator name="ionic md" >
   <i name="TEBEG">      0.00010000</i>
   <i name="TEEND">      0.00010000</i>
   <i type="int" name="NBLOCK">     1</i>
   <i type="int" name="KBLOCK">   500</i>
   <i type="int" name="NPACO">   256</i>
   <i name="APACO">     16.00000000</i>
  </separator>
  <separator name="symmetry" >
   <i type="int" name="ISYM">     2</i>
   <i name="SYMPREC">      0.00001000</i>
  </separator>
  <separator name="dos" >
   <i type="logical" name="LORBIT"> F  </i>
   <v name="RWIGS">     -1.00000000     -1.00000000</v>
   <i type="int" name="NEDOS">   301</i>
   <i name="EMIN">     10.00000000</i>
   <i name="EMAX">    -10.00000000</i>
   <i name="EFERMI">      0.00000000</i>
  </separator>
  <separator name="writing" >
   <i type="int" name="NWRITE">     1</i>
   <i type="logical" name="LWAVE"> F  </i>
   <i type="logical" name="LCHARG"> F  </i>
   <i type="logical" name="LPARD"> F  </i>
   <i type="logical" name="LVTOT"> F  </i>
   <i type="logical" name="LVHAR"> F  </i>
   <i type="logical" name="LELF"> F  </i>
   <i type="logical" name="LOPTICS"> F  </i>
   <v name="STM">      0.00000000      0.00000000      0.00000000      0.00000000      0.00000000      0.00000000      0.00000000</v>
  </separator>
  <separator name="performance" >
   <i type="int" name="NPAR">     6</i>
   <i type="int" name="NSIM">     4</i>
   <i type="int" name="NBLK">    -1</i>
   <i type="logical" name="LPLANE"> T  </i>
   <i type="logical" name="LSCALAPACK"> T  </i>
   <i type="logical" name="LSCAAWARE"> F  </i>
   <i type="logical" name="LSCALU"> F  </i>
   <i type="logical" name="LASYNC"> F  </i>
   <i type="logical" name="LORBITALREAL"> F  </i>
  </separator>
  <separator name="miscellaneous" >
   <i type="int" name="IDIOT">     3</i>
   <i type="logical" name="LMUSIC"> F  </i>
   <v name="POMASS">    196.96600000    106.42000000</v>
   <v name="DARWINR">      0.00000000      0.00000000</v>
   <v name="DARWINV">      1.00000000      1.00000000</v>
   <i type="logical" name="LCORR"> T  </i>
  </separator>
  <i type="logical" name="GGA_COMPAT"> T  </i>
  <i type="logical" name="LBERRY"> F  </i>
  <i type="int" name="ICORELEVEL">     0</i>
  <i type="logical" name="LDAU"> F  </i>
  <i type="int" name="I_CONSTRAINED_M">     0</i>
  <separator name="electronic exchange-correlation" >
   <i type="string" name="GGA">PE</i>
   <i type="int" name="VOSKOWN">     1</i>
   <i type="logical" name="LHFCALC"> F  </i>
   <i type="string" name="PRECFOCK"></i>
   <i type="logical" name="LSYMGRAD"> F  </i>
   <i type="logical" name="LHFONE"> F  </i>
   <i type="logical" name="LRHFCALC"> F  </i>
   <i type="logical" name="LTHOMAS"> F  </i>
   <i type="logical" name="LMODELHF"> F  </i>
   <i name="ENCUT4O">     -1.00000000</i>
   <i type="int" name="EXXOEP">     0</i>
   <i type="int" name="FOURORBIT">     0</i>
   <i name="AEXX">      0.00000000</i>
   <i name="HFALPHA">      0.00000000</i>
   <i name="MCALPHA">      0.00000000</i>
   <i name="ALDAX">      1.00000000</i>
   <i name="AGGAX">      1.00000000</i>
   <i name="ALDAC">      1.00000000</i>
   <i name="AGGAC">      1.00000000</i>
   <i type="int" name="NKREDX">     1</i>
   <i type="int" name="NKREDY">     1</i>
   <i type="int" name="NKREDZ">     1</i>
   <i type="logical" name="SHIFTRED"> F  </i>
   <i type="logical" name="ODDONLY"> F  </i>
   <i type="logical" name="EVENONLY"> F  </i>
   <i type="int" name="LMAXFOCK">     0</i>
   <i type="int" name="NMAXFOCKAE">     0</i>
   <i type="logical" name="LFOCKAEDFT"> F  </i>
   <i name="HFSCREEN">      0.00000000</i>
   <i name="HFSCREENC">      0.00000000</i>
   <i type="int" name="NBANDSGWLOW">     0</i>
  </separator>
  <separator name="vdW DFT" >
   <i type="logical" name="LUSE_VDW"> F  </i>
   <i name="Zab_VDW">     -0.84910000</i>
   <i name="PARAM1">      0.12340000</i>
   <i name="PARAM2">      1.00000000</i>
   <i name="PARAM3">      0.00000000</i>
  </separator>
  <separator name="model GW" >
   <i type="int" name="MODEL_GW">     0</i>
   <i name="MODEL_EPS0">     32.09595293</i>
   <i name="MODEL_ALPHA">      1.00000000</i>
  </separator>
  <separator name="linear response parameters" >
   <i type="logical" name="LEPSILON"> F  </i>
   <i type="logical" name="LRPA"> F  </i>
   <i type="logical" name="LNABLA"> F  </i>
   <i type="logical" name="LVEL"> F  </i>
   <i type="int" name="KINTER">     0</i>
   <i name="CSHIFT">      0.10000000</i>
   <i name="OMEGAMAX">     -1.00000000</i>
   <i name="DEG_THRESHOLD">      0.00200000</i>
  </separator>
  <separator name="orbital magnetization" >
   <i type="logical" name="NUCIND"> F  </i>
   <v name="MAGPOS">      0.00000000      0.00000000      0.00000000</v>
   <i type="logical" name="LNICSALL"> T  </i>
   <i type="logical" name="ORBITALMAG"> F  </i>
   <i type="logical" name="LMAGBLOCH"> F  </i>
   <i type="logical" name="LCHIMAG"> F  </i>
   <i type="logical" name="LGAUGE"> T  </i>
   <i type="int" name="MAGATOM">     0</i>
   <v name="MAGDIPOL">      0.00000000      0.00000000      0.00000000</v>
   <v name="AVECCONST">      0.00000000      0.00000000      0.00000000</v>
  </separator>
  <separator name="response functions" >
   <i type="logical" name="LADDER"> F  </i>
   <i type="logical" name="LFXC"> F  </i>
   <i type="logical" name="LHARTREE"> T  </i>
   <i type="int" name="IBSE">     0</i>
   <v type="int" name="KPOINT">    -1     0     0     0</v>
   <i type="logical" name="LTCTE"> F  </i>
   <i type="logical" name="LTETE"> F  </i>
   <i type="logical" name="LTRIPLET"> F  </i>
   <i type="logical" name="LFXCEPS"> F  </i>
   <i type="logical" name="LFXHEG"> F  </i>
   <i type="int" name="NATURALO">     0</i>
   <i type="logical" name="L2ORDER"> F  </i>
   <i type="logical" name="LUSEW"> F  </i>
   <i name="ENCUTGW">     -2.00000000</i>
   <i name="ENCUTGWSOFT">     -2.00000000</i>
   <i name="ENCUTLF">     -1.00000000</i>
   <i type="int" name="LMAXMP2">    -1</i>
   <i name="SCISSOR">      0.00000000</i>
   <i type="int" name="NOMEGA">     0</i>
   <i type="int" name="NOMEGAR">     0</i>
   <i type="int" name="NBANDSGW">    -1</i>
   <i type="int" name="NBANDSO">    -1</i>
   <i type="int" name="NBANDSV">    -1</i>
   <i type="int" name="NELM">   500</i>
   <i type="int" name="NELMHF">     1</i>
   <i type="int" name="DIM">     3</i>
   <i type="int" name="ANTIRES">     0</i>
   <i name="OMEGAMAX">    -30.00000000</i>
   <i name="OMEGAMIN">    -30.00000000</i>
   <i name="OMEGATL">   -200.00000000</i>
   <i type="int" name="OMEGAGRID">     0</i>
   <i name="CSHIFT">     -0.10000000</i>
   <i type="logical" name="SELFENERGY"> F  </i>
   <i type="logical" name="LSPECTRAL"> F  </i>
   <i type="logical" name="LSPECTRALGW"> F  </i>
   <i type="logical" name="LSINGLES"> F  </i>
   <i type="logical" name="LFERMIGW"> F  </i>
   <i type="logical" name="ODDONLYGW"> F  </i>
   <i type="logical" name="EVENONLYGW"> F  </i>
   <i type="int" name="NKREDLFX">     1</i>
   <i type="int" name="NKREDLFY">     1</i>
   <i type="int" name="NKREDLFZ">     1</i>
   <i type="int" name="MAXMEM">  1800</i>
   <i type="int" name="TELESCOPE">     0</i>
   <i type="int" name="TAUPAR">     1</i>
   <i type="int" name="OMEGAPAR">    -1</i>
   <i name="LAMBDA">      1.00000000</i>
  </separator>
  <separator name="External order field" >
   <i name="OFIELD_KAPPA">      0.00000000</i>
   <v name="OFIELD_K">      0.00000000      0.00000000      0.00000000</v>
   <i name="OFIELD_Q6_NEAR">      0.00000000</i>
   <i name="OFIELD_Q6_FAR">      0.00000000</i>
   <i name="OFIELD_A">      0.00000000</i>
  </separator>
 </parameters>
 <atominfo>
  <atoms>      48 </atoms>
  <types>       2 </types>
  <array name="atoms" >
   <dimension dim="1">ion</dimension>
   <field type="string">element</field>
   <field type="int">atomtype</field>
   <set>
    <rc><c>Au</c><c>   1</c></rc>
    <rc><c>Au</c><c>   1</c></rc>
    <rc><c>Au</c><c>   1</c></rc>
    <rc><c>Au</c><c>   1</c></rc>
    <rc><c>Au</c><c>   1</c></rc>
    <rc><c>Au</c><c>   1</c></rc>
    <rc><c>Au</c><c>   1</c></rc>
    <rc><c>Au</c><c>   1</c></rc>
    <rc><c>Au</c><c>   1</c></rc>
    <rc><c>Au</c><c>   1</c></rc>
    <rc><c>Au</c><c>   1</c></rc>
    <rc><c>Au</c><c>   1</c></rc>
    <rc><c>Au</c><c>   1</c></rc>
    <rc><c>Au</c><c>   1</c></rc>
    <rc><c>Au</c><c>   1</c></rc>
    <rc><c>Au</c><c>   1</c></rc>
    <rc><c>Au</c><c>   1</c></rc>
    <rc><c>Au</c><c>   1</c></rc>
    <rc><c>Au</c><c>   1</c></rc>
    <rc><c>Au</c><c>   1</c></rc>
    <rc><c>Au</c><c>   1</c></rc>
    <rc><c>Au</c><c>   1</c></rc>
    <rc><c>Au</c><c>   1</c></rc>
    <rc><c>Au</c><c>   1</c></rc>
    <rc><c>Pd</c><c>   2</c></rc>
    <rc><c>Pd</c><c>   2</c></rc>
    <rc><c>Pd</c><c>   2</c></rc>
    <rc><c>Pd</c><c>   2</c></rc>
    <rc><c>Pd</c><c>   2</c></rc>
    <rc><c>Pd</c><c>   2</c></rc>
    <rc><c>Pd</c><c>   2</c></rc>
    <rc><c>Pd</c><c>   2</c></rc>
    <rc><c>Pd</c><c>   2</c></rc>
    <rc><c>Pd</c><c>   2</c></rc>
    <rc><c>Pd</c><c>   2</c></rc>
    <rc><c>Pd</c><c>   2</c></rc>
    <rc><c>Pd</c><c>   2</c></rc>
    <rc><c>Pd</c><c>   2</c></rc>
    <rc><c>Pd</c><c>   2</c></rc>
    <rc><c>Pd</c><c>   2</c></rc>
    <rc><c>Pd</c><c>   2</c></rc>
    <rc><c>Pd</c><c>   2</c></rc>
    <rc><c>Pd</c><c>   2</c></rc>
    <rc><c>Pd</c><c>   2</c></rc>
    <rc><c>Pd</c><c>   2</c></rc>
    <rc><c>Pd</c><c>   2</c></rc>
    <rc><c>Pd</c><c>   2</c></rc>
    <rc><c>Pd</c><c>   2</c></rc>
   </set>
  </array>
  <array name="atomtypes" >
   <dimension dim="1">type</dimension>
   <field type="int">atomspertype</field>
   <field type="string">element</field>
   <field>mass</field>
   <field>valence</field>
   <field type="string">pseudopotential</field>
   <set>
    <rc><c>  24</c><c>Au</c><c>    196.96600000</c><c>     11.00000000</c><c>  PAW_PBE Au 04Oct2007                  </c></rc>
    <rc><c>  24</c><c>Pd</c><c>    106.42000000</c><c>     10.00000000</c><c>  PAW_PBE Pd 04Jan2005                  </c></rc>
   </set>
  </array>
 </atominfo>
 <structure name="initialpos" >
  <crystal>
   <varray name="basis" >
    <v>      11.00258152       0.00000000       0.00000000 </v>
    <v>       5.50129076       9.52851510       0.00000000 </v>
    <v>       0.00000000       0.00000000      24.49178509 </v>
   </varray>
   <i name="volume">   2567.67623402 </i>
   <varray name="rec_basis" >
    <v>       0.09088776      -0.05247407       0.00000000 </v>
    <v>       0.00000000       0.10494815       0.00000000 </v>
    <v>       0.00000000       0.00000000       0.04083002 </v>
   </varray>
  </crystal>
  <varray name="positions" >
   <v>       0.16666667       0.41666667       0.50000000 </v>
   <v>       0.58333333       0.08333333       0.40830017 </v>
   <v>       0.66666667       0.91666667       0.50000000 </v>
   <v>       0.16666667       0.91666667       0.50000000 </v>
   <v>       0.75000000       0.00000000       0.59169983 </v>
   <v>       0.25000000       0.50000000       0.59169983 </v>
   <v>       0.16666667       0.66666667       0.50000000 </v>
   <v>       0.33333333       0.58333333       0.40830017 </v>
   <v>       0.25000000       0.25000000       0.59169983 </v>
   <v>       0.41666667       0.66666667       0.50000000 </v>
   <v>       0.83333333       0.33333333       0.40830017 </v>
   <v>       0.25000000       0.00000000       0.59169983 </v>
   <v>       0.41666667       0.16666667       0.50000000 </v>
   <v>       0.16666667       0.16666667       0.50000000 </v>
   <v>       0.00000000       0.50000000       0.59169983 </v>
   <v>       0.58333333       0.58333333       0.40830017 </v>
   <v>       0.08333333       0.58333333       0.40830017 </v>
   <v>       0.00000000       0.25000000       0.59169983 </v>
   <v>       0.83333333       0.83333333       0.40830017 </v>
   <v>       0.08333333       0.33333333       0.40830017 </v>
   <v>       0.00000000       0.00000000       0.59169983 </v>
   <v>       0.91666667       0.16666667       0.50000000 </v>
   <v>       0.66666667       0.41666667       0.50000000 </v>
   <v>       0.66666667       0.16666667       0.50000000 </v>
   <v>       0.83333333       0.08333333       0.40830017 </v>
   <v>       0.50000000       0.75000000       0.59169983 </v>
   <v>       0.41666667       0.91666667       0.50000000 </v>
   <v>       0.08333333       0.08333333       0.40830017 </v>
   <v>       0.83333333       0.58333333       0.40830017 </v>
   <v>       0.66666667       0.66666667       0.50000000 </v>
   <v>       0.75000000       0.50000000       0.59169983 </v>
   <v>       0.75000000       0.25000000       0.59169983 </v>
   <v>       0.58333333       0.83333333       0.40830017 </v>
   <v>       0.25000000       0.75000000       0.59169983 </v>
   <v>       0.50000000       0.25000000       0.59169983 </v>
   <v>       0.41666667       0.41666667       0.50000000 </v>
   <v>       0.58333333       0.33333333       0.40830017 </v>
   <v>       0.50000000       0.00000000       0.59169983 </v>
   <v>       0.33333333       0.83333333       0.40830017 </v>
   <v>       0.33333333       0.33333333       0.40830017 </v>
   <v>       0.33333333       0.08333333       0.40830017 </v>
   <v>       0.00000000       0.75000000       0.59169983 </v>
   <v>       0.91666667       0.91666667       0.50000000 </v>
   <v>       0.08333333       0.83333333       0.40830017 </v>
   <v>       0.91666667       0.66666667       0.50000000 </v>
   <v>       0.91666667       0.41666667       0.50000000 </v>
   <v>       0.50000000       0.50000000       0.59169983 </v>
   <v>       0.75000000       0.75000000       0.59169983 </v>
  </varray>
 </structure>
 <calculation>
  <scstep>
   <time name="dav">    9.20    9.20</time>
   <time name="total">    9.26    9.27</time>
   <dipole>
    <v name="dipole">      0.00000000       0.00000000       0.00000000 </v>
    <i name="Tr[quadrupol]"> -10225.20042979 </i>
    <i name="Echarged">      0.00000000 </i>
    <i name="Edipol_quadrupol">      0.00000000 </i>
    <i name="Eion">      0.00000000 </i>
   </dipole>
   <energy>
    <i name="alphaZ">    805.86936429 </i>
    <i name="ewald"> 200635.49736355 </i>
    <i name="hartreedc">-243051.84689169 </i>
    <i name="XCdc">   -327.49327847 </i>
    <i name="pawpsdc">  40340.05962942 </i>
    <i name="pawaedc"> -38292.62782345 </i>
    <i name="eentropy">     -0.14044895 </i>
    <i name="bandstr">   1432.62570414 </i>
    <i name="atom">  41659.78587232 </i>
    <i name="e_fr_energy">   3201.72949115 </i>
    <i name="e_wo_entrp">   3201.86994010 </i>
    <i name="e_0_energy">   3201.79971563 </i>
   </energy>
  </scstep>
  <scstep>
   <time name="dav">   11.00   11.08</time>
   <time name="total">   11.00   11.09</time>
   <dipole>
    <v name="dipole">      0.00000000       0.00000000       0.00000000 </v>
    <i name="Tr[quadrupol]"> -10225.20042979 </i>
    <i name="Echarged">      0.00000000 </i>
    <i name="Edipol_quadrupol">      0.00000000 </i>
    <i name="Eion">      0.00000000 </i>
   </dipole>
   <energy>
    <i name="e_fr_energy">     15.61556158 </i>
    <i name="e_wo_entrp">     15.74733505 </i>
    <i name="e_0_energy">     15.68144832 </i>
   </energy>
  </scstep>
  <scstep>
   <time name="dav">   11.37   11.40</time>
   <time name="total">   11.38   11.41</time>
   <dipole>
    <v name="dipole">      0.00000000       0.00000000       0.00000000 </v>
    <i name="Tr[quadrupol]"> -10225.20042979 </i>
    <i name="Echarged">      0.00000000 </i>
    <i name="Edipol_quadrupol">      0.00000000 </i>
    <i name="Eion">      0.00000000 </i>
   </dipole>
   <energy>
    <i name="e_fr_energy">   -199.69524334 </i>
    <i name="e_wo_entrp">   -199.48216069 </i>
    <i name="e_0_energy">   -199.58870201 </i>
   </energy>
  </scstep>
  <scstep>
   <time name="dav">   10.91   10.91</time>
   <time name="total">   10.91   10.92</time>
   <dipole>
    <v name="dipole">      0.00000000       0.00000000       0.00000000 </v>
    <i name="Tr[quadrupol]"> -10225.20042979 </i>
    <i name="Echarged">      0.00000000 </i>
    <i name="Edipol_quadrupol">      0.00000000 </i>
    <i name="Eion">      0.00000000 </i>
   </dipole>
   <energy>
    <i name="e_fr_energy">   -205.45701670 </i>
    <i name="e_wo_entrp">   -205.22984806 </i>
    <i name="e_0_energy">   -205.34343238 </i>
   </energy>
  </scstep>
  <scstep>
   <time name="dav">   11.28   11.29</time>
   <time name="total">   11.60   11.62</time>
   <dipole>
    <v name="dipole">      0.00000000       0.00000000       0.00000000 </v>
    <i name="Tr[quadrupol]"> -10225.20042979 </i>
    <i name="Echarged">      0.00000000 </i>
    <i name="Edipol_quadrupol">      0.00000000 </i>
    <i name="Eion">      0.00000000 </i>
   </dipole>
   <energy>
    <i name="e_fr_energy">   -205.63437689 </i>
    <i name="e_wo_entrp">   -205.40633802 </i>
    <i name="e_0_energy">   -205.52035745 </i>
   </energy>
  </scstep>
  <scstep>
   <time name="diag">    1.61    1.68</time>
   <time name="diis">    4.31    4.31</time>
   <time name="orth">    0.40    0.40</time>
   <time name="total">    6.70    6.77</time>
   <dipole>
    <v name="dipole">      0.00000000       0.00000000      -0.01195938 </v>
    <i name="Tr[quadrupol]"> -10225.19214312 </i>
    <i name="Echarged">      0.00000000 </i>
    <i name="Edipol_quadrupol">      0.00000000 </i>
    <i name="Eion">      0.00000000 </i>
   </dipole>
   <energy>
    <i name="e_fr_energy">   -197.90881631 </i>
    <i name="e_wo_entrp">   -197.67245887 </i>
    <i name="e_0_energy">   -197.79063759 </i>
   </energy>
  </scstep>
  <scstep>
   <time name="diag">    1.66    1.66</time>
   <time name="diis">    4.44    4.45</time>
   <time name="orth">    0.40    0.40</time>
   <time name="total">    6.88    6.88</time>
   <dipole>
    <v name="dipole">      0.00000000       0.00000000      -0.41730941 </v>
    <i name="Tr[quadrupol]"> -10225.19300574 </i>
    <i name="Echarged">      0.00000000 </i>
    <i name="Edipol_quadrupol">      0.00000000 </i>
    <i name="Eion">      0.00000000 </i>
   </dipole>
   <energy>
    <i name="e_fr_energy">   -199.86192644 </i>
    <i name="e_wo_entrp">   -199.66995972 </i>
    <i name="e_0_energy">   -199.76594308 </i>
   </energy>
  </scstep>
  <scstep>
   <time name="diag">    1.65    1.65</time>
   <time name="diis">    4.45    4.45</time>
   <time name="orth">    0.40    0.40</time>
   <time name="total">    6.87    6.88</time>
   <dipole>
    <v name="dipole">      0.00000000       0.00000000       1.48057419 </v>
    <i name="Tr[quadrupol]"> -10226.93395660 </i>
    <i name="Echarged">      0.00000000 </i>
    <i name="Edipol_quadrupol">      0.00000000 </i>
    <i name="Eion">      0.00000000 </i>
   </dipole>
   <energy>
    <i name="e_fr_energy">   -213.05660233 </i>
    <i name="e_wo_entrp">   -212.79345013 </i>
    <i name="e_0_energy">   -212.92502623 </i>
   </energy>
  </scstep>
  <scstep>
   <time name="diag">    1.65    1.65</time>
   <time name="diis">    4.50    4.51</time>
   <time name="orth">    0.50    0.50</time>
   <time name="total">    7.14    7.16</time>
   <dipole>
    <v name="dipole">      0.00000000       0.00000000      -1.15241229 </v>
    <i name="Tr[quadrupol]"> -10227.81665538 </i>
    <i name="Echarged">      0.00000000 </i>
    <i name="Edipol_quadrupol">      0.00000000 </i>
    <i name="Eion">      0.00000000 </i>
   </dipole>
   <energy>
    <i name="e_fr_energy">   -209.86679091 </i>
    <i name="e_wo_entrp">   -209.66261036 </i>
    <i name="e_0_energy">   -209.76470063 </i>
   </energy>
  </scstep>
  <scstep>
   <time name="diag">    2.00    2.01</time>
   <time name="diis">    4.44    4.44</time>
   <time name="orth">    0.40    0.40</time>
   <time name="total">    7.22    7.24</time>
   <dipole>
    <v name="dipole">      0.00000000       0.00000000       0.17623409 </v>
    <i name="Tr[quadrupol]"> -10227.73322264 </i>
    <i name="Echarged">      0.00000000 </i>
    <i name="Edipol_quadrupol">      0.00000000 </i>
    <i name="Eion">      0.00000000 </i>
   </dipole>
   <energy>
    <i name="e_fr_energy">   -193.60804344 </i>
    <i name="e_wo_entrp">   -193.39513194 </i>
    <i name="e_0_energy">   -193.50158769 </i>
   </energy>
  </scstep>
  <scstep>
   <time name="diag">    1.65    1.66</time>
   <time name="diis">    4.42    4.44</time>
   <time name="orth">    0.38    0.40</time>
   <time name="total">    6.82    6.88</time>
   <dipole>
    <v name="dipole">      0.00000000       0.00000000       0.04405483 </v>
    <i name="Tr[quadrupol]"> -10227.23190426 </i>
    <i name="Echarged">      0.00000000 </i>
    <i name="Edipol_quadrupol">      0.00000000 </i>
    <i name="Eion">      0.00000000 </i>
   </dipole>
   <energy>
    <i name="e_fr_energy">   -188.96454492 </i>
    <i name="e_wo_entrp">   -188.77562842 </i>
    <i name="e_0_energy">   -188.87008667 </i>
   </energy>
  </scstep>
  <scstep>
   <time name="diag">    1.64    1.64</time>
   <time name="diis">    4.36    4.36</time>
   <time name="orth">    0.39    0.39</time>
   <time name="total">    6.75    6.76</time>
   <dipole>
    <v name="dipole">      0.00000000       0.00000000       0.03509979 </v>
    <i name="Tr[quadrupol]"> -10228.14024482 </i>
    <i name="Echarged">      0.00000000 </i>
    <i name="Edipol_quadrupol">      0.00000000 </i>
    <i name="Eion">      0.00000000 </i>
   </dipole>
   <energy>
    <i name="e_fr_energy">   -188.14577483 </i>
    <i name="e_wo_entrp">   -187.88722849 </i>
    <i name="e_0_energy">   -188.01650166 </i>
   </energy>
  </scstep>
  <scstep>
   <time name="diag">    1.63    1.64</time>
   <time name="diis">    4.44    4.44</time>
   <time name="orth">    0.39    0.39</time>
   <time name="total">    6.82    6.83</time>
   <dipole>
    <v name="dipole">      0.00000000       0.00000000       0.00491017 </v>
    <i name="Tr[quadrupol]"> -10228.16895314 </i>
    <i name="Echarged">      0.00000000 </i>
    <i name="Edipol_quadrupol">      0.00000000 </i>
    <i name="Eion">      0.00000000 </i>
   </dipole>
   <energy>
    <i name="e_fr_energy">   -188.14218167 </i>
    <i name="e_wo_entrp">   -187.89285013 </i>
    <i name="e_0_energy">   -188.01751590 </i>
   </energy>
  </scstep>
  <scstep>
   <time name="diag">    1.63    1.63</time>
   <time name="diis">    4.44    4.44</time>
   <time name="orth">    0.39    0.39</time>
   <time name="total">    6.82    6.83</time>
   <dipole>
    <v name="dipole">      0.00000000       0.00000000      -0.03278667 </v>
    <i name="Tr[quadrupol]"> -10228.40131884 </i>
    <i name="Echarged">      0.00000000 </i>
    <i name="Edipol_quadrupol">      0.00000000 </i>
    <i name="Eion">      0.00000000 </i>
   </dipole>
   <energy>
    <i name="e_fr_energy">   -188.06630804 </i>
    <i name="e_wo_entrp">   -187.82495726 </i>
    <i name="e_0_energy">   -187.94563265 </i>
   </energy>
  </scstep>
  <scstep>
   <time name="diag">    1.63    1.63</time>
   <time name="diis">    4.45    4.45</time>
   <time name="orth">    0.39    0.39</time>
   <time name="total">    6.83    6.84</time>
   <dipole>
    <v name="dipole">      0.00000000       0.00000000      -0.02228509 </v>
    <i name="Tr[quadrupol]"> -10228.62558921 </i>
    <i name="Echarged">      0.00000000 </i>
    <i name="Edipol_quadrupol">      0.00000000 </i>
    <i name="Eion">      0.00000000 </i>
   </dipole>
   <energy>
    <i name="e_fr_energy">   -187.93844385 </i>
    <i name="e_wo_entrp">   -187.69071882 </i>
    <i name="e_0_energy">   -187.81458133 </i>
   </energy>
  </scstep>
  <scstep>
   <time name="diag">    1.64    1.64</time>
   <time name="diis">    4.36    4.37</time>
   <time name="orth">    0.39    0.39</time>
   <time name="total">    6.75    6.76</time>
   <dipole>
    <v name="dipole">      0.00000000       0.00000000      -0.03211613 </v>
    <i name="Tr[quadrupol]"> -10228.89405271 </i>
    <i name="Echarged">      0.00000000 </i>
    <i name="Edipol_quadrupol">      0.00000000 </i>
    <i name="Eion">      0.00000000 </i>
   </dipole>
   <energy>
    <i name="e_fr_energy">   -187.85548949 </i>
    <i name="e_wo_entrp">   -187.60708837 </i>
    <i name="e_0_energy">   -187.73128893 </i>
   </energy>
  </scstep>
  <scstep>
   <time name="diag">    1.64    1.64</time>
   <time name="diis">    4.34    4.42</time>
   <time name="orth">    0.39    0.39</time>
   <time name="total">    6.73    6.82</time>
   <dipole>
    <v name="dipole">      0.00000000       0.00000000      -0.01182653 </v>
    <i name="Tr[quadrupol]"> -10229.21375401 </i>
    <i name="Echarged">      0.00000000 </i>
    <i name="Edipol_quadrupol">      0.00000000 </i>
    <i name="Eion">      0.00000000 </i>
   </dipole>
   <energy>
    <i name="e_fr_energy">   -187.84238482 </i>
    <i name="e_wo_entrp">   -187.59045754 </i>
    <i name="e_0_energy">   -187.71642118 </i>
   </energy>
  </scstep>
  <scstep>
   <time name="diag">    1.64    1.64</time>
   <time name="diis">    5.04    5.08</time>
   <time name="orth">    0.40    0.40</time>
   <time name="total">    7.45    7.49</time>
   <dipole>
    <v name="dipole">      0.00000000       0.00000000      -0.01087059 </v>
    <i name="Tr[quadrupol]"> -10229.32877928 </i>
    <i name="Echarged">      0.00000000 </i>
    <i name="Edipol_quadrupol">      0.00000000 </i>
    <i name="Eion">      0.00000000 </i>
   </dipole>
   <energy>
    <i name="e_fr_energy">   -187.81304771 </i>
    <i name="e_wo_entrp">   -187.55608470 </i>
    <i name="e_0_energy">   -187.68456621 </i>
   </energy>
  </scstep>
  <scstep>
   <time name="diag">    1.64    1.64</time>
   <time name="diis">    4.34    4.35</time>
   <time name="orth">    0.39    0.39</time>
   <time name="total">    6.74    6.75</time>
   <dipole>
    <v name="dipole">      0.00000000       0.00000000      -0.01413886 </v>
    <i name="Tr[quadrupol]"> -10229.43412546 </i>
    <i name="Echarged">      0.00000000 </i>
    <i name="Edipol_quadrupol">      0.00000000 </i>
    <i name="Eion">      0.00000000 </i>
   </dipole>
   <energy>
    <i name="e_fr_energy">   -187.80807550 </i>
    <i name="e_wo_entrp">   -187.54956512 </i>
    <i name="e_0_energy">   -187.67882031 </i>
   </energy>
  </scstep>
  <scstep>
   <time name="diag">    1.64    1.64</time>
   <time name="diis">    4.45    4.45</time>
   <time name="orth">    0.39    0.39</time>
   <time name="total">    6.86    6.86</time>
   <dipole>
    <v name="dipole">      0.00000000       0.00000000      -0.01154811 </v>
    <i name="Tr[quadrupol]"> -10229.59488767 </i>
    <i name="Echarged">      0.00000000 </i>
    <i name="Edipol_quadrupol">      0.00000000 </i>
    <i name="Eion">      0.00000000 </i>
   </dipole>
   <energy>
    <i name="e_fr_energy">   -187.80699373 </i>
    <i name="e_wo_entrp">   -187.54927209 </i>
    <i name="e_0_energy">   -187.67813291 </i>
   </energy>
  </scstep>
  <scstep>
   <time name="diag">    1.64    1.64</time>
   <time name="diis">    4.30    4.30</time>
   <time name="orth">    0.39    0.39</time>
   <time name="total">    6.69    6.70</time>
   <dipole>
    <v name="dipole">      0.00000000       0.00000000      -0.01429603 </v>
    <i name="Tr[quadrupol]"> -10229.74384131 </i>
    <i name="Echarged">      0.00000000 </i>
    <i name="Edipol_quadrupol">      0.00000000 </i>
    <i name="Eion">      0.00000000 </i>
   </dipole>
   <energy>
    <i name="e_fr_energy">   -187.80517895 </i>
    <i name="e_wo_entrp">   -187.54633208 </i>
    <i name="e_0_energy">   -187.67575551 </i>
   </energy>
  </scstep>
  <scstep>
   <time name="diag">    1.63    1.63</time>
   <time name="diis">    4.43    4.44</time>
   <time name="orth">    0.39    0.39</time>
   <time name="total">    6.82    6.83</time>
   <dipole>
    <v name="dipole">      0.00000000       0.00000000      -0.01164084 </v>
    <i name="Tr[quadrupol]"> -10229.82860877 </i>
    <i name="Echarged">      0.00000000 </i>
    <i name="Edipol_quadrupol">      0.00000000 </i>
    <i name="Eion">      0.00000000 </i>
   </dipole>
   <energy>
    <i name="e_fr_energy">   -187.80443937 </i>
    <i name="e_wo_entrp">   -187.54550899 </i>
    <i name="e_0_energy">   -187.67497418 </i>
   </energy>
  </scstep>
  <scstep>
   <time name="diag">    1.64    1.64</time>
   <time name="diis">    4.29    4.36</time>
   <time name="orth">    0.39    0.39</time>
   <time name="total">    6.68    6.76</time>
   <dipole>
    <v name="dipole">      0.00000000       0.00000000      -0.00921508 </v>
    <i name="Tr[quadrupol]"> -10229.92022857 </i>
    <i name="Echarged">      0.00000000 </i>
    <i name="Edipol_quadrupol">      0.00000000 </i>
    <i name="Eion">      0.00000000 </i>
   </dipole>
   <energy>
    <i name="e_fr_energy">   -187.80433404 </i>
    <i name="e_wo_entrp">   -187.54505031 </i>
    <i name="e_0_energy">   -187.67469217 </i>
   </energy>
  </scstep>
  <scstep>
   <time name="diag">    1.64    1.65</time>
   <time name="diis">    4.46    4.47</time>
   <time name="orth">    0.39    0.39</time>
   <time name="total">    6.87    6.87</time>
   <dipole>
    <v name="dipole">      0.00000000       0.00000000      -0.00774431 </v>
    <i name="Tr[quadrupol]"> -10230.01427350 </i>
    <i name="Echarged">      0.00000000 </i>
    <i name="Edipol_quadrupol">      0.00000000 </i>
    <i name="Eion">      0.00000000 </i>
   </dipole>
   <energy>
    <i name="e_fr_energy">   -187.80453611 </i>
    <i name="e_wo_entrp">   -187.54521312 </i>
    <i name="e_0_energy">   -187.67487461 </i>
   </energy>
  </scstep>
  <scstep>
   <time name="diag">    1.64    1.64</time>
   <time name="diis">    4.42    4.42</time>
   <time name="orth">    0.39    0.39</time>
   <time name="total">    6.82    6.82</time>
   <dipole>
    <v name="dipole">      0.00000000       0.00000000      -0.00825494 </v>
    <i name="Tr[quadrupol]"> -10230.07620754 </i>
    <i name="Echarged">      0.00000000 </i>
    <i name="Edipol_quadrupol">      0.00000000 </i>
    <i name="Eion">      0.00000000 </i>
   </dipole>
   <energy>
    <i name="e_fr_energy">   -187.80487769 </i>
    <i name="e_wo_entrp">   -187.54554797 </i>
    <i name="e_0_energy">   -187.67521283 </i>
   </energy>
  </scstep>
  <scstep>
   <time name="diag">    1.63    1.63</time>
   <time name="diis">    4.44    4.44</time>
   <time name="orth">    0.39    0.39</time>
   <time name="total">    6.83    6.83</time>
   <dipole>
    <v name="dipole">      0.00000000       0.00000000      -0.00802987 </v>
    <i name="Tr[quadrupol]"> -10230.14739633 </i>
    <i name="Echarged">      0.00000000 </i>
    <i name="Edipol_quadrupol">      0.00000000 </i>
    <i name="Eion">      0.00000000 </i>
   </dipole>
   <energy>
    <i name="e_fr_energy">   -187.80531691 </i>
    <i name="e_wo_entrp">   -187.54573821 </i>
    <i name="e_0_energy">   -187.67552756 </i>
   </energy>
  </scstep>
  <scstep>
   <time name="diag">    1.82    1.83</time>
   <time name="diis">    4.87    4.88</time>
   <time name="orth">    0.39    0.39</time>
   <time name="total">    7.45    7.48</time>
   <dipole>
    <v name="dipole">      0.00000000       0.00000000      -0.00767478 </v>
    <i name="Tr[quadrupol]"> -10230.22729344 </i>
    <i name="Echarged">      0.00000000 </i>
    <i name="Edipol_quadrupol">      0.00000000 </i>
    <i name="Eion">      0.00000000 </i>
   </dipole>
   <energy>
    <i name="e_fr_energy">   -187.80599224 </i>
    <i name="e_wo_entrp">   -187.54647965 </i>
    <i name="e_0_energy">   -187.67623594 </i>
   </energy>
  </scstep>
  <scstep>
   <time name="diag">    1.65    1.66</time>
   <time name="diis">    4.31    4.32</time>
   <time name="orth">    0.39    0.39</time>
   <time name="total">    6.72    6.74</time>
   <dipole>
    <v name="dipole">      0.00000000       0.00000000      -0.00718128 </v>
    <i name="Tr[quadrupol]"> -10230.28122403 </i>
    <i name="Echarged">      0.00000000 </i>
    <i name="Edipol_quadrupol">      0.00000000 </i>
    <i name="Eion">      0.00000000 </i>
   </dipole>
   <energy>
    <i name="e_fr_energy">   -187.80650446 </i>
    <i name="e_wo_entrp">   -187.54698922 </i>
    <i name="e_0_energy">   -187.67674684 </i>
   </energy>
  </scstep>
  <scstep>
   <time name="diag">    1.64    1.64</time>
   <time name="diis">    4.08    4.15</time>
   <time name="orth">    0.39    0.39</time>
   <time name="total">    6.47    6.55</time>
   <dipole>
    <v name="dipole">      0.00000000       0.00000000      -0.00726252 </v>
    <i name="Tr[quadrupol]"> -10230.34878579 </i>
    <i name="Echarged">      0.00000000 </i>
    <i name="Edipol_quadrupol">      0.00000000 </i>
    <i name="Eion">      0.00000000 </i>
   </dipole>
   <energy>
    <i name="e_fr_energy">   -187.80714520 </i>
    <i name="e_wo_entrp">   -187.54770571 </i>
    <i name="e_0_energy">   -187.67742546 </i>
   </energy>
  </scstep>
  <scstep>
   <time name="diag">    1.63    1.63</time>
   <time name="diis">    3.96    3.96</time>
   <time name="orth">    0.39    0.39</time>
   <time name="total">    6.35    6.35</time>
   <dipole>
    <v name="dipole">      0.00000000       0.00000000      -0.00707324 </v>
    <i name="Tr[quadrupol]"> -10230.39274755 </i>
    <i name="Echarged">      0.00000000 </i>
    <i name="Edipol_quadrupol">      0.00000000 </i>
    <i name="Eion">      0.00000000 </i>
   </dipole>
   <energy>
    <i name="e_fr_energy">   -187.80751112 </i>
    <i name="e_wo_entrp">   -187.54803501 </i>
    <i name="e_0_energy">   -187.67777306 </i>
   </energy>
  </scstep>
  <scstep>
   <time name="diag">    1.64    1.64</time>
   <time name="diis">    3.75    3.75</time>
   <time name="orth">    0.39    0.39</time>
   <time name="total">    6.15    6.15</time>
   <dipole>
    <v name="dipole">      0.00000000       0.00000000      -0.00694346 </v>
    <i name="Tr[quadrupol]"> -10230.43383586 </i>
    <i name="Echarged">      0.00000000 </i>
    <i name="Edipol_quadrupol">      0.00000000 </i>
    <i name="Eion">      0.00000000 </i>
   </dipole>
   <energy>
    <i name="e_fr_energy">   -187.80781700 </i>
    <i name="e_wo_entrp">   -187.54834264 </i>
    <i name="e_0_energy">   -187.67807982 </i>
   </energy>
  </scstep>
  <scstep>
   <time name="diag">    1.64    1.64</time>
   <time name="diis">    3.34    3.34</time>
   <time name="orth">    0.39    0.39</time>
   <time name="total">    5.74    5.74</time>
   <dipole>
    <v name="dipole">      0.00000000       0.00000000      -0.00689925 </v>
    <i name="Tr[quadrupol]"> -10230.45261070 </i>
    <i name="Echarged">      0.00000000 </i>
    <i name="Edipol_quadrupol">      0.00000000 </i>
    <i name="Eion">      0.00000000 </i>
   </dipole>
   <energy>
    <i name="e_fr_energy">   -187.80793965 </i>
    <i name="e_wo_entrp">   -187.54851057 </i>
    <i name="e_0_energy">   -187.67822511 </i>
   </energy>
  </scstep>
  <scstep>
   <time name="diag">    1.64    1.64</time>
   <time name="diis">    2.84    2.84</time>
   <time name="orth">    0.39    0.39</time>
   <time name="total">    5.23    5.24</time>
   <dipole>
    <v name="dipole">      0.00000000       0.00000000      -0.00689947 </v>
    <i name="Tr[quadrupol]"> -10230.46151106 </i>
    <i name="Echarged">      0.00000000 </i>
    <i name="Edipol_quadrupol">      0.00000000 </i>
    <i name="Eion">      0.00000000 </i>
   </dipole>
   <energy>
    <i name="e_fr_energy">   -187.80799170 </i>
    <i name="e_wo_entrp">   -187.54854207 </i>
    <i name="e_0_energy">   -187.67826688 </i>
   </energy>
  </scstep>
  <scstep>
   <time name="diag">    1.62    1.63</time>
   <time name="diis">    2.68    2.68</time>
   <time name="orth">    0.39    0.39</time>
   <time name="total">    5.06    5.07</time>
   <dipole>
    <v name="dipole">      0.00000000       0.00000000      -0.00684505 </v>
    <i name="Tr[quadrupol]"> -10230.46898462 </i>
    <i name="Echarged">      0.00000000 </i>
    <i name="Edipol_quadrupol">      0.00000000 </i>
    <i name="Eion">      0.00000000 </i>
   </dipole>
   <energy>
    <i name="e_fr_energy">   -187.80803744 </i>
    <i name="e_wo_entrp">   -187.54860857 </i>
    <i name="e_0_energy">   -187.67832300 </i>
   </energy>
  </scstep>
  <scstep>
   <time name="diag">    1.64    1.64</time>
   <time name="diis">    2.68    2.68</time>
   <time name="orth">    0.39    0.39</time>
   <time name="total">    5.08    5.09</time>
   <dipole>
    <v name="dipole">      0.00000000       0.00000000      -0.00675866 </v>
    <i name="Tr[quadrupol]"> -10230.47706482 </i>
    <i name="Echarged">      0.00000000 </i>
    <i name="Edipol_quadrupol">      0.00000000 </i>
    <i name="Eion">      0.00000000 </i>
   </dipole>
   <energy>
    <i name="e_fr_energy">   -187.80807505 </i>
    <i name="e_wo_entrp">   -187.54862444 </i>
    <i name="e_0_energy">   -187.67834975 </i>
   </energy>
  </scstep>
  <scstep>
   <time name="diag">    1.65    1.65</time>
   <time name="diis">    2.59    2.67</time>
   <time name="orth">    0.38    0.38</time>
   <time name="total">    4.99    5.07</time>
   <dipole>
    <v name="dipole">      0.00000000       0.00000000      -0.00672474 </v>
    <i name="Tr[quadrupol]"> -10230.48313405 </i>
    <i name="Echarged">      0.00000000 </i>
    <i name="Edipol_quadrupol">      0.00000000 </i>
    <i name="Eion">      0.00000000 </i>
   </dipole>
   <energy>
    <i name="e_fr_energy">   -187.80809725 </i>
    <i name="e_wo_entrp">   -187.54864525 </i>
    <i name="e_0_energy">   -187.67837125 </i>
   </energy>
  </scstep>
  <scstep>
   <time name="diag">    1.63    1.63</time>
   <time name="diis">    2.71    2.73</time>
   <time name="orth">    0.46    0.47</time>
   <time name="total">    5.30    5.33</time>
   <dipole>
    <v name="dipole">      0.00000000       0.00000000      -0.00669617 </v>
    <i name="Tr[quadrupol]"> -10230.48678316 </i>
    <i name="Echarged">      0.00000000 </i>
    <i name="Edipol_quadrupol">      0.00000000 </i>
    <i name="Eion">      0.00000000 </i>
   </dipole>
   <energy>
    <i name="e_fr_energy">   -187.80810611 </i>
    <i name="e_wo_entrp">   -187.54865683 </i>
    <i name="e_0_energy">   -187.67838147 </i>
   </energy>
  </scstep>
  <scstep>
   <time name="diag">    1.77    1.78</time>
   <time name="diis">    2.44    2.44</time>
   <time name="orth">    0.38    0.38</time>
   <time name="total">    4.98    5.00</time>
   <dipole>
    <v name="dipole">      0.00000000       0.00000000      -0.00665601 </v>
    <i name="Tr[quadrupol]"> -10230.49095044 </i>
    <i name="Echarged">      0.00000000 </i>
    <i name="Edipol_quadrupol">      0.00000000 </i>
    <i name="Eion">      0.00000000 </i>
   </dipole>
   <energy>
    <i name="e_fr_energy">   -187.80811119 </i>
    <i name="e_wo_entrp">   -187.54866324 </i>
    <i name="e_0_energy">   -187.67838721 </i>
   </energy>
  </scstep>
  <scstep>
   <time name="diag">    1.64    1.64</time>
   <time name="diis">    2.19    2.19</time>
   <time name="orth">    0.38    0.38</time>
   <time name="total">    4.58    4.58</time>
   <dipole>
    <v name="dipole">      0.00000000       0.00000000      -0.00662828 </v>
    <i name="Tr[quadrupol]"> -10230.49336648 </i>
    <i name="Echarged">      0.00000000 </i>
    <i name="Edipol_quadrupol">      0.00000000 </i>
    <i name="Eion">      0.00000000 </i>
   </dipole>
   <energy>
    <i name="e_fr_energy">   -187.80811240 </i>
    <i name="e_wo_entrp">   -187.54866443 </i>
    <i name="e_0_energy">   -187.67838841 </i>
   </energy>
  </scstep>
  <scstep>
   <time name="diag">    1.63    1.63</time>
   <time name="diis">    1.96    1.96</time>
   <time name="orth">    0.38    0.38</time>
   <time name="total">    4.03    4.04</time>
   <dipole>
    <v name="dipole">      0.00000000       0.00000000      -0.00661302 </v>
    <i name="Tr[quadrupol]"> -10230.49595250 </i>
    <i name="Echarged">      0.00000000 </i>
    <i name="Edipol_quadrupol">      0.00000000 </i>
    <i name="Eion">      0.00000000 </i>
   </dipole>
   <energy>
    <i name="alphaZ">    805.86936275 </i>
    <i name="ewald"> 200635.49736355 </i>
    <i name="hartreedc">-242820.60857907 </i>
    <i name="XCdc">   -343.07370521 </i>
    <i name="pawpsdc">  49467.08026558 </i>
    <i name="pawaedc"> -47544.78004889 </i>
    <i name="eentropy">     -0.25944947 </i>
    <i name="bandstr">  -2047.31919462 </i>
    <i name="atom">  41659.78587232 </i>
    <i name="e_fr_energy">   -187.80811307 </i>
    <i name="e_wo_entrp">   -187.54866360 </i>
    <i name="e_0_energy">   -187.67838833 </i>
   </energy>
  </scstep>
  <structure>
   <crystal>
    <varray name="basis" >
     <v>      11.00258152       0.00000000       0.00000000 </v>
     <v>       5.50129076       9.52851510       0.00000000 </v>
     <v>       0.00000000       0.00000000      24.49178509 </v>
    </varray>
    <i name="volume">   2567.67623402 </i>
    <varray name="rec_basis" >
     <v>       0.09088776      -0.05247407       0.00000000 </v>
     <v>       0.00000000       0.10494815       0.00000000 </v>
     <v>       0.00000000       0.00000000       0.04083002 </v>
    </varray>
   </crystal>
   <varray name="positions" >
    <v>       0.16666667       0.41666667       0.50000000 </v>
    <v>       0.58333333       0.08333333       0.40830017 </v>
    <v>       0.66666667       0.91666667       0.50000000 </v>
    <v>       0.16666667       0.91666667       0.50000000 </v>
    <v>       0.75000000       0.00000000       0.59169983 </v>
    <v>       0.25000000       0.50000000       0.59169983 </v>
    <v>       0.16666667       0.66666667       0.50000000 </v>
    <v>       0.33333333       0.58333333       0.40830017 </v>
    <v>       0.25000000       0.25000000       0.59169983 </v>
    <v>       0.41666667       0.66666667       0.50000000 </v>
    <v>       0.83333333       0.33333333       0.40830017 </v>
    <v>       0.25000000       0.00000000       0.59169983 </v>
    <v>       0.41666667       0.16666667       0.50000000 </v>
    <v>       0.16666667       0.16666667       0.50000000 </v>
    <v>       0.00000000       0.50000000       0.59169983 </v>
    <v>       0.58333333       0.58333333       0.40830017 </v>
    <v>       0.08333333       0.58333333       0.40830017 </v>
    <v>       0.00000000       0.25000000       0.59169983 </v>
    <v>       0.83333333       0.83333333       0.40830017 </v>
    <v>       0.08333333       0.33333333       0.40830017 </v>
    <v>       0.00000000       0.00000000       0.59169983 </v>
    <v>       0.91666667       0.16666667       0.50000000 </v>
    <v>       0.66666667       0.41666667       0.50000000 </v>
    <v>       0.66666667       0.16666667       0.50000000 </v>
    <v>       0.83333333       0.08333333       0.40830017 </v>
    <v>       0.50000000       0.75000000       0.59169983 </v>
    <v>       0.41666667       0.91666667       0.50000000 </v>
    <v>       0.08333333       0.08333333       0.40830017 </v>
    <v>       0.83333333       0.58333333       0.40830017 </v>
    <v>       0.66666667       0.66666667       0.50000000 </v>
    <v>       0.75000000       0.50000000       0.59169983 </v>
    <v>       0.75000000       0.25000000       0.59169983 </v>
    <v>       0.58333333       0.83333333       0.40830017 </v>
    <v>       0.25000000       0.75000000       0.59169983 </v>
    <v>       0.50000000       0.25000000       0.59169983 </v>
    <v>       0.41666667       0.41666667       0.50000000 </v>
    <v>       0.58333333       0.33333333       0.40830017 </v>
    <v>       0.50000000       0.00000000       0.59169983 </v>
    <v>       0.33333333       0.83333333       0.40830017 </v>
    <v>       0.33333333       0.33333333       0.40830017 </v>
    <v>       0.33333333       0.08333333       0.40830017 </v>
    <v>       0.00000000       0.75000000       0.59169983 </v>
    <v>       0.91666667       0.91666667       0.50000000 </v>
    <v>       0.08333333       0.83333333       0.40830017 </v>
    <v>       0.91666667       0.66666667       0.50000000 </v>
    <v>       0.91666667       0.41666667       0.50000000 </v>
    <v>       0.50000000       0.50000000       0.59169983 </v>
    <v>       0.75000000       0.75000000       0.59169983 </v>
   </varray>
  </structure>
  <varray name="forces" >
   <v>       0.06083856       0.16694362      -0.31063957 </v>
   <v>      -0.09933766       0.20268597      -1.77520016 </v>
   <v>      -0.39520491      -0.76930132       0.30094202 </v>
   <v>       0.00620657      -0.24535052      -0.55444164 </v>
   <v>      -0.10002680      -0.08980550       1.53783714 </v>
   <v>       0.49911816       0.11398612       1.57871212 </v>
   <v>      -0.24886806       0.43238772       0.25707305 </v>
   <v>       0.00274784      -0.18245303      -1.60604785 </v>
   <v>       0.41545650      -0.22260146       1.89448974 </v>
   <v>       0.32928945       0.17303095       0.51235103 </v>
   <v>       0.00851652      -0.10899319      -1.60051663 </v>
   <v>       0.38356631      -0.51660455       1.65508249 </v>
   <v>       0.04063068      -0.01886730      -0.05456996 </v>
   <v>       0.03843214      -0.26516388      -0.64100829 </v>
   <v>      -0.40902078       0.53430415       1.36489852 </v>
   <v>       0.24894347       0.30285855      -1.56091201 </v>
   <v>      -0.13445758       0.11146599      -1.57344501 </v>
   <v>      -0.39502312       0.38014717       1.65615780 </v>
   <v>       0.13129084      -0.06191290      -1.35133236 </v>
   <v>      -0.04494342      -0.11936850      -1.56640945 </v>
   <v>      -0.25217972      -0.29114058       1.66261922 </v>
   <v>      -0.23836107      -0.09479566      -0.31626209 </v>
   <v>      -0.05057112       0.17800555       0.55940061 </v>
   <v>       0.14600642       0.34852550       0.01768174 </v>
   <v>       0.17166445      -0.11523761      -0.91257662 </v>
   <v>       0.15841692      -0.05197952       0.62056717 </v>
   <v>       0.20707418      -0.27836500      -0.16377135 </v>
   <v>      -0.00456275      -0.25338747      -0.93648721 </v>
   <v>      -0.09793455       0.15965890      -0.59109763 </v>
   <v>       0.29293906       0.07334908       0.20512564 </v>
   <v>      -0.08400849       0.21236307       0.64414875 </v>
   <v>      -0.11501710       0.28633460       1.00585289 </v>
   <v>      -0.24842517      -0.08485739      -0.67241129 </v>
   <v>       0.09577119      -0.14118717       1.00934643 </v>
   <v>       0.12683697       0.09015072       0.89674321 </v>
   <v>       0.13963525      -0.17936232       0.06371284 </v>
   <v>      -0.15578886      -0.09515401      -0.91683035 </v>
   <v>      -0.02791200      -0.19353217       0.86153860 </v>
   <v>       0.17736546       0.35136388      -0.81834042 </v>
   <v>       0.14799805      -0.07040529      -0.91158111 </v>
   <v>      -0.08242301      -0.29625697      -0.84023148 </v>
   <v>      -0.09513279       0.03296894       0.75391257 </v>
   <v>       0.01952768      -0.24635931      -0.13940879 </v>
   <v>       0.04032296       0.32038277      -0.86086950 </v>
   <v>      -0.35517860       0.09572544       0.18414150 </v>
   <v>      -0.15256463       0.61773429       0.02931856 </v>
   <v>       0.05540988      -0.04511954       0.78835025 </v>
   <v>      -0.15706333      -0.14681083       0.61438688 </v>
  </varray>
  <energy>
   <i name="e_fr_energy">   -187.80811307 </i>
   <i name="e_wo_entrp">   -187.67838833 </i>
   <i name="e_0_energy">     -0.25944947 </i>
  </energy>
  <time name="totalsc">  279.41  280.38</time>
 </calculation>
 <calculation>
  <scstep>
   <time name="dav">    9.36    9.37</time>
   <time name="total">    9.73    9.74</time>
   <dipole>
    <v name="dipole">      0.00000000       0.00000000      -0.00660464 </v>
    <i name="Tr[quadrupol]"> -10234.28255458 </i>
    <i name="Echarged">      0.00000000 </i>
    <i name="Edipol_quadrupol">      0.00000000 </i>
    <i name="Eion">      0.00000000 </i>
   </dipole>
   <energy>
    <i name="alphaZ">    805.86936411 </i>
    <i name="ewald"> 197845.19774812 </i>
    <i name="hartreedc">-240047.55882373 </i>
    <i name="XCdc">   -345.39427370 </i>
    <i name="pawpsdc">  49467.07938609 </i>
    <i name="pawaedc"> -47544.77907725 </i>
    <i name="eentropy">     -0.25147549 </i>
    <i name="bandstr">  -2028.92415816 </i>
    <i name="atom">  41659.78587232 </i>
    <i name="e_fr_energy">   -188.97543770 </i>
    <i name="e_wo_entrp">   -188.72396221 </i>
    <i name="e_0_energy">   -188.84969996 </i>
   </energy>
  </scstep>
  <scstep>
   <time name="diag">    1.64    1.64</time>
   <time name="diis">    4.34    4.41</time>
   <time name="orth">    0.38    0.38</time>
   <time name="total">    6.73    6.81</time>
   <dipole>
    <v name="dipole">      0.00000000       0.00000000       0.00167530 </v>
    <i name="Tr[quadrupol]"> -10234.02758166 </i>
    <i name="Echarged">      0.00000000 </i>
    <i name="Edipol_quadrupol">      0.00000000 </i>
    <i name="Eion">      0.00000000 </i>
   </dipole>
   <energy>
    <i name="e_fr_energy">   -189.38927351 </i>
    <i name="e_wo_entrp">   -189.13686867 </i>
    <i name="e_0_energy">   -189.26307109 </i>
   </energy>
  </scstep>
  <scstep>
   <time name="diag">    1.63    1.63</time>
   <time name="diis">    4.40    4.40</time>
   <time name="orth">    0.38    0.38</time>
   <time name="total">    6.78    6.79</time>
   <dipole>
    <v name="dipole">      0.00000000       0.00000000      -0.07168532 </v>
    <i name="Tr[quadrupol]"> -10234.43650770 </i>
    <i name="Echarged">      0.00000000 </i>
    <i name="Edipol_quadrupol">      0.00000000 </i>
    <i name="Eion">      0.00000000 </i>
   </dipole>
   <energy>
    <i name="e_fr_energy">   -189.52051399 </i>
    <i name="e_wo_entrp">   -189.27477258 </i>
    <i name="e_0_energy">   -189.39764329 </i>
   </energy>
  </scstep>
  <scstep>
   <time name="diag">    1.63    1.63</time>
   <time name="diis">    4.37    4.38</time>
   <time name="orth">    0.38    0.38</time>
   <time name="total">    6.75    6.76</time>
   <dipole>
    <v name="dipole">      0.00000000       0.00000000       0.05225845 </v>
    <i name="Tr[quadrupol]"> -10234.41349321 </i>
    <i name="Echarged">      0.00000000 </i>
    <i name="Edipol_quadrupol">      0.00000000 </i>
    <i name="Eion">      0.00000000 </i>
   </dipole>
   <energy>
    <i name="e_fr_energy">   -189.41922362 </i>
    <i name="e_wo_entrp">   -189.17288804 </i>
    <i name="e_0_energy">   -189.29605583 </i>
   </energy>
  </scstep>
  <scstep>
   <time name="diag">    1.64    1.64</time>
   <time name="diis">    4.45    4.45</time>
   <time name="orth">    0.38    0.38</time>
   <time name="total">    6.83    6.84</time>
   <dipole>
    <v name="dipole">      0.00000000       0.00000000      -0.05846179 </v>
    <i name="Tr[quadrupol]"> -10234.36347366 </i>
    <i name="Echarged">      0.00000000 </i>
    <i name="Edipol_quadrupol">      0.00000000 </i>
    <i name="Eion">      0.00000000 </i>
   </dipole>
   <energy>
    <i name="e_fr_energy">   -189.43417311 </i>
    <i name="e_wo_entrp">   -189.18978679 </i>
    <i name="e_0_energy">   -189.31197995 </i>
   </energy>
  </scstep>
  <scstep>
   <time name="diag">    1.65    1.65</time>
   <time name="diis">    5.03    5.05</time>
   <time name="orth">    0.38    0.38</time>
   <time name="total">    7.43    7.46</time>
   <dipole>
    <v name="dipole">      0.00000000       0.00000000       0.00023856 </v>
    <i name="Tr[quadrupol]"> -10234.34715722 </i>
    <i name="Echarged">      0.00000000 </i>
    <i name="Edipol_quadrupol">      0.00000000 </i>
    <i name="Eion">      0.00000000 </i>
   </dipole>
   <energy>
    <i name="e_fr_energy">   -189.37489108 </i>
    <i name="e_wo_entrp">   -189.12325348 </i>
    <i name="e_0_energy">   -189.24907228 </i>
   </energy>
  </scstep>
  <scstep>
   <time name="diag">    1.62    1.62</time>
   <time name="diis">    4.34    4.34</time>
   <time name="orth">    0.38    0.38</time>
   <time name="total">    6.71    6.71</time>
   <dipole>
    <v name="dipole">      0.00000000       0.00000000      -0.00434095 </v>
    <i name="Tr[quadrupol]"> -10234.34299103 </i>
    <i name="Echarged">      0.00000000 </i>
    <i name="Edipol_quadrupol">      0.00000000 </i>
    <i name="Eion">      0.00000000 </i>
   </dipole>
   <energy>
    <i name="e_fr_energy">   -189.36127663 </i>
    <i name="e_wo_entrp">   -189.10541245 </i>
    <i name="e_0_energy">   -189.23334454 </i>
   </energy>
  </scstep>
  <scstep>
   <time name="diag">    1.63    1.64</time>
   <time name="diis">    4.29    4.36</time>
   <time name="orth">    0.38    0.38</time>
   <time name="total">    6.68    6.76</time>
   <dipole>
    <v name="dipole">      0.00000000       0.00000000      -0.00569240 </v>
    <i name="Tr[quadrupol]"> -10234.30555396 </i>
    <i name="Echarged">      0.00000000 </i>
    <i name="Edipol_quadrupol">      0.00000000 </i>
    <i name="Eion">      0.00000000 </i>
   </dipole>
   <energy>
    <i name="e_fr_energy">   -189.36000828 </i>
    <i name="e_wo_entrp">   -189.10681030 </i>
    <i name="e_0_energy">   -189.23340929 </i>
   </energy>
  </scstep>
  <scstep>
   <time name="diag">    1.63    1.63</time>
   <time name="diis">    4.45    4.45</time>
   <time name="orth">    0.38    0.38</time>
   <time name="total">    6.83    6.84</time>
   <dipole>
    <v name="dipole">      0.00000000       0.00000000      -0.00556236 </v>
    <i name="Tr[quadrupol]"> -10234.30363313 </i>
    <i name="Echarged">      0.00000000 </i>
    <i name="Edipol_quadrupol">      0.00000000 </i>
    <i name="Eion">      0.00000000 </i>
   </dipole>
   <energy>
    <i name="e_fr_energy">   -189.35914590 </i>
    <i name="e_wo_entrp">   -189.10409284 </i>
    <i name="e_0_energy">   -189.23161937 </i>
   </energy>
  </scstep>
  <scstep>
   <time name="diag">    1.63    1.63</time>
   <time name="diis">    4.47    4.48</time>
   <time name="orth">    0.38    0.38</time>
   <time name="total">    6.85    6.86</time>
   <dipole>
    <v name="dipole">      0.00000000       0.00000000      -0.00562216 </v>
    <i name="Tr[quadrupol]"> -10234.29868390 </i>
    <i name="Echarged">      0.00000000 </i>
    <i name="Edipol_quadrupol">      0.00000000 </i>
    <i name="Eion">      0.00000000 </i>
   </dipole>
   <energy>
    <i name="e_fr_energy">   -189.35912291 </i>
    <i name="e_wo_entrp">   -189.10455205 </i>
    <i name="e_0_energy">   -189.23183748 </i>
   </energy>
  </scstep>
  <scstep>
   <time name="diag">    1.62    1.62</time>
   <time name="diis">    4.49    4.49</time>
   <time name="orth">    0.39    0.39</time>
   <time name="total">    6.86    6.87</time>
   <dipole>
    <v name="dipole">      0.00000000       0.00000000      -0.00547987 </v>
    <i name="Tr[quadrupol]"> -10234.30167165 </i>
    <i name="Echarged">      0.00000000 </i>
    <i name="Edipol_quadrupol">      0.00000000 </i>
    <i name="Eion">      0.00000000 </i>
   </dipole>
   <energy>
    <i name="e_fr_energy">   -189.35902331 </i>
    <i name="e_wo_entrp">   -189.10419638 </i>
    <i name="e_0_energy">   -189.23160984 </i>
   </energy>
  </scstep>
  <scstep>
   <time name="diag">    1.63    1.63</time>
   <time name="diis">    4.40    4.40</time>
   <time name="orth">    0.38    0.39</time>
   <time name="total">    6.78    6.79</time>
   <dipole>
    <v name="dipole">      0.00000000       0.00000000      -0.00551498 </v>
    <i name="Tr[quadrupol]"> -10234.30521531 </i>
    <i name="Echarged">      0.00000000 </i>
    <i name="Edipol_quadrupol">      0.00000000 </i>
    <i name="Eion">      0.00000000 </i>
   </dipole>
   <energy>
    <i name="e_fr_energy">   -189.35902587 </i>
    <i name="e_wo_entrp">   -189.10437507 </i>
    <i name="e_0_energy">   -189.23170047 </i>
   </energy>
  </scstep>
  <scstep>
   <time name="diag">    1.64    1.64</time>
   <time name="diis">    4.44    4.44</time>
   <time name="orth">    0.38    0.38</time>
   <time name="total">    6.83    6.83</time>
   <dipole>
    <v name="dipole">      0.00000000       0.00000000      -0.00574841 </v>
    <i name="Tr[quadrupol]"> -10234.31043682 </i>
    <i name="Echarged">      0.00000000 </i>
    <i name="Edipol_quadrupol">      0.00000000 </i>
    <i name="Eion">      0.00000000 </i>
   </dipole>
   <energy>
    <i name="e_fr_energy">   -189.35901174 </i>
    <i name="e_wo_entrp">   -189.10419458 </i>
    <i name="e_0_energy">   -189.23160316 </i>
   </energy>
  </scstep>
  <scstep>
   <time name="diag">    1.63    1.63</time>
   <time name="diis">    4.14    4.22</time>
   <time name="orth">    0.38    0.38</time>
   <time name="total">    6.52    6.60</time>
   <dipole>
    <v name="dipole">      0.00000000       0.00000000      -0.00565213 </v>
    <i name="Tr[quadrupol]"> -10234.31378596 </i>
    <i name="Echarged">      0.00000000 </i>
    <i name="Edipol_quadrupol">      0.00000000 </i>
    <i name="Eion">      0.00000000 </i>
   </dipole>
   <energy>
    <i name="e_fr_energy">   -189.35900867 </i>
    <i name="e_wo_entrp">   -189.10434913 </i>
    <i name="e_0_energy">   -189.23167890 </i>
   </energy>
  </scstep>
  <scstep>
   <time name="diag">    1.63    1.63</time>
   <time name="diis">    4.08    4.12</time>
   <time name="orth">    0.38    0.38</time>
   <time name="total">    6.15    6.19</time>
   <dipole>
    <v name="dipole">      0.00000000       0.00000000      -0.00569010 </v>
    <i name="Tr[quadrupol]"> -10234.31714247 </i>
    <i name="Echarged">      0.00000000 </i>
    <i name="Edipol_quadrupol">      0.00000000 </i>
    <i name="Eion">      0.00000000 </i>
   </dipole>
   <energy>
    <i name="alphaZ">    805.86936432 </i>
    <i name="ewald"> 197845.19774812 </i>
    <i name="hartreedc">-240049.19794764 </i>
    <i name="XCdc">   -345.32840756 </i>
    <i name="pawpsdc">  48993.04973554 </i>
    <i name="pawaedc"> -47067.53170633 </i>
    <i name="eentropy">     -0.25472456 </i>
    <i name="bandstr">  -2030.94894202 </i>
    <i name="atom">  41659.78587232 </i>
    <i name="e_fr_energy">   -189.35900782 </i>
    <i name="e_wo_entrp">   -189.10428325 </i>
    <i name="e_0_energy">   -189.23164554 </i>
   </energy>
  </scstep>
  <structure>
   <crystal>
    <varray name="basis" >
     <v>      11.00258152       0.00000000       0.00000000 </v>
     <v>       5.50129076       9.52851510       0.00000000 </v>
     <v>       0.00000000       0.00000000      24.49178509 </v>
    </varray>
    <i name="volume">   2567.67623402 </i>
    <varray name="rec_basis" >
     <v>       0.09088776      -0.05247407       0.00000000 </v>
     <v>       0.00000000       0.10494815       0.00000000 </v>
     <v>       0.00000000       0.00000000       0.04083002 </v>
    </varray>
   </crystal>
   <varray name="positions" >
    <v>       0.16655757       0.41725833       0.49957168 </v>
    <v>       0.58266927       0.08405167       0.40585248 </v>
    <v>       0.66681691       0.91394020       0.50041495 </v>
    <v>       0.16712049       0.91579712       0.49923552 </v>
    <v>       0.74985213      -0.00031828       0.59382024 </v>
    <v>       0.25132994       0.50040398       0.59387660 </v>
    <v>       0.16513662       0.66819909       0.50035446 </v>
    <v>       0.33366508       0.58268670       0.40608571 </v>
    <v>       0.25166961       0.24921108       0.59431200 </v>
    <v>       0.41737073       0.66727990       0.50070644 </v>
    <v>       0.83355261       0.33294705       0.40609334 </v>
    <v>       0.25209271      -0.00183089       0.59398190 </v>
    <v>       0.41682481       0.16659980       0.49992476 </v>
    <v>       0.16725451       0.16572690       0.49911616 </v>
    <v>      -0.00220220       0.50189362       0.59358179 </v>
    <v>       0.58356073       0.58440669       0.40614795 </v>
    <v>       0.08272312       0.58372838       0.40613067 </v>
    <v>      -0.00188607       0.25134727       0.59398338 </v>
    <v>       0.83384601       0.83311391       0.40643692 </v>
    <v>       0.08340692       0.33291028       0.40614037 </v>
    <v>      -0.00025809      -0.00103183       0.59399229 </v>
    <v>       0.91610305       0.16633070       0.49956393 </v>
    <v>       0.66619602       0.41729753       0.50077131 </v>
    <v>       0.66649720       0.16790187       0.50002438 </v>
    <v>       0.83406442       0.08292492       0.40704189 </v>
    <v>       0.50057833       0.74981578       0.59255548 </v>
    <v>       0.41779551       0.91568012       0.49977419 </v>
    <v>       0.08376834       0.08243531       0.40700892 </v>
    <v>       0.83274982       0.58389918       0.40748515 </v>
    <v>       0.66743580       0.66692662       0.50028283 </v>
    <v>       0.74936584       0.50075263       0.59258800 </v>
    <v>       0.74913958       0.25101479       0.59308672 </v>
    <v>       0.58272122       0.83303259       0.40737303 </v>
    <v>       0.25054414       0.74949962       0.59309154 </v>
    <v>       0.50022955       0.25031950       0.59293628 </v>
    <v>       0.41741308       0.41603099       0.50008785 </v>
    <v>       0.58302379       0.33299610       0.40703602 </v>
    <v>       0.50025728      -0.00068589       0.59288774 </v>
    <v>       0.33325508       0.83457860       0.40717182 </v>
    <v>       0.33391234       0.33308381       0.40704326 </v>
    <v>       0.33360533       0.08228337       0.40714164 </v>
    <v>      -0.00035041       0.75011684       0.59273934 </v>
    <v>       0.91716316       0.91579355       0.49980778 </v>
    <v>       0.08288936       0.83446880       0.40711318 </v>
    <v>       0.91540690       0.66700593       0.50025390 </v>
    <v>       0.91510375       0.41885597       0.50004043 </v>
    <v>       0.50025002       0.49984009       0.59278683 </v>
    <v>       0.74977809       0.74947969       0.59254696 </v>
   </varray>
  </structure>
  <varray name="forces" >
   <v>      -0.01375195       0.11255057      -0.03132336 </v>
   <v>      -0.02719811       0.03031360      -1.20103584 </v>
   <v>      -0.08058036      -0.21947751       0.05481407 </v>
   <v>       0.03619065      -0.03896414      -0.10205241 </v>
   <v>      -0.10449071      -0.02334539       1.06164627 </v>
   <v>       0.20983883       0.04237662       1.11105218 </v>
   <v>      -0.11593480       0.06836551       0.05980550 </v>
   <v>       0.03606702      -0.03266609      -1.04220039 </v>
   <v>       0.12495703      -0.06488146       1.25709688 </v>
   <v>       0.14407673       0.00691903       0.11186726 </v>
   <v>      -0.05400440      -0.03124053      -1.11608618 </v>
   <v>       0.12118139      -0.22426618       1.08337864 </v>
   <v>       0.05171853      -0.06904919      -0.01651141 </v>
   <v>      -0.03632836      -0.05731954      -0.08339846 </v>
   <v>      -0.09543404       0.21871146       0.98568410 </v>
   <v>       0.08867613       0.14020194      -1.05904743 </v>
   <v>      -0.04942036       0.08372301      -1.13352825 </v>
   <v>      -0.13400764       0.11028350       1.04333312 </v>
   <v>       0.00640232       0.04658468      -0.98153184 </v>
   <v>      -0.02974909      -0.06906465      -1.16987656 </v>
   <v>      -0.04594320      -0.12926361       1.11347127 </v>
   <v>      -0.01290385      -0.03126219      -0.04873935 </v>
   <v>       0.05570069       0.18668465       0.10804585 </v>
   <v>      -0.02795620      -0.05076139      -0.00901993 </v>
   <v>       0.05041118      -0.06871940      -0.72650825 </v>
   <v>       0.13786099      -0.06138179       0.58120453 </v>
   <v>       0.07250365      -0.11413078      -0.03859684 </v>
   <v>      -0.01696545      -0.14245345      -0.80345037 </v>
   <v>      -0.05285537       0.09153838      -0.48170873 </v>
   <v>       0.07644107      -0.06162658       0.04434511 </v>
   <v>      -0.09808803       0.16597801       0.58847803 </v>
   <v>      -0.06663217       0.12678072       0.79588216 </v>
   <v>      -0.09058561       0.00114630      -0.56800004 </v>
   <v>       0.07372374      -0.05451354       0.78144081 </v>
   <v>       0.10831461       0.00769943       0.69534798 </v>
   <v>       0.00489729       0.06867023       0.00675703 </v>
   <v>      -0.01209789      -0.01632998      -0.67918110 </v>
   <v>       0.02887877      -0.10926892       0.66376763 </v>
   <v>       0.10007156       0.13957433      -0.66032136 </v>
   <v>       0.04018021      -0.04558091      -0.69735880 </v>
   <v>      -0.00750395      -0.18285624      -0.70728079 </v>
   <v>      -0.06789554      -0.00247826       0.63251586 </v>
   <v>      -0.14386430      -0.05223975      -0.02100764 </v>
   <v>       0.05234032       0.13639088      -0.72802445 </v>
   <v>      -0.11452853       0.01069054       0.02841361 </v>
   <v>      -0.04414888       0.22780622      -0.01777462 </v>
   <v>       0.04955402      -0.01393867       0.70012365 </v>
   <v>      -0.12711795      -0.05590949       0.61509288 </v>
  </varray>
  <energy>
   <i name="e_fr_energy">   -189.35900782 </i>
   <i name="e_wo_entrp">   -189.23164554 </i>
   <i name="e_0_energy">     -0.25472456 </i>
  </energy>
  <time name="totalsc">  107.49  107.88</time>
 </calculation>
 <calculation>
  <scstep>
   <time name="dav">    9.31    9.32</time>
   <time name="total">    9.67    9.69</time>
   <dipole>
    <v name="dipole">      0.00000000       0.00000000      -0.00570195 </v>
    <i name="Tr[quadrupol]"> -10246.86171910 </i>
    <i name="Echarged">      0.00000000 </i>
    <i name="Edipol_quadrupol">      0.00000000 </i>
    <i name="Eion">      0.00000000 </i>
   </dipole>
   <energy>
    <i name="alphaZ">    805.86936783 </i>
    <i name="ewald"> 189607.20157147 </i>
    <i name="hartreedc">-231855.39747657 </i>
    <i name="XCdc">   -351.05036264 </i>
    <i name="pawpsdc">  48992.94654133 </i>
    <i name="pawaedc"> -47067.42830517 </i>
    <i name="eentropy">     -0.22566135 </i>
    <i name="bandstr">  -1979.32626633 </i>
    <i name="atom">  41659.78587232 </i>
    <i name="e_fr_energy">   -187.62471911 </i>
    <i name="e_wo_entrp">   -187.39905776 </i>
    <i name="e_0_energy">   -187.51188843 </i>
   </energy>
  </scstep>
  <scstep>
   <time name="diag">    1.63    1.63</time>
   <time name="diis">    4.28    4.28</time>
   <time name="orth">    0.38    0.38</time>
   <time name="total">    6.66    6.67</time>
   <dipole>
    <v name="dipole">      0.00000000       0.00000000       0.02326147 </v>
    <i name="Tr[quadrupol]"> -10246.04627676 </i>
    <i name="Echarged">      0.00000000 </i>
    <i name="Edipol_quadrupol">      0.00000000 </i>
    <i name="Eion">      0.00000000 </i>
   </dipole>
   <energy>
    <i name="e_fr_energy">   -191.30499665 </i>
    <i name="e_wo_entrp">   -191.07196310 </i>
    <i name="e_0_energy">   -191.18847987 </i>
   </energy>
  </scstep>
  <scstep>
   <time name="diag">    1.63    1.63</time>
   <time name="diis">    4.38    4.38</time>
   <time name="orth">    0.38    0.38</time>
   <time name="total">    6.75    6.76</time>
   <dipole>
    <v name="dipole">      0.00000000       0.00000000      -0.22043356 </v>
    <i name="Tr[quadrupol]"> -10246.97135718 </i>
    <i name="Echarged">      0.00000000 </i>
    <i name="Edipol_quadrupol">      0.00000000 </i>
    <i name="Eion">      0.00000000 </i>
   </dipole>
   <energy>
    <i name="e_fr_energy">   -192.09448527 </i>
    <i name="e_wo_entrp">   -191.89684004 </i>
    <i name="e_0_energy">   -191.99566265 </i>
   </energy>
  </scstep>
  <scstep>
   <time name="diag">    1.63    1.63</time>
   <time name="diis">    4.36    4.43</time>
   <time name="orth">    0.38    0.38</time>
   <time name="total">    6.73    6.82</time>
   <dipole>
    <v name="dipole">      0.00000000       0.00000000       0.11757554 </v>
    <i name="Tr[quadrupol]"> -10246.98524049 </i>
    <i name="Echarged">      0.00000000 </i>
    <i name="Edipol_quadrupol">      0.00000000 </i>
    <i name="Eion">      0.00000000 </i>
   </dipole>
   <energy>
    <i name="e_fr_energy">   -191.31214179 </i>
    <i name="e_wo_entrp">   -191.09381976 </i>
    <i name="e_0_energy">   -191.20298078 </i>
   </energy>
  </scstep>
  <scstep>
   <time name="diag">    1.62    1.63</time>
   <time name="diis">    4.44    4.45</time>
   <time name="orth">    0.38    0.38</time>
   <time name="total">    6.81    6.82</time>
   <dipole>
    <v name="dipole">      0.00000000       0.00000000      -0.08983009 </v>
    <i name="Tr[quadrupol]"> -10246.93685578 </i>
    <i name="Echarged">      0.00000000 </i>
    <i name="Edipol_quadrupol">      0.00000000 </i>
    <i name="Eion">      0.00000000 </i>
   </dipole>
   <energy>
    <i name="e_fr_energy">   -191.29435219 </i>
    <i name="e_wo_entrp">   -191.07479777 </i>
    <i name="e_0_energy">   -191.18457498 </i>
   </energy>
  </scstep>
  <scstep>
   <time name="diag">    1.63    1.63</time>
   <time name="diis">    4.42    4.42</time>
   <time name="orth">    0.38    0.38</time>
   <time name="total">    6.80    6.81</time>
   <dipole>
    <v name="dipole">      0.00000000       0.00000000       0.00992962 </v>
    <i name="Tr[quadrupol]"> -10247.03680909 </i>
    <i name="Echarged">      0.00000000 </i>
    <i name="Edipol_quadrupol">      0.00000000 </i>
    <i name="Eion">      0.00000000 </i>
   </dipole>
   <energy>
    <i name="e_fr_energy">   -191.18710970 </i>
    <i name="e_wo_entrp">   -190.94769353 </i>
    <i name="e_0_energy">   -191.06740162 </i>
   </energy>
  </scstep>
  <scstep>
   <time name="diag">    1.63    1.63</time>
   <time name="diis">    4.43    4.43</time>
   <time name="orth">    0.38    0.38</time>
   <time name="total">    6.81    6.82</time>
   <dipole>
    <v name="dipole">      0.00000000       0.00000000      -0.00208007 </v>
    <i name="Tr[quadrupol]"> -10246.95390273 </i>
    <i name="Echarged">      0.00000000 </i>
    <i name="Edipol_quadrupol">      0.00000000 </i>
    <i name="Eion">      0.00000000 </i>
   </dipole>
   <energy>
    <i name="e_fr_energy">   -191.04242380 </i>
    <i name="e_wo_entrp">   -190.81092830 </i>
    <i name="e_0_energy">   -190.92667605 </i>
   </energy>
  </scstep>
  <scstep>
   <time name="diag">    1.63    1.63</time>
   <time name="diis">    5.12    5.15</time>
   <time name="orth">    0.38    0.38</time>
   <time name="total">    7.50    7.54</time>
   <dipole>
    <v name="dipole">      0.00000000       0.00000000       0.00236129 </v>
    <i name="Tr[quadrupol]"> -10246.89612744 </i>
    <i name="Echarged">      0.00000000 </i>
    <i name="Edipol_quadrupol">      0.00000000 </i>
    <i name="Eion">      0.00000000 </i>
   </dipole>
   <energy>
    <i name="e_fr_energy">   -191.03013844 </i>
    <i name="e_wo_entrp">   -190.78632996 </i>
    <i name="e_0_energy">   -190.90823420 </i>
   </energy>
  </scstep>
  <scstep>
   <time name="diag">    1.63    1.63</time>
   <time name="diis">    4.33    4.33</time>
   <time name="orth">    0.38    0.38</time>
   <time name="total">    6.71    6.71</time>
   <dipole>
    <v name="dipole">      0.00000000       0.00000000      -0.00156055 </v>
    <i name="Tr[quadrupol]"> -10246.82157231 </i>
    <i name="Echarged">      0.00000000 </i>
    <i name="Edipol_quadrupol">      0.00000000 </i>
    <i name="Eion">      0.00000000 </i>
   </dipole>
   <energy>
    <i name="e_fr_energy">   -191.01978745 </i>
    <i name="e_wo_entrp">   -190.78845318 </i>
    <i name="e_0_energy">   -190.90412032 </i>
   </energy>
  </scstep>
  <scstep>
   <time name="diag">    1.63    1.63</time>
   <time name="diis">    4.31    4.38</time>
   <time name="orth">    0.38    0.38</time>
   <time name="total">    6.69    6.77</time>
   <dipole>
    <v name="dipole">      0.00000000       0.00000000      -0.00354974 </v>
    <i name="Tr[quadrupol]"> -10246.83165958 </i>
    <i name="Echarged">      0.00000000 </i>
    <i name="Edipol_quadrupol">      0.00000000 </i>
    <i name="Eion">      0.00000000 </i>
[...]
       <r>    2.2978    0.0000 </r>
       <r>    2.3544    0.0000 </r>
       <r>    2.3868    0.0000 </r>
       <r>    2.4827    0.0000 </r>
       <r>    2.6612    0.0000 </r>
       <r>    2.9329    0.0000 </r>
       <r>    3.1785    0.0000 </r>
       <r>    3.2905    0.0000 </r>
       <r>    3.4841    0.0000 </r>
       <r>    3.6052    0.0000 </r>
       <r>    3.7390    0.0000 </r>
       <r>    3.9330    0.0000 </r>
       <r>    4.0872    0.0000 </r>
       <r>    4.1702    0.0000 </r>
       <r>    4.4222    0.0000 </r>
       <r>    4.5552    0.0000 </r>
       <r>    4.5949    0.0000 </r>
       <r>    4.6289    0.0000 </r>
       <r>    4.7077    0.0000 </r>
       <r>    4.7774    0.0000 </r>
       <r>    4.8650    0.0000 </r>
       <r>    4.9413    0.0000 </r>
       <r>    4.9740    0.0000 </r>
       <r>    5.0566    0.0000 </r>
       <r>    5.0825    0.0000 </r>
       <r>    5.1298    0.0000 </r>
       <r>    5.1906    0.0000 </r>
       <r>    5.2477    0.0000 </r>
      </set>
     </set>
    </set>
   </array>
  </eigenvalues>
  <separator name="orbital magnetization" >
   <v name="MAGDIPOLOUT">      0.00000000      0.00000000      0.00000000</v>
  </separator>
  <dos>
   <i name="efermi">     -1.09960637 </i>
   <total>
    <array>
     <dimension dim="1">gridpoints</dimension>
     <dimension dim="2">spin</dimension>
     <field>energy</field>
     <field>total</field>
     <field>integrated</field>
     <set>
      <set comment="spin 1">
       <r>    -9.8941     0.0000     0.0000 </r>
       <r>    -9.8399     0.0000     0.0000 </r>
       <r>    -9.7856     0.0000     0.0000 </r>
       <r>    -9.7314     0.0000     0.0000 </r>
       <r>    -9.6771     0.0000     0.0000 </r>
       <r>    -9.6229     0.0000     0.0000 </r>
       <r>    -9.5686     0.0000     0.0000 </r>
       <r>    -9.5144     0.0000     0.0000 </r>
       <r>    -9.4601     0.0000     0.0000 </r>
       <r>    -9.4059     0.0000     0.0000 </r>
       <r>    -9.3516     0.0000     0.0000 </r>
       <r>    -9.2974     0.0000     0.0000 </r>
       <r>    -9.2431     0.0000     0.0000 </r>
       <r>    -9.1889     0.0002     0.0000 </r>
       <r>    -9.1346     0.0050     0.0003 </r>
       <r>    -9.0804     0.0622     0.0037 </r>
       <r>    -9.0261     0.4430     0.0277 </r>
       <r>    -8.9719     1.7969     0.1252 </r>
       <r>    -8.9176     4.1638     0.3511 </r>
       <r>    -8.8634     5.5627     0.6528 </r>
       <r>    -8.8091     4.5924     0.9020 </r>
       <r>    -8.7549     3.5356     1.0938 </r>
       <r>    -8.7006     4.4794     1.3368 </r>
       <r>    -8.6463     5.4924     1.6348 </r>
       <r>    -8.5921     4.2394     1.8648 </r>
       <r>    -8.5378     1.9154     1.9687 </r>
       <r>    -8.4836     0.5372     1.9978 </r>
       <r>    -8.4293     0.3415     2.0163 </r>
       <r>    -8.3751     1.1145     2.0768 </r>
       <r>    -8.3208     2.8220     2.2299 </r>
       <r>    -8.2666     4.5339     2.4759 </r>
       <r>    -8.2123     4.7597     2.7341 </r>
       <r>    -8.1581     3.6319     2.9311 </r>
       <r>    -8.1038     3.3960     3.1153 </r>
       <r>    -8.0496     5.8348     3.4319 </r>
       <r>    -7.9953     9.3012     3.9365 </r>
       <r>    -7.9411     9.8318     4.4699 </r>
       <r>    -7.8868     6.6517     4.8307 </r>
       <r>    -7.8326     3.5820     5.0251 </r>
       <r>    -7.7783     3.6338     5.2222 </r>
       <r>    -7.7241     5.6583     5.5292 </r>
       <r>    -7.6698     6.9387     5.9056 </r>
       <r>    -7.6156     7.2667     6.2998 </r>
       <r>    -7.5613     7.7528     6.7204 </r>
       <r>    -7.5071     8.5907     7.1864 </r>
       <r>    -7.4528    10.0785     7.7332 </r>
       <r>    -7.3986    11.6344     8.3644 </r>
       <r>    -7.3443    12.4160     9.0380 </r>
       <r>    -7.2901    13.0286     9.7448 </r>
       <r>    -7.2358    13.1359    10.4574 </r>
       <r>    -7.1816    12.7404    11.1486 </r>
       <r>    -7.1273    14.8078    11.9519 </r>
       <r>    -7.0731    20.6497    13.0722 </r>
       <r>    -7.0188    27.6499    14.5722 </r>
       <r>    -6.9646    32.6049    16.3410 </r>
       <r>    -6.9103    35.0090    18.2403 </r>
       <r>    -6.8561    37.3058    20.2642 </r>
       <r>    -6.8018    40.5469    22.4639 </r>
       <r>    -6.7476    42.5177    24.7705 </r>
       <r>    -6.6933    42.0437    27.0514 </r>
       <r>    -6.6391    41.5269    29.3043 </r>
       <r>    -6.5848    43.3893    31.6581 </r>
       <r>    -6.5306    46.2618    34.1679 </r>
       <r>    -6.4763    47.7194    36.7567 </r>
       <r>    -6.4221    49.7234    39.4542 </r>
       <r>    -6.3678    56.6292    42.5264 </r>
       <r>    -6.3136    67.1116    46.1672 </r>
       <r>    -6.2593    75.9945    50.2900 </r>
       <r>    -6.2051    81.5089    54.7119 </r>
       <r>    -6.1508    83.5732    59.2458 </r>
       <r>    -6.0966    83.6750    63.7852 </r>
       <r>    -6.0423    84.8552    68.3887 </r>
       <r>    -5.9881    85.1849    73.0100 </r>
       <r>    -5.9338    80.7338    77.3899 </r>
       <r>    -5.8796    73.3836    81.3710 </r>
       <r>    -5.8253    67.6741    85.0424 </r>
       <r>    -5.7711    65.4393    88.5925 </r>
       <r>    -5.7168    66.0018    92.1732 </r>
       <r>    -5.6626    66.9906    95.8074 </r>
       <r>    -5.6083    66.5238    99.4164 </r>
       <r>    -5.5541    65.5456   102.9723 </r>
       <r>    -5.4998    66.1283   106.5598 </r>
       <r>    -5.4456    68.5280   110.2775 </r>
       <r>    -5.3913    71.3383   114.1477 </r>
       <r>    -5.3371    73.4673   118.1333 </r>
       <r>    -5.2828    75.1549   122.2105 </r>
       <r>    -5.2286    77.6752   126.4245 </r>
       <r>    -5.1743    80.7386   130.8046 </r>
       <r>    -5.1201    83.6251   135.3413 </r>
       <r>    -5.0658    86.2773   140.0219 </r>
       <r>    -5.0116    87.7014   144.7798 </r>
       <r>    -4.9573    87.8568   149.5461 </r>
       <r>    -4.9031    87.4438   154.2899 </r>
       <r>    -4.8488    86.4074   158.9776 </r>
       <r>    -4.7945    85.3753   163.6093 </r>
       <r>    -4.7403    85.1300   168.2276 </r>
       <r>    -4.6860    85.3447   172.8576 </r>
       <r>    -4.6318    85.0178   177.4699 </r>
       <r>    -4.5775    83.3380   181.9911 </r>
       <r>    -4.5233    80.8739   186.3785 </r>
       <r>    -4.4690    79.4103   190.6866 </r>
       <r>    -4.4148    80.0641   195.0301 </r>
       <r>    -4.3605    82.6825   199.5157 </r>
       <r>    -4.3063    86.4698   204.2068 </r>
       <r>    -4.2520    89.3587   209.0545 </r>
       <r>    -4.1978    89.2712   213.8976 </r>
       <r>    -4.1435    87.8592   218.6640 </r>
       <r>    -4.0893    88.2129   223.4496 </r>
       <r>    -4.0350    90.2850   228.3476 </r>
       <r>    -3.9808    91.6651   233.3205 </r>
       <r>    -3.9265    91.3773   238.2778 </r>
       <r>    -3.8723    91.0144   243.2154 </r>
       <r>    -3.8180    92.1236   248.2132 </r>
       <r>    -3.7638    94.0579   253.3159 </r>
       <r>    -3.7095    95.6904   258.5071 </r>
       <r>    -3.6553    96.7771   263.7574 </r>
       <r>    -3.6010    97.9111   269.0691 </r>
       <r>    -3.5468   100.3444   274.5129 </r>
       <r>    -3.4925   103.6008   280.1333 </r>
       <r>    -3.4383   105.4997   285.8567 </r>
       <r>    -3.3840   104.8047   291.5424 </r>
       <r>    -3.3298   102.3531   297.0952 </r>
       <r>    -3.2755    99.9180   302.5158 </r>
       <r>    -3.2213    97.9683   307.8306 </r>
       <r>    -3.1670    95.3322   313.0025 </r>
       <r>    -3.1128    91.4563   317.9640 </r>
       <r>    -3.0585    88.3097   322.7549 </r>
       <r>    -3.0043    87.7412   327.5149 </r>
       <r>    -2.9500    89.0405   332.3454 </r>
       <r>    -2.8958    91.1504   337.2904 </r>
       <r>    -2.8415    94.1236   342.3967 </r>
       <r>    -2.7873    97.2892   347.6747 </r>
       <r>    -2.7330    99.1119   353.0516 </r>
       <r>    -2.6788    99.4433   358.4464 </r>
       <r>    -2.6245    98.6933   363.8006 </r>
       <r>    -2.5703    96.9557   369.0605 </r>
       <r>    -2.5160    95.1665   374.2234 </r>
       <r>    -2.4618    94.0851   379.3276 </r>
       <r>    -2.4075    92.6540   384.3541 </r>
       <r>    -2.3533    89.7235   389.2217 </r>
       <r>    -2.2990    86.3272   393.9050 </r>
       <r>    -2.2448    84.4699   398.4875 </r>
       <r>    -2.1905    84.9269   403.0949 </r>
       <r>    -2.1363    87.5181   407.8428 </r>
       <r>    -2.0820    92.1415   412.8415 </r>
       <r>    -2.0278    98.0906   418.1630 </r>
       <r>    -1.9735   103.1470   423.7588 </r>
       <r>    -1.9193   105.8207   429.4997 </r>
       <r>    -1.8650   107.1360   435.3119 </r>
       <r>    -1.8108   108.4417   441.1949 </r>
       <r>    -1.7565   109.1840   447.1182 </r>
       <r>    -1.7023   107.1924   452.9335 </r>
       <r>    -1.6480   101.9729   458.4656 </r>
       <r>    -1.5938    96.6350   463.7081 </r>
       <r>    -1.5395    93.6639   468.7894 </r>
       <r>    -1.4853    92.4378   473.8043 </r>
       <r>    -1.4310    91.6204   478.7747 </r>
       <r>    -1.3768    90.3309   483.6752 </r>
       <r>    -1.3225    88.3460   488.4681 </r>
       <r>    -1.2683    84.5894   493.0571 </r>
       <r>    -1.2140    77.0365   497.2364 </r>
       <r>    -1.1598    65.8167   500.8070 </r>
       <r>    -1.1055    53.7028   503.7204 </r>
       <r>    -1.0513    42.5744   506.0301 </r>
       <r>    -0.9970    30.9678   507.7101 </r>
       <r>    -0.9428    19.2121   508.7524 </r>
       <r>    -0.8885    11.6733   509.3857 </r>
       <r>    -0.8342     9.0972   509.8792 </r>
       <r>    -0.7800     8.5438   510.3427 </r>
       <r>    -0.7257     9.0048   510.8312 </r>
       <r>    -0.6715    10.9225   511.4238 </r>
       <r>    -0.6172    14.3959   512.2048 </r>
       <r>    -0.5630    18.8700   513.2285 </r>
       <r>    -0.5087    23.3028   514.4927 </r>
       <r>    -0.4545    25.1299   515.8560 </r>
       <r>    -0.4002    22.4564   517.0743 </r>
       <r>    -0.3460    18.5746   518.0819 </r>
       <r>    -0.2917    18.2759   519.0734 </r>
       <r>    -0.2375    20.5440   520.1880 </r>
       <r>    -0.1832    20.9073   521.3222 </r>
       <r>    -0.1290    18.0497   522.3014 </r>
       <r>    -0.0747    13.6819   523.0437 </r>
       <r>    -0.0205     9.6652   523.5680 </r>
       <r>     0.0338     7.6848   523.9849 </r>
       <r>     0.0880     9.2432   524.4864 </r>
       <r>     0.1423    12.6935   525.1750 </r>
       <r>     0.1965    14.3829   525.9553 </r>
       <r>     0.2508    15.2452   526.7823 </r>
       <r>     0.3050    17.2235   527.7167 </r>
       <r>     0.3593    18.3828   528.7140 </r>
       <r>     0.4135    18.6433   529.7254 </r>
       <r>     0.4678    20.0348   530.8123 </r>
       <r>     0.5220    22.0782   532.0101 </r>
       <r>     0.5763    23.9981   533.3120 </r>
       <r>     0.6305    25.5191   534.6964 </r>
       <r>     0.6848    25.0976   536.0580 </r>
       <r>     0.7390    22.8480   537.2975 </r>
       <r>     0.7933    19.9866   538.3818 </r>
       <r>     0.8475    16.2751   539.2647 </r>
       <r>     0.9018    12.4593   539.9406 </r>
       <r>     0.9560     9.8205   540.4734 </r>
       <r>     1.0103     8.2041   540.9185 </r>
       <r>     1.0645     8.1363   541.3599 </r>
       <r>     1.1188     9.9576   541.9001 </r>
       <r>     1.1730    11.1700   542.5061 </r>
       <r>     1.2273     9.9492   543.0458 </r>
       <r>     1.2815     7.7030   543.4637 </r>
       <r>     1.3358     5.7663   543.7765 </r>
       <r>     1.3900     4.9483   544.0450 </r>
       <r>     1.4443     7.2548   544.4386 </r>
       <r>     1.4985    12.6212   545.1233 </r>
       <r>     1.5528    17.1060   546.0513 </r>
       <r>     1.6070    17.9036   547.0226 </r>
       <r>     1.6613    16.0469   547.8931 </r>
       <r>     1.7155    14.2988   548.6689 </r>
       <r>     1.7698    14.4036   549.4503 </r>
       <r>     1.8240    15.3970   550.2856 </r>
       <r>     1.8783    15.5736   551.1304 </r>
       <r>     1.9325    14.6190   551.9235 </r>
       <r>     1.9868    12.9362   552.6253 </r>
       <r>     2.0410    12.1714   553.2856 </r>
       <r>     2.0953    13.8094   554.0348 </r>
       <r>     2.1495    16.6283   554.9369 </r>
       <r>     2.2038    19.2272   555.9800 </r>
       <r>     2.2580    21.1634   557.1281 </r>
       <r>     2.3123    22.3524   558.3407 </r>
       <r>     2.3665    23.2646   559.6029 </r>
       <r>     2.4208    23.3964   560.8721 </r>
       <r>     2.4750    21.8402   562.0570 </r>
       <r>     2.5293    19.5619   563.1182 </r>
       <r>     2.5835    18.6234   564.1286 </r>
       <r>     2.6378    20.1342   565.2208 </r>
       <r>     2.6920    22.4904   566.4410 </r>
       <r>     2.7463    21.4919   567.6069 </r>
       <r>     2.8005    15.5152   568.4486 </r>
       <r>     2.8548     8.6217   568.9164 </r>
       <r>     2.9090     5.4865   569.2140 </r>
       <r>     2.9633     5.5846   569.5170 </r>
       <r>     3.0176     5.4108   569.8105 </r>
       <r>     3.0718     4.4637   570.0527 </r>
       <r>     3.1261     4.8547   570.3161 </r>
       <r>     3.1803     7.0833   570.7003 </r>
       <r>     3.2346     9.9466   571.2399 </r>
       <r>     3.2888    11.9401   571.8877 </r>
       <r>     3.3431    11.8926   572.5329 </r>
       <r>     3.3973    11.1590   573.1383 </r>
       <r>     3.4516    12.3680   573.8092 </r>
       <r>     3.5058    14.5283   574.5974 </r>
       <r>     3.5601    15.8097   575.4551 </r>
       <r>     3.6143    17.2083   576.3887 </r>
       <r>     3.6686    18.9354   577.4159 </r>
       <r>     3.7228    19.5480   578.4764 </r>
       <r>     3.7771    17.8674   579.4457 </r>
       <r>     3.8313    14.5407   580.2346 </r>
       <r>     3.8856    11.9611   580.8835 </r>
       <r>     3.9398    11.7978   581.5235 </r>
       <r>     3.9941    13.5606   582.2592 </r>
       <r>     4.0483    14.5968   583.0511 </r>
       <r>     4.1026    13.3177   583.7736 </r>
       <r>     4.1568    11.8181   584.4147 </r>
       <r>     4.2111    11.3325   585.0295 </r>
       <r>     4.2653     9.8713   585.5650 </r>
       <r>     4.3196     7.6185   585.9783 </r>
       <r>     4.3738     8.1994   586.4232 </r>
       <r>     4.4281    12.0462   587.0767 </r>
       <r>     4.4823    15.2751   587.9054 </r>
       <r>     4.5366    17.7021   588.8657 </r>
       <r>     4.5908    22.8143   590.1034 </r>
       <r>     4.6451    28.7240   591.6617 </r>
       <r>     4.6993    29.9951   593.2889 </r>
       <r>     4.7536    27.0567   594.7568 </r>
       <r>     4.8078    24.2962   596.0749 </r>
       <r>     4.8621    23.5113   597.3504 </r>
       <r>     4.9163    24.4257   598.6755 </r>
       <r>     4.9706    26.9746   600.1389 </r>
       <r>     5.0248    31.1056   601.8264 </r>
       <r>     5.0791    34.2520   603.6846 </r>
       <r>     5.1333    32.8605   605.4673 </r>
       <r>     5.1876    29.0642   607.0440 </r>
       <r>     5.2418    26.9615   608.5067 </r>
       <r>     5.2961    24.7386   609.8488 </r>
       <r>     5.3503    19.4053   610.9016 </r>
       <r>     5.4046    12.1574   611.5611 </r>
       <r>     5.4588     5.7535   611.8732 </r>
       <r>     5.5131     1.8870   611.9756 </r>
       <r>     5.5673     0.3954   611.9971 </r>
       <r>     5.6216     0.0502   611.9998 </r>
       <r>     5.6758     0.0038   612.0000 </r>
       <r>     5.7301     0.0002   612.0000 </r>
       <r>     5.7843     0.0000   612.0000 </r>
       <r>     5.8386     0.0000   612.0000 </r>
       <r>     5.8928     0.0000   612.0000 </r>
       <r>     5.9471     0.0000   612.0000 </r>
       <r>     6.0013     0.0000   612.0000 </r>
       <r>     6.0556     0.0000   612.0000 </r>
       <r>     6.1098     0.0000   612.0000 </r>
       <r>     6.1641     0.0000   612.0000 </r>
       <r>     6.2183     0.0000   612.0000 </r>
       <r>     6.2726     0.0000   612.0000 </r>
       <r>     6.3268     0.0000   612.0000 </r>
       <r>     6.3811     0.0000   612.0000 </r>
      </set>
     </set>
    </array>
   </total>
  </dos>
 </calculation>
 <structure name="finalpos" >
  <crystal>
   <varray name="basis" >
    <v>      11.00258152       0.00000000       0.00000000 </v>
    <v>       5.50129076       9.52851510       0.00000000 </v>
    <v>       0.00000000       0.00000000      24.49178509 </v>
   </varray>
   <i name="volume">   2567.67623402 </i>
   <varray name="rec_basis" >
    <v>       0.09088776      -0.05247407       0.00000000 </v>
    <v>       0.00000000       0.10494815       0.00000000 </v>
    <v>       0.00000000       0.00000000       0.04083002 </v>
   </varray>
  </crystal>
  <varray name="positions" >
   <v>       0.16430213       0.41848947       0.49949120 </v>
   <v>       0.58092629       0.08581606       0.39387769 </v>
   <v>       0.66593208       0.91340586       0.49981191 </v>
   <v>       0.16522300       0.91701508       0.50221807 </v>
   <v>       0.75057166      -0.00139487       0.60319665 </v>
   <v>       0.25461707       0.49927948       0.60349681 </v>
   <v>       0.16329035       0.66795402       0.49994459 </v>
   <v>       0.33319635       0.58391972       0.39548408 </v>
   <v>       0.25539906       0.24747537       0.60958220 </v>
   <v>       0.41710714       0.66732702       0.49921107 </v>
   <v>       0.83273543       0.33240691       0.39429184 </v>
   <v>       0.25589704      -0.00488420       0.60708929 </v>
   <v>       0.41525450       0.16715380       0.50102104 </v>
   <v>       0.16586893       0.16721587       0.50149255 </v>
   <v>      -0.00100777       0.50182442       0.60120061 </v>
   <v>       0.58257671       0.58705478       0.39379288 </v>
   <v>       0.08188666       0.58489493       0.39510126 </v>
   <v>      -0.00094008       0.25074358       0.60437160 </v>
   <v>       0.83261879       0.83502185       0.39809423 </v>
   <v>       0.08357655       0.33183674       0.39600229 </v>
   <v>       0.00176118      -0.00323485       0.60722337 </v>
   <v>       0.91506966       0.16716085       0.50058186 </v>
   <v>       0.66561381       0.41832476       0.49790842 </v>
   <v>       0.66442380       0.16719781       0.49896871 </v>
   <v>       0.83402308       0.08303305       0.40250045 </v>
   <v>       0.50407770       0.74725388       0.59650155 </v>
   <v>       0.41614801       0.91616502       0.50199357 </v>
   <v>       0.08343891       0.08209593       0.40396010 </v>
   <v>       0.83203447       0.58459544       0.40219963 </v>
   <v>       0.66676318       0.66590117       0.49790834 </v>
   <v>       0.75022298       0.50035382       0.59465178 </v>
   <v>       0.75005245       0.25099335       0.59757278 </v>
   <v>       0.58067469       0.83533693       0.40286762 </v>
   <v>       0.25397548       0.74732440       0.59873537 </v>
   <v>       0.50322117       0.24917205       0.59760169 </v>
   <v>       0.41443493       0.41847187       0.49951954 </v>
   <v>       0.58232920       0.33380400       0.40071229 </v>
   <v>       0.50276340      -0.00220934       0.59862983 </v>
   <v>       0.33236195       0.83698121       0.40343193 </v>
   <v>       0.33312057       0.33335115       0.40234582 </v>
   <v>       0.33345603       0.08176465       0.40396570 </v>
   <v>       0.00121669       0.74866711       0.59724944 </v>
   <v>       0.91415964       0.91640922       0.50146489 </v>
   <v>       0.08277153       0.83621293       0.40345353 </v>
   <v>       0.91447582       0.66637276       0.49881713 </v>
   <v>       0.91488566       0.41911721       0.49870274 </v>
   <v>       0.50325049       0.49861504       0.59613811 </v>
   <v>       0.75024164       0.74821267       0.59562196 </v>
  </varray>
 </structure>
</modeling>
