unknown system                          
           1
    11.002582    0.000000    0.000000
     5.501291    9.528515    0.000000
     0.000000    0.000000   24.491785
   Au   Pd
  24  24
Direct configuration=     1
   0.16666667  0.41666667  0.50000000
   0.58333333  0.08333333  0.40830017
   0.66666667  0.91666667  0.50000000
   0.16666667  0.91666667  0.50000000
   0.75000000  0.00000000  0.59169983
   0.25000000  0.50000000  0.59169983
   0.16666667  0.66666667  0.50000000
   0.33333333  0.58333333  0.40830017
   0.25000000  0.25000000  0.59169983
   0.41666667  0.66666667  0.50000000
   0.83333333  0.33333333  0.40830017
   0.25000000  0.00000000  0.59169983
   0.41666667  0.16666667  0.50000000
   0.16666667  0.16666667  0.50000000
   0.00000000  0.50000000  0.59169983
   0.58333333  0.58333333  0.40830017
   0.08333333  0.58333333  0.40830017
   0.00000000  0.25000000  0.59169983
   0.83333333  0.83333333  0.40830017
   0.08333333  0.33333333  0.40830017
   0.00000000  0.00000000  0.59169983
   0.91666667  0.16666667  0.50000000
   0.66666667  0.41666667  0.50000000
   0.66666667  0.16666667  0.50000000
   0.83333333  0.08333333  0.40830017
   0.50000000  0.75000000  0.59169983
   0.41666667  0.91666667  0.50000000
   0.08333333  0.08333333  0.40830017
   0.83333333  0.58333333  0.40830017
   0.66666667  0.66666667  0.50000000
   0.75000000  0.50000000  0.59169983
   0.75000000  0.25000000  0.59169983
   0.58333333  0.83333333  0.40830017
   0.25000000  0.75000000  0.59169983
   0.50000000  0.25000000  0.59169983
   0.41666667  0.41666667  0.50000000
   0.58333333  0.33333333  0.40830017
   0.50000000  0.00000000  0.59169983
   0.33333333  0.83333333  0.40830017
   0.33333333  0.33333333  0.40830017
   0.33333333  0.08333333  0.40830017
   0.00000000  0.75000000  0.59169983
   0.91666667  0.91666667  0.50000000
   0.08333333  0.83333333  0.40830017
   0.91666667  0.66666667  0.50000000
   0.91666667  0.41666667  0.50000000
   0.50000000  0.50000000  0.59169983
   0.75000000  0.75000000  0.59169983
Direct configuration=     2
   0.16655757  0.41725833  0.49957168
   0.58266927  0.08405167  0.40585248
   0.66681691  0.91394020  0.50041495
   0.16712049  0.91579712  0.49923552
   0.74985213 -0.00031828  0.59382024
   0.25132994  0.50040398  0.59387660
   0.16513662  0.66819909  0.50035446
   0.33366508  0.58268670  0.40608571
   0.25166961  0.24921108  0.59431200
   0.41737073  0.66727990  0.50070644
   0.83355261  0.33294705  0.40609334
   0.25209271 -0.00183089  0.59398190
   0.41682481  0.16659980  0.49992476
   0.16725451  0.16572690  0.49911616
  -0.00220220  0.50189362  0.59358179
   0.58356073  0.58440669  0.40614795
   0.08272312  0.58372838  0.40613067
  -0.00188607  0.25134727  0.59398338
   0.83384601  0.83311391  0.40643692
   0.08340692  0.33291028  0.40614037
  -0.00025809 -0.00103183  0.59399229
   0.91610305  0.16633070  0.49956393
   0.66619602  0.41729753  0.50077131
   0.66649720  0.16790187  0.50002438
   0.83406442  0.08292492  0.40704189
   0.50057833  0.74981578  0.59255548
   0.41779551  0.91568012  0.49977419
   0.08376834  0.08243531  0.40700892
   0.83274982  0.58389918  0.40748515
   0.66743580  0.66692662  0.50028283
   0.74936584  0.50075263  0.59258800
   0.74913958  0.25101479  0.59308672
   0.58272122  0.83303259  0.40737303
   0.25054414  0.74949962  0.59309154
   0.50022955  0.25031950  0.59293628
   0.41741308  0.41603099  0.50008785
   0.58302379  0.33299610  0.40703602
   0.50025728 -0.00068589  0.59288774
   0.33325508  0.83457860  0.40717182
   0.33391234  0.33308381  0.40704326
   0.33360533  0.08228337  0.40714164
  -0.00035041  0.75011684  0.59273934
   0.91716316  0.91579355  0.49980778
   0.08288936  0.83446880  0.40711318
   0.91540690  0.66700593  0.50025390
   0.91510375  0.41885597  0.50004043
   0.50025002  0.49984009  0.59278683
   0.74977809  0.74947969  0.59254696
Direct configuration=     3
   0.16623026  0.41903332  0.49828673
   0.58067709  0.08620668  0.39850942
   0.66726765  0.90576079  0.50165978
   0.16848195  0.91318850  0.49694209
   0.74940852 -0.00127311  0.60018146
   0.25531975  0.50161591  0.60040689
   0.16054646  0.67279634  0.50141783
   0.33466033  0.58074682  0.39944234
   0.25667842  0.24684433  0.60214850
   0.41948290  0.66911961  0.50282577
   0.83421045  0.33178821  0.39947285
   0.25837085 -0.00732356  0.60082810
   0.41729923  0.16639920  0.49969903
   0.16901803  0.16290761  0.49646465
  -0.00880881  0.50757448  0.59922765
   0.58424292  0.58762676  0.39969128
   0.08089250  0.58491351  0.39962216
  -0.00754427  0.25538909  0.60083403
   0.83538405  0.83245564  0.40084717
   0.08362766  0.33164113  0.39966096
  -0.00103237 -0.00412731  0.60086967
   0.91441222  0.16532281  0.49825572
   0.66478407  0.41919013  0.50308526
   0.66598879  0.17160748  0.50009752
   0.83625769  0.08169969  0.40326704
   0.50231333  0.74926312  0.59512244
   0.42118203  0.91272047  0.49909675
   0.08507337  0.07974123  0.40313517
   0.83099930  0.58559671  0.40504009
   0.66974319  0.66770649  0.50113133
   0.74746336  0.50301053  0.59525250
   0.74655834  0.25405918  0.59724741
   0.58088488  0.83213037  0.40459162
   0.25217655  0.74799848  0.59726667
   0.50091818  0.25127801  0.59664563
   0.41965233  0.41412397  0.50035140
   0.58209517  0.33198440  0.40324358
   0.50102911 -0.00274358  0.59645147
   0.33302033  0.83831439  0.40378678
   0.33564936  0.33233524  0.40327253
   0.33442134  0.07913349  0.40366604
  -0.00140164  0.75046738  0.59585788
   0.91865265  0.91317419  0.49923112
   0.08155745  0.83787519  0.40355222
   0.91162760  0.66802370  0.50101559
   0.91041502  0.42542388  0.50016170
   0.50100009  0.49936037  0.59604782
   0.74911234  0.74791876  0.59508836
Direct configuration=     4
   0.16536605  0.41947908  0.49869593
   0.58197475  0.08447463  0.39691955
   0.66719902  0.91142057  0.50110936
   0.16832678  0.91494330  0.49790162
   0.74835805 -0.00062427  0.60151701
   0.25390895  0.50112748  0.60192303
   0.16308440  0.66887303  0.50112761
   0.33439266  0.58218693  0.39825928
   0.25449860  0.24799241  0.60377890
   0.41922240  0.66753444  0.50200755
   0.83317983  0.33229963  0.39789118
   0.25582713 -0.00571528  0.60216959
   0.41838187  0.16519553  0.49979255
   0.16738908  0.16445549  0.49743576
  -0.00536657  0.50539200  0.60074948
   0.58351861  0.58650542  0.39834174
   0.08164584  0.58473866  0.39799237
  -0.00517275  0.25352944  0.60195691
   0.83334859  0.83411221  0.39941168
   0.08375358  0.33173009  0.39785129
   0.00002283 -0.00309054  0.60232486
   0.91612593  0.16597011  0.49879008
   0.66551323  0.42041930  0.50208975
   0.66656112  0.16717425  0.50001399
   0.83508560  0.08196506  0.40209559
   0.50322292  0.74854700  0.59654170
   0.41930253  0.91415800  0.49943206
   0.08452376  0.08045028  0.40152454
   0.83151259  0.58525559  0.40423013
   0.66855356  0.66487123  0.50059243
   0.74633713  0.50348414  0.59662365
   0.74707400  0.25292517  0.59857528
   0.58161437  0.83347297  0.40350602
   0.25199646  0.74872403  0.59847544
   0.50195693  0.25026620  0.59765561
   0.41655567  0.41742771  0.50017909
   0.58319123  0.33264459  0.40233406
   0.50199835 -0.00265986  0.59745706
   0.33350678  0.83658266  0.40252628
   0.33458352  0.33236445  0.40223605
   0.33512149  0.07963635  0.40230508
  -0.00122834  0.74990548  0.59703102
   0.91486595  0.91540500  0.49948935
   0.08269477  0.83631086  0.40208765
   0.91459004  0.66673496  0.50057960
   0.91271002  0.42243941  0.50001225
   0.50120277  0.49974916  0.59760365
   0.74796792  0.74921565  0.59685534
Direct configuration=     5
   0.16505926  0.41963732  0.49884119
   0.58243541  0.08385978  0.39635517
   0.66717466  0.91342973  0.50091397
   0.16827170  0.91556624  0.49824224
   0.74798514 -0.00039394  0.60199111
   0.25340813  0.50095409  0.60246124
   0.16398534  0.66748030  0.50102458
   0.33429764  0.58269815  0.39783931
   0.25372478  0.24839996  0.60435767
   0.41912993  0.66697172  0.50171709
   0.83281397  0.33248118  0.39732971
   0.25492413 -0.00514436  0.60264581
   0.41876620  0.16476824  0.49982575
   0.16681083  0.16500497  0.49778050
  -0.00414461  0.50461725  0.60128971
   0.58326149  0.58610736  0.39786267
   0.08191327  0.58467659  0.39741382
  -0.00433089  0.25286928  0.60235552
   0.83262602  0.83470027  0.39890209
   0.08379828  0.33176167  0.39720887
   0.00039741 -0.00272250  0.60284144
   0.91673428  0.16619990  0.49897977
   0.66577208  0.42085565  0.50173636
   0.66676430  0.16560051  0.49998434
   0.83466951  0.08205927  0.40167974
   0.50354581  0.74829279  0.59704551
   0.41863533  0.91466831  0.49955109
   0.08432866  0.08070199  0.40095279
   0.83169481  0.58513449  0.40394261
   0.66813126  0.66386475  0.50040113
   0.74593734  0.50365226  0.59711039
   0.74725705  0.25252261  0.59904666
   0.58187333  0.83394958  0.40312064
   0.25193253  0.74898159  0.59890454
   0.50232568  0.24990702  0.59801414
   0.41545639  0.41860050  0.50011793
   0.58358031  0.33287895  0.40201119
   0.50234241 -0.00263014  0.59781403
   0.33367947  0.83596791  0.40207882
   0.33420516  0.33237481  0.40186811
   0.33537003  0.07981486  0.40182195
  -0.00116682  0.74970602  0.59744747
   0.91352172  0.91619691  0.49958103
   0.08309851  0.83575554  0.40156775
   0.91564167  0.66627747  0.50042483
   0.91352472  0.42137996  0.49995920
   0.50127473  0.49988718  0.59815595
   0.74756166  0.74967603  0.59748260
Direct configuration=     6
   0.16544667  0.41777579  0.49907578
   0.58233725  0.08430886  0.39573458
   0.66760053  0.91247889  0.50063435
   0.16733936  0.91529240  0.49881452
   0.74874769 -0.00040971  0.60252613
   0.25296358  0.50045421  0.60294283
   0.16429139  0.66822608  0.50077052
   0.33400579  0.58317480  0.39752845
   0.25296029  0.24862066  0.60478136
   0.41760628  0.66733051  0.50122718
   0.83275124  0.33253707  0.39690974
   0.25399689 -0.00387435  0.60298755
   0.41695047  0.16611533  0.49987639
   0.16677594  0.16672579  0.49834115
  -0.00294581  0.50332066  0.60165896
   0.58306574  0.58584754  0.39736899
   0.08209484  0.58481276  0.39685470
  -0.00318910  0.25221160  0.60252285
   0.83273103  0.83441621  0.39847248
   0.08388392  0.33169444  0.39662804
   0.00031420 -0.00221329  0.60315297
   0.91614100  0.16685617  0.49929666
   0.66656451  0.41797860  0.50112285
   0.66647948  0.16686477  0.49988006
   0.83436521  0.08244961  0.40147106
   0.50293125  0.74868297  0.59748660
   0.41832079  0.91500832  0.49989492
   0.08410405  0.08113154  0.40058040
   0.83215672  0.58481203  0.40376904
   0.66796149  0.66558675  0.50004490
   0.74702920  0.50279695  0.59760588
   0.74790176  0.25192718  0.59911554
   0.58227217  0.83398912  0.40296022
   0.25184528  0.74903464  0.59907105
   0.50195627  0.24998190  0.59810211
   0.41554705  0.41838780  0.50007823
   0.58373074  0.33284498  0.40204631
   0.50153318 -0.00191820  0.59807762
   0.33372818  0.83528564  0.40178990
   0.33395762  0.33237739  0.40176837
   0.33502315  0.08046096  0.40153698
  -0.00113937  0.74999918  0.59765766
   0.91467248  0.91595377  0.49980502
   0.08346083  0.83507181  0.40143371
   0.91533736  0.66656070  0.50024043
   0.91545541  0.41939395  0.49999793
   0.50108523  0.49988340  0.59859827
   0.74785076  0.74975181  0.59775877
Direct configuration=     7
   0.16547183  0.41765493  0.49909101
   0.58233088  0.08433802  0.39569429
   0.66762818  0.91241715  0.50061619
   0.16727883  0.91527463  0.49885168
   0.74879720 -0.00041073  0.60256087
   0.25293472  0.50042176  0.60297410
   0.16431126  0.66827450  0.50075402
   0.33398684  0.58320575  0.39750827
   0.25291065  0.24863499  0.60480887
   0.41750736  0.66735381  0.50119538
   0.83274716  0.33254069  0.39688247
   0.25393669 -0.00379190  0.60300973
   0.41683258  0.16620279  0.49987967
   0.16677367  0.16683751  0.49837756
  -0.00286798  0.50323648  0.60168293
   0.58305303  0.58583067  0.39733693
   0.08210662  0.58482160  0.39681840
  -0.00311497  0.25216890  0.60253372
   0.83273784  0.83439777  0.39844459
   0.08388948  0.33169008  0.39659032
   0.00030880 -0.00218023  0.60317319
   0.91610248  0.16689878  0.49931724
   0.66661596  0.41779181  0.50108302
   0.66646099  0.16694685  0.49987329
   0.83434545  0.08247496  0.40145751
   0.50289134  0.74870830  0.59751523
   0.41830037  0.91503039  0.49991724
   0.08408947  0.08115943  0.40055623
   0.83218671  0.58479109  0.40375777
   0.66795047  0.66569855  0.50002177
   0.74710008  0.50274142  0.59763805
   0.74794361  0.25188852  0.59912001
   0.58229807  0.83399169  0.40294980
   0.25183962  0.74903808  0.59908186
   0.50193229  0.24998676  0.59810782
   0.41555294  0.41837399  0.50007565
   0.58374050  0.33284278  0.40204859
   0.50148064 -0.00187197  0.59809473
   0.33373134  0.83524135  0.40177114
   0.33394155  0.33237755  0.40176190
   0.33500063  0.08050290  0.40151848
  -0.00113758  0.75001822  0.59767131
   0.91474720  0.91593798  0.49981956
   0.08348436  0.83502742  0.40142501
   0.91531761  0.66657909  0.50022845
   0.91558076  0.41926501  0.50000045
   0.50107293  0.49988316  0.59862699
   0.74786953  0.74975673  0.59777671
Direct configuration=     8
   0.16545273  0.41797734  0.49918537
   0.58203122  0.08492264  0.39539371
   0.66752861  0.91229968  0.50054760
   0.16651089  0.91621737  0.49906299
   0.74909802 -0.00044459  0.60276512
   0.25287137  0.50036351  0.60316836
   0.16389782  0.66817490  0.50062639
   0.33394589  0.58298990  0.39732055
   0.25308298  0.24853615  0.60514357
   0.41793709  0.66712861  0.50102204
   0.83294967  0.33252688  0.39668710
   0.25389265 -0.00350379  0.60316005
   0.41678870  0.16643729  0.49990043
   0.16689557  0.16638975  0.49855805
  -0.00291186  0.50318108  0.60175827
   0.58323531  0.58588183  0.39710915
   0.08223789  0.58467439  0.39656373
  -0.00296105  0.25202525  0.60261483
   0.83316563  0.83413611  0.39828078
   0.08384562  0.33174147  0.39626194
   0.00021515 -0.00212580  0.60333140
   0.91640681  0.16653380  0.49939128
   0.66647130  0.41781425  0.50090762
   0.66594230  0.16716635  0.49982141
   0.83449135  0.08249579  0.40151296
   0.50243795  0.74887100  0.59755461
   0.41780982  0.91531026  0.50013093
   0.08416927  0.08114135  0.40070077
   0.83247712  0.58444579  0.40374849
   0.66796194  0.66573487  0.49993598
   0.74784497  0.50213708  0.59756462
   0.74826570  0.25181550  0.59904115
   0.58221750  0.83392737  0.40293192
   0.25185647  0.74888049  0.59908479
   0.50160905  0.25007839  0.59801681
   0.41556355  0.41807562  0.50013269
   0.58343668  0.33283570  0.40209571
   0.50103919 -0.00139472  0.59811504
   0.33355723  0.83545594  0.40180860
   0.33387898  0.33259264  0.40180859
   0.33463791  0.08066795  0.40155991
  -0.00099995  0.75005791  0.59764030
   0.91543519  0.91583979  0.49994813
   0.08336714  0.83515220  0.40152717
   0.91541390  0.66633495  0.50018206
   0.91555900  0.41916334  0.50007500
   0.50109822  0.49984870  0.59858372
   0.74834151  0.74948778  0.59771829
Direct configuration=     9
   0.16544147  0.41816737  0.49924098
   0.58185460  0.08526723  0.39521655
   0.66746993  0.91223043  0.50050717
   0.16605826  0.91677303  0.49918754
   0.74927533 -0.00046454  0.60288550
   0.25283404  0.50032917  0.60328286
   0.16365413  0.66811619  0.50055116
   0.33392175  0.58286267  0.39720991
   0.25318455  0.24847789  0.60534085
   0.41819038  0.66699587  0.50091987
   0.83306903  0.33251874  0.39657194
   0.25386669 -0.00333398  0.60324865
   0.41676284  0.16657550  0.49991266
   0.16696742  0.16612583  0.49866443
  -0.00293773  0.50314843  0.60180268
   0.58334275  0.58591198  0.39697489
   0.08231526  0.58458762  0.39641363
  -0.00287034  0.25194058  0.60266263
   0.83341777  0.83398189  0.39818424
   0.08381977  0.33177175  0.39606838
   0.00015995 -0.00209372  0.60342465
   0.91658619  0.16631867  0.49943493
   0.66638603  0.41782747  0.50080423
   0.66563657  0.16729572  0.49979083
   0.83457734  0.08250807  0.40154564
   0.50217071  0.74896690  0.59757782
   0.41752069  0.91547521  0.50025688
   0.08421631  0.08113070  0.40078597
   0.83264829  0.58424227  0.40374301
   0.66796870  0.66575628  0.49988542
   0.74828402  0.50178087  0.59752135
   0.74845554  0.25177246  0.59899468
   0.58217001  0.83388945  0.40292138
   0.25186641  0.74878760  0.59908652
   0.50141853  0.25013239  0.59796317
   0.41556981  0.41789976  0.50016631
   0.58325759  0.33283153  0.40212349
   0.50077900 -0.00111342  0.59812701
   0.33345460  0.83558242  0.40183069
   0.33384211  0.33271942  0.40183612
   0.33442411  0.08076522  0.40158433
  -0.00091883  0.75008131  0.59762202
   0.91584071  0.91578191  0.50002392
   0.08329805  0.83522574  0.40158738
   0.91547066  0.66619105  0.50015472
   0.91554618  0.41910342  0.50011894
   0.50111312  0.49982839  0.59855822
   0.74861970  0.74932926  0.59768385
Direct configuration=    10
   0.16528895  0.41828813  0.49930621
   0.58174415  0.08537573  0.39489551
   0.66747968  0.91238504  0.50045422
   0.16629405  0.91654469  0.49943050
   0.74920727 -0.00044616  0.60304634
   0.25279489  0.50041072  0.60349843
   0.16376146  0.66806726  0.50041611
   0.33395637  0.58279732  0.39699759
   0.25327464  0.24859026  0.60580514
   0.41811782  0.66712534  0.50072470
   0.83320310  0.33237787  0.39637416
   0.25381659 -0.00333365  0.60350317
   0.41669433  0.16646345  0.49988529
   0.16706409  0.16626416  0.49877695
  -0.00288936  0.50317460  0.60187665
   0.58343757  0.58593895  0.39669979
   0.08245341  0.58434302  0.39610791
  -0.00264961  0.25177726  0.60280135
   0.83346463  0.83402114  0.39807487
   0.08393412  0.33174256  0.39574912
   0.00028060 -0.00221473  0.60369619
   0.91611694  0.16654771  0.49947594
   0.66641256  0.41805115  0.50064822
   0.66571768  0.16682833  0.49975341
   0.83465789  0.08249661  0.40168428
   0.50208231  0.74890275  0.59752320
   0.41718489  0.91557816  0.50048844
   0.08426122  0.08115728  0.40101651
   0.83287435  0.58402200  0.40374995
   0.66799391  0.66553187  0.49984907
   0.74863126  0.50147225  0.59729616
   0.74852699  0.25180561  0.59881746
   0.58204869  0.83407578  0.40295306
   0.25192384  0.74864155  0.59896586
   0.50140125  0.25016293  0.59786810
   0.41531161  0.41811199  0.50026975
   0.58304947  0.33298786  0.40214352
   0.50090930 -0.00098648  0.59810299
   0.33327081  0.83575842  0.40199916
   0.33360402  0.33290758  0.40191585
   0.33418972  0.08090167  0.40172851
  -0.00067376  0.74995494  0.59755400
   0.91559704  0.91587188  0.50015794
   0.08329408  0.83539506  0.40176335
   0.91536745  0.66607349  0.50008679
   0.91542037  0.41906797  0.50016898
   0.50129251  0.49976087  0.59837936
   0.74880485  0.74922780  0.59751995
Direct configuration=    11
   0.16502455  0.41849748  0.49941927
   0.58155270  0.08556382  0.39433897
   0.66749660  0.91265306  0.50036241
   0.16670280  0.91614885  0.49985168
   0.74908930 -0.00041430  0.60332514
   0.25272702  0.50055209  0.60387211
   0.16394753  0.66798242  0.50018199
   0.33401639  0.58268404  0.39662953
   0.25343082  0.24878505  0.60661002
   0.41799203  0.66734977  0.50038637
   0.83343552  0.33213366  0.39603129
   0.25372975 -0.00333307  0.60394438
   0.41657558  0.16626922  0.49983783
   0.16723167  0.16650395  0.49897201
  -0.00280551  0.50321995  0.60200487
   0.58360196  0.58598571  0.39622291
   0.08269289  0.58391901  0.39557794
  -0.00226697  0.25149414  0.60304182
   0.83354585  0.83408918  0.39788528
   0.08413236  0.33169195  0.39519566
   0.00048974 -0.00242450  0.60416692
   0.91530349  0.16694475  0.49954704
   0.66645853  0.41843892  0.50037777
   0.66585829  0.16601807  0.49968853
   0.83479754  0.08247675  0.40192461
   0.50192908  0.74879155  0.59742851
   0.41660277  0.91575662  0.50088987
   0.08433908  0.08120337  0.40141616
   0.83326624  0.58364016  0.40376197
   0.66803760  0.66514285  0.49978607
   0.74923321  0.50093725  0.59690579
   0.74865085  0.25186309  0.59851025
   0.58183839  0.83439880  0.40300799
   0.25202339  0.74838835  0.59875671
   0.50137129  0.25021588  0.59770329
   0.41486400  0.41847991  0.50044906
   0.58268866  0.33325886  0.40217825
   0.50113518 -0.00076641  0.59806136
   0.33295219  0.83606353  0.40229121
   0.33319127  0.33323378  0.40205407
   0.33378339  0.08113821  0.40197845
  -0.00024892  0.74973587  0.59743607
   0.91517462  0.91602784  0.50039029
   0.08328720  0.83568857  0.40206841
   0.91518855  0.66586970  0.49996904
   0.91520227  0.41900651  0.50025574
   0.50160349  0.49964382  0.59806930
   0.74912581  0.74905191  0.59723581
Direct configuration=    12
   0.16482794  0.41846326  0.49947012
   0.58148770  0.08551651  0.39405187
   0.66734305  0.91244641  0.50028261
   0.16647502  0.91624491  0.50011923
   0.74911371 -0.00044251  0.60346925
   0.25283470  0.50058044  0.60406092
   0.16389567  0.66799195  0.50003969
   0.33400708  0.58287795  0.39641318
   0.25350465  0.24883495  0.60710116
   0.41797500  0.66726711  0.50017654
   0.83344950  0.33203519  0.39582854
   0.25387042 -0.00342174  0.60426834
   0.41648944  0.16628274  0.49981247
   0.16673652  0.16694841  0.49909762
  -0.00260669  0.50316474  0.60205743
   0.58359784  0.58605876  0.39593581
   0.08262476  0.58406020  0.39529895
  -0.00198511  0.25130912  0.60319718
   0.83345857  0.83414936  0.39784618
   0.08418336  0.33156159  0.39496842
   0.00054435 -0.00256458  0.60449353
   0.91534690  0.16698429  0.49961281
   0.66614863  0.41840811  0.50012959
   0.66565374  0.16614532  0.49963257
   0.83468141  0.08249653  0.40204808
   0.50219480  0.74860674  0.59733565
   0.41688263  0.91568467  0.50108770
   0.08425531  0.08134279  0.40172321
   0.83331704  0.58362388  0.40375728
   0.66782948  0.66542504  0.49968853
   0.74917594  0.50101803  0.59670659
   0.74870470  0.25175160  0.59831353
   0.58177367  0.83457761  0.40311246
   0.25219521  0.74826570  0.59862791
   0.50151983  0.25024263  0.59762274
   0.41488974  0.41854787  0.50051090
   0.58268559  0.33335955  0.40221326
   0.50131129 -0.00092506  0.59803752
   0.33298750  0.83606185  0.40245872
   0.33316444  0.33315287  0.40215632
   0.33386205  0.08119826  0.40215327
  -0.00013437  0.74964331  0.59735073
   0.91507762  0.91586990  0.50052759
   0.08332393  0.83564372  0.40226156
   0.91512490  0.66596727  0.49986013
   0.91543151  0.41880749  0.50020973
   0.50173900  0.49961128  0.59784450
   0.74903000  0.74912398  0.59702811
Direct configuration=    13
   0.16457531  0.41841929  0.49953545
   0.58140418  0.08545570  0.39368296
   0.66714574  0.91218086  0.50018007
   0.16618231  0.91636834  0.50046302
   0.74914508 -0.00047877  0.60365442
   0.25297306  0.50061687  0.60430353
   0.16382904  0.66800420  0.49985684
   0.33399513  0.58312712  0.39613517
   0.25359953  0.24889908  0.60773227
   0.41795312  0.66716090  0.49990690
   0.83346747  0.33190866  0.39556800
   0.25405119 -0.00353568  0.60468463
   0.41637876  0.16630013  0.49977988
   0.16610027  0.16751954  0.49925903
  -0.00235122  0.50309379  0.60212496
   0.58359255  0.58615264  0.39556690
   0.08253721  0.58424163  0.39494045
  -0.00162293  0.25107136  0.60339683
   0.83334642  0.83422669  0.39779594
   0.08424890  0.33139407  0.39467640
   0.00061454 -0.00274459  0.60491321
   0.91540269  0.16703511  0.49969732
   0.66575040  0.41836853  0.49981067
   0.66539088  0.16630884  0.49956067
   0.83453219  0.08252194  0.40220673
   0.50253624  0.74836926  0.59721633
   0.41724225  0.91559222  0.50134190
   0.08414767  0.08152194  0.40211777
   0.83338233  0.58360296  0.40375124
   0.66756205  0.66578765  0.49956319
   0.74910235  0.50112182  0.59645063
   0.74877390  0.25160834  0.59806074
   0.58169050  0.83480739  0.40324670
   0.25241600  0.74810809  0.59846241
   0.50171070  0.25027701  0.59751923
   0.41492281  0.41863521  0.50059037
   0.58268164  0.33348895  0.40225824
   0.50153759 -0.00112893  0.59800689
   0.33303287  0.83605968  0.40267397
   0.33312997  0.33304889  0.40228771
   0.33396313  0.08127542  0.40237792
   0.00001282  0.74952437  0.59724106
   0.91495297  0.91566694  0.50070402
   0.08337113  0.83558609  0.40250976
   0.91504312  0.66609264  0.49972018
   0.91572608  0.41855176  0.50015062
   0.50191315  0.49956946  0.59755563
   0.74890688  0.74921658  0.59676122
Direct configuration=    14
   0.16467204  0.41847668  0.49954756
   0.58146918  0.08545208  0.39354192
   0.66707937  0.91237530  0.50010072
   0.16593426  0.91681683  0.50070327
   0.74928584 -0.00057104  0.60368248
   0.25321499  0.50049492  0.60436309
   0.16376666  0.66772074  0.49977117
   0.33391651  0.58326499  0.39599056
   0.25391500  0.24864526  0.60807950
   0.41783438  0.66719417  0.49975133
   0.83332970  0.33200501  0.39540193
   0.25443424 -0.00372471  0.60499166
   0.41614153  0.16651214  0.49985550
   0.16606879  0.16735932  0.49941333
  -0.00227404  0.50301188  0.60210983
   0.58364042  0.58623298  0.39534223
   0.08245459  0.58444978  0.39482356
  -0.00160277  0.25109940  0.60352874
   0.83322879  0.83429657  0.39783514
   0.08418046  0.33140685  0.39463191
   0.00060695 -0.00277257  0.60523443
   0.91551814  0.16688429  0.49982755
   0.66584097  0.41825203  0.49954144
   0.66524392  0.16640879  0.49948161
   0.83431433  0.08251278  0.40227658
   0.50281877  0.74820241  0.59713564
   0.41701554  0.91578675  0.50144029
   0.08406755  0.08154223  0.40236039
   0.83323378  0.58370014  0.40371098
   0.66753445  0.66560762  0.49936240
   0.74904978  0.50120900  0.59628501
   0.74901987  0.25142686  0.59792505
   0.58168414  0.83476820  0.40330062
   0.25266335  0.74810092  0.59838587
   0.50181776  0.25018289  0.59749802
   0.41467977  0.41857310  0.50054484
   0.58271232  0.33347130  0.40220200
   0.50148835 -0.00117247  0.59804622
   0.33313716  0.83611739  0.40281178
   0.33324234  0.33307646  0.40235119
   0.33409300  0.08116992  0.40254722
  -0.00003549  0.74946850  0.59717324
   0.91473181  0.91574215  0.50082048
   0.08330559  0.83557554  0.40263857
   0.91518145  0.66604835  0.49960553
   0.91546302  0.41877760  0.50000648
   0.50195289  0.49959951  0.59739643
   0.74892857  0.74922117  0.59662471
Direct configuration=    15
   0.16475702  0.41852710  0.49955819
   0.58152628  0.08544889  0.39341799
   0.66702105  0.91254614  0.50003100
   0.16571632  0.91721089  0.50091436
   0.74940951 -0.00065211  0.60370713
   0.25342754  0.50038778  0.60441542
   0.16371186  0.66747170  0.49969590
   0.33384743  0.58338611  0.39586349
   0.25419217  0.24842225  0.60838459
   0.41773005  0.66722341  0.49961464
   0.83320866  0.33208966  0.39525602
   0.25477080 -0.00389080  0.60526143
   0.41593311  0.16669842  0.49992195
   0.16604113  0.16721855  0.49954891
  -0.00220623  0.50293992  0.60209653
   0.58368248  0.58630356  0.39514482
   0.08238199  0.58463265  0.39472086
  -0.00158505  0.25112403  0.60364464
   0.83312543  0.83435797  0.39786959
   0.08412032  0.33141807  0.39459281
   0.00060027 -0.00279716  0.60551665
   0.91561958  0.16675178  0.49994196
   0.66592054  0.41814967  0.49930489
   0.66511479  0.16649661  0.49941214
   0.83412292  0.08250474  0.40233794
   0.50306700  0.74805580  0.59706474
   0.41681635  0.91595766  0.50152673
   0.08399716  0.08156005  0.40257356
   0.83310326  0.58378552  0.40367561
   0.66751019  0.66544944  0.49918598
   0.74900359  0.50128559  0.59613949
   0.74923599  0.25126740  0.59780583
   0.58167855  0.83473378  0.40334800
   0.25288067  0.74809462  0.59831861
   0.50191182  0.25010019  0.59747938
   0.41446623  0.41851852  0.50050483
   0.58273928  0.33345579  0.40215258
   0.50144509 -0.00121072  0.59808078
   0.33322880  0.83616809  0.40293287
   0.33334107  0.33310068  0.40240697
   0.33420711  0.08107722  0.40269598
  -0.00007795  0.74941942  0.59711365
   0.91453750  0.91580824  0.50092281
   0.08324800  0.83556627  0.40275175
   0.91530298  0.66600943  0.49950480
   0.91523189  0.41897603  0.49987984
   0.50198781  0.49962592  0.59725656
   0.74894762  0.74922521  0.59650478
Direct configuration=    16
   0.16467701  0.41829569  0.49956248
   0.58148269  0.08553288  0.39336821
   0.66680737  0.91286150  0.49999008
   0.16569485  0.91694887  0.50116471
   0.74946518 -0.00073733  0.60364703
   0.25359786  0.50023519  0.60437954
   0.16368339  0.66770661  0.49968970
   0.33383546  0.58342143  0.39576082
   0.25442016  0.24818962  0.60866104
   0.41742055  0.66732133  0.49950613
   0.83314115  0.33209327  0.39507948
   0.25502250 -0.00411530  0.60562281
   0.41570065  0.16682020  0.50011316
   0.16614570  0.16738143  0.49979988
  -0.00207147  0.50272471  0.60199837
   0.58354188  0.58640656  0.39491040
   0.08233195  0.58462678  0.39469225
  -0.00156942  0.25122497  0.60376154
   0.83304323  0.83439578  0.39793885
   0.08407884  0.33153349  0.39472494
   0.00086115 -0.00283539  0.60587197
   0.91539312  0.16681448  0.50010525
   0.66604020  0.41804183  0.49905608
   0.66499236  0.16660394  0.49934359
   0.83407725  0.08251575  0.40237493
   0.50326448  0.74794652  0.59697002
   0.41657716  0.91607010  0.50158540
   0.08386441  0.08153818  0.40275007
   0.83300578  0.58391132  0.40353080
   0.66742077  0.66537703  0.49893910
   0.74914341  0.50114735  0.59595327
   0.74937329  0.25126010  0.59770674
   0.58166054  0.83466898  0.40333460
   0.25299617  0.74813982  0.59826111
   0.50211922  0.24986813  0.59750110
   0.41440490  0.41849929  0.50037911
   0.58264237  0.33349412  0.40197325
   0.50157265 -0.00125283  0.59815118
   0.33321025  0.83630759  0.40306677
   0.33338018  0.33324535  0.40239361
   0.33424348  0.08105779  0.40286743
   0.00004683  0.74928790  0.59707142
   0.91452141  0.91595821  0.50103495
   0.08312902  0.83574623  0.40289551
   0.91528850  0.66591014  0.49939237
   0.91509025  0.41912010  0.49968962
   0.50214183  0.49953793  0.59708164
   0.74908949  0.74915240  0.59634769
Direct configuration=    17
   0.16462403  0.41814246  0.49956532
   0.58145382  0.08558849  0.39333525
   0.66666588  0.91307030  0.49996298
   0.16568064  0.91677539  0.50133047