  48  48   0   0
  0.5349325E+02  0.1100258E-08  0.1100258E-08  0.2449179E-08  0.3500000E-15
  1.000000000000000E-004
  CAR 
 unknown system                          
      6.36584491     -9.84861427  301     -1.10041821      1.00000000
     -9.849  0.0000E+00  0.0000E+00
     -9.795  0.0000E+00  0.0000E+00
     -9.741  0.0000E+00  0.0000E+00
     -9.686  0.0000E+00  0.0000E+00
     -9.632  0.0000E+00  0.0000E+00
     -9.578  0.0000E+00  0.0000E+00
     -9.524  0.0000E+00  0.0000E+00
     -9.470  0.0000E+00  0.0000E+00
     -9.416  0.1027E-16  0.5551E-18
     -9.362  0.4093E-14  0.2218E-15
     -9.308  0.9061E-12  0.4919E-13
     -9.254  0.1134E-09  0.6177E-11
     -9.200  0.8034E-08  0.4404E-09
     -9.146  0.3232E-06  0.1791E-07
     -9.092  0.7400E-05  0.4179E-06
     -9.038  0.9671E-04  0.5645E-05
     -8.984  0.7234E-03  0.4474E-04
     -8.930  0.3106E-02  0.2126E-03
     -8.876  0.7685E-02  0.6280E-03
     -8.822  0.1110E-01  0.1228E-02
     -8.768  0.1011E-01  0.1775E-02
     -8.714  0.8317E-02  0.2224E-02
     -8.660  0.9654E-02  0.2746E-02
     -8.606  0.1076E-01  0.3327E-02
     -8.551  0.7889E-02  0.3754E-02
     -8.497  0.3508E-02  0.3943E-02
     -8.443  0.1094E-02  0.4003E-02
     -8.389  0.1134E-02  0.4064E-02
     -8.335  0.3376E-02  0.4246E-02
     -8.281  0.7178E-02  0.4634E-02
     -8.227  0.9860E-02  0.5167E-02
     -8.173  0.8955E-02  0.5651E-02
     -8.119  0.6468E-02  0.6001E-02
     -8.065  0.6902E-02  0.6374E-02
     -8.011  0.1035E-01  0.6933E-02
     -7.957  0.1251E-01  0.7610E-02
     -7.903  0.1261E-01  0.8291E-02
     -7.849  0.1297E-01  0.8992E-02
     -7.795  0.1271E-01  0.9679E-02
     -7.741  0.1111E-01  0.1028E-01
     -7.687  0.9766E-02  0.1081E-01
     -7.633  0.9423E-02  0.1132E-01
     -7.579  0.1134E-01  0.1193E-01
     -7.525  0.1634E-01  0.1281E-01
     -7.470  0.2238E-01  0.1402E-01
     -7.416  0.2645E-01  0.1545E-01
     -7.362  0.2607E-01  0.1686E-01
     -7.308  0.2239E-01  0.1807E-01
     -7.254  0.2106E-01  0.1921E-01
     -7.200  0.2479E-01  0.2055E-01
     -7.146  0.3118E-01  0.2224E-01
     -7.092  0.3814E-01  0.2430E-01
     -7.038  0.4519E-01  0.2674E-01
     -6.984  0.5267E-01  0.2959E-01
     -6.930  0.6342E-01  0.3301E-01
     -6.876  0.7602E-01  0.3712E-01
     -6.822  0.8219E-01  0.4156E-01
     -6.768  0.8018E-01  0.4590E-01
     -6.714  0.7833E-01  0.5013E-01
     -6.660  0.8114E-01  0.5452E-01
     -6.606  0.8736E-01  0.5924E-01
     -6.552  0.9747E-01  0.6451E-01
     -6.498  0.1069E+00  0.7029E-01
     -6.444  0.1089E+00  0.7617E-01
     -6.390  0.1105E+00  0.8214E-01
     -6.335  0.1214E+00  0.8870E-01
     -6.281  0.1364E+00  0.9608E-01
     -6.227  0.1481E+00  0.1041E+00
     -6.173  0.1577E+00  0.1126E+00
     -6.119  0.1662E+00  0.1216E+00
     -6.065  0.1696E+00  0.1308E+00
     -6.011  0.1637E+00  0.1396E+00
     -5.957  0.1513E+00  0.1478E+00
     -5.903  0.1412E+00  0.1554E+00
     -5.849  0.1370E+00  0.1628E+00
     -5.795  0.1352E+00  0.1701E+00
     -5.741  0.1330E+00  0.1773E+00
     -5.687  0.1311E+00  0.1844E+00
     -5.633  0.1324E+00  0.1915E+00
     -5.579  0.1361E+00  0.1989E+00
     -5.525  0.1401E+00  0.2065E+00
     -5.471  0.1456E+00  0.2143E+00
     -5.417  0.1524E+00  0.2226E+00
     -5.363  0.1565E+00  0.2310E+00
     -5.309  0.1571E+00  0.2395E+00
     -5.255  0.1578E+00  0.2481E+00
     -5.200  0.1616E+00  0.2568E+00
     -5.146  0.1701E+00  0.2660E+00
     -5.092  0.1802E+00  0.2757E+00
     -5.038  0.1857E+00  0.2858E+00
     -4.984  0.1842E+00  0.2957E+00
     -4.930  0.1775E+00  0.3053E+00
     -4.876  0.1701E+00  0.3145E+00
     -4.822  0.1668E+00  0.3235E+00
     -4.768  0.1682E+00  0.3326E+00
     -4.714  0.1705E+00  0.3418E+00
     -4.660  0.1696E+00  0.3510E+00
     -4.606  0.1656E+00  0.3600E+00
     -4.552  0.1623E+00  0.3687E+00
     -4.498  0.1623E+00  0.3775E+00
     -4.444  0.1649E+00  0.3864E+00
     -4.390  0.1681E+00  0.3955E+00
     -4.336  0.1704E+00  0.4047E+00
     -4.282  0.1712E+00  0.4140E+00
     -4.228  0.1705E+00  0.4232E+00
     -4.174  0.1695E+00  0.4323E+00
     -4.120  0.1713E+00  0.4416E+00
     -4.065  0.1770E+00  0.4512E+00
     -4.011  0.1838E+00  0.4611E+00
     -3.957  0.1873E+00  0.4712E+00
     -3.903  0.1866E+00  0.4813E+00
     -3.849  0.1869E+00  0.4914E+00
     -3.795  0.1915E+00  0.5018E+00
     -3.741  0.1973E+00  0.5124E+00
     -3.687  0.2013E+00  0.5233E+00
     -3.633  0.2034E+00  0.5343E+00
     -3.579  0.2045E+00  0.5453E+00
     -3.525  0.2060E+00  0.5565E+00
     -3.471  0.2086E+00  0.5678E+00
     -3.417  0.2101E+00  0.5791E+00
     -3.363  0.2106E+00  0.5905E+00
     -3.309  0.2109E+00  0.6019E+00
     -3.255  0.2086E+00  0.6132E+00
     -3.201  0.2024E+00  0.6241E+00
     -3.147  0.1928E+00  0.6345E+00
     -3.093  0.1807E+00  0.6443E+00
     -3.039  0.1719E+00  0.6536E+00
     -2.984  0.1708E+00  0.6628E+00
     -2.930  0.1733E+00  0.6722E+00
     -2.876  0.1759E+00  0.6817E+00
     -2.822  0.1803E+00  0.6914E+00
     -2.768  0.1856E+00  0.7015E+00
     -2.714  0.1897E+00  0.7117E+00
     -2.660  0.1953E+00  0.7223E+00
     -2.606  0.2013E+00  0.7332E+00
     -2.552  0.2005E+00  0.7440E+00
     -2.498  0.1939E+00  0.7545E+00
     -2.444  0.1898E+00  0.7647E+00
     -2.390  0.1903E+00  0.7750E+00
     -2.336  0.1906E+00  0.7853E+00
     -2.282  0.1883E+00  0.7955E+00
     -2.228  0.1838E+00  0.8054E+00
     -2.174  0.1795E+00  0.8151E+00
     -2.120  0.1790E+00  0.8248E+00
     -2.066  0.1832E+00  0.8347E+00
     -2.012  0.1890E+00  0.8449E+00
     -1.958  0.1948E+00  0.8554E+00
     -1.904  0.2013E+00  0.8663E+00
     -1.849  0.2068E+00  0.8775E+00
     -1.795  0.2068E+00  0.8887E+00
     -1.741  0.1999E+00  0.8995E+00
     -1.687  0.1882E+00  0.9097E+00
     -1.633  0.1762E+00  0.9192E+00
     -1.579  0.1690E+00  0.9283E+00
     -1.525  0.1696E+00  0.9375E+00
     -1.471  0.1767E+00  0.9470E+00
     -1.417  0.1852E+00  0.9570E+00
     -1.363  0.1898E+00  0.9673E+00
     -1.309  0.1876E+00  0.9774E+00
     -1.255  0.1772E+00  0.9870E+00
     -1.201  0.1586E+00  0.9956E+00
     -1.147  0.1344E+00  0.1003E+01
     -1.093  0.1092E+00  0.1009E+01
     -1.039  0.8370E-01  0.1013E+01
     -0.985  0.5652E-01  0.1016E+01
     -0.931  0.3377E-01  0.1018E+01
     -0.877  0.2198E-01  0.1019E+01
     -0.823  0.1899E-01  0.1020E+01
     -0.769  0.2009E-01  0.1021E+01
     -0.714  0.2271E-01  0.1023E+01
     -0.660  0.2637E-01  0.1024E+01
     -0.606  0.3271E-01  0.1026E+01
     -0.552  0.4144E-01  0.1028E+01
     -0.498  0.4716E-01  0.1031E+01
     -0.444  0.4473E-01  0.1033E+01
     -0.390  0.3493E-01  0.1035E+01
     -0.336  0.2774E-01  0.1036E+01
     -0.282  0.3319E-01  0.1038E+01
     -0.228  0.4419E-01  0.1041E+01
     -0.174  0.4512E-01  0.1043E+01
     -0.120  0.3470E-01  0.1045E+01
     -0.066  0.2281E-01  0.1046E+01
     -0.012  0.1574E-01  0.1047E+01
      0.042  0.1623E-01  0.1048E+01
      0.096  0.2435E-01  0.1049E+01
      0.150  0.3305E-01  0.1051E+01
      0.204  0.3530E-01  0.1053E+01
      0.258  0.3373E-01  0.1055E+01
      0.312  0.3312E-01  0.1057E+01
      0.366  0.3370E-01  0.1058E+01
      0.421  0.3627E-01  0.1060E+01
      0.475  0.4163E-01  0.1063E+01
      0.529  0.4737E-01  0.1065E+01
      0.583  0.5053E-01  0.1068E+01
      0.637  0.4924E-01  0.1071E+01
      0.691  0.4459E-01  0.1073E+01
      0.745  0.3914E-01  0.1075E+01
      0.799  0.3201E-01  0.1077E+01
      0.853  0.2420E-01  0.1078E+01
      0.907  0.2099E-01  0.1079E+01
      0.961  0.2177E-01  0.1080E+01
      1.015  0.2276E-01  0.1082E+01
      1.069  0.2363E-01  0.1083E+01
      1.123  0.2349E-01  0.1084E+01
      1.177  0.2092E-01  0.1085E+01
      1.231  0.1741E-01  0.1086E+01
      1.285  0.1410E-01  0.1087E+01
      1.339  0.1036E-01  0.1088E+01
      1.393  0.7883E-02  0.1088E+01
      1.447  0.1120E-01  0.1089E+01
      1.502  0.2249E-01  0.1090E+01
      1.556  0.3550E-01  0.1092E+01
      1.610  0.3989E-01  0.1094E+01
      1.664  0.3494E-01  0.1096E+01
      1.718  0.3086E-01  0.1097E+01
      1.772  0.3257E-01  0.1099E+01
      1.826  0.3412E-01  0.1101E+01
      1.880  0.3118E-01  0.1103E+01
      1.934  0.2784E-01  0.1104E+01
      1.988  0.2880E-01  0.1106E+01
      2.042  0.3158E-01  0.1108E+01
      2.096  0.3058E-01  0.1109E+01
      2.150  0.2693E-01  0.1111E+01
      2.204  0.2824E-01  0.1112E+01
      2.258  0.3595E-01  0.1114E+01
      2.312  0.4331E-01  0.1116E+01
      2.366  0.4525E-01  0.1119E+01
      2.420  0.4188E-01  0.1121E+01
      2.474  0.3706E-01  0.1123E+01
      2.528  0.3585E-01  0.1125E+01
      2.582  0.4058E-01  0.1127E+01
      2.637  0.4705E-01  0.1130E+01
      2.691  0.4826E-01  0.1132E+01
      2.745  0.4184E-01  0.1135E+01
      2.799  0.3068E-01  0.1136E+01
      2.853  0.2030E-01  0.1137E+01
      2.907  0.1497E-01  0.1138E+01
      2.961  0.1353E-01  0.1139E+01
      3.015  0.1146E-01  0.1140E+01
      3.069  0.9219E-02  0.1140E+01
      3.123  0.1172E-01  0.1141E+01
      3.177  0.1827E-01  0.1142E+01
      3.231  0.2274E-01  0.1143E+01
      3.285  0.2282E-01  0.1144E+01
      3.339  0.2122E-01  0.1145E+01
      3.393  0.2155E-01  0.1146E+01
      3.447  0.2485E-01  0.1148E+01
      3.501  0.2828E-01  0.1149E+01
      3.555  0.3074E-01  0.1151E+01
      3.609  0.3469E-01  0.1153E+01
      3.663  0.3902E-01  0.1155E+01
      3.717  0.3941E-01  0.1157E+01
      3.772  0.3441E-01  0.1159E+01
      3.826  0.2691E-01  0.1160E+01
      3.880  0.2196E-01  0.1162E+01
      3.934  0.2229E-01  0.1163E+01
      3.988  0.2613E-01  0.1164E+01
      4.042  0.2847E-01  0.1166E+01
      4.096  0.2673E-01  0.1167E+01
      4.150  0.2427E-01  0.1169E+01
      4.204  0.2328E-01  0.1170E+01
      4.258  0.2075E-01  0.1171E+01
      4.312  0.1638E-01  0.1172E+01
      4.366  0.1673E-01  0.1173E+01
      4.420  0.2437E-01  0.1174E+01
      4.474  0.3148E-01  0.1176E+01
      4.528  0.3466E-01  0.1178E+01
      4.582  0.4113E-01  0.1180E+01
      4.636  0.5030E-01  0.1183E+01
      4.690  0.5243E-01  0.1185E+01
      4.744  0.4950E-01  0.1188E+01
      4.798  0.5086E-01  0.1191E+01
      4.852  0.5652E-01  0.1194E+01
      4.907  0.6022E-01  0.1197E+01
      4.961  0.6089E-01  0.1200E+01
      5.015  0.6312E-01  0.1204E+01
      5.069  0.6612E-01  0.1207E+01
      5.123  0.6335E-01  0.1211E+01
      5.177  0.5762E-01  0.1214E+01
      5.231  0.5589E-01  0.1217E+01
      5.285  0.5242E-01  0.1220E+01
      5.339  0.4016E-01  0.1222E+01
      5.393  0.2360E-01  0.1223E+01
      5.447  0.1028E-01  0.1224E+01
      5.501  0.3105E-02  0.1224E+01
      5.555  0.6063E-03  0.1224E+01
      5.609  0.7274E-04  0.1224E+01
      5.663  0.5201E-05  0.1224E+01
      5.717  0.2177E-06  0.1224E+01
      5.771  0.5277E-08  0.1224E+01
      5.825  0.7349E-10  0.1224E+01
      5.879  0.5846E-12  0.1224E+01
      5.933  0.2646E-14  0.1224E+01
      5.988  0.5478E-17  0.1224E+01
      6.042  0.0000E+00  0.1224E+01
      6.096  0.0000E+00  0.1224E+01
      6.150  0.0000E+00  0.1224E+01
      6.204  0.0000E+00  0.1224E+01
      6.258  0.0000E+00  0.1224E+01
      6.312  0.0000E+00  0.1224E+01
      6.366  0.0000E+00  0.1224E+01
