 vasp.5.4.1 24Jun15 (build Mar 14 2019 10:18:33) complex                        
  
 executed on INTEL-19.0.2+OPENMPI date 2022.07.15  22:03:14
 running on   36 total cores
 distrk:  each k-point on   36 cores,    1 groups
 distr:  one band on NCORES_PER_BAND=   6 cores,    6 groups


--------------------------------------------------------------------------------------------------------


 INCAR:
 POTCAR:    PAW_PBE Au 04Oct2007                  
 POTCAR:    PAW_PBE Pd 04Jan2005                  
 POTCAR:    PAW_PBE Au 04Oct2007                  
  local pseudopotential read in
  partial core-charges read in
  partial kinetic energy density read in
  atomic valenz-charges read in
  non local Contribution for L=           2  read in
    real space projection operators read in
  non local Contribution for L=           2  read in
    real space projection operators read in
  non local Contribution for L=           0  read in
    real space projection operators read in
  non local Contribution for L=           0  read in
    real space projection operators read in
  non local Contribution for L=           1  read in
    real space projection operators read in
  non local Contribution for L=           1  read in
    real space projection operators read in
    PAW grid and wavefunctions read in
 
   number of l-projection  operators is LMAX  =           6
   number of lm-projection operators is LMMAX =          18
 
 POTCAR:    PAW_PBE Pd 04Jan2005                  
  local pseudopotential read in
  partial core-charges read in
  partial kinetic energy density read in
  atomic valenz-charges read in
  non local Contribution for L=           2  read in
    real space projection operators read in
  non local Contribution for L=           2  read in
    real space projection operators read in
  non local Contribution for L=           0  read in
    real space projection operators read in
  non local Contribution for L=           0  read in
    real space projection operators read in
  non local Contribution for L=           1  read in
    real space projection operators read in
  non local Contribution for L=           1  read in
    real space projection operators read in
    PAW grid and wavefunctions read in
 
   number of l-projection  operators is LMAX  =           6
   number of lm-projection operators is LMMAX =          18
 
 Optimization of the real space projectors (new method)

 maximal supplied QI-value         = 15.12
 optimisation between [QCUT,QGAM] = [ 10.13, 20.41] = [ 28.73,116.64] Ry 
 Optimized for a Real-space Cutoff    1.51 Angstroem

   l    n(q)    QCUT    max X(q) W(low)/X(q) W(high)/X(q)  e(spline) 
   2      8    10.129    60.898    0.46E-03    0.46E-03    0.14E-06
   2      8    10.129    58.894    0.47E-03    0.47E-03    0.14E-06
   0      9    10.129   109.617    0.16E-03    0.11E-03    0.54E-07
   0      9    10.129    75.026    0.15E-03    0.11E-03    0.52E-07
   1      9    10.129    16.344    0.96E-04    0.15E-03    0.14E-06
   1      9    10.129    10.160    0.81E-04    0.12E-03    0.11E-06
 Optimization of the real space projectors (new method)

 maximal supplied QI-value         = 14.36
 optimisation between [QCUT,QGAM] = [ 10.20, 20.39] = [ 29.12,116.47] Ry 
 Optimized for a Real-space Cutoff    1.51 Angstroem

   l    n(q)    QCUT    max X(q) W(low)/X(q) W(high)/X(q)  e(spline) 
   2      8    10.197    59.108    0.26E-03    0.14E-03    0.96E-07
   2      8    10.197    58.101    0.27E-03    0.14E-03    0.98E-07
   0      9    10.197   102.235    0.54E-04    0.60E-05    0.72E-07
   0      9    10.197    58.388    0.52E-04    0.60E-05    0.68E-07
   1      9    10.197    22.191    0.18E-03    0.25E-03    0.79E-07
   1      9    10.197    15.590    0.15E-03    0.21E-03    0.69E-07
  PAW_PBE Au 04Oct2007                  :
 energy of atom  1       EATOM= -926.0867
 kinetic energy error for atom=    0.0062 (will be added to EATOM!!)
  PAW_PBE Pd 04Jan2005                  :
 energy of atom  2       EATOM= -809.7530
 kinetic energy error for atom=    0.0091 (will be added to EATOM!!)
 
 
 POSCAR: Au Pd                                   
  positions in cartesian coordinates
  No initial velocities read in
 exchange correlation table for  LEXCH =        8
   RHO(1)=    0.500       N(1)  =     2000
   RHO(2)=  100.500       N(2)  =     4000

 VTST: version 3.2, (02/03/18)

 CHAIN: initializing optimizer
 
 OPT: Using VASP Conjugate-Gradient optimizer
 CHAIN: Read ICHAIN            0
 
 POSCAR: Au Pd                                   
  positions in cartesian coordinates
  No initial velocities read in
 


--------------------------------------------------------------------------------------------------------


 ion  position               nearest neighbor table
   1  0.083  0.083  0.408-  38 2.75  12 2.75  31 2.75   5 2.75  43 2.75  39 2.75  35 2.75  11 2.75
                            18 2.75
   2  0.667  0.667  0.500-  40 2.75  27 2.75  36 2.75  32 2.75  25 2.75  37 2.75   4 2.75   9 2.75
                            21 2.75   7 2.75  23 2.75  29 2.75
   3  0.750  0.250  0.592-   4 2.75  18 2.75   8 2.75  27 2.75  30 2.75  33 2.75  19 2.75  41 2.75
                             6 2.75
   4  0.667  0.417  0.500-  10 2.75   3 2.75   8 2.75   2 2.75   9 2.75   6 2.75  18 2.75  32 2.75
                            42 2.75  40 2.75  27 2.75   5 2.75
   5  0.833  0.333  0.408-  32 2.75  29 2.75   1 2.75  35 2.75  40 2.75  31 2.75  10 2.75  18 2.75
                             4 2.75
   6  0.667  0.167  0.500-  46 2.75  33 2.75  41 2.75  25 2.75  42 2.75   4 2.75  47 2.75  18 2.75
                            45 2.75  10 2.75  35 2.75   3 2.75
   7  0.583  0.833  0.408-  25 2.75  29 2.75  39 2.75  40 2.75  46 2.75  12 2.75  26 2.75   2 2.75
                            37 2.75
   8  0.500  0.500  0.592-   9 2.75   4 2.75   3 2.75  16 2.75  36 2.75  41 2.75  13 2.75  27 2.75
                            42 2.75
   9  0.417  0.667  0.500-  34 2.75   8 2.75  16 2.75   4 2.75  11 2.75  37 2.75  42 2.75   2 2.75
                            14 2.75  12 2.75  40 2.75  36 2.75
  10  0.583  0.333  0.408-   4 2.75  34 2.75  35 2.75  40 2.75  46 2.75   5 2.75  22 2.75   6 2.75
                            42 2.75
  11  0.167  0.917  0.500-  43 2.75  16 2.75  30 2.75  18 2.75  14 2.75  38 2.75   9 2.75  37 2.75
                            47 2.75   1 2.75  12 2.75  48 2.75
  12  0.333  0.833  0.408-  37 2.75  34 2.75   1 2.75  39 2.75  40 2.75   7 2.75  43 2.75   9 2.75
                            11 2.75
  13  0.250  0.500  0.592-  14 2.75  42 2.75  24 2.75  28 2.75  41 2.75  16 2.75   8 2.75  17 2.75
                            15 2.75
  14  0.167  0.667  0.500-  20 2.75  13 2.75  24 2.75  11 2.75  15 2.75  42 2.75  47 2.75  21 2.75
                             9 2.75  43 2.75  34 2.75  16 2.75
  15  0.167  0.417  0.500-  31 2.75  28 2.75  17 2.75  14 2.75  21 2.75  38 2.75  45 2.75  42 2.75
                            32 2.75  20 2.75  13 2.75  22 2.75
  16  0.250  0.750  0.592-  11 2.75   9 2.75   8 2.75  13 2.75  30 2.75  48 2.75  36 2.75  24 2.75
                            14 2.75
  17  0.000  0.500  0.592-  21 2.75  15 2.75  19 2.75  23 2.75  24 2.75  28 2.75  27 2.75  13 2.75
                            32 2.75
  18  0.917  0.167  0.500-  35 2.75  30 2.75   3 2.75   4 2.75  32 2.75  11 2.75  47 2.75  38 2.75
                             6 2.75   5 2.75  19 2.75   1 2.75
  19  0.000  0.250  0.592-  32 2.75  38 2.75  30 2.75  17 2.75  27 2.75  48 2.75   3 2.75  28 2.75
                            18 2.75
  20  0.083  0.583  0.408-  14 2.75  22 2.75  26 2.75  31 2.75  43 2.75  34 2.75  29 2.75  15 2.75
                            21 2.75
  21  0.917  0.667  0.500-  29 2.75  17 2.75  23 2.75  25 2.75  15 2.75  32 2.75  47 2.75  14 2.75
                             2 2.75  26 2.75  24 2.75  20 2.75
  22  0.333  0.333  0.408-  42 2.75  34 2.75  39 2.75  20 2.75  46 2.75  10 2.75  31 2.75  45 2.75
                            15 2.75
  23  0.750  0.750  0.592-  25 2.75  21 2.75  17 2.75  27 2.75  33 2.75  44 2.75  36 2.75  24 2.75
                             2 2.75
  24  0.000  0.750  0.592-  47 2.75  14 2.75  17 2.75  30 2.75  33 2.75  13 2.75  23 2.75  16 2.75
                            21 2.75
  25  0.667  0.917  0.500-   7 2.75  23 2.75  44 2.75  21 2.75   6 2.75   2 2.75  45 2.75  37 2.75
                            47 2.75  46 2.75  33 2.75  26 2.75
  26  0.833  0.833  0.408-  47 2.75  29 2.75  35 2.75  46 2.75  20 2.75   7 2.75  43 2.75  21 2.75
                            25 2.75
  27  0.750  0.500  0.592-   2 2.75  32 2.75  19 2.75  23 2.75   3 2.75  36 2.75   8 2.75  17 2.75
                             4 2.75
  28  0.250  0.250  0.592-  15 2.75  45 2.75  17 2.75  44 2.75  13 2.75  48 2.75  41 2.75  19 2.75
                            38 2.75
  29  0.833  0.583  0.408-  21 2.75   7 2.75   5 2.75  26 2.75  31 2.75  20 2.75  40 2.75  32 2.75
                             2 2.75
  30  0.000  0.000  0.592-  18 2.75  11 2.75  16 2.75   3 2.75  19 2.75  24 2.75  33 2.75  48 2.75
                            47 2.75
  31  0.083  0.333  0.408-  15 2.75   1 2.75  20 2.75  29 2.75  39 2.75   5 2.75  22 2.75  38 2.75
                            32 2.75
  32  0.917  0.417  0.500-   5 2.75  19 2.75  27 2.75   2 2.75  21 2.75  18 2.75  38 2.75  15 2.75
                             4 2.75  29 2.75  31 2.75  17 2.75
  33  0.750  0.000  0.592-   6 2.75  47 2.75  23 2.75  24 2.75  41 2.75   3 2.75  44 2.75  30 2.75
                            25 2.75
  34  0.333  0.583  0.408-   9 2.75  10 2.75  12 2.75  22 2.75  43 2.75  40 2.75  20 2.75  42 2.75
                            14 2.75
  35  0.833  0.083  0.408-  18 2.75  10 2.75   5 2.75  26 2.75  43 2.75   1 2.75  46 2.75  47 2.75
                             6 2.75
  36  0.500  0.750  0.592-  37 2.75   2 2.75  27 2.75   8 2.75  44 2.75  48 2.75  16 2.75  23 2.75
                             9 2.75
  37  0.417  0.917  0.500-  12 2.75  36 2.75  48 2.75   9 2.75  38 2.75  45 2.75   2 2.75  11 2.75
                            25 2.75  39 2.75   7 2.75  44 2.75
  38  0.167  0.167  0.500-   1 2.75  48 2.75  19 2.75  11 2.75  32 2.75  37 2.75  15 2.75  45 2.75
                            18 2.75  31 2.75  28 2.75  39 2.75
  39  0.333  0.083  0.408-  45 2.75  12 2.75  22 2.75  31 2.75   7 2.75   1 2.75  46 2.75  37 2.75
                            38 2.75
  40  0.583  0.583  0.408-   2 2.75   5 2.75   7 2.75  10 2.75  12 2.75  29 2.75  34 2.75   4 2.75
                             9 2.75
  41  0.500  0.250  0.592-  42 2.75   6 2.75  13 2.75  33 2.75   8 2.75  44 2.75  28 2.75   3 2.75
                            45 2.75
  42  0.417  0.417  0.500-  22 2.75  41 2.75  13 2.75  14 2.75   9 2.75   6 2.75  45 2.75  15 2.75
                             4 2.75  34 2.75  10 2.75   8 2.75
  43  0.083  0.833  0.408-  11 2.75   1 2.75  20 2.75  34 2.75  35 2.75  12 2.75  26 2.75  14 2.75
                            47 2.75
  44  0.500  0.000  0.592-  45 2.75  25 2.75  28 2.75  36 2.75  41 2.75  23 2.75  33 2.75  48 2.75
                            37 2.75
  45  0.417  0.167  0.500-  39 2.75  44 2.75  28 2.75  37 2.75  25 2.75  42 2.75  15 2.75  38 2.75
                             6 2.75  22 2.75  41 2.75  46 2.75
  46  0.583  0.083  0.408-   6 2.75   7 2.75  10 2.75  22 2.75  26 2.75  35 2.75  39 2.75  25 2.75
                            45 2.75
  47  0.917  0.917  0.500-  26 2.75  24 2.75  33 2.75  21 2.75   6 2.75  14 2.75  18 2.75  11 2.75
                            25 2.75  35 2.75  30 2.75  43 2.75
  48  0.250  0.000  0.592-  38 2.75  37 2.75  28 2.75  36 2.75  16 2.75  19 2.75  30 2.75  44 2.75
                            11 2.75
 
  LATTYP: Found a hexagonal cell.
 ALAT       =    11.0025815153
 C/A-ratio  =     2.2260035120
  
  Lattice vectors:
  
 A1 = (   5.5012907576,  -9.5285150994,   0.0000000000)
 A2 = ( -11.0025815153,   0.0000000000,   0.0000000000)
 A3 = (   0.0000000000,   0.0000000000, -24.4917850943)


Analysis of symmetry for initial positions (statically):
=====================================================================
 Subroutine PRICEL returns:
 Original cell was already a primitive cell.
 

 Routine SETGRP: Setting up the symmetry group for a 
 hexagonal supercell.


 Subroutine GETGRP returns: Found  1 space group operations
 (whereof  1 operations were pure point group operations)
 out of a pool of 24 trial point group operations.


The static configuration has the point symmetry C_1 .


Analysis of symmetry for dynamics (positions and initial velocities):
=====================================================================
 Subroutine PRICEL returns:
 Original cell was already a primitive cell.
 

 Routine SETGRP: Setting up the symmetry group for a 
 hexagonal supercell.


 Subroutine GETGRP returns: Found  1 space group operations
 (whereof  1 operations were pure point group operations)
 out of a pool of 24 trial point group operations.


The dynamic configuration has the point symmetry C_1 .
 
 
 KPOINTS: Automatic mesh                          

Automatic generation of k-mesh.
Space group operators:
 irot       det(A)        alpha          n_x          n_y          n_z        tau_x        tau_y        tau_z
    1     1.000000     0.000000     1.000000     0.000000     0.000000     0.000000     0.000000     0.000000
 
 Subroutine IBZKPT returns following result:
 ===========================================
 
 Found      6 irreducible k-points:
 
 Following reciprocal coordinates:
            Coordinates               Weight
  0.250000  0.250000  0.000000     16.000000
  0.000000  0.250000  0.000000     16.000000
 -0.250000  0.000000  0.000000     16.000000
 -0.250000  0.250000  0.000000     16.000000
  0.500000 -0.250000  0.000000     16.000000
 -0.250000  0.500000  0.000000     16.000000
 
 Following cartesian coordinates:
            Coordinates               Weight
  0.022722  0.013119  0.000000     16.000000
  0.000000  0.026237  0.000000     16.000000
 -0.022722  0.013119  0.000000     16.000000
 -0.022722  0.039356  0.000000     16.000000
  0.045444 -0.052474  0.000000     16.000000
 -0.022722  0.065593  0.000000     16.000000
 


--------------------------------------------------------------------------------------------------------




 Dimension of arrays:
   k-points           NKPTS =      6   k-points in BZ     NKDIM =      6   number of bands    NBANDS=    306
   number of dos      NEDOS =    301   number of ions     NIONS =     48
   non local maximal  LDIM  =      6   non local SUM 2l+1 LMDIM =     18
   total plane-waves  NPLWV = 349920
   max r-space proj   IRMAX =   2009   max aug-charges    IRDMAX=   8532
   dimension x,y,z NGX =    54 NGY =   54 NGZ =  120
   dimension x,y,z NGXF=   108 NGYF=  108 NGZF=  240
   support grid    NGXF=   108 NGYF=  108 NGZF=  240
   ions per type =              24  24
 NGX,Y,Z   is equivalent  to a cutoff of   8.16,  8.16,  8.15 a.u.
 NGXF,Y,Z  is equivalent  to a cutoff of  16.32, 16.32, 16.29 a.u.


 I would recommend the setting:
   dimension x,y,z NGX =    54 NGY =   54 NGZ =  120
 SYSTEM =  unknown system                          
 POSCAR =  Au Pd                                   

 Startparameter for this run:
   NWRITE =      1    write-flag & timer
   PREC   = normal    normal or accurate (medium, high low for compatibility)
   ISTART =      0    job   : 0-new  1-cont  2-samecut
   ICHARG =      2    charge: 1-file 2-atom 10-const
   ISPIN  =      1    spin polarized calculation?
   LNONCOLLINEAR =      F non collinear calculations
   LSORBIT =      F    spin-orbit coupling
   INIWAV =      1    electr: 0-lowe 1-rand  2-diag
   LASPH  =      F    aspherical Exc in radial PAW
   METAGGA=      F    non-selfconsistent MetaGGA calc.

 Electronic Relaxation 1
   ENCUT  =  400.0 eV  29.40 Ry    5.42 a.u.  17.94 17.94 39.94*2*pi/ulx,y,z
   ENINI  =  400.0     initial cutoff
   ENAUG  =  416.2 eV  augmentation charge cutoff
   NELM   =    500;   NELMIN=  2; NELMDL= -5     # of ELM steps 
   EDIFF  = 0.1E-05   stopping-criterion for ELM
   LREAL  =      T    real-space projection
   NLSPLINE    = F    spline interpolate recip. space projectors
   LCOMPAT=      F    compatible to vasp.4.4
   GGA_COMPAT  = T    GGA compatible to vasp.4.4-vasp.4.6
   LMAXPAW     = -100 max onsite density
   LMAXMIX     =    2 max onsite mixed and CHGCAR
   VOSKOWN=      1    Vosko Wilk Nusair interpolation
   ROPT   =   -0.00050  -0.00050
 Ionic relaxation
   EDIFFG = -.2E-01   stopping-criterion for IOM
   NSW    =    500    number of steps for IOM
   NBLOCK =      1;   KBLOCK =    500    inner block; outer block 
   IBRION =      2    ionic relax: 0-MD 1-quasi-New 2-CG
   NFREE  =      2    steps in history (QN), initial steepest desc. (CG)
   ISIF   =      0    stress and relaxation
   IWAVPR =     11    prediction:  0-non 1-charg 2-wave 3-comb
   ISYM   =      2    0-nonsym 1-usesym 2-fastsym
   LCORR  =      T    Harris-Foulkes like correction to forces

   POTIM  = 0.3500    time-step for ionic-motion
   TEIN   =    0.0    initial temperature
   TEBEG  =    0.0;   TEEND  =   0.0 temperature during run
   SMASS  =  -3.00    Nose mass-parameter (am)
   estimated Nose-frequenzy (Omega)   =  0.10E-29 period in steps =****** mass=  -0.277E-26a.u.
   SCALEE = 1.0000    scale energy and forces
   NPACO  =    256;   APACO  = 16.0  distance and # of slots for P.C.
   PSTRESS=    0.0 pullay stress

  Mass of Ions in am
   POMASS = 196.97106.42
  Ionic Valenz
   ZVAL   =  11.00 10.00
  Atomic Wigner-Seitz radii
   RWIGS  =  -1.00 -1.00
  virtual crystal weights 
   VCA    =   1.00  1.00
   NELECT =     504.0000    total number of electrons
   NUPDOWN=      -1.0000    fix difference up-down

 DOS related values:
   EMIN   =  10.00;   EMAX   =-10.00  energy-range for DOS
   EFERMI =   0.00
   ISMEAR =     0;   SIGMA  =   0.10  broadening in eV -4-tet -1-fermi 0-gaus

 Electronic relaxation 2 (details)
   IALGO  =     68    algorithm
   LDIAG  =      T    sub-space diagonalisation (order eigenvalues)
   LSUBROT=      F    optimize rotation matrix (better conditioning)
   TURBO    =      0    0=normal 1=particle mesh
   IRESTART =      0    0=no restart 2=restart with 2 vectors
   NREBOOT  =      0    no. of reboots
   NMIN     =      0    reboot dimension
   EREF     =   0.00    reference energy to select bands
   IMIX   =      4    mixing-type and parameters
     AMIX     =   0.40;   BMIX     =  1.00
     AMIX_MAG =   1.60;   BMIX_MAG =  1.00
     AMIN     =   0.10
     WC   =   100.;   INIMIX=   1;  MIXPRE=   1;  MAXMIX= -45

 Intra band minimization:
   WEIMIN = 0.0010     energy-eigenvalue tresh-hold
   EBREAK =  0.82E-09  absolut break condition
   DEPER  =   0.30     relativ break condition  

   TIME   =   0.40     timestep for ELM

  volume/ion in A,a.u.               =      53.49       360.99
  Fermi-wavevector in a.u.,A,eV,Ry     =   0.951418  1.797920 12.315955  0.905197
  Thomas-Fermi vector in A             =   2.079887
 
 Write flags
   LWAVE  =      F    write WAVECAR
   LCHARG =      F    write CHGCAR
   LVTOT  =      F    write LOCPOT, total local potential
   LVHAR  =      F    write LOCPOT, Hartree potential only
   LELF   =      F    write electronic localiz. function (ELF)
   LORBIT =      0    0 simple, 1 ext, 2 COOP (PROOUT)


 Dipole corrections
   LMONO  =      F    monopole corrections only (constant potential shift)
   LDIPOL =      T    correct potential (dipole corrections)
   IDIPOL =      3    1-x, 2-y, 3-z, 4-all directions 
   EPSILON=  1.0000000 bulk dielectric constant

 Exchange correlation treatment:
   GGA     =    PE    GGA type
   LEXCH   =     8    internal setting for exchange type
   VOSKOWN=      1    Vosko Wilk Nusair interpolation
   LHFCALC =     F    Hartree Fock is set to
   LHFONE  =     F    Hartree Fock one center treatment
   AEXX    =    0.0000 exact exchange contribution

 Linear response parameters
   LEPSILON=     F    determine dielectric tensor
   LRPA    =     F    only Hartree local field effects (RPA)
   LNABLA  =     F    use nabla operator in PAW spheres
   LVEL    =     F    velocity operator in full k-point grid
   LINTERFAST=   F  fast interpolation
   KINTER  =     0    interpolate to denser k-point grid
   CSHIFT  =0.1000    complex shift for real part using Kramers Kronig
   OMEGAMAX=  -1.0    maximum frequency
   DEG_THRESHOLD= 0.2000000E-02 threshold for treating states as degnerate
   RTIME   =    0.100 relaxation time in fs

 Orbital magnetization related:
   ORBITALMAG=     F  switch on orbital magnetization
   LCHIMAG   =     F  perturbation theory with respect to B field
   DQ        =  0.001000  dq finite difference perturbation B field



--------------------------------------------------------------------------------------------------------


 conjugate gradient relaxation of ions
 charge density and potential will be updated during run
 non-spin polarized calculation
 RMM-DIIS sequential band-by-band and
  variant of blocked Davidson during initial phase
 perform sub-space diagonalisation
    before iterative eigenvector-optimisation
 modified Broyden-mixing scheme, WC =      100.0
 initial mixing is a Kerker type mixing with AMIX =  0.4000 and BMIX =      1.0000
 Hartree-type preconditioning will be used
 using additional bands           54
 real space projection scheme for non local part
 use partial core corrections
 calculate Harris-corrections to forces 
   (improved forces if not selfconsistent)
 use gradient corrections 
 use of overlap-Matrix (Vanderbilt PP)
 Gauss-broadening in eV      SIGMA  =   0.10


--------------------------------------------------------------------------------------------------------


  energy-cutoff  :      400.00
  volume of cell :     2567.68
      direct lattice vectors                 reciprocal lattice vectors
    11.002581515  0.000000000  0.000000000     0.090887761 -0.052474073  0.000000000
     5.501290758  9.528515099  0.000000000     0.000000000  0.104948147  0.000000000
     0.000000000  0.000000000 24.491785094     0.000000000  0.000000000  0.040830017

  length of vectors
    11.002581515 11.002581515 24.491785094     0.104948147  0.104948147  0.040830017


 
 k-points in units of 2pi/SCALE and weight: Automatic mesh                          
   0.02272194  0.01311852  0.00000000       0.167
   0.00000000  0.02623704  0.00000000       0.167
  -0.02272194  0.01311852  0.00000000       0.167
  -0.02272194  0.03935555  0.00000000       0.167
   0.04544388 -0.05247407  0.00000000       0.167
  -0.02272194  0.06559259  0.00000000       0.167
 
 k-points in reciprocal lattice and weights: Automatic mesh                          
   0.25000000  0.25000000  0.00000000       0.167
   0.00000000  0.25000000  0.00000000       0.167
  -0.25000000  0.00000000  0.00000000       0.167
  -0.25000000  0.25000000  0.00000000       0.167
   0.50000000 -0.25000000  0.00000000       0.167
  -0.25000000  0.50000000  0.00000000       0.167
 
 position of ions in fractional coordinates (direct lattice) 
   0.08333333  0.08333333  0.40830017
   0.66666667  0.66666667  0.50000000
   0.75000000  0.25000000  0.59169983
   0.66666667  0.41666667  0.50000000
   0.83333333  0.33333333  0.40830017
   0.66666667  0.16666667  0.50000000
   0.58333333  0.83333333  0.40830017
   0.50000000  0.50000000  0.59169983
   0.41666667  0.66666667  0.50000000
   0.58333333  0.33333333  0.40830017
   0.16666667  0.91666667  0.50000000
   0.33333333  0.83333333  0.40830017
   0.25000000  0.50000000  0.59169983
   0.16666667  0.66666667  0.50000000
   0.16666667  0.41666667  0.50000000
   0.25000000  0.75000000  0.59169983
   0.00000000  0.50000000  0.59169983
   0.91666667  0.16666667  0.50000000
   0.00000000  0.25000000  0.59169983
   0.08333333  0.58333333  0.40830017
   0.91666667  0.66666667  0.50000000
   0.33333333  0.33333333  0.40830017
   0.75000000  0.75000000  0.59169983
   0.00000000  0.75000000  0.59169983
   0.66666667  0.91666667  0.50000000
   0.83333333  0.83333333  0.40830017
   0.75000000  0.50000000  0.59169983
   0.25000000  0.25000000  0.59169983
   0.83333333  0.58333333  0.40830017
   0.00000000  0.00000000  0.59169983
   0.08333333  0.33333333  0.40830017
   0.91666667  0.41666667  0.50000000
   0.75000000  0.00000000  0.59169983
   0.33333333  0.58333333  0.40830017
   0.83333333  0.08333333  0.40830017
   0.50000000  0.75000000  0.59169983
   0.41666667  0.91666667  0.50000000
   0.16666667  0.16666667  0.50000000
   0.33333333  0.08333333  0.40830017
   0.58333333  0.58333333  0.40830017
   0.50000000  0.25000000  0.59169983
   0.41666667  0.41666667  0.50000000
   0.08333333  0.83333333  0.40830017
   0.50000000  0.00000000  0.59169983
   0.41666667  0.16666667  0.50000000
   0.58333333  0.08333333  0.40830017
   0.91666667  0.91666667  0.50000000
   0.25000000  0.00000000  0.59169983
 
 position of ions in cartesian coordinates  (Angst):
   1.37532269  0.79404292 10.00000000
  11.00258152  6.35234340 12.24589255
   9.62725883  2.38212877 14.49178509
   9.62725883  3.97021462 12.24589255
  11.00258152  3.17617170 10.00000000
   8.25193614  1.58808585 12.24589255
  11.00258152  7.94042925 10.00000000
   8.25193614  4.76425755 14.49178509
   8.25193614  6.35234340 12.24589255
   8.25193614  3.17617170 10.00000000
   6.87661345  8.73447217 12.24589255
   8.25193614  7.94042925 10.00000000
   5.50129076  4.76425755 14.49178509
   5.50129076  6.35234340 12.24589255
   4.12596807  3.97021462 12.24589255
   6.87661345  7.14638632 14.49178509
   2.75064538  4.76425755 14.49178509
  11.00258152  1.58808585 12.24589255
   1.37532269  2.38212877 14.49178509
   4.12596807  5.55830047 10.00000000
  13.75322689  6.35234340 12.24589255
   5.50129076  3.17617170 10.00000000
  12.37790420  7.14638632 14.49178509
   4.12596807  7.14638632 14.49178509
  12.37790420  8.73447217 12.24589255
  13.75322689  7.94042925 10.00000000
  11.00258152  4.76425755 14.49178509
   4.12596807  2.38212877 14.49178509
  12.37790420  5.55830047 10.00000000
   0.00000000  0.00000000 14.49178509
   2.75064538  3.17617170 10.00000000
  12.37790420  3.97021462 12.24589255
   8.25193614  0.00000000 14.49178509
   6.87661345  5.55830047 10.00000000
   9.62725883  0.79404292 10.00000000
   9.62725883  7.14638632 14.49178509
   9.62725883  8.73447217 12.24589255
   2.75064538  1.58808585 12.24589255
   4.12596807  0.79404292 10.00000000
   9.62725883  5.55830047 10.00000000
   6.87661345  2.38212877 14.49178509
   6.87661345  3.97021462 12.24589255
   5.50129076  7.94042925 10.00000000
   5.50129076  0.00000000 14.49178509
   5.50129076  1.58808585 12.24589255
   6.87661345  0.79404292 10.00000000
  15.12854958  8.73447217 12.24589255
   2.75064538  0.00000000 14.49178509
 


--------------------------------------------------------------------------------------------------------


 k-point  1 :   0.2500 0.2500 0.0000  plane waves:   46635
 k-point  2 :   0.0000 0.2500 0.0000  plane waves:   46635
 k-point  3 :  -0.2500 0.0000 0.0000  plane waves:   46635
 k-point  4 :  -0.2500 0.2500 0.0000  plane waves:   46644
 k-point  5 :   0.5000-0.2500 0.0000  plane waves:   46644
 k-point  6 :  -0.2500 0.5000 0.0000  plane waves:   46644

 maximum and minimum number of plane-waves per node :      7818     7732

 maximum number of plane-waves:     46644
 maximum index in each direction: 
   IXMAX=   18   IYMAX=   18   IZMAX=   39
   IXMIN=  -18   IYMIN=  -18   IZMIN=  -39

 WARNING: aliasing errors must be expected set NGX to  74 to avoid them
 WARNING: aliasing errors must be expected set NGY to  74 to avoid them
 WARNING: aliasing errors must be expected set NGZ to 158 to avoid them
 aliasing errors are usually negligible using standard VASP settings
 and one can safely disregard these warnings

 real space projection operators:
  total allocation   :      12803.06 KBytes
  max/ min on nodes  :       2145.66       2127.94


 parallel 3D FFT for wavefunctions:
    minimum data exchange during FFTs selected (reduces bandwidth)
 parallel 3D FFT for charge:
    minimum data exchange during FFTs selected (reduces bandwidth)


 total amount of memory used by VASP on root node    84353. kBytes
========================================================================

   base      :      30000. kBytes
   nonlr-proj:       4285. kBytes
   fftplans  :       4447. kBytes
   grid      :       6721. kBytes
   one-center:        124. kBytes
   wavefun   :      38776. kBytes
 
     INWAV:  cpu time    0.0000: real time    0.0000
 Broyden mixing: mesh for mixing (old mesh)
   NGX = 35   NGY = 35   NGZ = 79
  (NGX  =108   NGY  =108   NGZ  =240)
  gives a total of  96775 points

 initial charge density was supplied:
 charge density of overlapping atoms calculated
 number of electron     504.0000000 magnetization 
 keeping initial charge density in first step


--------------------------------------------------------------------------------------------------------


 Maximum index for non-local projection operator          355
 Maximum index for augmentation-charges          437 (set IRDMAX)


--------------------------------------------------------------------------------------------------------


 First call to EWALD:  gamma=   0.129
 Maximum number of real-space cells 4x 4x 2
 Maximum number of reciprocal cells 2x 2x 5

 FEWALD executed in parallel
    FEWALD:  cpu time    0.0025: real time    0.0025


----------------------------------------- Iteration    1(   1)  ---------------------------------------


    POTLOK:  cpu time    0.0472: real time    0.0492
    SETDIJ:  cpu time    0.0059: real time    0.0060
     EDDAV:  cpu time    7.0058: real time    7.0277
       DOS:  cpu time    0.0014: real time    0.0014
    --------------------------------------------
      LOOP:  cpu time    7.0640: real time    7.0983

 eigenvalue-minimisations  :  3672
 total energy-change (2. order) : 0.3201231E+04  (-0.1898017E+05)
 number of electron     504.0000000 magnetization 
 augmentation part      504.0000000 magnetization 

 DIPCOR: dipole corrections for dipol
 direction  3 min pos     1,
 dipolmoment           0.000000      0.000000     -0.000001 electrons x Angstroem
 Tr[quadrupol]    -10289.091523

 energy correction for charged system         0.000000 eV
 dipol+quadrupol energy correction           -0.000000 eV
 added-field ion interaction          0.000000 eV  (added to PSCEN)


 Free energy of the ion-electron system (eV)
  ---------------------------------------------------
  alpha Z        PSCENC =       805.86936440
  Ewald energy   TEWEN  =    200404.06546780
  -Hartree energ DENC   =   -242819.59396881
  -exchange      EXHF   =         0.00000000
  -V(xc)+E(xc)   XCENC  =      -327.55909781
  PAW double counting   =     40340.05962942   -38292.62782345
  entropy T*S    EENTRO =        -0.12040155
  eigenvalues    EBANDS =      1431.35167347
  atomic energy  EATOM  =     41659.78587232
  Solvation  Ediel_sol  =         0.00000000
  ---------------------------------------------------
  free energy    TOTEN  =      3201.23071581 eV

  energy without entropy =     3201.35111735  energy(sigma->0) =     3201.29091658


--------------------------------------------------------------------------------------------------------




----------------------------------------- Iteration    1(   2)  ---------------------------------------


     EDDAV:  cpu time    8.2488: real time    8.2734
       DOS:  cpu time    0.0015: real time    0.0015
    --------------------------------------------
      LOOP:  cpu time    8.2510: real time    8.2787

 eigenvalue-minimisations  :  4392
 total energy-change (2. order) :-0.3186312E+04  (-0.2933459E+04)
 number of electron     504.0000000 magnetization 
 augmentation part      504.0000000 magnetization 

 DIPCOR: dipole corrections for dipol
 direction  3 min pos     1,
 dipolmoment           0.000000      0.000000     -0.000001 electrons x Angstroem
 Tr[quadrupol]    -10289.091523

 energy correction for charged system         0.000000 eV
 dipol+quadrupol energy correction           -0.000000 eV
 added-field ion interaction          0.000000 eV  (added to PSCEN)


 Free energy of the ion-electron system (eV)
  ---------------------------------------------------
  alpha Z        PSCENC =       805.86936440
  Ewald energy   TEWEN  =    200404.06546780
  -Hartree energ DENC   =   -242819.59396881
  -exchange      EXHF   =         0.00000000
  -V(xc)+E(xc)   XCENC  =      -327.55909781
  PAW double counting   =     40340.05962942   -38292.62782345
  entropy T*S    EENTRO =        -0.12990145
  eigenvalues    EBANDS =     -1754.95039957
  atomic energy  EATOM  =     41659.78587232
  Solvation  Ediel_sol  =         0.00000000
  ---------------------------------------------------
  free energy    TOTEN  =        14.91914286 eV

  energy without entropy =       15.04904431  energy(sigma->0) =       14.98409358


--------------------------------------------------------------------------------------------------------




----------------------------------------- Iteration    1(   3)  ---------------------------------------


     EDDAV:  cpu time    8.0465: real time    8.0668
       DOS:  cpu time    0.0015: real time    0.0015
    --------------------------------------------
      LOOP:  cpu time    8.0501: real time    8.0734

 eigenvalue-minimisations  :  4140
 total energy-change (2. order) :-0.2153096E+03  (-0.2002510E+03)
 number of electron     504.0000000 magnetization 
 augmentation part      504.0000000 magnetization 

 DIPCOR: dipole corrections for dipol
 direction  3 min pos     1,
 dipolmoment           0.000000      0.000000     -0.000001 electrons x Angstroem
 Tr[quadrupol]    -10289.091523

 energy correction for charged system         0.000000 eV
 dipol+quadrupol energy correction           -0.000000 eV
 added-field ion interaction          0.000000 eV  (added to PSCEN)


 Free energy of the ion-electron system (eV)
  ---------------------------------------------------
  alpha Z        PSCENC =       805.86936440
  Ewald energy   TEWEN  =    200404.06546780
  -Hartree energ DENC   =   -242819.59396881
  -exchange      EXHF   =         0.00000000
  -V(xc)+E(xc)   XCENC  =      -327.55909781
  PAW double counting   =     40340.05962942   -38292.62782345
  entropy T*S    EENTRO =        -0.20792952
  eigenvalues    EBANDS =     -1970.18192472
  atomic energy  EATOM  =     41659.78587232
  Solvation  Ediel_sol  =         0.00000000
  ---------------------------------------------------
  free energy    TOTEN  =      -200.39041036 eV

  energy without entropy =     -200.18248084  energy(sigma->0) =     -200.28644560


--------------------------------------------------------------------------------------------------------




----------------------------------------- Iteration    1(   4)  ---------------------------------------


     EDDAV:  cpu time    8.1387: real time    8.1623
       DOS:  cpu time    0.0016: real time    0.0016
    --------------------------------------------
      LOOP:  cpu time    8.1416: real time    8.1675

 eigenvalue-minimisations  :  4188
 total energy-change (2. order) :-0.5697324E+01  (-0.5633863E+01)
 number of electron     504.0000000 magnetization 
 augmentation part      504.0000000 magnetization 

 DIPCOR: dipole corrections for dipol
 direction  3 min pos     1,
 dipolmoment           0.000000      0.000000     -0.000001 electrons x Angstroem
 Tr[quadrupol]    -10289.091523

 energy correction for charged system         0.000000 eV
 dipol+quadrupol energy correction           -0.000000 eV
 added-field ion interaction          0.000000 eV  (added to PSCEN)


 Free energy of the ion-electron system (eV)
  ---------------------------------------------------
  alpha Z        PSCENC =       805.86936440
  Ewald energy   TEWEN  =    200404.06546780
  -Hartree energ DENC   =   -242819.59396881
  -exchange      EXHF   =         0.00000000
  -V(xc)+E(xc)   XCENC  =      -327.55909781
  PAW double counting   =     40340.05962942   -38292.62782345
  entropy T*S    EENTRO =        -0.21924192
  eigenvalues    EBANDS =     -1975.86793618
  atomic energy  EATOM  =     41659.78587232
  Solvation  Ediel_sol  =         0.00000000
  ---------------------------------------------------
  free energy    TOTEN  =      -206.08773422 eV

  energy without entropy =     -205.86849230  energy(sigma->0) =     -205.97811326


--------------------------------------------------------------------------------------------------------




----------------------------------------- Iteration    1(   5)  ---------------------------------------


     EDDAV:  cpu time    8.4396: real time    8.5406
       DOS:  cpu time    0.0016: real time    0.0016
    CHARGE:  cpu time    0.2386: real time    0.2392
    MIXING:  cpu time    0.0021: real time    0.0022
    --------------------------------------------
      LOOP:  cpu time    8.6830: real time    8.7885

 eigenvalue-minimisations  :  4404
 total energy-change (2. order) :-0.1898527E+00  (-0.1892174E+00)
 number of electron     503.9998405 magnetization 
 augmentation part      191.3428140 magnetization 

 DIPCOR: dipole corrections for dipol
 direction  3 min pos     1,
 dipolmoment           0.000000      0.000000     -0.000001 electrons x Angstroem
 Tr[quadrupol]    -10289.091523

 energy correction for charged system         0.000000 eV
 dipol+quadrupol energy correction           -0.000000 eV
 added-field ion interaction          0.000000 eV  (added to PSCEN)


 Broyden mixing:
  rms(total) = 0.62595E+01    rms(broyden)= 0.62595E+01
  rms(prec ) = 0.63891E+01
  weight for this iteration     100.00

 Free energy of the ion-electron system (eV)
  ---------------------------------------------------
  alpha Z        PSCENC =       805.86936440
  Ewald energy   TEWEN  =    200404.06546780
  -Hartree energ DENC   =   -242819.59396881
  -exchange      EXHF   =         0.00000000
  -V(xc)+E(xc)   XCENC  =      -327.55909781
  PAW double counting   =     40340.05962942   -38292.62782345
  entropy T*S    EENTRO =        -0.21917882
  eigenvalues    EBANDS =     -1976.05785194
  atomic energy  EATOM  =     41659.78587232
  Solvation  Ediel_sol  =         0.00000000
  ---------------------------------------------------
  free energy    TOTEN  =      -206.27758688 eV

  energy without entropy =     -206.05840806  energy(sigma->0) =     -206.16799747


--------------------------------------------------------------------------------------------------------




----------------------------------------- Iteration    1(   6)  ---------------------------------------


    POTLOK:  cpu time    0.0432: real time    0.0433
    SETDIJ:  cpu time    0.0061: real time    0.0062
    EDDIAG:  cpu time    1.2341: real time    1.2372
  RMM-DIIS:  cpu time    3.4099: real time    3.4183
    ORTHCH:  cpu time    0.3058: real time    0.3066
       DOS:  cpu time    0.0015: real time    0.0015
    CHARGE:  cpu time    0.2383: real time    0.2389
    MIXING:  cpu time    0.0021: real time    0.0021
    --------------------------------------------
      LOOP:  cpu time    5.2416: real time    5.2574

 eigenvalue-minimisations  :  3678
 total energy-change (2. order) : 0.6031736E+01  (-0.9493641E+01)
 number of electron     503.9998418 magnetization 
 augmentation part      191.6149396 magnetization 

 DIPCOR: dipole corrections for dipol
 direction  3 min pos     1,
 dipolmoment           0.000000      0.000000     -0.345833 electrons x Angstroem
 Tr[quadrupol]    -10289.763518

 energy correction for charged system         0.000000 eV
 dipol+quadrupol energy correction           -0.004214 eV
 added-field ion interaction          0.054738 eV  (added to PSCEN)


 Broyden mixing:
  rms(total) = 0.56390E+01    rms(broyden)= 0.56389E+01
  rms(prec ) = 0.58684E+01
  weight for this iteration     100.00

 eigenvalues of (default mixing * dielectric matrix)
  average eigenvalue GAMMA=   0.7017
  0.7017

 Free energy of the ion-electron system (eV)
  ---------------------------------------------------
  alpha Z        PSCENC =       805.91988775
  Ewald energy   TEWEN  =    200404.06546780
  -Hartree energ DENC   =   -242544.11407606
  -exchange      EXHF   =         0.00000000
  -V(xc)+E(xc)   XCENC  =      -339.97613830
  PAW double counting   =     43931.64495544   -41943.39672700
  entropy T*S    EENTRO =        -0.26369363
  eigenvalues    EBANDS =     -2173.91139921
  atomic energy  EATOM  =     41659.78587232
  Solvation  Ediel_sol  =         0.00000000
  ---------------------------------------------------
  free energy    TOTEN  =      -200.24585088 eV

  energy without entropy =     -199.98215726  energy(sigma->0) =     -200.11400407


--------------------------------------------------------------------------------------------------------




----------------------------------------- Iteration    1(   7)  ---------------------------------------


    POTLOK:  cpu time    0.0422: real time    0.0427
    SETDIJ:  cpu time    0.0059: real time    0.0063
    EDDIAG:  cpu time    1.2266: real time    1.2481
  RMM-DIIS:  cpu time    3.3930: real time    3.4193
    ORTHCH:  cpu time    0.3059: real time    0.3074
       DOS:  cpu time    0.0016: real time    0.0016
    CHARGE:  cpu time    0.2357: real time    0.2363
    MIXING:  cpu time    0.0031: real time    0.0031
    --------------------------------------------
      LOOP:  cpu time    5.2146: real time    5.2676

 eigenvalue-minimisations  :  3681
 total energy-change (2. order) :-0.4636415E+00  (-0.5340000E+01)
 number of electron     503.9998367 magnetization 
 augmentation part      196.7431339 magnetization 

 DIPCOR: dipole corrections for dipol
 direction  3 min pos     1,
 dipolmoment           0.000000      0.000000      0.125169 electrons x Angstroem
 Tr[quadrupol]    -10288.629485

 energy correction for charged system         0.000000 eV
 dipol+quadrupol energy correction           -0.000552 eV
 added-field ion interaction         -0.019812 eV  (added to PSCEN)


 Broyden mixing:
  rms(total) = 0.39554E+01    rms(broyden)= 0.39552E+01
  rms(prec ) = 0.41871E+01
  weight for this iteration     100.00

 eigenvalues of (default mixing * dielectric matrix)
  average eigenvalue GAMMA=   1.0138
  1.6354  0.3922

 Free energy of the ion-electron system (eV)
  ---------------------------------------------------
  alpha Z        PSCENC =       805.84900069
  Ewald energy   TEWEN  =    200404.06546780
  -Hartree energ DENC   =   -242406.04105087
  -exchange      EXHF   =         0.00000000
  -V(xc)+E(xc)   XCENC  =      -342.23376267
  PAW double counting   =     45314.40902828   -43350.94350394
  entropy T*S    EENTRO =        -0.16947616
  eigenvalues    EBANDS =     -2285.43106782
  atomic energy  EATOM  =     41659.78587232
  Solvation  Ediel_sol  =         0.00000000
  ---------------------------------------------------
  free energy    TOTEN  =      -200.70949237 eV

  energy without entropy =     -200.54001621  energy(sigma->0) =     -200.62475429


--------------------------------------------------------------------------------------------------------




----------------------------------------- Iteration    1(   8)  ---------------------------------------


    POTLOK:  cpu time    0.0429: real time    0.0431
    SETDIJ:  cpu time    0.0054: real time    0.0062
    EDDIAG:  cpu time    1.2422: real time    1.2479
  RMM-DIIS:  cpu time    3.3872: real time    3.3957
    ORTHCH:  cpu time    0.3018: real time    0.3031
       DOS:  cpu time    0.0016: real time    0.0016
    CHARGE:  cpu time    0.2388: real time    0.2394
    MIXING:  cpu time    0.0021: real time    0.0021
    --------------------------------------------
      LOOP:  cpu time    5.2229: real time    5.2433

 eigenvalue-minimisations  :  3680
 total energy-change (2. order) :-0.4677956E+00  (-0.5726980E+01)
 number of electron     503.9998342 magnetization 
 augmentation part      198.6104115 magnetization 

 DIPCOR: dipole corrections for dipol
 direction  3 min pos     1,
 dipolmoment           0.000000      0.000000     -0.459653 electrons x Angstroem
 Tr[quadrupol]    -10290.829139

 energy correction for charged system         0.000000 eV
 dipol+quadrupol energy correction           -0.007445 eV
 added-field ion interaction          0.072753 eV  (added to PSCEN)


 Broyden mixing:
  rms(total) = 0.28955E+01    rms(broyden)= 0.28951E+01
  rms(prec ) = 0.31729E+01
  weight for this iteration     100.00

 eigenvalues of (default mixing * dielectric matrix)
  average eigenvalue GAMMA=   1.0049
  2.1695  0.4503  0.3948

 Free energy of the ion-electron system (eV)
  ---------------------------------------------------
  alpha Z        PSCENC =       805.93467250
  Ewald energy   TEWEN  =    200404.06546780
  -Hartree energ DENC   =   -242412.76820952
  -exchange      EXHF   =         0.00000000
  -V(xc)+E(xc)   XCENC  =      -344.34316902
  PAW double counting   =     47682.34166457   -45750.33151969
  entropy T*S    EENTRO =        -0.18962056
  eigenvalues    EBANDS =     -2245.67244640
  atomic energy  EATOM  =     41659.78587232
  Solvation  Ediel_sol  =         0.00000000
  ---------------------------------------------------
  free energy    TOTEN  =      -201.17728799 eV

  energy without entropy =     -200.98766743  energy(sigma->0) =     -201.08247771


--------------------------------------------------------------------------------------------------------




----------------------------------------- Iteration    1(   9)  ---------------------------------------


    POTLOK:  cpu time    0.0418: real time    0.0427
    SETDIJ:  cpu time    0.0055: real time    0.0056
    EDDIAG:  cpu time    1.2375: real time    1.2429
  RMM-DIIS:  cpu time    3.3864: real time    3.3949
    ORTHCH:  cpu time    0.3021: real time    0.3028
       DOS:  cpu time    0.0016: real time    0.0016
    CHARGE:  cpu time    0.2383: real time    0.2389
    MIXING:  cpu time    0.0021: real time    0.0021
    --------------------------------------------
      LOOP:  cpu time    5.2161: real time    5.2350

 eigenvalue-minimisations  :  3680
 total energy-change (2. order) : 0.2585016E+01  (-0.2430143E+01)
 number of electron     503.9998355 magnetization 
 augmentation part      197.3512302 magnetization 

 DIPCOR: dipole corrections for dipol
 direction  3 min pos     1,
 dipolmoment           0.000000      0.000000      0.778112 electrons x Angstroem
 Tr[quadrupol]    -10291.771696

 energy correction for charged system         0.000000 eV
 dipol+quadrupol energy correction           -0.021335 eV
 added-field ion interaction         -0.123158 eV  (added to PSCEN)


 Broyden mixing:
  rms(total) = 0.25522E+01    rms(broyden)= 0.25520E+01
  rms(prec ) = 0.31178E+01
  weight for this iteration     100.00

 eigenvalues of (default mixing * dielectric matrix)
  average eigenvalue GAMMA=   0.8728
  2.2682  0.4829  0.3700  0.3700

 Free energy of the ion-electron system (eV)
  ---------------------------------------------------
  alpha Z        PSCENC =       805.72487107
  Ewald energy   TEWEN  =    200404.06546780
  -Hartree energ DENC   =   -242449.20174869
  -exchange      EXHF   =         0.00000000
  -V(xc)+E(xc)   XCENC  =      -344.79593014
  PAW double counting   =     48991.70934044   -47073.34103544
  entropy T*S    EENTRO =        -0.22477466
  eigenvalues    EBANDS =     -2192.31433429
  atomic energy  EATOM  =     41659.78587232
  Solvation  Ediel_sol  =         0.00000000
  ---------------------------------------------------
  free energy    TOTEN  =      -198.59227158 eV

  energy without entropy =     -198.36749692  energy(sigma->0) =     -198.47988425


--------------------------------------------------------------------------------------------------------




----------------------------------------- Iteration    1(  10)  ---------------------------------------


    POTLOK:  cpu time    0.0411: real time    0.0412
    SETDIJ:  cpu time    0.0055: real time    0.0055
    EDDIAG:  cpu time    1.2327: real time    1.2357
  RMM-DIIS:  cpu time    3.3955: real time    3.4038
    ORTHCH:  cpu time    0.3032: real time    0.3040
       DOS:  cpu time    0.0016: real time    0.0016
    CHARGE:  cpu time    0.2355: real time    0.2361
    MIXING:  cpu time    0.0023: real time    0.0023
    --------------------------------------------
      LOOP:  cpu time    5.2182: real time    5.2329

 eigenvalue-minimisations  :  3680
 total energy-change (2. order) : 0.5025057E+01  (-0.1510531E+01)
 number of electron     503.9998356 magnetization 
 augmentation part      197.8204934 magnetization 

 DIPCOR: dipole corrections for dipol
 direction  3 min pos     1,
 dipolmoment           0.000000      0.000000     -0.575610 electrons x Angstroem
 Tr[quadrupol]    -10291.959627

 energy correction for charged system         0.000000 eV
 dipol+quadrupol energy correction           -0.011675 eV
 added-field ion interaction          0.091107 eV  (added to PSCEN)


 Broyden mixing:
  rms(total) = 0.15994E+01    rms(broyden)= 0.15990E+01
  rms(prec ) = 0.19854E+01
  weight for this iteration     100.00

 eigenvalues of (default mixing * dielectric matrix)
  average eigenvalue GAMMA=   0.7907
  2.2755  0.5464  0.5464  0.3575  0.2276

 Free energy of the ion-electron system (eV)
  ---------------------------------------------------
  alpha Z        PSCENC =       805.94879586
  Ewald energy   TEWEN  =    200404.06546780
  -Hartree energ DENC   =   -242460.14913362
  -exchange      EXHF   =         0.00000000
  -V(xc)+E(xc)   XCENC  =      -344.78513833
  PAW double counting   =     49242.24634099   -47326.37007282
  entropy T*S    EENTRO =        -0.18750101
  eigenvalues    EBANDS =     -2174.12184568
  atomic energy  EATOM  =     41659.78587232
  Solvation  Ediel_sol  =         0.00000000
  ---------------------------------------------------
  free energy    TOTEN  =      -193.56721450 eV

  energy without entropy =     -193.37971349  energy(sigma->0) =     -193.47346399


--------------------------------------------------------------------------------------------------------




----------------------------------------- Iteration    1(  11)  ---------------------------------------


    POTLOK:  cpu time    0.0413: real time    0.0414
    SETDIJ:  cpu time    0.0054: real time    0.0054
    EDDIAG:  cpu time    1.2370: real time    1.2443
  RMM-DIIS:  cpu time    3.3825: real time    3.3907
    ORTHCH:  cpu time    0.3033: real time    0.3040
       DOS:  cpu time    0.0016: real time    0.0016
    CHARGE:  cpu time    0.2319: real time    0.2325
    MIXING:  cpu time    0.0024: real time    0.0024
    --------------------------------------------
      LOOP:  cpu time    5.2060: real time    5.2260

 eigenvalue-minimisations  :  3680
 total energy-change (2. order) : 0.3660050E+01  (-0.5695737E+00)
 number of electron     503.9998352 magnetization 
 augmentation part      197.9125004 magnetization 

 DIPCOR: dipole corrections for dipol
 direction  3 min pos     1,
 dipolmoment           0.000000      0.000000      0.106408 electrons x Angstroem
 Tr[quadrupol]    -10291.905172

 energy correction for charged system         0.000000 eV
 dipol+quadrupol energy correction           -0.000399 eV
 added-field ion interaction         -0.016842 eV  (added to PSCEN)


 Broyden mixing:
  rms(total) = 0.10973E+01    rms(broyden)= 0.10971E+01
  rms(prec ) = 0.12155E+01
  weight for this iteration     100.00

 eigenvalues of (default mixing * dielectric matrix)
  average eigenvalue GAMMA=   0.7217
  2.2719  0.5632  0.5632  0.4128  0.2596  0.2596

 Free energy of the ion-electron system (eV)
  ---------------------------------------------------
  alpha Z        PSCENC =       805.85212328
  Ewald energy   TEWEN  =    200404.06546780
  -Hartree energ DENC   =   -242467.81186704
  -exchange      EXHF   =         0.00000000
  -V(xc)+E(xc)   XCENC  =      -344.50524451
  PAW double counting   =     49321.82960878   -47405.73190583
  entropy T*S    EENTRO =        -0.23594668
  eigenvalues    EBANDS =     -2163.15527259
  atomic energy  EATOM  =     41659.78587232
  Solvation  Ediel_sol  =         0.00000000
  ---------------------------------------------------
  free energy    TOTEN  =      -189.90716447 eV

  energy without entropy =     -189.67121779  energy(sigma->0) =     -189.78919113


--------------------------------------------------------------------------------------------------------




----------------------------------------- Iteration    1(  12)  ---------------------------------------


    POTLOK:  cpu time    0.0411: real time    0.0412
    SETDIJ:  cpu time    0.0055: real time    0.0055
    EDDIAG:  cpu time    1.2356: real time    1.2400
  RMM-DIIS:  cpu time    3.4290: real time    3.4374
    ORTHCH:  cpu time    0.3041: real time    0.3048
       DOS:  cpu time    0.0016: real time    0.0016
    CHARGE:  cpu time    0.2378: real time    0.2384
    MIXING:  cpu time    0.0027: real time    0.0027
    --------------------------------------------
      LOOP:  cpu time    5.2579: real time    5.2748

 eigenvalue-minimisations  :  3681
 total energy-change (2. order) : 0.1442860E+01  (-0.2087699E+00)
 number of electron     503.9998359 magnetization 
 augmentation part      197.6347512 magnetization 

 DIPCOR: dipole corrections for dipol
 direction  3 min pos     1,
 dipolmoment           0.000000      0.000000     -0.138287 electrons x Angstroem
 Tr[quadrupol]    -10291.913483

 energy correction for charged system         0.000000 eV
 dipol+quadrupol energy correction           -0.000674 eV
 added-field ion interaction          0.021888 eV  (added to PSCEN)


 Broyden mixing:
  rms(total) = 0.61205E+00    rms(broyden)= 0.61189E+00
  rms(prec ) = 0.72618E+00
  weight for this iteration     100.00

 eigenvalues of (default mixing * dielectric matrix)
  average eigenvalue GAMMA=   0.7088
  2.2701  0.6540  0.5841  0.5841  0.3336  0.3336  0.2023

 Free energy of the ion-electron system (eV)
  ---------------------------------------------------
  alpha Z        PSCENC =       805.89057829
  Ewald energy   TEWEN  =    200404.06546780
  -Hartree energ DENC   =   -242479.39327992
  -exchange      EXHF   =         0.00000000
  -V(xc)+E(xc)   XCENC  =      -344.17440311
  PAW double counting   =     49359.69071637   -47442.45238991
  entropy T*S    EENTRO =        -0.21356955
  eigenvalues    EBANDS =     -2151.66329655
  atomic energy  EATOM  =     41659.78587232
  Solvation  Ediel_sol  =         0.00000000
  ---------------------------------------------------
  free energy    TOTEN  =      -188.46430426 eV

  energy without entropy =     -188.25073471  energy(sigma->0) =     -188.35751948


--------------------------------------------------------------------------------------------------------




----------------------------------------- Iteration    1(  13)  ---------------------------------------


    POTLOK:  cpu time    0.0422: real time    0.0424
    SETDIJ:  cpu time    0.0054: real time    0.0054
    EDDIAG:  cpu time    1.2363: real time    1.2393
  RMM-DIIS:  cpu time    3.3132: real time    3.4125
    ORTHCH:  cpu time    0.3031: real time    0.3039
       DOS:  cpu time    0.0016: real time    0.0017
    CHARGE:  cpu time    0.2360: real time    0.2365
    MIXING:  cpu time    0.0028: real time    0.0028
    --------------------------------------------
      LOOP:  cpu time    5.1413: real time    5.2485

 eigenvalue-minimisations  :  3680
 total energy-change (2. order) : 0.1547999E+00  (-0.6189762E-01)
 number of electron     503.9998359 magnetization 
 augmentation part      197.2754292 magnetization 

 DIPCOR: dipole corrections for dipol
 direction  3 min pos     1,
 dipolmoment           0.000000      0.000000     -0.032392 electrons x Angstroem
 Tr[quadrupol]    -10292.385566

 energy correction for charged system         0.000000 eV
 dipol+quadrupol energy correction           -0.000037 eV
 added-field ion interaction          0.005127 eV  (added to PSCEN)


 Broyden mixing:
  rms(total) = 0.57515E+00    rms(broyden)= 0.57505E+00
  rms(prec ) = 0.62499E+00
  weight for this iteration     100.00

 eigenvalues of (default mixing * dielectric matrix)
  average eigenvalue GAMMA=   0.7039
  2.2504  0.7660  0.7660  0.7181  0.3218  0.3218  0.2913  0.1956

 Free energy of the ion-electron system (eV)
  ---------------------------------------------------
  alpha Z        PSCENC =       805.87445432
  Ewald energy   TEWEN  =    200404.06546780
  -Hartree energ DENC   =   -242504.41694486
  -exchange      EXHF   =         0.00000000
  -V(xc)+E(xc)   XCENC  =      -343.91935910
  PAW double counting   =     49387.63182103   -47469.09823719
  entropy T*S    EENTRO =        -0.26943507
  eigenvalues    EBANDS =     -2127.96314360
  atomic energy  EATOM  =     41659.78587232
  Solvation  Ediel_sol  =         0.00000000
  ---------------------------------------------------
  free energy    TOTEN  =      -188.30950435 eV

  energy without entropy =     -188.04006928  energy(sigma->0) =     -188.17478682


--------------------------------------------------------------------------------------------------------




----------------------------------------- Iteration    1(  14)  ---------------------------------------


    POTLOK:  cpu time    0.0421: real time    0.0423
    SETDIJ:  cpu time    0.0047: real time    0.0055
    EDDIAG:  cpu time    1.2355: real time    1.2385
  RMM-DIIS:  cpu time    3.4062: real time    3.4144
    ORTHCH:  cpu time    0.3023: real time    0.3031
       DOS:  cpu time    0.0016: real time    0.0016
    CHARGE:  cpu time    0.2353: real time    0.2359
    MIXING:  cpu time    0.0030: real time    0.0030
    --------------------------------------------
      LOOP:  cpu time    5.2313: real time    5.2478

 eigenvalue-minimisations  :  3681
 total energy-change (2. order) : 0.9393616E-01  (-0.3881691E-01)
 number of electron     503.9998361 magnetization 
 augmentation part      197.1239703 magnetization 

 DIPCOR: dipole corrections for dipol
 direction  3 min pos     1,
 dipolmoment           0.000000      0.000000     -0.017942 electrons x Angstroem
 Tr[quadrupol]    -10292.467177

 energy correction for charged system         0.000000 eV
 dipol+quadrupol energy correction           -0.000011 eV
 added-field ion interaction          0.002840 eV  (added to PSCEN)


 Broyden mixing:
  rms(total) = 0.48580E+00    rms(broyden)= 0.48574E+00
  rms(prec ) = 0.52913E+00
  weight for this iteration     100.00

 eigenvalues of (default mixing * dielectric matrix)
  average eigenvalue GAMMA=   0.7175
  2.2379  0.9910  0.9910  0.7362  0.3877  0.3877  0.3055  0.2277  0.1932

 Free energy of the ion-electron system (eV)
  ---------------------------------------------------
  alpha Z        PSCENC =       805.87219277
  Ewald energy   TEWEN  =    200404.06546780
  -Hartree energ DENC   =   -242513.24430000
  -exchange      EXHF   =         0.00000000
  -V(xc)+E(xc)   XCENC  =      -343.71060069
  PAW double counting   =     49392.08563392   -47472.46842569
  entropy T*S    EENTRO =        -0.26113055
  eigenvalues    EBANDS =     -2120.34027806
  atomic energy  EATOM  =     41659.78587232
  Solvation  Ediel_sol  =         0.00000000
  ---------------------------------------------------
  free energy    TOTEN  =      -188.21556819 eV

  energy without entropy =     -187.95443764  energy(sigma->0) =     -188.08500292


--------------------------------------------------------------------------------------------------------




----------------------------------------- Iteration    1(  15)  ---------------------------------------


    POTLOK:  cpu time    0.0420: real time    0.0422
    SETDIJ:  cpu time    0.0050: real time    0.0058
    EDDIAG:  cpu time    1.2369: real time    1.2411
  RMM-DIIS:  cpu time    3.3965: real time    3.4047
    ORTHCH:  cpu time    0.2902: real time    0.2909
       DOS:  cpu time    0.0016: real time    0.0016
    CHARGE:  cpu time    0.2314: real time    0.2319
    MIXING:  cpu time    0.0029: real time    0.0029
    --------------------------------------------
      LOOP:  cpu time    5.2071: real time    5.2234

 eigenvalue-minimisations  :  3678
 total energy-change (2. order) :-0.2551128E-02  (-0.3415693E-01)
 number of electron     503.9998364 magnetization 
 augmentation part      197.0845083 magnetization 

 DIPCOR: dipole corrections for dipol
 direction  3 min pos     1,
 dipolmoment           0.000000      0.000000     -0.041083 electrons x Angstroem
 Tr[quadrupol]    -10292.631552

 energy correction for charged system         0.000000 eV
 dipol+quadrupol energy correction           -0.000059 eV
 added-field ion interaction          0.006503 eV  (added to PSCEN)


 Broyden mixing:
  rms(total) = 0.39340E+00    rms(broyden)= 0.39335E+00
  rms(prec ) = 0.43128E+00
  weight for this iteration     100.00

 eigenvalues of (default mixing * dielectric matrix)
  average eigenvalue GAMMA=   0.7565
  2.2372  1.3287  1.3287  0.7413  0.5288  0.3924  0.3025  0.3025  0.2017  0.2017

 Free energy of the ion-electron system (eV)
  ---------------------------------------------------
  alpha Z        PSCENC =       805.87580741
  Ewald energy   TEWEN  =    200404.06546780
  -Hartree energ DENC   =   -242521.70055383
  -exchange      EXHF   =         0.00000000
  -V(xc)+E(xc)   XCENC  =      -343.56414445
  PAW double counting   =     49398.37745349   -47477.92014398
  entropy T*S    EENTRO =        -0.25781626
  eigenvalues    EBANDS =     -2112.88006182
  atomic energy  EATOM  =     41659.78587232
  Solvation  Ediel_sol  =         0.00000000
  ---------------------------------------------------
  free energy    TOTEN  =      -188.21811932 eV

  energy without entropy =     -187.96030306  energy(sigma->0) =     -188.08921119


--------------------------------------------------------------------------------------------------------




----------------------------------------- Iteration    1(  16)  ---------------------------------------


    POTLOK:  cpu time    0.0421: real time    0.0422
    SETDIJ:  cpu time    0.0054: real time    0.0054
    EDDIAG:  cpu time    1.2297: real time    1.2327
  RMM-DIIS:  cpu time    3.4388: real time    3.4472
    ORTHCH:  cpu time    0.2908: real time    0.2915
       DOS:  cpu time    0.0016: real time    0.0016
    CHARGE:  cpu time    0.2378: real time    0.2383
    MIXING:  cpu time    0.0031: real time    0.0031
    --------------------------------------------
      LOOP:  cpu time    5.2501: real time    5.2668

 eigenvalue-minimisations  :  3681
 total energy-change (2. order) : 0.5534411E-01  (-0.1930994E-01)
 number of electron     503.9998362 magnetization 
 augmentation part      197.1635302 magnetization 

 DIPCOR: dipole corrections for dipol
 direction  3 min pos     1,
 dipolmoment           0.000000      0.000000     -0.044185 electrons x Angstroem
 Tr[quadrupol]    -10293.039909

 energy correction for charged system         0.000000 eV
 dipol+quadrupol energy correction           -0.000069 eV
 added-field ion interaction          0.006994 eV  (added to PSCEN)


 Broyden mixing:
  rms(total) = 0.29933E+00    rms(broyden)= 0.29928E+00
  rms(prec ) = 0.35300E+00
  weight for this iteration     100.00

 eigenvalues of (default mixing * dielectric matrix)
  average eigenvalue GAMMA=   0.7463
  2.1931  1.4799  1.4799  0.6166  0.6166  0.4505  0.3385  0.3385  0.2912  0.2124
  0.1923

 Free energy of the ion-electron system (eV)
  ---------------------------------------------------
  alpha Z        PSCENC =       805.87628909
  Ewald energy   TEWEN  =    200404.06546780
  -Hartree energ DENC   =   -242537.84999935
  -exchange      EXHF   =         0.00000000
  -V(xc)+E(xc)   XCENC  =      -343.44047994
  PAW double counting   =     49414.55516483   -47493.22724970
  entropy T*S    EENTRO =        -0.25632569
  eigenvalues    EBANDS =     -2097.67151456
  atomic energy  EATOM  =     41659.78587232
  Solvation  Ediel_sol  =         0.00000000
  ---------------------------------------------------
  free energy    TOTEN  =      -188.16277521 eV

  energy without entropy =     -187.90644952  energy(sigma->0) =     -188.03461237


--------------------------------------------------------------------------------------------------------




----------------------------------------- Iteration    1(  17)  ---------------------------------------


    POTLOK:  cpu time    0.0413: real time    0.0414
    SETDIJ:  cpu time    0.0056: real time    0.0056
    EDDIAG:  cpu time    1.2197: real time    1.2235
  RMM-DIIS:  cpu time    3.4166: real time    3.4339
    ORTHCH:  cpu time    0.2905: real time    0.2912
       DOS:  cpu time    0.0016: real time    0.0016
    CHARGE:  cpu time    0.2362: real time    0.2368
    MIXING:  cpu time    0.0033: real time    0.0033
    --------------------------------------------
      LOOP:  cpu time    5.2155: real time    5.2395

 eigenvalue-minimisations  :  3680
 total energy-change (2. order) : 0.5492706E-01  (-0.9883610E-02)
 number of electron     503.9998363 magnetization 
 augmentation part      197.1560151 magnetization 

 DIPCOR: dipole corrections for dipol
 direction  3 min pos     1,
 dipolmoment           0.000000      0.000000     -0.051864 electrons x Angstroem
 Tr[quadrupol]    -10293.203611

 energy correction for charged system         0.000000 eV
 dipol+quadrupol energy correction           -0.000095 eV
 added-field ion interaction          0.008209 eV  (added to PSCEN)


 Broyden mixing:
  rms(total) = 0.22440E+00    rms(broyden)= 0.22436E+00
  rms(prec ) = 0.27064E+00
  weight for this iteration     100.00

 eigenvalues of (default mixing * dielectric matrix)
  average eigenvalue GAMMA=   0.7431
  2.1985  1.6111  1.6111  0.6544  0.6544  0.5231  0.3561  0.3561  0.3096  0.2478
  0.1975  0.1975

 Free energy of the ion-electron system (eV)
  ---------------------------------------------------
  alpha Z        PSCENC =       805.87747840
  Ewald energy   TEWEN  =    200404.06546780
  -Hartree energ DENC   =   -242545.34372761
  -exchange      EXHF   =         0.00000000
  -V(xc)+E(xc)   XCENC  =      -343.35569260
  PAW double counting   =     49420.00117206   -47498.15993954
  entropy T*S    EENTRO =        -0.24931948
  eigenvalues    EBANDS =     -2090.72915949
  atomic energy  EATOM  =     41659.78587232
  Solvation  Ediel_sol  =         0.00000000
  ---------------------------------------------------
  free energy    TOTEN  =      -188.10784815 eV

  energy without entropy =     -187.85852867  energy(sigma->0) =     -187.98318841


--------------------------------------------------------------------------------------------------------




----------------------------------------- Iteration    1(  18)  ---------------------------------------


    POTLOK:  cpu time    0.0413: real time    0.0414
    SETDIJ:  cpu time    0.0055: real time    0.0055
    EDDIAG:  cpu time    1.2253: real time    1.2283
  RMM-DIIS:  cpu time    3.4288: real time    3.4389
    ORTHCH:  cpu time    0.2905: real time    0.2912
       DOS:  cpu time    0.0016: real time    0.0016
    CHARGE:  cpu time    0.2348: real time    0.2354
    MIXING:  cpu time    0.0034: real time    0.0034
    --------------------------------------------
      LOOP:  cpu time    5.2320: real time    5.2484

 eigenvalue-minimisations  :  3680
 total energy-change (2. order) : 0.3875508E-01  (-0.2976528E-02)
 number of electron     503.9998362 magnetization 
 augmentation part      197.1375776 magnetization 

 DIPCOR: dipole corrections for dipol
 direction  3 min pos     1,
 dipolmoment           0.000000      0.000000     -0.027322 electrons x Angstroem
 Tr[quadrupol]    -10293.363892

 energy correction for charged system         0.000000 eV
 dipol+quadrupol energy correction           -0.000026 eV
 added-field ion interaction          0.004325 eV  (added to PSCEN)


 Broyden mixing:
  rms(total) = 0.11386E+00    rms(broyden)= 0.11380E+00
  rms(prec ) = 0.13200E+00
  weight for this iteration     100.00

 eigenvalues of (default mixing * dielectric matrix)
  average eigenvalue GAMMA=   0.7215
  2.1532  2.0132  1.3757  0.6971  0.6971  0.5140  0.3540  0.3540  0.3570  0.2317
  0.2317  0.1920  0.2083

 Free energy of the ion-electron system (eV)
  ---------------------------------------------------
  alpha Z        PSCENC =       805.87366253
  Ewald energy   TEWEN  =    200404.06546780
  -Hartree energ DENC   =   -242551.61105969
  -exchange      EXHF   =         0.00000000
  -V(xc)+E(xc)   XCENC  =      -343.32697354
  PAW double counting   =     49426.89702501   -47504.86821913
  entropy T*S    EENTRO =        -0.26240199
  eigenvalues    EBANDS =     -2084.62246637
  atomic energy  EATOM  =     41659.78587232
  Solvation  Ediel_sol  =         0.00000000
  ---------------------------------------------------
  free energy    TOTEN  =      -188.06909307 eV

  energy without entropy =     -187.80669108  energy(sigma->0) =     -187.93789207


--------------------------------------------------------------------------------------------------------




----------------------------------------- Iteration    1(  19)  ---------------------------------------


    POTLOK:  cpu time    0.0414: real time    0.0417
    SETDIJ:  cpu time    0.0054: real time    0.0055
    EDDIAG:  cpu time    1.2269: real time    1.2299
  RMM-DIIS:  cpu time    3.4505: real time    3.4588
    ORTHCH:  cpu time    0.2903: real time    0.2910
       DOS:  cpu time    0.0015: real time    0.0015
    CHARGE:  cpu time    0.2312: real time    0.2317
    MIXING:  cpu time    0.0035: real time    0.0036
    --------------------------------------------
      LOOP:  cpu time    5.2513: real time    5.2674

 eigenvalue-minimisations  :  3684
 total energy-change (2. order) : 0.1081759E-01  (-0.7684084E-03)
 number of electron     503.9998362 magnetization 
 augmentation part      197.1127313 magnetization 

 DIPCOR: dipole corrections for dipol
 direction  3 min pos     1,
 dipolmoment           0.000000      0.000000     -0.023291 electrons x Angstroem
 Tr[quadrupol]    -10293.454338

 energy correction for charged system         0.000000 eV
 dipol+quadrupol energy correction           -0.000019 eV
 added-field ion interaction          0.003686 eV  (added to PSCEN)


 Broyden mixing:
  rms(total) = 0.65192E-01    rms(broyden)= 0.65177E-01
  rms(prec ) = 0.73210E-01
  weight for this iteration     100.00

 eigenvalues of (default mixing * dielectric matrix)
  average eigenvalue GAMMA=   0.7252
  2.1745  2.1745  1.3261  0.7641  0.7641  0.5192  0.4438  0.4438  0.3128  0.3128
  0.3103  0.2171  0.1949  0.1949

 Free energy of the ion-electron system (eV)
  ---------------------------------------------------
  alpha Z        PSCENC =       805.87303165
  Ewald energy   TEWEN  =    200404.06546780
  -Hartree energ DENC   =   -242555.39966019
  -exchange      EXHF   =         0.00000000
  -V(xc)+E(xc)   XCENC  =      -343.30841090
  PAW double counting   =     49429.65826695   -47507.52862185
  entropy T*S    EENTRO =        -0.26674392
  eigenvalues    EBANDS =     -2080.93747733
  atomic energy  EATOM  =     41659.78587232
  Solvation  Ediel_sol  =         0.00000000
  ---------------------------------------------------
  free energy    TOTEN  =      -188.05827548 eV

  energy without entropy =     -187.79153156  energy(sigma->0) =     -187.92490352


--------------------------------------------------------------------------------------------------------




----------------------------------------- Iteration    1(  20)  ---------------------------------------


    POTLOK:  cpu time    0.0413: real time    0.0414
    SETDIJ:  cpu time    0.0055: real time    0.0055
    EDDIAG:  cpu time    1.2269: real time    1.2301
  RMM-DIIS:  cpu time    3.4253: real time    3.4335
    ORTHCH:  cpu time    0.2921: real time    0.2928
       DOS:  cpu time    0.0017: real time    0.0017
    CHARGE:  cpu time    0.2333: real time    0.2383
    MIXING:  cpu time    0.0038: real time    0.0039
    --------------------------------------------
      LOOP:  cpu time    5.2305: real time    5.2505

 eigenvalue-minimisations  :  3681
 total energy-change (2. order) : 0.2138297E-02  (-0.3445104E-03)
 number of electron     503.9998362 magnetization 
 augmentation part      197.0908799 magnetization 

 DIPCOR: dipole corrections for dipol
 direction  3 min pos     1,
 dipolmoment           0.000000      0.000000     -0.019591 electrons x Angstroem
 Tr[quadrupol]    -10293.551909

 energy correction for charged system         0.000000 eV
 dipol+quadrupol energy correction           -0.000014 eV
 added-field ion interaction          0.003101 eV  (added to PSCEN)


 Broyden mixing:
  rms(total) = 0.49756E-01    rms(broyden)= 0.49750E-01
  rms(prec ) = 0.55956E-01
  weight for this iteration     100.00

 eigenvalues of (default mixing * dielectric matrix)
  average eigenvalue GAMMA=   0.7482
  2.3063  2.3063  1.1599  0.9616  0.9616  0.7350  0.4783  0.4783  0.3420  0.3420
  0.2761  0.2761  0.2132  0.1935  0.1935

 Free energy of the ion-electron system (eV)
  ---------------------------------------------------
  alpha Z        PSCENC =       805.87245152
  Ewald energy   TEWEN  =    200404.06546780
  -Hartree energ DENC   =   -242559.38700096
  -exchange      EXHF   =         0.00000000
  -V(xc)+E(xc)   XCENC  =      -343.29125100
  PAW double counting   =     49431.71140499   -47509.52433339
  entropy T*S    EENTRO =        -0.26747188
  eigenvalues    EBANDS =     -2077.02127657
  atomic energy  EATOM  =     41659.78587232
  Solvation  Ediel_sol  =         0.00000000
  ---------------------------------------------------
  free energy    TOTEN  =      -188.05613719 eV

  energy without entropy =     -187.78866530  energy(sigma->0) =     -187.92240124


--------------------------------------------------------------------------------------------------------




----------------------------------------- Iteration    1(  21)  ---------------------------------------


    POTLOK:  cpu time    0.0418: real time    0.0448
    SETDIJ:  cpu time    0.0052: real time    0.0054
    EDDIAG:  cpu time    1.2117: real time    1.2842
  RMM-DIIS:  cpu time    3.4174: real time    3.4264
    ORTHCH:  cpu time    0.2962: real time    0.2969
       DOS:  cpu time    0.0016: real time    0.0016
    CHARGE:  cpu time    0.2366: real time    0.2372
    MIXING:  cpu time    0.0040: real time    0.0040
    --------------------------------------------
      LOOP:  cpu time    5.2152: real time    5.3039

 eigenvalue-minimisations  :  3680
 total energy-change (2. order) : 0.1537358E-02  (-0.2855411E-03)
 number of electron     503.9998362 magnetization 
 augmentation part      197.0735104 magnetization 

 DIPCOR: dipole corrections for dipol
 direction  3 min pos     1,
 dipolmoment           0.000000      0.000000     -0.015295 electrons x Angstroem
 Tr[quadrupol]    -10293.687626

 energy correction for charged system         0.000000 eV
 dipol+quadrupol energy correction           -0.000008 eV
 added-field ion interaction          0.002421 eV  (added to PSCEN)


 Broyden mixing:
  rms(total) = 0.37236E-01    rms(broyden)= 0.37228E-01
  rms(prec ) = 0.42092E-01
  weight for this iteration     100.00

 eigenvalues of (default mixing * dielectric matrix)
  average eigenvalue GAMMA=   0.7735
  2.5063  2.2869  1.3444  1.3444  0.8033  0.8033  0.5623  0.5623  0.3513  0.3513
  0.3244  0.2705  0.2705  0.2084  0.1931  0.1931

 Free energy of the ion-electron system (eV)
  ---------------------------------------------------
  alpha Z        PSCENC =       805.87177693
  Ewald energy   TEWEN  =    200404.06546780
  -Hartree energ DENC   =   -242564.65551654
  -exchange      EXHF   =         0.00000000
  -V(xc)+E(xc)   XCENC  =      -343.27267017
  PAW double counting   =     49433.83596337   -47511.62994631
  entropy T*S    EENTRO =        -0.26897645
  eigenvalues    EBANDS =     -2071.78657077
  atomic energy  EATOM  =     41659.78587232
  Solvation  Ediel_sol  =         0.00000000
  ---------------------------------------------------
  free energy    TOTEN  =      -188.05459983 eV

  energy without entropy =     -187.78562338  energy(sigma->0) =     -187.92011160


--------------------------------------------------------------------------------------------------------




----------------------------------------- Iteration    1(  22)  ---------------------------------------


    POTLOK:  cpu time    0.0417: real time    0.0418
    SETDIJ:  cpu time    0.0055: real time    0.0055
    EDDIAG:  cpu time    1.2251: real time    1.2281
  RMM-DIIS:  cpu time    3.3745: real time    3.3827
    ORTHCH:  cpu time    0.2914: real time    0.2926
       DOS:  cpu time    0.0016: real time    0.0016
    CHARGE:  cpu time    0.2349: real time    0.2355
    MIXING:  cpu time    0.0041: real time    0.0041
    --------------------------------------------
      LOOP:  cpu time    5.1795: real time    5.1951

 eigenvalue-minimisations  :  3680
 total energy-change (2. order) : 0.7064304E-03  (-0.1769443E-03)
 number of electron     503.9998362 magnetization 
 augmentation part      197.0756797 magnetization 

 DIPCOR: dipole corrections for dipol
 direction  3 min pos     1,
 dipolmoment           0.000000      0.000000     -0.017227 electrons x Angstroem
 Tr[quadrupol]    -10293.820738

 energy correction for charged system         0.000000 eV
 dipol+quadrupol energy correction           -0.000010 eV
 added-field ion interaction          0.002727 eV  (added to PSCEN)


 Broyden mixing:
  rms(total) = 0.24272E-01    rms(broyden)= 0.24267E-01
  rms(prec ) = 0.27942E-01
  weight for this iteration     100.00

 eigenvalues of (default mixing * dielectric matrix)
  average eigenvalue GAMMA=   0.7669
  2.6177  2.2094  1.5051  1.5051  0.7784  0.7784  0.5923  0.5923  0.3559  0.3559
  0.3390  0.2821  0.2649  0.2649  0.2107  0.1930  0.1930

 Free energy of the ion-electron system (eV)
  ---------------------------------------------------
  alpha Z        PSCENC =       805.87208052
  Ewald energy   TEWEN  =    200404.06546780
  -Hartree energ DENC   =   -242569.46709362
  -exchange      EXHF   =         0.00000000
  -V(xc)+E(xc)   XCENC  =      -343.26421309
  PAW double counting   =     49435.32763870   -47513.19335100
  entropy T*S    EENTRO =        -0.26918093
  eigenvalues    EBANDS =     -2066.91111409
  atomic energy  EATOM  =     41659.78587232
  Solvation  Ediel_sol  =         0.00000000
  ---------------------------------------------------
  free energy    TOTEN  =      -188.05389340 eV

  energy without entropy =     -187.78471247  energy(sigma->0) =     -187.91930293


--------------------------------------------------------------------------------------------------------




----------------------------------------- Iteration    1(  23)  ---------------------------------------


    POTLOK:  cpu time    0.0431: real time    0.0433
    SETDIJ:  cpu time    0.0053: real time    0.0053
    EDDIAG:  cpu time    1.2276: real time    1.2315
  RMM-DIIS:  cpu time    3.3971: real time    3.4054
    ORTHCH:  cpu time    0.2935: real time    0.2942
       DOS:  cpu time    0.0016: real time    0.0016
    CHARGE:  cpu time    0.2315: real time    0.2321
    MIXING:  cpu time    0.0040: real time    0.0041
    --------------------------------------------
      LOOP:  cpu time    5.2043: real time    5.2212

 eigenvalue-minimisations  :  3681
 total energy-change (2. order) : 0.3015068E-03  (-0.6501817E-04)
 number of electron     503.9998362 magnetization 
 augmentation part      197.0818646 magnetization 

 DIPCOR: dipole corrections for dipol
 direction  3 min pos     1,
 dipolmoment           0.000000      0.000000     -0.016550 electrons x Angstroem
 Tr[quadrupol]    -10293.884794

 energy correction for charged system         0.000000 eV
 dipol+quadrupol energy correction           -0.000010 eV
[...]
    275       1.6985      0.00000
    276       1.7887      0.00000
    277       2.0537      0.00000
    278       2.0794      0.00000
    279       2.2779      0.00000
    280       2.3315      0.00000
    281       2.4662      0.00000
    282       2.5898      0.00000
    283       2.7065      0.00000
    284       2.9657      0.00000
    285       3.1624      0.00000
    286       3.2669      0.00000
    287       3.4754      0.00000
    288       3.5726      0.00000
    289       3.7553      0.00000
    290       4.0008      0.00000
    291       4.0593      0.00000
    292       4.1633      0.00000
    293       4.4537      0.00000
    294       4.5388      0.00000
    295       4.5922      0.00000
    296       4.6166      0.00000
    297       4.7338      0.00000
    298       4.8010      0.00000
    299       4.8598      0.00000
    300       4.9043      0.00000
    301       4.9526      0.00000
    302       5.0477      0.00000
    303       5.0634      0.00000
    304       5.1029      0.00000
    305       5.2127      0.00000
    306       5.2354      0.00000


--------------------------------------------------------------------------------------------------------


 soft charge-density along one line, spin component           1
         0         1         2         3         4         5         6         7         8         9
 total charge-density along one line
 
 pseudopotential strength for first ion, spin component:           1
 -8.000   0.001  -0.006  -0.002   0.000  -8.147   0.001  -0.006
  0.001  -7.923  -0.001   0.003  -0.001   0.001  -8.072  -0.001
 -0.006  -0.001  -7.915  -0.000  -0.003  -0.006  -0.001  -8.065
 -0.002   0.003  -0.000  -7.919   0.001  -0.002   0.003  -0.000
  0.000  -0.001  -0.003   0.001  -8.002   0.000  -0.001  -0.003
 -8.147   0.001  -0.006  -0.002   0.000  -8.279   0.001  -0.005
  0.001  -8.072  -0.001   0.003  -0.001   0.001  -8.206  -0.001
 -0.006  -0.001  -8.065  -0.000  -0.003  -0.005  -0.001  -8.198
 -0.002   0.003  -0.000  -8.068   0.001  -0.001   0.003  -0.000
  0.000  -0.001  -0.003   0.001  -8.150   0.000  -0.001  -0.003
 -0.002   0.001  -0.026  -0.000  -0.002  -0.002   0.001  -0.026
 -0.003   0.001  -0.037  -0.000  -0.003  -0.003   0.001  -0.037
 -0.002  -0.004   0.000  -0.000   0.001  -0.001  -0.003   0.000
 -0.000  -0.001  -0.006  -0.002  -0.000  -0.000  -0.001  -0.006
 -0.000  -0.000   0.001  -0.004  -0.001  -0.000  -0.000   0.001
 -0.002  -0.004   0.000  -0.000   0.001  -0.002  -0.003   0.000
 -0.000  -0.001  -0.006  -0.002  -0.000  -0.000  -0.001  -0.006
 -0.000  -0.000   0.001  -0.004  -0.002  -0.000  -0.000   0.001
 total augmentation occupancy for first ion, spin component:           1
  4.302  -0.009   0.136   0.064   0.226  -2.474   0.014  -0.156  -0.078  -0.214   0.174  -0.111  -0.002  -0.002  -0.016  -0.001
 -0.009   4.078  -0.056  -0.036   0.071   0.014  -1.803   0.041   0.033  -0.085  -0.008  -0.015  -0.153   0.008  -0.015   0.004
  0.136  -0.056   4.264  -0.071   0.139  -0.156   0.041  -2.152   0.055  -0.145   0.978  -0.092   0.006  -0.204   0.012  -0.000
  0.064  -0.036  -0.071   4.066   0.012  -0.078   0.033   0.055  -1.785  -0.006   0.023  -0.030  -0.016   0.012  -0.171  -0.000
  0.226   0.071   0.139   0.012   3.970  -0.214  -0.086  -0.144  -0.005  -2.182   0.142  -0.055  -0.017  -0.008  -0.010   0.001
 -2.474   0.014  -0.156  -0.078  -0.214   2.531  -0.018   0.170   0.089   0.205  -0.157   0.101   0.002   0.007   0.015   0.000
  0.014  -1.803   0.041   0.033  -0.086  -0.018   1.503  -0.030  -0.030   0.096   0.005   0.013   0.143  -0.004   0.017  -0.006
 -0.156   0.041  -2.152   0.055  -0.144   0.170  -0.030   1.985  -0.042   0.149  -0.914   0.113  -0.004   0.206  -0.008   0.000
 -0.078   0.033   0.055  -1.785  -0.005   0.089  -0.030  -0.042   1.482   0.000  -0.020   0.025   0.017  -0.006   0.163  -0.000
 -0.214  -0.085  -0.145  -0.006  -2.182   0.205   0.096   0.149   0.000   2.268  -0.127   0.054   0.014   0.009   0.010  -0.001
  0.174  -0.008   0.978   0.023   0.142  -0.157   0.005  -0.914  -0.020  -0.127   2.354  -0.475   0.003   0.116   0.004  -0.000
 -0.111  -0.015  -0.092  -0.030  -0.055   0.101   0.013   0.113   0.025   0.054  -0.475   0.138   0.000  -0.054   0.002  -0.000
 -0.002  -0.153   0.006  -0.016  -0.017   0.002   0.143  -0.004   0.017   0.014   0.003   0.000   0.188   0.001  -0.005  -0.006
 -0.002   0.008  -0.204   0.012  -0.008   0.007  -0.004   0.206  -0.006   0.009   0.116  -0.054   0.001   0.083  -0.000   0.000
 -0.016  -0.015   0.012  -0.171  -0.010   0.015   0.017  -0.008   0.163   0.010   0.004   0.002  -0.005  -0.000   0.176   0.000
 -0.001   0.004  -0.000  -0.000   0.001   0.000  -0.006   0.000  -0.000  -0.001  -0.000  -0.000  -0.006   0.000   0.000   0.000
 -0.000  -0.002   0.001  -0.003  -0.000   0.000   0.001  -0.006   0.001  -0.000  -0.008   0.003   0.000  -0.003   0.000  -0.000
  0.000  -0.000  -0.000   0.004  -0.001  -0.001  -0.000   0.001  -0.006  -0.000  -0.000  -0.000   0.000   0.000  -0.005  -0.000


------------------------ aborting loop because EDIFF is reached ----------------------------------------


    CHARGE:  cpu time    0.2345: real time    0.2353
    FORLOC:  cpu time    0.0164: real time    0.0165
    FORNL :  cpu time    1.3214: real time    1.3255
    FORCOR:  cpu time    0.0577: real time    0.0578
    FORHAR:  cpu time    0.0247: real time    0.0248
    MIXING:  cpu time    0.0032: real time    0.0032
    OFIELD:  cpu time    0.0000: real time    0.0000

 VOLUME and BASIS-vectors are now :
 -----------------------------------------------------------------------------
  energy-cutoff  :      400.00
  volume of cell :     2567.68
      direct lattice vectors                 reciprocal lattice vectors
    11.002581515  0.000000000  0.000000000     0.090887761 -0.052474073  0.000000000
     5.501290758  9.528515099  0.000000000     0.000000000  0.104948147  0.000000000
     0.000000000  0.000000000 24.491785094     0.000000000  0.000000000  0.040830017

  length of vectors
    11.002581515 11.002581515 24.491785094     0.104948147  0.104948147  0.040830017


 FORCES acting on ions
    electron-ion (+dipol)            ewald-force                    non-local-force                 convergence-correction
 -----------------------------------------------------------------------------------------------
   0.757E+01 0.278E+01 0.230E+04   -.733E+01 -.261E+01 -.230E+04   -.229E+00 -.166E+00 -.600E-01   -.424E-03 0.160E-02 0.235E-02
   -.501E+01 -.328E+01 0.546E+01   0.506E+01 0.325E+01 -.542E+01   -.489E-01 0.242E-01 -.390E-01   0.341E-02 0.347E-02 0.511E-02
   0.281E+01 0.866E+01 -.231E+04   -.319E+01 -.904E+01 0.231E+04   0.382E+00 0.370E+00 -.119E+00   -.375E-02 0.561E-03 0.186E-02
   0.747E+01 0.108E+02 -.105E+02   -.722E+01 -.104E+02 0.106E+02   -.239E+00 -.413E+00 -.645E-01   0.377E-02 0.357E-02 0.407E-02
   0.955E+00 -.302E+01 0.227E+04   -.340E+00 0.365E+01 -.227E+04   -.610E+00 -.638E+00 -.686E-02   0.139E-02 0.524E-02 0.436E-02
   -.829E+01 -.131E+02 0.325E+00   0.736E+01 0.124E+02 -.294E+00   0.942E+00 0.728E+00 -.454E-01   -.170E-03 -.506E-02 0.106E-01
   -.133E+02 0.186E+01 0.228E+04   0.138E+02 -.162E+01 -.228E+04   -.479E+00 -.235E+00 -.446E+00   0.138E-02 -.583E-02 0.938E-02
   -.550E+01 0.474E+01 -.229E+04   0.589E+01 -.475E+01 0.229E+04   -.377E+00 0.749E-02 -.188E+00   0.235E-02 0.181E-02 0.255E-03
   0.115E+02 0.199E+01 -.245E+02   -.114E+02 -.222E+01 0.239E+02   -.877E-01 0.228E+00 0.597E+00   0.475E-02 0.687E-03 0.526E-02
   -.159E+01 0.215E+01 0.228E+04   0.148E+01 -.195E+01 -.228E+04   0.114E+00 -.210E+00 -.660E-01   0.210E-02 0.484E-02 0.214E-02
   -.225E+01 0.620E+01 0.185E+01   0.233E+01 -.564E+01 -.127E+01   -.892E-01 -.572E+00 -.580E+00   0.165E-02 -.305E-02 0.330E-02
   0.608E+01 0.959E+01 0.229E+04   -.615E+01 -.981E+01 -.229E+04   0.704E-01 0.220E+00 -.695E-02   0.271E-02 -.364E-02 0.534E-02
   0.310E+01 0.231E+02 -.224E+04   -.296E+01 -.241E+02 0.224E+04   -.153E+00 0.981E+00 0.880E-02   0.160E-02 0.124E-02 0.694E-03
   0.537E+01 0.697E+01 -.232E+02   -.509E+01 -.687E+01 0.221E+02   -.293E+00 -.103E+00 0.113E+01   -.206E-02 0.462E-03 0.451E-02
   -.465E+01 -.181E+02 0.217E+02   0.434E+01 0.168E+02 -.216E+02   0.304E+00 0.129E+01 -.890E-01   -.365E-02 0.481E-02 0.545E-02
   -.142E+02 -.167E+02 -.232E+04   0.148E+02 0.175E+02 0.232E+04   -.529E+00 -.794E+00 -.234E+00   0.379E-02 -.408E-02 0.772E-03
   0.256E+01 0.133E+02 -.225E+04   -.313E+01 -.138E+02 0.225E+04   0.573E+00 0.494E+00 -.129E+00   -.269E-02 0.449E-02 -.167E-02
   -.140E+01 -.116E+02 0.103E+02   0.169E+01 0.112E+02 -.103E+02   -.299E+00 0.389E+00 0.208E-01   -.150E-02 0.388E-02 0.336E-02
   -.131E+02 0.994E+01 -.223E+04   0.136E+02 -.101E+02 0.223E+04   -.419E+00 0.184E+00 0.385E+00   -.194E-02 0.541E-02 0.194E-02
   0.191E+01 -.129E+02 0.232E+04   -.218E+01 0.132E+02 -.232E+04   0.279E+00 -.335E+00 0.210E+00   -.449E-02 0.532E-04 0.211E-02
   -.114E+02 0.673E+01 -.130E+02   0.110E+02 -.616E+01 0.119E+02   0.404E+00 -.577E+00 0.113E+01   -.598E-02 0.346E-02 0.354E-02
   -.292E+00 0.869E-01 0.227E+04   0.186E+00 -.726E+00 -.227E+04   0.107E+00 0.616E+00 -.158E+00   -.149E-02 0.405E-02 0.222E-02
   0.191E+02 -.147E+02 -.228E+04   -.199E+02 0.154E+02 0.228E+04   0.739E+00 -.685E+00 0.104E+00   -.303E-02 0.532E-02 -.296E-02
   0.625E+01 -.737E+01 -.228E+04   -.609E+01 0.864E+01 0.228E+04   -.152E+00 -.127E+01 0.758E-01   -.521E-02 0.412E-04 -.209E-02
   -.106E+01 0.633E+01 0.753E+01   0.104E+01 -.569E+01 -.759E+01   0.328E-01 -.626E+00 0.490E-01   -.870E-03 -.518E-02 0.975E-02
   -.504E+01 -.663E+01 0.197E+04   0.523E+01 0.708E+01 -.197E+04   -.186E+00 -.439E+00 -.176E+01   -.357E-02 -.375E-02 0.885E-02
   -.222E+01 -.518E+01 -.197E+04   0.225E+01 0.527E+01 0.197E+04   -.359E-01 -.905E-01 0.128E+01   -.124E-03 0.462E-02 -.410E-03
   -.625E+01 0.231E+02 -.196E+04   0.668E+01 -.237E+02 0.195E+04   -.438E+00 0.592E+00 0.173E+01   0.419E-02 -.180E-02 0.146E-02
   -.219E+01 -.310E+01 0.198E+04   0.210E+01 0.281E+01 -.198E+04   0.856E-01 0.280E+00 -.146E+01   -.864E-03 0.118E-02 0.740E-02
   -.481E+01 -.733E+01 -.198E+04   0.458E+01 0.711E+01 0.198E+04   0.221E+00 0.228E+00 0.123E+01   -.504E-02 -.792E-03 0.178E-02
   0.277E+01 -.267E+01 0.198E+04   -.302E+01 0.257E+01 -.198E+04   0.253E+00 0.816E-01 -.169E+01   -.292E-02 0.428E-02 0.309E-02
   -.144E+01 0.376E+01 -.420E+01   0.159E+01 -.382E+01 0.377E+01   -.138E+00 0.618E-01 0.425E+00   -.162E-02 0.554E-02 0.263E-02
   0.193E+02 -.847E+01 -.198E+04   -.192E+02 0.845E+01 0.198E+04   -.825E-01 0.215E-01 0.157E+01   -.780E-02 -.196E-02 -.392E-03
   0.922E+00 -.535E+01 0.196E+04   -.611E+00 0.529E+01 -.196E+04   -.302E+00 0.612E-01 -.157E+01   0.278E-02 -.756E-04 0.392E-02
   0.415E+01 0.146E+02 0.198E+04   -.450E+01 -.152E+02 -.198E+04   0.351E+00 0.650E+00 -.152E+01   0.676E-03 -.778E-03 0.543E-02
   -.941E+01 -.189E+02 -.197E+04   0.946E+01 0.193E+02 0.196E+04   -.549E-01 -.389E+00 0.153E+01   0.486E-02 0.163E-02 0.401E-03
   0.428E+01 0.521E+01 0.621E+02   -.399E+01 -.435E+01 -.613E+02   -.301E+00 -.852E+00 -.799E+00   0.709E-02 -.534E-02 0.848E-02
   0.714E+01 -.236E+01 0.319E+02   -.643E+01 0.236E+01 -.318E+02   -.710E+00 0.162E-01 -.123E+00   -.149E-02 0.841E-03 0.407E-02
   -.138E+01 -.232E+01 0.199E+04   0.163E+01 0.260E+01 -.199E+04   -.232E+00 -.269E+00 -.197E+01   -.760E-03 -.253E-02 0.217E-02
   0.371E+00 -.495E+00 0.199E+04   -.386E+00 0.369E+00 -.199E+04   0.139E-01 0.122E+00 -.104E+01   0.269E-02 0.648E-03 0.569E-02
   0.160E+02 0.180E+02 -.195E+04   -.164E+02 -.182E+02 0.195E+04   0.420E+00 0.221E+00 0.186E+01   0.137E-02 -.558E-02 0.238E-02
   -.197E+01 -.609E+01 0.148E+01   0.178E+01 0.586E+01 -.142E+01   0.180E+00 0.231E+00 -.602E-01   0.161E-02 0.186E-02 0.634E-02
   0.133E+02 -.367E+00 0.197E+04   -.137E+02 0.561E+00 -.197E+04   0.390E+00 -.195E+00 -.143E+01   -.924E-03 -.954E-03 0.527E-02
   0.641E+01 -.976E+01 -.194E+04   -.653E+01 0.992E+01 0.194E+04   0.122E+00 -.146E+00 0.198E+01   0.547E-02 -.633E-02 -.464E-04
   -.113E+01 -.673E+01 0.452E+02   0.889E+00 0.627E+01 -.448E+02   0.235E+00 0.467E+00 -.423E+00   0.294E-02 -.634E-02 0.104E-01
   -.862E+01 0.105E+02 0.200E+04   0.857E+01 -.108E+02 -.200E+04   0.537E-01 0.256E+00 -.168E+01   0.774E-03 -.456E-02 0.553E-02
   -.184E+01 0.632E+01 -.371E+02   0.150E+01 -.622E+01 0.367E+02   0.341E+00 -.937E-01 0.411E+00   -.797E-02 -.242E-02 0.517E-02
   -.206E+02 -.990E+01 -.195E+04   0.209E+02 0.991E+01 0.195E+04   -.298E+00 0.254E-03 0.185E+01   0.735E-02 -.519E-02 0.114E-02
 -----------------------------------------------------------------------------------------------
   0.208E+00 0.252E+00 0.529E-01   -.156E-12 0.238E-12 0.455E-12   -.172E+00 -.281E+00 -.175E+00   0.361E-03 0.345E-03 0.172E+00
 
 
 POSITION                                       TOTAL-FORCE (eV/Angst)
 -----------------------------------------------------------------------------------
      1.39542      0.80354      9.66885         0.006289      0.004730     -0.009477
     11.00258      6.35452     12.24044         0.010097     -0.008260      0.008490
      9.60363      2.36712     14.84693         0.002148     -0.006626     -0.000561
      9.61526      3.95051     12.25783         0.008144      0.001120      0.007234
     11.03459      3.19982      9.70844         0.005390      0.005640      0.005483
      8.21492      1.55404     12.24857         0.012995     -0.013873     -0.005097
     11.04221      7.94895      9.72040         0.001610      0.003405     -0.003755
      8.25384      4.76946     14.84977         0.005429     -0.001281     -0.018383
      8.24841      6.34353     12.26571        -0.003026      0.002407     -0.005825
      8.26554      3.17999      9.70039         0.007161      0.000444      0.011480
      6.88272      8.73143     12.25251        -0.006121     -0.008500      0.000599
      8.26537      7.93372      9.68643         0.002368     -0.003677     -0.004159
      5.50000      4.74685     14.78975        -0.011229     -0.009414      0.003872
      5.49329      6.33634     12.25808        -0.016983     -0.001033      0.010410
      4.11290      3.92646     12.22133        -0.011700      0.006172     -0.006037
      6.89175      7.18585     14.89553         0.001632     -0.003726     -0.004969
      2.72656      4.76093     14.79081        -0.000740     -0.000172     -0.001540
     11.00313      1.56518     12.24114        -0.014393      0.001812      0.004895
      1.38514      2.36710     14.72805         0.002674     -0.004787     -0.007104
      4.13217      5.58795      9.64631         0.006654      0.005801      0.011599
     13.73961      6.35079     12.24915         0.009585     -0.006279      0.009287
      5.51231      3.17196      9.71334        -0.000902     -0.018653     -0.002766
     12.33987      7.18396     14.79657        -0.005742     -0.002654     -0.001478
      4.11640      7.18697     14.84472         0.002127      0.002757     -0.008842
     12.35591      8.72820     12.23531         0.010592      0.003765      0.001178
     13.78581      7.96477      9.89491         0.005430      0.008557     -0.000961
     10.98546      4.76832     14.64356        -0.000088      0.005912     -0.006904
      4.13445      2.36721     14.57929        -0.005822      0.011886     -0.007117
     12.40119      5.56553      9.85978        -0.004989     -0.005880      0.006146
     -0.00317      0.00752     14.65385        -0.013950      0.001658     -0.003326
      2.76431      3.19026      9.84298         0.000195     -0.007259      0.000928
     12.37591      3.94450     12.25056         0.007991      0.009091     -0.001281
      8.23382      0.01104     14.63497         0.002539      0.002777     -0.012484
      6.89083      5.56172      9.87519         0.010803      0.003661      0.005414
      9.62941      0.78130      9.87524        -0.004010     -0.008738      0.007669
      9.62104      7.17721     14.61223        -0.005019     -0.008157     -0.006542
      9.63807      8.75083     12.17539        -0.000424      0.001483     -0.001108
      2.74722      1.57069     12.21070        -0.005077      0.018799      0.004375
      4.14793      0.80707      9.84296         0.014137      0.005855     -0.002003
      9.64384      5.56173      9.83689         0.000754     -0.003588      0.003148
      6.85421      2.37067     14.58905        -0.010040      0.004894      0.001371
      6.85969      3.94054     12.24151        -0.005402      0.006010      0.004041
      5.51018      7.95457      9.88410        -0.004618     -0.000583      0.011806
      5.47965      0.02045     14.53221         0.005335      0.001760      0.009362
      5.48052      1.56787     12.19037        -0.001068      0.001007     -0.013591
      6.89502      0.79167      9.85231         0.001294     -0.009259     -0.003779
     15.10617      8.71309     12.29354        -0.006256      0.002951     -0.000807
      2.77011      0.00360     14.57490        -0.005774      0.008045      0.011110
 -----------------------------------------------------------------------------------
    total drift:                                0.036574     -0.028796      0.050108


--------------------------------------------------------------------------------------------------------



  FREE ENERGIE OF THE ION-ELECTRON SYSTEM (eV)
  ---------------------------------------------------
  free  energy   TOTEN  =      -191.95743820 eV

  energy  without entropy=     -191.70677033  energy(sigma->0) =     -191.83210426
 
 d Force = 0.9142028E-03[ 0.260E-03, 0.157E-02]  d Energy = 0.9517185E-03-0.375E-04
 d Force = 0.3611299E+01[ 0.376E+01, 0.346E+01]  d Ewald  = 0.3611309E+01-0.973E-05


--------------------------------------------------------------------------------------------------------


    POTLOK:  cpu time    0.0483: real time    0.0486


--------------------------------------------------------------------------------------------------------


 stress matrix after NEB project (eV)
      0.00000      0.00000      0.00000
      0.00000      0.00000      0.00000
      0.00000      0.00000      0.00000
  FORCES: max atom, RMS     0.019958    0.012338
  FORCE total and by dimension    0.085480    0.018799
  Stress total and by dimension    0.000000    0.000000
 Conjugate gradient step on ions:
 trial-energy change:   -0.000952  1 .order   -0.000914   -0.001569   -0.000260
  (g-gl).g = 0.634E-03      g.g   = 0.541E-03  gl.gl    = 0.722E-03
 g(Force)  = 0.541E-03   g(Stress)= 0.000E+00 ortho     =-0.759E-05
 gamma     =   0.87765
 trial     =   2.93457
 opt step  =   3.42008  (harmonic =   3.51741) maximal distance =0.00930432
 next E    =  -191.957460   (d E  =  -0.00097)


--------------------------------------------------------------------------------------------------------


  
 reached required accuracy - stopping structural energy minimisation
     LOOP+:  cpu time   65.0214: real time   65.6160
    4ORBIT:  cpu time    0.0000: real time    0.0000

 total amount of memory used by VASP on root node    84353. kBytes
========================================================================

   base      :      30000. kBytes
   nonlr-proj:       4285. kBytes
   fftplans  :       4447. kBytes
   grid      :       6721. kBytes
   one-center:        124. kBytes
   wavefun   :      38776. kBytes
 
  
  
 General timing and accounting informations for this job:
 ========================================================
  
                  Total CPU time used (sec):     1772.033
                            User time (sec):     1684.560
                          System time (sec):       87.474
                         Elapsed time (sec):     1787.445
  
                   Maximum memory used (kb):      939148.
                   Average memory used (kb):           0.
  
                          Minor page faults:       890982
                          Major page faults:            0
                 Voluntary context switches:        10995
