unknown system                          
           1
    11.002582    0.000000    0.000000
     5.501291    9.528515    0.000000
     0.000000    0.000000   24.491785
   Au   Pd
  24  24
Direct configuration=     1
   0.08333333  0.08333333  0.40830017
   0.66666667  0.66666667  0.50000000
   0.75000000  0.25000000  0.59169983
   0.66666667  0.41666667  0.50000000
   0.83333333  0.33333333  0.40830017
   0.66666667  0.16666667  0.50000000
   0.58333333  0.83333333  0.40830017
   0.50000000  0.50000000  0.59169983
   0.41666667  0.66666667  0.50000000
   0.58333333  0.33333333  0.40830017
   0.16666667  0.91666667  0.50000000
   0.33333333  0.83333333  0.40830017
   0.25000000  0.50000000  0.59169983
   0.16666667  0.66666667  0.50000000
   0.16666667  0.41666667  0.50000000
   0.25000000  0.75000000  0.59169983
   0.00000000  0.50000000  0.59169983
   0.91666667  0.16666667  0.50000000
   0.00000000  0.25000000  0.59169983
   0.08333333  0.58333333  0.40830017
   0.91666667  0.66666667  0.50000000
   0.33333333  0.33333333  0.40830017
   0.75000000  0.75000000  0.59169983
   0.00000000  0.75000000  0.59169983
   0.66666667  0.91666667  0.50000000
   0.83333333  0.83333333  0.40830017
   0.75000000  0.50000000  0.59169983
   0.25000000  0.25000000  0.59169983
   0.83333333  0.58333333  0.40830017
   0.00000000  0.00000000  0.59169983
   0.08333333  0.33333333  0.40830017
   0.91666667  0.41666667  0.50000000
   0.75000000  0.00000000  0.59169983
   0.33333333  0.58333333  0.40830017
   0.83333333  0.08333333  0.40830017
   0.50000000  0.75000000  0.59169983
   0.41666667  0.91666667  0.50000000
   0.16666667  0.16666667  0.50000000
   0.33333333  0.08333333  0.40830017
   0.58333333  0.58333333  0.40830017
   0.50000000  0.25000000  0.59169983
   0.41666667  0.41666667  0.50000000
   0.08333333  0.83333333  0.40830017
   0.50000000  0.00000000  0.59169983
   0.41666667  0.16666667  0.50000000
   0.58333333  0.08333333  0.40830017
   0.91666667  0.91666667  0.50000000
   0.25000000  0.00000000  0.59169983
Direct configuration=     2
   0.08360254  0.08363650  0.40613145
   0.66666873  0.66663276  0.49997697
   0.74991890  0.24926941  0.59419774
   0.66661345  0.41790103  0.49995718
   0.83375234  0.33431524  0.40611618
   0.66578689  0.16439646  0.50004854
   0.58378252  0.83391322  0.40652407
   0.50044357  0.49971339  0.59397143
   0.41744412  0.66644417  0.49962214
   0.58275403  0.33352451  0.40610073
   0.16602699  0.91797609  0.50032363
   0.33355695  0.83295454  0.40615270
   0.25142920  0.49802543  0.59395359
   0.16694880  0.66720311  0.49915637
   0.16774122  0.41341172  0.49990202
   0.25005155  0.75153273  0.59424550
  -0.00021183  0.49880298  0.59394554
   0.91775693  0.16535859  0.50003393
   0.00100435  0.24956349  0.59355487
   0.08253827  0.58412212  0.40588293
   0.91481292  0.66806250  0.49916252
   0.33385892  0.33232718  0.40645263
   0.74815890  0.75144693  0.59383858
  -0.00120063  0.75222750  0.59398626
   0.66585641  0.91815160  0.49998471
   0.83329081  0.83416237  0.40737353
   0.74985013  0.50022256  0.59296752
   0.25122996  0.24875473  0.59258615
   0.83346280  0.58303885  0.40711411
  -0.00015377 -0.00015923  0.59290850
   0.08317344  0.33314751  0.40730989
   0.91713422  0.41646655  0.49974316
   0.74984639  0.00006250  0.59263157
   0.33357951  0.58339415  0.40705492
   0.83330535  0.08202094  0.40711754
   0.49974936  0.75101666  0.59285724
   0.41655883  0.91861185  0.50053987
   0.16799247  0.16667305  0.50009970
   0.33359320  0.08380780  0.40761439
   0.58336518  0.58327140  0.40688001
   0.49961100  0.24922234  0.59262660
   0.41673589  0.41576315  0.49998400
   0.08246191  0.83355107  0.40712009
   0.49941600  0.00047735  0.59224692
   0.41689839  0.16551813  0.50026826
   0.58349770  0.08279678  0.40744175
   0.91559255  0.91712750  0.49974279
   0.25071261  0.00013877  0.59254929
Direct configuration=     3
   0.08441018  0.08454600  0.39962528
   0.66667491  0.66653104  0.49990788
   0.74967559  0.24707765  0.60169149
   0.66645380  0.42160411  0.49982873
   0.83500937  0.33726097  0.39956420
   0.66314757  0.15758584  0.50019416
   0.58513010  0.83565289  0.40119577
   0.50177428  0.49885355  0.60078624
   0.41977649  0.66577668  0.49848855
   0.58101614  0.33409803  0.39950243
   0.16410795  0.92190437  0.50129452
   0.33422780  0.83181816  0.39971028
   0.25571681  0.49210173  0.60071487
   0.16779520  0.66881242  0.49662549
   0.17096486  0.40364688  0.49960808
   0.25020621  0.75613094  0.60188251
  -0.00084733  0.49521192  0.60068268
   0.92102771  0.16143437  0.50013570
   0.00401739  0.24825397  0.59911998
   0.08015307  0.58648847  0.39863119
   0.90925169  0.67225001  0.49665007
   0.33543569  0.32930874  0.40091002
   0.74263558  0.75578772  0.60025482
  -0.00480251  0.75891002  0.60084553
   0.66342564  0.92260639  0.49993885
   0.83316325  0.83664948  0.40459362
   0.74940052  0.50089022  0.59677058
   0.25491984  0.24501893  0.59524511
   0.83385120  0.58215538  0.40355591
  -0.00061509 -0.00063690  0.59653452
   0.08269377  0.33259005  0.40433907
   0.91853689  0.41586621  0.49897264
   0.74938554  0.00025000  0.59542680
   0.33431804  0.58357658  0.40331917
   0.83322142  0.07808377  0.40356966
   0.49899744  0.75406666  0.59632948
   0.41623530  0.92444741  0.50215946
   0.17196987  0.16669221  0.50039879
   0.33437278  0.08523119  0.40555705
   0.58346073  0.58308562  0.40261951
   0.49844401  0.24688936  0.59540692
   0.41694358  0.41305261  0.49993600
   0.07984764  0.83420428  0.40357984
   0.49766402  0.00190939  0.59388818
   0.41759357  0.16207251  0.50107305
   0.58399082  0.08118712  0.40486651
   0.91237020  0.91850999  0.49897115
   0.25285044  0.00055508  0.59509766
Direct configuration=     4
   0.08443572  0.08394494  0.39772491
   0.66594576  0.66949482  0.49998117
   0.74972752  0.24713163  0.60343178
   0.66841245  0.41602428  0.49989543
   0.83415042  0.33594981  0.39778219
   0.66354842  0.16351956  0.50014307
   0.58514987  0.83488541  0.39970810
   0.50145389  0.49948627  0.60260750
   0.41717680  0.66831624  0.49888904
   0.58283770  0.33311813  0.39791846
   0.16711013  0.91945742  0.50098671
   0.33387213  0.83269915  0.39807521
   0.25329862  0.49466804  0.60218378
   0.16694222  0.66714211  0.49737197
   0.16957767  0.40908666  0.49964556
   0.25067355  0.75457280  0.60380960
  -0.00078428  0.49789399  0.60217446
   0.91741445  0.16529338  0.49997670
   0.00365027  0.24696179  0.60060998
   0.08091140  0.58529027  0.39649923
   0.91218429  0.67063078  0.49742893
   0.33447804  0.33038345  0.39917351
   0.74384941  0.75513741  0.60198719
  -0.00326536  0.75558531  0.60226817
   0.66334166  0.91815287  0.49998116
   0.83266524  0.83667566  0.40306069
   0.74922956  0.50065588  0.59780654
   0.25469501  0.24498485  0.59667773
   0.83340116  0.58298563  0.40212354
  -0.00099509  0.00093023  0.59780081
   0.08330588  0.33318302  0.40305562
   0.91885278  0.41498130  0.49932551
   0.74854126  0.00098024  0.59668206
   0.33403552  0.58314971  0.40200740
   0.83258016  0.08020385  0.40249144
   0.49866307  0.75346754  0.59723822
   0.41712630  0.92166752  0.50143809
   0.16999629  0.16476646  0.50029470
   0.33456962  0.08434393  0.40475611
   0.58375467  0.58336309  0.40108315
   0.49984518  0.24616062  0.59644205
   0.41724345  0.41289723  0.49992853
   0.08056479  0.83510867  0.40233671
   0.49806631  0.00208140  0.59527876
   0.41736976  0.16328937  0.50060020
   0.58389613  0.08173865  0.40351740
   0.91404894  0.91666648  0.49940478
   0.25245129  0.00089218  0.59639614
Direct configuration=     5
   0.08444434  0.08374214  0.39708369
   0.66569974  0.67049484  0.50000591
   0.74974504  0.24714985  0.60401898
   0.66907332  0.41414157  0.49991794
   0.83386060  0.33550740  0.39718091
   0.66368368  0.16552167  0.50012583
   0.58515654  0.83462645  0.39920615
   0.50134579  0.49969976  0.60322202
   0.41629963  0.66917312  0.49902417
   0.58345232  0.33278749  0.39738401
   0.16812310  0.91863178  0.50088286
   0.33375212  0.83299641  0.39752352
   0.25248269  0.49553395  0.60267940
   0.16665441  0.66657852  0.49762384
   0.16910961  0.41092211  0.49965820
   0.25083123  0.75404707  0.60445983
  -0.00076301  0.49879896  0.60267780
   0.91619529  0.16659545  0.49992305
   0.00352640  0.24652580  0.60111273
   0.08116727  0.58488598  0.39577987
   0.91317378  0.67008443  0.49769173
   0.33415492  0.33074607  0.39858759
   0.74425897  0.75491798  0.60257171
  -0.00274671  0.75446351  0.60274819
   0.66331332  0.91665019  0.49999544
   0.83249720  0.83668449  0.40254346
   0.74917187  0.50057681  0.59815609
   0.25461915  0.24497335  0.59716111
   0.83324931  0.58326577  0.40164024
  -0.00112331  0.00145900  0.59822807
   0.08351241  0.33338310  0.40262257
   0.91895936  0.41468271  0.49944457
   0.74825639  0.00122663  0.59710560
   0.33394020  0.58300567  0.40156479
   0.83236379  0.08091919  0.40212763
   0.49855024  0.75326538  0.59754484
   0.41742693  0.92072955  0.50119469
   0.16933038  0.16411668  0.50025958
   0.33463604  0.08404455  0.40448587
   0.58385385  0.58345671  0.40056476
   0.50031796  0.24591473  0.59679131
   0.41734463  0.41284480  0.49992602
   0.08080677  0.83541383  0.40191727
   0.49820205  0.00213944  0.59574796
   0.41729425  0.16369995  0.50044066
   0.58386419  0.08192474  0.40306219
   0.91461537  0.91604445  0.49955109
   0.25231661  0.00100592  0.59683426
Direct configuration=     6
   0.08400416  0.08392244  0.39663790
   0.66616791  0.66801639  0.50001107
   0.74954359  0.24788903  0.60456770
   0.66736238  0.41618116  0.49996128
   0.83400509  0.33494172  0.39677359
   0.66475892  0.16462444  0.50004535
   0.58492384  0.83414031  0.39869343
   0.50101804  0.49983226  0.60348788
   0.41718931  0.66745720  0.49921746
   0.58358018  0.33288462  0.39698009
   0.16707476  0.91826691  0.50070587
   0.33376782  0.83302763  0.39712807
   0.25187118  0.49678111  0.60284625
   0.16668258  0.66590978  0.49815885
   0.16817337  0.41254510  0.49978543
   0.25034713  0.75324954  0.60492558
  -0.00089727  0.49930308  0.60281719
   0.91726445  0.16545768  0.49978462
   0.00278934  0.24754368  0.60141161
   0.08143543  0.58490724  0.39514443
   0.91513344  0.66816800  0.49816120
   0.33397612  0.33141599  0.39815850
   0.74540473  0.75392490  0.60301503
  -0.00191133  0.75344739  0.60293764
   0.66412160  0.91749807  0.50000223
   0.83284005  0.83620870  0.40221259
   0.74938466  0.50030350  0.59807554
   0.25347780  0.24629232  0.59735920
   0.83328166  0.58341678  0.40146797
  -0.00072358  0.00088623  0.59826232
   0.08343743  0.33357730  0.40243827
   0.91862830  0.41520510  0.49969953
   0.74858479  0.00093436  0.59718174
   0.33383370  0.58297087  0.40148498
   0.83245510  0.08173941  0.40208914
   0.49871702  0.75264043  0.59765307
   0.41718100  0.91990110  0.50066469
   0.16785613  0.16502828  0.50018735
   0.33454697  0.08372642  0.40431712
   0.58379618  0.58348342  0.40055295
   0.50027783  0.24692189  0.59698020
   0.41688079  0.41435922  0.49991557
   0.08146677  0.83525738  0.40183299
   0.49841534  0.00193354  0.59617817
   0.41685224  0.16458133  0.50007979
   0.58388658  0.08245435  0.40290325
   0.91498099  0.91634333  0.49990612
   0.25215548  0.00049913  0.59719919
Direct configuration=     7
   0.08388948  0.08396941  0.39652177
   0.66628988  0.66737070  0.50001242
   0.74949110  0.24808160  0.60471065
   0.66691664  0.41671251  0.49997257
   0.83404273  0.33479435  0.39666747
   0.66503905  0.16439069  0.50002438
   0.58486322  0.83401365  0.39855985
   0.50093266  0.49986678  0.60355714
   0.41742109  0.66701017  0.49926781
   0.58361349  0.33290992  0.39687486
   0.16680165  0.91817185  0.50065976
   0.33377191  0.83303576  0.39702504
   0.25171186  0.49710602  0.60288972
   0.16668992  0.66573556  0.49829823
   0.16792946  0.41296792  0.49981857
   0.25022101  0.75304176  0.60504692
  -0.00093225  0.49943441  0.60285350
   0.91754298  0.16516126  0.49974856
   0.00259732  0.24780886  0.60148948
   0.08150529  0.58491278  0.39497888
   0.91564398  0.66766873  0.49828350
   0.33392954  0.33159052  0.39804672
   0.74570322  0.75366618  0.60313053
  -0.00169370  0.75318267  0.60298700
   0.66433217  0.91771897  0.50000400
   0.83292937  0.83608474  0.40212640
   0.74944010  0.50023229  0.59805456
   0.25318046  0.24663593  0.59741081
   0.83329009  0.58345613  0.40142309
  -0.00061944  0.00073701  0.59827124
   0.08341790  0.33362789  0.40239026
   0.91854206  0.41534119  0.49976595
   0.74867035  0.00085821  0.59720158
   0.33380595  0.58296180  0.40146419
   0.83247889  0.08195309  0.40207912
   0.49876047  0.75247762  0.59768126
   0.41711693  0.91968527  0.50052662
   0.16747206  0.16526578  0.50016853
   0.33452376  0.08364354  0.40427316
   0.58378116  0.58349038  0.40054987
   0.50026738  0.24718428  0.59702941
   0.41675995  0.41475376  0.49991285
   0.08163872  0.83521662  0.40181103
   0.49847091  0.00187990  0.59629025
   0.41673709  0.16481094  0.49998577
   0.58389242  0.08259233  0.40286184
   0.91507625  0.91642120  0.49999861
   0.25211350  0.00036710  0.59729426
Direct configuration=     8
   0.08385976  0.08409488  0.39624986
   0.66699549  0.66723529  0.49997291
   0.74956855  0.24828465  0.60496158
   0.66691204  0.41641346  0.49995356
   0.83415763  0.33501081  0.39655676
   0.66521710  0.16433884  0.50004180
   0.58497640  0.83396177  0.39837695
   0.50083768  0.49988894  0.60372448
   0.41682347  0.66692923  0.49937698
   0.58338141  0.33325387  0.39669026
   0.16692446  0.91739835  0.50058407
   0.33373786  0.83285452  0.39687934
   0.25188526  0.49715200  0.60297722
   0.16690984  0.66608359  0.49853005
   0.16818560  0.41233055  0.49982883
   0.25002752  0.75301198  0.60531622
  -0.00103288  0.49927262  0.60292778
   0.91749338  0.16537865  0.49971150
   0.00227607  0.24830332  0.60157856
   0.08144845  0.58529335  0.39460268
   0.91519325  0.66774132  0.49844664
   0.33391009  0.33174290  0.39790067
   0.74589976  0.75334673  0.60327232
  -0.00175711  0.75338217  0.60311728
   0.66498007  0.91737259  0.49997981
   0.83329386  0.83577382  0.40222159
   0.74947722  0.50013136  0.59797093
   0.25269608  0.24736676  0.59727646
   0.83347057  0.58340514  0.40151770
  -0.00041135  0.00041731  0.59820792
   0.08328736  0.33375635  0.40243161
   0.91820073  0.41517592  0.49985434
   0.74899269  0.00063736  0.59715974
   0.33375057  0.58315046  0.40157957
   0.83272696  0.08189528  0.40216192
   0.49891732  0.75228187  0.59759514
   0.41697132  0.91944755  0.50024234
   0.16719601  0.16592724  0.50019151
   0.33438404  0.08379492  0.40424419
   0.58377763  0.58331154  0.40061176
   0.49990513  0.24785509  0.59692585
   0.41676453  0.41487087  0.49987085
   0.08189474  0.83490602  0.40196435
   0.49835872  0.00182104  0.59628253
   0.41614876  0.16537794  0.49984696
   0.58397799  0.08264094  0.40287382
   0.91529020  0.91594832  0.50015470
   0.25211776  0.00003054  0.59725611
Direct configuration=     9
   0.08384980  0.08413692  0.39615876
   0.66723188  0.66718993  0.49995967
   0.74959450  0.24835268  0.60504564
   0.66691050  0.41631327  0.49994720
   0.83419613  0.33508333  0.39651968
   0.66527675  0.16432147  0.50004764
   0.58501432  0.83394438  0.39831567
   0.50080586  0.49989637  0.60378054
   0.41662326  0.66690211  0.49941355
   0.58330367  0.33336910  0.39662841
   0.16696560  0.91713922  0.50055872
   0.33372646  0.83279380  0.39683053
   0.25194335  0.49716741  0.60300653
   0.16698352  0.66620019  0.49860771
   0.16827141  0.41211702  0.49983226
   0.24996270  0.75300200  0.60540644
  -0.00106659  0.49921842  0.60295266
   0.91747676  0.16545148  0.49969908
   0.00216845  0.24846898  0.60160840
   0.08142941  0.58542085  0.39447665
   0.91504225  0.66776563  0.49850129
   0.33390357  0.33179394  0.39785174
   0.74596560  0.75323970  0.60331983
  -0.00177835  0.75344900  0.60316093
   0.66519713  0.91725655  0.49997170
   0.83341597  0.83566965  0.40225349
   0.74948966  0.50009754  0.59794291
   0.25253381  0.24761159  0.59723145
   0.83353103  0.58338805  0.40154939
  -0.00034163  0.00031020  0.59818671
   0.08324362  0.33379939  0.40244547
   0.91808638  0.41512056  0.49988394
   0.74910068  0.00056337  0.59714572
   0.33373201  0.58321367  0.40161822
   0.83281007  0.08187591  0.40218966
   0.49896987  0.75221629  0.59756629
   0.41692254  0.91936791  0.50014711
   0.16710353  0.16614884  0.50019921
   0.33433724  0.08384564  0.40423449
   0.58377644  0.58325163  0.40063249
   0.49978378  0.24807982  0.59689115
   0.41676606  0.41491010  0.49985678
   0.08198051  0.83480197  0.40201572
   0.49832113  0.00180132  0.59627994
   0.41595166  0.16556789  0.49980046
   0.58400666  0.08265723  0.40287784
   0.91536188  0.91578989  0.50020699
   0.25211919 -0.00008221  0.59724333
Direct configuration=    10
   0.08394631  0.08413392  0.39589266
   0.66714847  0.66745721  0.49989885
   0.74973260  0.24824461  0.60529149
   0.66690984  0.41599578  0.49991620
   0.83422641  0.33536305  0.39641723
   0.66515589  0.16430028  0.50008836
   0.58512737  0.83398869  0.39817578
   0.50084540  0.50000074  0.60399084
   0.41678929  0.66684436  0.49955939
   0.58321697  0.33353850  0.39644420
   0.16695596  0.91729738  0.50048495
   0.33377319  0.83269150  0.39670089
   0.25188465  0.49727098  0.60310416
   0.16674222  0.66597775  0.49881040
   0.16817356  0.41221149  0.49975702
   0.25002415  0.75304921  0.60576291
  -0.00109550  0.49924007  0.60304964
   0.91762813  0.16538850  0.49968335
   0.00214721  0.24838761  0.60167589
   0.08142827  0.58565579  0.39413188
   0.91526457  0.66757845  0.49862984
   0.33380515  0.33197379  0.39771661
   0.74589316  0.75317593  0.60347067
  -0.00191625  0.75350340  0.60335159
   0.66514194  0.91721134  0.49995899
   0.83370152  0.83552756  0.40242653
   0.74928731  0.50011800  0.59786343
   0.25231953  0.24788914  0.59706336
   0.83375417  0.58335098  0.40168950
  -0.00029550  0.00042486  0.59808293
   0.08318065  0.33403601  0.40251579
   0.91789034  0.41488737  0.49993388
   0.74909500  0.00064610  0.59708541
   0.33365351  0.58336029  0.40177417
   0.83304622  0.08173664  0.40233354
   0.49907947  0.75212154  0.59737745
   0.41689191  0.91929111  0.49986772
   0.16710756  0.16593512  0.50026943
   0.33422704  0.08401523  0.40420935
   0.58379650  0.58320092  0.40076253
   0.49964617  0.24831611  0.59668405
   0.41681177  0.41469249  0.49978750
   0.08211386  0.83464139  0.40220975
   0.49809304  0.00189238  0.59607730
   0.41597596  0.16548816  0.49970358
   0.58415793  0.08261046  0.40294497
   0.91547515  0.91544135  0.50032726
   0.25204191 -0.00010352  0.59704679
Direct configuration=    11
   0.08410133  0.08412910  0.39546519
   0.66701449  0.66788656  0.49980116
   0.74995445  0.24807100  0.60568640
   0.66690877  0.41548575  0.49986641
   0.83427504  0.33581239  0.39625266
   0.66496174  0.16426626  0.50015377
   0.58530898  0.83405986  0.39795105
   0.50090891  0.50016840  0.60432868
   0.41705600  0.66675158  0.49979366
   0.58307770  0.33381062  0.39614827
   0.16694048  0.91755146  0.50036646
   0.33384827  0.83252717  0.39649264
   0.25179035  0.49743737  0.60326099
   0.16635460  0.66562041  0.49913599
   0.16801636  0.41236323  0.49963616
   0.25012287  0.75312504  0.60633553
  -0.00114195  0.49927485  0.60320543
   0.91787130  0.16528733  0.49965808
   0.00211311  0.24825690  0.60178429
   0.08142644  0.58603319  0.39357804
   0.91562170  0.66727775  0.49883633
   0.33364704  0.33226269  0.39749953
   0.74577679  0.75307349  0.60371299
  -0.00213778  0.75359078  0.60365787
   0.66505329  0.91713870  0.49993857
   0.83416022  0.83529929  0.40270450
   0.74896227  0.50015087  0.59773577
   0.25197532  0.24833500  0.59679335
   0.83411263  0.58329143  0.40191456
  -0.00022140  0.00060904  0.59791622
   0.08307949  0.33441612  0.40262875
   0.91757543  0.41451277  0.50001411
   0.74908589  0.00077900  0.59698852
   0.33352740  0.58359581  0.40202469
   0.83342559  0.08151293  0.40256467
   0.49925553  0.75196935  0.59707409
   0.41684271  0.91916773  0.49941891
   0.16711404  0.16559181  0.50038223
   0.33405003  0.08428765  0.40416897
   0.58382872  0.58311947  0.40097142
   0.49942511  0.24869568  0.59635136
   0.41688518  0.41434292  0.49967621
   0.08232807  0.83438343  0.40252144
   0.49772663  0.00203867  0.59575177
   0.41601500  0.16536008  0.49954795
   0.58440095  0.08253534  0.40305280
   0.91565709  0.91488144  0.50052048
   0.25191779 -0.00013774  0.59673108
Direct configuration=    12
   0.08414209  0.08421017  0.39522595
   0.66684449  0.66765565  0.49972271
   0.74974772  0.24797075  0.60593757
   0.66680631  0.41544840  0.49986988
   0.83432719  0.33563294  0.39613867
   0.66534459  0.16391759  0.50014378
   0.58542730  0.83408772  0.39778228
   0.50095238  0.50011138  0.60463507
   0.41695542  0.66661239  0.49997102
   0.58340546  0.33351451  0.39598330
   0.16717233  0.91720523  0.50024739
   0.33404918  0.83256912  0.39634337
   0.25159878  0.49773120  0.60338918
   0.16687224  0.66529313  0.49935062
   0.16772036  0.41236018  0.49946519
   0.25018171  0.75329176  0.60674153
  -0.00134187  0.49937282  0.60332221
   0.91769779  0.16486736  0.49959553
   0.00217866  0.24818002  0.60186008
   0.08162879  0.58593749  0.39322247
   0.91570654  0.66673661  0.49899439
   0.33364120  0.33235345  0.39734641
   0.74548214  0.75337352  0.60386747
  -0.00216495  0.75364457  0.60398245
   0.66478138  0.91718086  0.49996845
   0.83412686  0.83542421  0.40292915
   0.74894685  0.50008930  0.59764580
   0.25203295  0.24817882  0.59660482
   0.83419543  0.58355655  0.40209699
  -0.00019144  0.00052791  0.59783037
   0.08321250  0.33451937  0.40271117
   0.91763744  0.41464958  0.50009526
   0.74871184  0.00097435  0.59695230
   0.33352748  0.58361565  0.40227749
   0.83339476  0.08171223  0.40277169
   0.49902001  0.75232362  0.59686367
   0.41687581  0.91924878  0.49909262
   0.16724059  0.16544072  0.50031019
   0.33400695  0.08446439  0.40407142
   0.58384621  0.58338404  0.40114370
   0.49949164  0.24861321  0.59614984
   0.41666478  0.41440295  0.49958607
   0.08248950  0.83457944  0.40276177
   0.49754220  0.00216875  0.59534042
   0.41602223  0.16504127  0.49939073
   0.58451491  0.08263507  0.40310343
   0.91551040  0.91525547  0.50070059
   0.25202291 -0.00006450  0.59646354
Direct configuration=    13
   0.08415605  0.08423794  0.39514399
   0.66678625  0.66757654  0.49969584
   0.74967690  0.24793641  0.60602362
   0.66677121  0.41543561  0.49987106
   0.83434505  0.33557146  0.39609963
   0.66547576  0.16379814  0.50014036
   0.58546784  0.83409726  0.39772446
   0.50096727  0.50009185  0.60474003
   0.41692096  0.66656470  0.50003178
   0.58351774  0.33341307  0.39592679
   0.16725175  0.91708662  0.50020660
   0.33411800  0.83258349  0.39629223
   0.25153315  0.49783186  0.60343310
   0.16704958  0.66518101  0.49942416
   0.16761896  0.41235913  0.49940661
   0.25020186  0.75334887  0.60688061
  -0.00141036  0.49940639  0.60336222
   0.91763835  0.16472349  0.49957409
   0.00220111  0.24815368  0.60188604
   0.08169811  0.58590470  0.39310066
   0.91573561  0.66655123  0.49904853
   0.33363920  0.33238454  0.39729395
   0.74538119  0.75347630  0.60392040
  -0.00217426  0.75366300  0.60409364
   0.66468823  0.91719530  0.49997869
   0.83411543  0.83546701  0.40300612
   0.74894156  0.50006820  0.59761498
   0.25205269  0.24812531  0.59654024
   0.83422380  0.58364737  0.40215949
  -0.00018118  0.00050011  0.59780096
   0.08325806  0.33455474  0.40273941
   0.91765868  0.41469645  0.50012306
   0.74858369  0.00104128  0.59693989
   0.33352750  0.58362244  0.40236409
   0.83338419  0.08178050  0.40284261
   0.49893932  0.75244499  0.59679159
   0.41688715  0.91927655  0.49898084
   0.16728394  0.16538896  0.50028551
   0.33399219  0.08452493  0.40403800
   0.58385221  0.58347468  0.40120273
   0.49951442  0.24858496  0.59608080
   0.41658927  0.41442352  0.49955519
   0.08254480  0.83464659  0.40284410
   0.49747902  0.00221332  0.59519950
   0.41602470  0.16493205  0.49933686
   0.58455395  0.08266924  0.40312078
   0.91546015  0.91538361  0.50076229
   0.25205893 -0.00003940  0.59637188
Direct configuration=    14
   0.08419233  0.08441375  0.39498786
   0.66662774  0.66732032  0.49967809
   0.74947232  0.24790720  0.60620724
   0.66675617  0.41530587  0.49992126
   0.83447306  0.33545388  0.39604003
   0.66531170  0.16392053  0.50010117
   0.58558063  0.83425241  0.39754926
   0.50091083  0.50003621  0.60507689
   0.41680811  0.66642155  0.50022230
   0.58377527  0.33324655  0.39583456
   0.16748319  0.91672084  0.50013045
   0.33430882  0.83276198  0.39613930
   0.25144247  0.49789217  0.60353570
   0.16700079  0.66520811  0.49963135
   0.16774984  0.41218187  0.49930409
   0.25019348  0.75354752  0.60722959
  -0.00160032  0.49951435  0.60348443
   0.91769410  0.16474980  0.49956763
   0.00212794  0.24812408  0.60188848
   0.08178163  0.58600280  0.39289401
   0.91567767  0.66679820  0.49923121
   0.33393171  0.33231203  0.39716878
   0.74512199  0.75382548  0.60401616
  -0.00227566  0.75384874  0.60443709
   0.66484209  0.91681881  0.49998344
   0.83414571  0.83565198  0.40327270
   0.74899068  0.50000655  0.59755529
   0.25214847  0.24813844  0.59636055
   0.83430154  0.58383087  0.40227294
  -0.00020592  0.00039426  0.59778673
   0.08327296  0.33444689  0.40272628
   0.91770045  0.41443630  0.50020147
   0.74833204  0.00100648  0.59700527
   0.33377602  0.58347181  0.40258164
   0.83337881  0.08190793  0.40295470
   0.49862262  0.75282585  0.59664837
   0.41694099  0.91907421  0.49862454
   0.16703026  0.16534291  0.50006573
   0.33408185  0.08461210  0.40381611
   0.58399009  0.58355533  0.40132484
   0.49937018  0.24860799  0.59591643
   0.41657583  0.41412020  0.49951022
   0.08259690  0.83485554  0.40305442
   0.49744992  0.00225427  0.59476966
   0.41591229  0.16512334  0.49910175
   0.58451772  0.08281679  0.40309970
   0.91560956  0.91491301  0.50096650
   0.25207308  0.00002191  0.59612385
Direct configuration=    15
   0.08420762  0.08448784  0.39492205
   0.66656094  0.66721234  0.49967061
   0.74938611  0.24789489  0.60628463
   0.66674984  0.41525120  0.49994241
   0.83452701  0.33540433  0.39601492
   0.66524256  0.16397211  0.50008465
   0.58562817  0.83431779  0.39747542
   0.50088704  0.50001277  0.60521886
   0.41676055  0.66636122  0.50030260
   0.58388381  0.33317637  0.39579569
   0.16758074  0.91656668  0.50009836
   0.33438924  0.83283720  0.39607484
   0.25140425  0.49791759  0.60357894
   0.16698023  0.66521953  0.49971867
   0.16780500  0.41210716  0.49926088
   0.25018995  0.75363124  0.60737666
  -0.00168037  0.49955985  0.60353593
   0.91771760  0.16476088  0.49956490
   0.00209710  0.24811161  0.60188951
   0.08181683  0.58604414  0.39280691
   0.91565326  0.66690228  0.49930820
   0.33405498  0.33228147  0.39711602
   0.74501275  0.75397264  0.60405652
  -0.00231839  0.75392702  0.60458184
   0.66490694  0.91666014  0.49998544
   0.83415848  0.83572993  0.40338505
   0.74901138  0.49998057  0.59753013
   0.25218884  0.24814397  0.59628482
   0.83433430  0.58390821  0.40232075
  -0.00021635  0.00034965  0.59778073
   0.08327923  0.33440144  0.40272074
   0.91771805  0.41432666  0.50023451
   0.74822598  0.00099182  0.59703282
   0.33388077  0.58340832  0.40267332
   0.83337654  0.08196163  0.40300194
   0.49848914  0.75298636  0.59658801
   0.41696369  0.91898893  0.49847437
   0.16692335  0.16532351  0.49997310
   0.33411964  0.08464884  0.40372260
   0.58404820  0.58358933  0.40137630
   0.49930939  0.24861770  0.59584716
   0.41657017  0.41399236  0.49949126
   0.08261886  0.83494359  0.40314306
   0.49743765  0.00227153  0.59458850
   0.41586491  0.16520396  0.49900265
   0.58450245  0.08287898  0.40309081
   0.91567253  0.91471468  0.50105256
   0.25207905  0.00004775  0.59601932
Direct configuration=    16
   0.08433432  0.08443373  0.39484342
   0.66677044  0.66712218  0.49969474
   0.74936230  0.24789020  0.60633222
   0.66664994  0.41506387  0.50004212
   0.83453493  0.33567864  0.39602322
   0.66524496  0.16381608  0.50008756
   0.58582961  0.83441460  0.39733165
   0.50072798  0.50015481  0.60549306
   0.41681146  0.66598688  0.50046016
   0.58392980  0.33345481  0.39576968
   0.16742305  0.91668995  0.50011606
   0.33444878  0.83286878  0.39594631
   0.25131882  0.49789045  0.60362273
   0.16669710  0.66506257  0.49988312
   0.16770643  0.41233066  0.49924420
   0.25008106  0.75367825  0.60761036
  -0.00170679  0.49963445  0.60360213
   0.91790411  0.16459729  0.49963336
   0.00204787  0.24806885  0.60182380
   0.08181509  0.58622847  0.39286064
   0.91569003  0.66680319  0.49948027
   0.33413528  0.33234715  0.39700156
   0.74495490  0.75386694  0.60409717
  -0.00236957  0.75395859  0.60488917
   0.66509139  0.91635696  0.49992666
   0.83435982  0.83586309  0.40355583
   0.74881931  0.50014151  0.59754725
   0.25194961  0.24840018  0.59614677
   0.83450342  0.58382738  0.40239132
  -0.00035787  0.00047984  0.59781317
   0.08324961  0.33453423  0.40259472
   0.91775105  0.41428503  0.50026173
   0.74823314  0.00099533  0.59713197
   0.33415360  0.58339945  0.40281797
   0.83354589  0.08184432  0.40303310
   0.49845366  0.75294402  0.59657471
   0.41690194  0.91882622  0.49815267
   0.16678078  0.16523628  0.49971358
   0.33419771  0.08470624  0.40341578
   0.58421761  0.58341944  0.40140509
   0.49906065  0.24876414  0.59579421
   0.41664399  0.41392000  0.49951393
   0.08272951  0.83490072  0.40323927
   0.49742039  0.00226307  0.59428090
   0.41585628  0.16518933  0.49873095
   0.58451424  0.08287329  0.40298512
   0.91573189  0.91455853  0.50126933
   0.25185051  0.00023003  0.59581526
Direct configuration=    17
   0.08440054  0.08440544  0.39480232
   0.66687994  0.66707505  0.49970736
   0.74934986  0.24788775  0.60635710
   0.66659773  0.41496595  0.50009424