unknown system                          
           1
    11.002582    0.000000    0.000000
     5.501291    9.528515    0.000000
     0.000000    0.000000   24.491785
   Au   Pd
  24  24
Direct configuration=     1
   0.75000000  0.75000000  0.59169983
   0.75000000  0.50000000  0.59169983
   0.83333333  0.83333333  0.40830017
   0.75000000  0.25000000  0.59169983
   0.08333333  0.58333333  0.40830017
   0.91666667  0.66666667  0.50000000
   0.00000000  0.50000000  0.59169983
   0.91666667  0.16666667  0.50000000
   0.83333333  0.58333333  0.40830017
   0.91666667  0.91666667  0.50000000
   0.50000000  0.25000000  0.59169983
   0.25000000  0.00000000  0.59169983
   0.08333333  0.33333333  0.40830017
   0.41666667  0.41666667  0.50000000
   0.33333333  0.33333333  0.40830017
   0.66666667  0.16666667  0.50000000
   0.33333333  0.58333333  0.40830017
   0.25000000  0.50000000  0.59169983
   0.50000000  0.75000000  0.59169983
   0.58333333  0.83333333  0.40830017
   0.50000000  0.50000000  0.59169983
   0.41666667  0.16666667  0.50000000
   0.58333333  0.33333333  0.40830017
   0.66666667  0.41666667  0.50000000
   0.33333333  0.08333333  0.40830017
   0.58333333  0.58333333  0.40830017
   0.16666667  0.16666667  0.50000000
   0.25000000  0.25000000  0.59169983
   0.58333333  0.08333333  0.40830017
   0.33333333  0.83333333  0.40830017
   0.16666667  0.91666667  0.50000000
   0.66666667  0.91666667  0.50000000
   0.00000000  0.75000000  0.59169983
   0.16666667  0.66666667  0.50000000
   0.08333333  0.83333333  0.40830017
   0.08333333  0.08333333  0.40830017
   0.91666667  0.41666667  0.50000000
   0.00000000  0.00000000  0.59169983
   0.50000000  0.00000000  0.59169983
   0.66666667  0.66666667  0.50000000
   0.41666667  0.91666667  0.50000000
   0.75000000  0.00000000  0.59169983
   0.83333333  0.08333333  0.40830017
   0.83333333  0.33333333  0.40830017
   0.41666667  0.66666667  0.50000000
   0.16666667  0.41666667  0.50000000
   0.00000000  0.25000000  0.59169983
   0.25000000  0.75000000  0.59169983
Direct configuration=     2
   0.74927006  0.75189174  0.59351461
   0.75103466  0.49955424  0.59364625
   0.83333333  0.83333333  0.40830017
   0.75164373  0.24841604  0.59427211
   0.08333333  0.58333333  0.40830017
   0.91710975  0.66631146  0.50040337
   0.00110844  0.49856084  0.59349832
   0.91916848  0.16618417  0.49963259
   0.83333333  0.58333333  0.40830017
   0.91798110  0.91619257  0.50032893
   0.49998587  0.24836608  0.59425433
   0.24930873  0.00058283  0.59324867
   0.08333333  0.33333333  0.40830017
   0.41472701  0.41861788  0.49999518
   0.33333333  0.33333333  0.40830017
   0.66762747  0.16401627  0.49962932
   0.33333333  0.58333333  0.40830017
   0.24864723  0.50115679  0.59356997
   0.49909167  0.75090459  0.59327629
   0.58333333  0.83333333  0.40830017
   0.49882023  0.50146116  0.59396588
   0.41587207  0.16459594  0.50003220
   0.58333333  0.33333333  0.40830017
   0.66721355  0.41881994  0.49918824
   0.33333333  0.08333333  0.40830017
   0.58333333  0.58333333  0.40830017
   0.16663819  0.16649851  0.49997240
   0.24968933  0.24951655  0.59263509
   0.58333333  0.08333333  0.40830017
   0.33333333  0.83333333  0.40830017
   0.16775875  0.91582400  0.49977236
   0.66545532  0.91714820  0.50020829
   0.00034881  0.75087055  0.59279111
   0.16677714  0.66800649  0.50024536
   0.08333333  0.83333333  0.40830017
   0.08333333  0.08333333  0.40830017
   0.91731786  0.41565189  0.49988430
   0.00043009 -0.00065780  0.59274377
   0.50004870  0.00016069  0.59264018
   0.66552431  0.66709874  0.49967946
   0.41634945  0.91656620  0.49967642
   0.75022634 -0.00053186  0.59292043
   0.83333333  0.08333333  0.40830017
   0.83333333  0.33333333  0.40830017
   0.41570497  0.66830310  0.49971234
   0.16634655  0.41606061  0.50029364
   0.00078509  0.24944214  0.59270608
   0.24928758  0.75051186  0.59242893
Direct configuration=     3
   0.74746385  0.75657276  0.59800520
   0.75359488  0.49845122  0.59846258
   0.83333333  0.83333333  0.40830017
   0.75571107  0.24449661  0.60063711
   0.08333333  0.58333333  0.40830017
   0.91820616  0.66543252  0.50140148
   0.00385124  0.49499969  0.59794860
   0.92535912  0.16499026  0.49872345
   0.83333333  0.58333333  0.40830017
   0.92123363  0.91501944  0.50114285
   0.49995091  0.24432302  0.60057533
   0.24759821  0.00202503  0.59708120
   0.08333333  0.33333333  0.40830017
   0.40992742  0.42344607  0.49998325
   0.33333333  0.33333333  0.40830017
   0.67000495  0.15745797  0.49871209
   0.33333333  0.58333333  0.40830017
   0.24529986  0.50401923  0.59819757
   0.49684406  0.75314297  0.59717719
   0.58333333  0.83333333  0.40830017
   0.49590092  0.50507675  0.59957313
   0.41390588  0.15947199  0.50011188
   0.58333333  0.33333333  0.40830017
   0.66856678  0.42414814  0.49717956
   0.33333333  0.08333333  0.40830017
   0.58333333  0.58333333  0.40830017
   0.16656772  0.16608243  0.49990412
   0.24892060  0.24832027  0.59494936
   0.58333333  0.08333333  0.40830017
   0.33333333  0.83333333  0.40830017
   0.17046107  0.91373887  0.49920907
   0.66245791  0.91833974  0.50072368
   0.00121193  0.75302470  0.59549145
   0.16705049  0.67132182  0.50085250
   0.08333333  0.83333333  0.40830017
   0.08333333  0.08333333  0.40830017
   0.91892920  0.41314086  0.49959799
   0.00149435 -0.00228549  0.59532695
   0.50016921  0.00055830  0.59496704
   0.66269761  0.66816789  0.49888630
   0.41556453  0.91631759  0.49887572
   0.75078642 -0.00184794  0.59594074
   0.83333333  0.08333333  0.40830017
   0.83333333  0.33333333  0.40830017
   0.41332527  0.67235240  0.49900054
   0.16555442  0.41456093  0.50102023
   0.00272777  0.24806174  0.59519602
   0.24752471  0.75177843  0.59423305
Direct configuration=     4
   0.74783333  0.75633959  0.60043258
   0.75363001  0.49849063  0.60086734
   0.83333333  0.83333333  0.40830017
   0.75572105  0.24409974  0.60337731
   0.08333333  0.58333333  0.40830017
   0.91767320  0.66500757  0.50359945
   0.00342254  0.49514675  0.60057569
   0.92444534  0.16494285  0.50020353
   0.83333333  0.58333333  0.40830017
   0.92204849  0.91482575  0.50237527
   0.49993498  0.24465650  0.60348983
   0.24718637  0.00216635  0.59924619
   0.08333333  0.33333333  0.40830017
   0.41102266  0.42230375  0.50268036
   0.33333333  0.33333333  0.40830017
   0.66942153  0.15943780  0.50070134
   0.33333333  0.58333333  0.40830017
   0.24542478  0.50388205  0.60079469
   0.49660605  0.75385331  0.59929505
   0.58333333  0.83333333  0.40830017
   0.49642455  0.50409945  0.60219237
   0.41344708  0.16078693  0.50160327
   0.58333333  0.33333333  0.40830017
   0.66815803  0.42307692  0.49944872
   0.33333333  0.08333333  0.40830017
   0.58333333  0.58333333  0.40830017
   0.16742836  0.16482937  0.50080296
   0.24953382  0.24766464  0.59642934
   0.58333333  0.08333333  0.40830017
   0.33333333  0.83333333  0.40830017
   0.17200500  0.91399148  0.49991159
   0.66303018  0.91597938  0.50196248
   0.00068536  0.75356515  0.59733580
   0.16691121  0.67170180  0.50199970
   0.08333333  0.83333333  0.40830017
   0.08333333  0.08333333  0.40830017
   0.91937026  0.41373041  0.50101950
   0.00198032 -0.00258055  0.59680337
   0.49929843  0.00062109  0.59649998
   0.66235247  0.66977672  0.50056621
   0.41464215  0.91519418  0.49988422
   0.75120965 -0.00147287  0.59766963
   0.83333333  0.08333333  0.40830017
   0.83333333  0.33333333  0.40830017
   0.41355305  0.67292480  0.50020108
   0.16562931  0.41434862  0.50258167
   0.00287119  0.24726441  0.59671262
   0.24695974  0.75286262  0.59549605
Direct configuration=     5
   0.74867485  0.75580851  0.60596119
   0.75371003  0.49858038  0.60634441
   0.83333333  0.83333333  0.40830017
   0.75574378  0.24319583  0.60961838
   0.08333333  0.58333333  0.40830017
   0.91645935  0.66403969  0.50860553
   0.00244612  0.49548168  0.60655915
   0.92236413  0.16483487  0.50357454
   0.83333333  0.58333333  0.40830017
   0.92390441  0.91438463  0.50518223
   0.49989870  0.24541604  0.61012790
   0.24624837  0.00248824  0.60417717
   0.08333333  0.33333333  0.40830017
   0.41351716  0.41970201  0.50882329
   0.33333333  0.33333333  0.40830017
   0.66809275  0.16394703  0.50523204
   0.33333333  0.58333333  0.40830017
   0.24570929  0.50356960  0.60670986
   0.49606398  0.75547118  0.60411868
   0.58333333  0.83333333  0.40830017
   0.49761715  0.50187354  0.60815792
   0.41240213  0.16378183  0.50500005
   0.58333333  0.33333333  0.40830017
   0.66722704  0.42063713  0.50461693
   0.33333333  0.08333333  0.40830017
   0.58333333  0.58333333  0.40830017
   0.16938857  0.16197542  0.50285017
   0.25093047  0.24617138  0.59980012
   0.58333333  0.08333333  0.40830017
   0.33333333  0.83333333  0.40830017
   0.17552143  0.91456682  0.50151163
   0.66433359  0.91060344  0.50478395
  -0.00051396  0.75479610  0.60153648
   0.16659398  0.67256724  0.50461257
   0.08333333  0.83333333  0.40830017
   0.08333333  0.08333333  0.40830017
   0.92037479  0.41507315  0.50425712
   0.00308716 -0.00325257  0.60016606
   0.49731515  0.00076410  0.59999140
   0.66156640  0.67344098  0.50439238
   0.41254134  0.91263552  0.50218118
   0.75217361 -0.00061863  0.60160733
   0.83333333  0.08333333  0.40830017
   0.83333333  0.33333333  0.40830017
   0.41407182  0.67422850  0.50293542
   0.16579988  0.41386508  0.50613802
   0.00319784  0.24544842  0.60016683
   0.24567295  0.75533196  0.59837266
Direct configuration=     6
   0.74887176  0.75568424  0.60725483
   0.75372875  0.49860139  0.60762599
   0.83333333  0.83333333  0.40830017
   0.75574910  0.24298433  0.61107873
   0.08333333  0.58333333  0.40830017
   0.91617532  0.66381322  0.50977691
   0.00221765  0.49556005  0.60795922
   0.92187715  0.16480961  0.50436332
   0.83333333  0.58333333  0.40830017
   0.92433868  0.91428141  0.50583904
   0.49989021  0.24559377  0.61168114
   0.24602888  0.00256356  0.60533097
   0.08333333  0.33333333  0.40830017
   0.41410085  0.41909323  0.51026069
   0.33333333  0.33333333  0.40830017
   0.66778183  0.16500215  0.50629218
   0.33333333  0.58333333  0.40830017
   0.24577587  0.50349649  0.60809396
   0.49593714  0.75584974  0.60524737
   0.58333333  0.83333333  0.40830017
   0.49789621  0.50135269  0.60955381
   0.41215761  0.16448261  0.50579487
   0.58333333  0.33333333  0.40830017
   0.66700920  0.42006624  0.50582625
   0.33333333  0.08333333  0.40830017
   0.58333333  0.58333333  0.40830017
   0.16984724  0.16130762  0.50332920
   0.25125728  0.24582197  0.60058886
   0.58333333  0.08333333  0.40830017
   0.33333333  0.83333333  0.40830017
   0.17634424  0.91470144  0.50188603
   0.66463857  0.90934552  0.50544415
  -0.00079458  0.75508413  0.60251940
   0.16651975  0.67276974  0.50522395
   0.08333333  0.83333333  0.40830017
   0.08333333  0.08333333  0.40830017
   0.92060984  0.41538734  0.50501470
   0.00334615 -0.00340982  0.60095290
   0.49685108  0.00079756  0.60080836
   0.66138246  0.67429839  0.50528767
   0.41204977  0.91203681  0.50271864
   0.75239917 -0.00041874  0.60252871
   0.83333333  0.08333333  0.40830017
   0.83333333  0.33333333  0.40830017
   0.41419321  0.67453355  0.50357523
   0.16583980  0.41375194  0.50697017
   0.00327427  0.24502350  0.60097508
   0.24537186  0.75590976  0.59904576
Direct configuration=     7
   0.74849265  0.75504247  0.60922781
   0.75191642  0.49880201  0.60894173
   0.83333333  0.83333333  0.40830017
   0.75469848  0.24495434  0.61277455
   0.08333333  0.58333333  0.40830017
   0.91780839  0.66389781  0.51082076
   0.00260479  0.49571616  0.60984033
   0.92009012  0.16638312  0.50553408
   0.83333333  0.58333333  0.40830017
   0.92066418  0.91559868  0.50634269
   0.50022736  0.24577077  0.61363289
   0.24694606  0.00207517  0.60679208
   0.08333333  0.33333333  0.40830017
   0.41359733  0.42014736  0.51185102
   0.33333333  0.33333333  0.40830017
   0.66717878  0.16344446  0.50792959
   0.33333333  0.58333333  0.40830017
   0.24587101  0.50357978  0.60976023
   0.49734034  0.75284608  0.60674623
   0.58333333  0.83333333  0.40830017
   0.49889058  0.50182492  0.61128228
   0.41689955  0.16270419  0.50660449
   0.58333333  0.33333333  0.40830017
   0.66714218  0.42140828  0.50769644
   0.33333333  0.08333333  0.40830017
   0.58333333  0.58333333  0.40830017
   0.16839611  0.16295576  0.50456349
   0.25046720  0.24754066  0.60212431
   0.58333333  0.08333333  0.40830017
   0.33333333  0.83333333  0.40830017
   0.17165277  0.91643281  0.50314330
   0.66434659  0.91481444  0.50678499
  -0.00028307  0.75336915  0.60418035
   0.16858628  0.66824493  0.50629261
   0.08333333  0.83333333  0.40830017
   0.08333333  0.08333333  0.40830017
   0.91835972  0.41537648  0.50652852
   0.00192339 -0.00184174  0.60217903
   0.49817474  0.00089637  0.60180180
   0.66321100  0.66848769  0.50711383
   0.41484729  0.91542168  0.50437403
   0.75084115  0.00009516  0.60346063
   0.83333333  0.08333333  0.40830017
   0.83333333  0.33333333  0.40830017
   0.41729537  0.66733303  0.50527715
   0.16593737  0.41587512  0.50834131
   0.00160782  0.24673529  0.60203142
   0.24786722  0.75301495  0.60017646
Direct configuration=     8
   0.74845959  0.75498651  0.60939986
   0.75175838  0.49881951  0.60905647
   0.83333333  0.83333333  0.40830017
   0.75460686  0.24512613  0.61292243
   0.08333333  0.58333333  0.40830017
   0.91795080  0.66390519  0.51091179
   0.00263855  0.49572977  0.61000437
   0.91993428  0.16652034  0.50563617
   0.83333333  0.58333333  0.40830017
   0.92034375  0.91571355  0.50638661
   0.50025676  0.24578620  0.61380309
   0.24702604  0.00203258  0.60691949
   0.08333333  0.33333333  0.40830017
   0.41355342  0.42023929  0.51198970
   0.33333333  0.33333333  0.40830017
   0.66712620  0.16330862  0.50807238
   0.33333333  0.58333333  0.40830017
   0.24587930  0.50358704  0.60990554
   0.49746270  0.75258415  0.60687694
   0.58333333  0.83333333  0.40830017
   0.49897730  0.50186610  0.61143301
   0.41731307  0.16254910  0.50667509
   0.58333333  0.33333333  0.40830017
   0.66715378  0.42152531  0.50785953
   0.33333333  0.08333333  0.40830017
   0.58333333  0.58333333  0.40830017
   0.16826956  0.16309949  0.50467113
   0.25039830  0.24769054  0.60225821
   0.58333333  0.08333333  0.40830017
   0.33333333  0.83333333  0.40830017
   0.17124365  0.91658380  0.50325294
   0.66432113  0.91529135  0.50690191
  -0.00023847  0.75321960  0.60432519
   0.16876649  0.66785035  0.50638580
   0.08333333  0.83333333  0.40830017
   0.08333333  0.08333333  0.40830017
   0.91816350  0.41537553  0.50666053
   0.00179932 -0.00170500  0.60228596
   0.49829017  0.00090499  0.60188843
   0.66337045  0.66798098  0.50727308
   0.41509125  0.91571685  0.50451838
   0.75070529  0.00013998  0.60354190
   0.83333333  0.08333333  0.40830017
   0.83333333  0.33333333  0.40830017
   0.41756589  0.66670513  0.50542556
   0.16594588  0.41606027  0.50846088
   0.00146250  0.24688456  0.60212353
   0.24808482  0.75276251  0.60027506
Direct configuration=     9
   0.74828643  0.75450755  0.60985809
   0.75198982  0.49897172  0.60958574
   0.83333333  0.83333333  0.40830017
   0.75374830  0.24600628  0.61338223
   0.08333333  0.58333333  0.40830017
   0.91742622  0.66472175  0.51080429
   0.00207957  0.49604186  0.61051165
   0.91847112  0.16745738  0.50572056
   0.83333333  0.58333333  0.40830017
   0.91990979  0.91478936  0.50645314
   0.49999246  0.24641283  0.61444065
   0.24784291  0.00145374  0.60701654
   0.08333333  0.33333333  0.40830017
   0.41438924  0.41883359  0.51201653
   0.33333333  0.33333333  0.40830017
   0.66697747  0.16472164  0.50818963
   0.33333333  0.58333333  0.40830017
   0.24658294  0.50325214  0.61052398
   0.49778640  0.75214460  0.60716057
   0.58333333  0.83333333  0.40830017
   0.49867063  0.50174186  0.61216900
   0.41653563  0.16415155  0.50663368
   0.58333333  0.33333333  0.40830017
   0.66769312  0.41953212  0.50789902
   0.33333333  0.08333333  0.40830017
   0.58333333  0.58333333  0.40830017
   0.16799326  0.16490123  0.50532560
   0.25014769  0.24849085  0.60272416
   0.58333333  0.08333333  0.40830017
   0.33333333  0.83333333  0.40830017
   0.17068474  0.91545452  0.50403219
   0.66593773  0.91466127  0.50720156
   0.00007308  0.75283040  0.60479849
   0.16830253  0.66752316  0.50676813
   0.08333333  0.83333333  0.40830017
   0.08333333  0.08333333  0.40830017
   0.91800453  0.41562038  0.50708539
   0.00104830 -0.00142649  0.60259560
   0.49896408  0.00065707  0.60245194
   0.66454142  0.66765463  0.50777717
   0.41634506  0.91512899  0.50529792
   0.75042741 -0.00019042  0.60407808
   0.83333333  0.08333333  0.40830017
   0.83333333  0.33333333  0.40830017
   0.41708765  0.66691463  0.50594178
   0.16643027  0.41567019  0.50882401
   0.00095599  0.24809441  0.60257885
   0.24892470  0.75147583  0.60063624
Direct configuration=    10
   0.74826373  0.75444476  0.60991817
   0.75202016  0.49899168  0.60965513
   0.83333333  0.83333333  0.40830017
   0.75363574  0.24612168  0.61344251
   0.08333333  0.58333333  0.40830017
   0.91735744  0.66482880  0.51079020
   0.00200629  0.49608277  0.61057816
   0.91827929  0.16758023  0.50573162
   0.83333333  0.58333333  0.40830017
   0.91985290  0.91466820  0.50646186
   0.49995781  0.24649498  0.61452424
   0.24795001  0.00137785  0.60702927
   0.08333333  0.33333333  0.40830017
   0.41449881  0.41864930  0.51202005
   0.33333333  0.33333333  0.40830017
   0.66695798  0.16490689  0.50820500
   0.33333333  0.58333333  0.40830017
   0.24667519  0.50320823  0.61060506
   0.49782884  0.75208698  0.60719776
   0.58333333  0.83333333  0.40830017
   0.49863042  0.50172557  0.61226549
   0.41643370  0.16436163  0.50662825
   0.58333333  0.33333333  0.40830017
   0.66776383  0.41927080  0.50790420
   0.33333333  0.08333333  0.40830017
   0.58333333  0.58333333  0.40830017
   0.16795703  0.16513745  0.50541141
   0.25011484  0.24859577  0.60278525
   0.58333333  0.08333333  0.40830017
   0.33333333  0.83333333  0.40830017
   0.17061147  0.91530647  0.50413435
   0.66614967  0.91457867  0.50724085
   0.00011392  0.75277937  0.60486054
   0.16824170  0.66748026  0.50681826
   0.08333333  0.83333333  0.40830017
   0.08333333  0.08333333  0.40830017
   0.91798369  0.41565248  0.50714110
   0.00094984 -0.00138997  0.60263620
   0.49905243  0.00062456  0.60252582
   0.66469494  0.66761185  0.50784326
   0.41650944  0.91505191  0.50540012
   0.75039098 -0.00023374  0.60414838
   0.83333333  0.08333333  0.40830017
   0.83333333  0.33333333  0.40830017
   0.41702495  0.66694209  0.50600946
   0.16649377  0.41561905  0.50887162
   0.00088958  0.24825302  0.60263855
   0.24903481  0.75130714  0.60068359
Direct configuration=    11
   0.74847072  0.75427272  0.61011521
   0.75197278  0.49901637  0.61001022
   0.83333333  0.83333333  0.40830017
   0.75335819  0.24622541  0.61369010
   0.08333333  0.58333333  0.40830017
   0.91743972  0.66434829  0.51068772
   0.00194321  0.49666550  0.61072530
   0.91929204  0.16664724  0.50569027
   0.83333333  0.58333333  0.40830017
   0.92001255  0.91477256  0.50660172
   0.49983969  0.24643838  0.61489985
   0.24780896  0.00146912  0.60683467
   0.08333333  0.33333333  0.40830017
   0.41452316  0.41867111  0.51187885
   0.33333333  0.33333333  0.40830017
   0.66721072  0.16466429  0.50817079
   0.33333333  0.58333333  0.40830017
   0.24676015  0.50295571  0.61099136
   0.49792215  0.75205828  0.60732806
   0.58333333  0.83333333  0.40830017
   0.49857016  0.50160218  0.61279483
   0.41622144  0.16414637  0.50666943
   0.58333333  0.33333333  0.40830017
   0.66735438  0.41956466  0.50770509
   0.33333333  0.08333333  0.40830017
   0.58333333  0.58333333  0.40830017
   0.16781225  0.16522977  0.50580761
   0.25034807  0.24859523  0.60311153
   0.58333333  0.08333333  0.40830017
   0.33333333  0.83333333  0.40830017
   0.17086115  0.91516873  0.50460055
   0.66622834  0.91447484  0.50734886
   0.00018380  0.75272201  0.60506897
   0.16802751  0.66722956  0.50701559
   0.08333333  0.83333333  0.40830017
   0.08333333  0.08333333  0.40830017
   0.91817851  0.41610242  0.50725648
   0.00074907 -0.00130927  0.60266505
   0.49913139  0.00096714  0.60278798
   0.66495746  0.66766700  0.50795592
   0.41652256  0.91454879  0.50575526
   0.75037637 -0.00030866  0.60447712
   0.83333333  0.08333333  0.40830017
   0.83333333  0.33333333  0.40830017
   0.41684716  0.66763562  0.50616028
   0.16608029  0.41594326  0.50904606
   0.00105009  0.24810921  0.60292944
   0.24896474  0.75114073  0.60102443
Direct configuration=    12
   0.74860392  0.75416200  0.61024202
   0.75194229  0.49903226  0.61023874
   0.83333333  0.83333333  0.40830017
   0.75317957  0.24629217  0.61384943
   0.08333333  0.58333333  0.40830017
   0.91749267  0.66403906  0.51062177
   0.00190262  0.49704051  0.61082000
   0.91994379  0.16604682  0.50566365
   0.83333333  0.58333333  0.40830017
   0.92011529  0.91483971  0.50669172
   0.49976367  0.24640195  0.61514157
   0.24771819  0.00152787  0.60670944
   0.08333333  0.33333333  0.40830017
   0.41453882  0.41868514  0.51178798
   0.33333333  0.33333333  0.40830017
   0.66737338  0.16450816  0.50814878
   0.33333333  0.58333333  0.40830017
   0.24681483  0.50279320  0.61123996
   0.49798220  0.75203981  0.60741192
   0.58333333  0.83333333  0.40830017
   0.49853138  0.50152278  0.61313548
   0.41608484  0.16400784  0.50669593
   0.58333333  0.33333333  0.40830017
   0.66709087  0.41975378  0.50757695
   0.33333333  0.08333333  0.40830017
   0.58333333  0.58333333  0.40830017
   0.16771907  0.16528919  0.50606259
   0.25049816  0.24859487  0.60332151
   0.58333333  0.08333333  0.40830017
   0.33333333  0.83333333  0.40830017
   0.17102184  0.91508009  0.50490057
   0.66627896  0.91440802  0.50741838
   0.00022876  0.75268510  0.60520311
   0.16788966  0.66706822  0.50714259
   0.08333333  0.83333333  0.40830017
   0.08333333  0.08333333  0.40830017
   0.91830389  0.41639199  0.50733073
   0.00061986 -0.00125733  0.60268362
   0.49918220  0.00118760  0.60295670
   0.66512640  0.66770249  0.50802842
   0.41653100  0.91422500  0.50598381
   0.75036696 -0.00035688  0.60468869
   0.83333333  0.08333333  0.40830017
   0.83333333  0.33333333  0.40830017
   0.41673274  0.66808194  0.50625734
   0.16581419  0.41615191  0.50915833
   0.00115339  0.24801665  0.60311665
   0.24891965  0.75103363  0.60124377
Direct configuration=    13
   0.74866451  0.75438412  0.61037874
   0.75192110  0.49871461  0.61047571
   0.83333333  0.83333333  0.40830017
   0.75325626  0.24616365  0.61399000
   0.08333333  0.58333333  0.40830017
   0.91745873  0.66441471  0.51063327
   0.00197350  0.49715265  0.61094340
   0.92029220  0.16641631  0.50566728
   0.83333333  0.58333333  0.40830017
   0.92037773  0.91444059  0.50684953
   0.49984761  0.24634881  0.61545991
   0.24765461  0.00154561  0.60659760
   0.08333333  0.33333333  0.40830017
   0.41421632  0.41913072  0.51184136
   0.33333333  0.33333333  0.40830017
   0.66753941  0.16403385  0.50823139
   0.33333333  0.58333333  0.40830017
   0.24700273  0.50262386  0.61153740
   0.49797331  0.75212607  0.60757989
   0.58333333  0.83333333  0.40830017
   0.49851510  0.50140473  0.61365903
   0.41614578  0.16348091  0.50681768
   0.58333333  0.33333333  0.40830017
   0.66744034  0.42010497  0.50751462
   0.33333333  0.08333333  0.40830017
   0.58333333  0.58333333  0.40830017
   0.16779301  0.16512244  0.50621529
   0.25053854  0.24858647  0.60365413
   0.58333333  0.08333333  0.40830017
   0.33333333  0.83333333  0.40830017
   0.17159116  0.91478212  0.50510686
   0.66600404  0.91449090  0.50754395
   0.00015628  0.75283273  0.60529034
   0.16801065  0.66703257  0.50731438
   0.08333333  0.83333333  0.40830017
   0.08333333  0.08333333  0.40830017
   0.91805556  0.41586060  0.50746833
   0.00045056 -0.00116847  0.60278874
   0.49918708  0.00129745  0.60313258
   0.66499168  0.66763788  0.50807607
   0.41642592  0.91427464  0.50609363
   0.75044237 -0.00028091  0.60489876
   0.83333333  0.08333333  0.40830017
   0.83333333  0.33333333  0.40830017
   0.41668270  0.66805038  0.50634575
   0.16606202  0.41598559  0.50934172
   0.00099271  0.24809407  0.60336975
   0.24877756  0.75096675  0.60163658
Direct configuration=    14
   0.74866850  0.75439872  0.61038772
   0.75191971  0.49869373  0.61049129
   0.83333333  0.83333333  0.40830017
   0.75326131  0.24615520  0.61399925
   0.08333333  0.58333333  0.40830017
   0.91745650  0.66443941  0.51063403
   0.00197816  0.49716002  0.61095151
   0.92031511  0.16644060  0.50566752
   0.83333333  0.58333333  0.40830017
   0.92039499  0.91441435  0.50685991
   0.49985313  0.24634532  0.61548083
   0.24765043  0.00154678  0.60659025
   0.08333333  0.33333333  0.40830017
   0.41419511  0.41916001  0.51184487
   0.33333333  0.33333333  0.40830017
   0.66755033  0.16400266  0.50823682
   0.33333333  0.58333333  0.40830017
   0.24701508  0.50261272  0.61155695
   0.49797273  0.75213175  0.60759093
   0.58333333  0.83333333  0.40830017
   0.49851403  0.50139697  0.61369345
   0.41614979  0.16344627  0.50682569
   0.58333333  0.33333333  0.40830017
   0.66746332  0.42012806  0.50751052
   0.33333333  0.08333333  0.40830017
   0.58333333  0.58333333  0.40830017
   0.16779787  0.16511148  0.50622533
   0.25054120  0.24858592  0.60367600
   0.58333333  0.08333333  0.40830017
   0.33333333  0.83333333  0.40830017
   0.17162860  0.91476253  0.50512042
   0.66598597  0.91449635  0.50755220
   0.00015151  0.75284244  0.60529608
   0.16801860  0.66703022  0.50732568
   0.08333333  0.83333333  0.40830017
   0.08333333  0.08333333  0.40830017
   0.91803923  0.41582566  0.50747737
   0.00043943 -0.00116263  0.60279565
   0.49918740  0.00130467  0.60314414
   0.66498282  0.66763364  0.50807920
   0.41641901  0.91427791  0.50610085
   0.75044732 -0.00027591  0.60491257
   0.83333333  0.08333333  0.40830017
   0.83333333  0.33333333  0.40830017
   0.41667941  0.66804830  0.50635156
   0.16607831  0.41597466  0.50935378
   0.00098214  0.24809916  0.60338639
   0.24876821  0.75096235  0.60166240
Direct configuration=    15
   0.74860027  0.75446758  0.61042839
   0.75189549  0.49864320  0.61059297
   0.83333333  0.83333333  0.40830017
   0.75337677  0.24599842  0.61403308
   0.08333333  0.58333333  0.40830017
   0.91740250  0.66444017  0.51071248
   0.00193076  0.49698971  0.61098881
   0.91994393  0.16656554  0.50572938
   0.83333333  0.58333333  0.40830017
   0.92055046  0.91450473  0.50689513
   0.50003397  0.24630188  0.61564989
   0.24766324  0.00152161  0.60662648
   0.08333333  0.33333333  0.40830017
   0.41447668  0.41902130  0.51202490
   0.33333333  0.33333333  0.40830017
   0.66756381  0.16413418  0.50836393
   0.33333333  0.58333333  0.40830017
   0.24713022  0.50259077  0.61170900
   0.49798996  0.75207046  0.60772391
   0.58333333  0.83333333  0.40830017
   0.49858888  0.50135921  0.61402350
   0.41622284  0.16353691  0.50694441
   0.58333333  0.33333333  0.40830017
   0.66746739  0.41995870  0.50761652
   0.33333333  0.08333333  0.40830017
   0.58333333  0.58333333  0.40830017
   0.16801029  0.16506111  0.50617709
   0.25044149  0.24860881  0.60386694
   0.58333333  0.08333333  0.40830017
   0.33333333  0.83333333  0.40830017
   0.17167543  0.91466071  0.50506702
   0.66583995  0.91441284  0.50763945
   0.00015214  0.75288342  0.60534444
   0.16825235  0.66714076  0.50743018
   0.08333333  0.83333333  0.40830017
   0.08333333  0.08333333  0.40830017
   0.91810072  0.41569387  0.50759237
   0.00044819 -0.00114560  0.60288272
   0.49914816  0.00124680  0.60325644
   0.66486739  0.66773327  0.50811897
   0.41647194  0.91436454  0.50601760
   0.75046539 -0.00011591  0.60498050
   0.83333333  0.08333333  0.40830017
   0.83333333  0.33333333  0.40830017
   0.41678642  0.66765727  0.50643779
   0.16632924  0.41563369  0.50947839
   0.00084167  0.24825991  0.60356412
   0.24875278  0.75096049  0.60192194
Direct configuration=    16
   0.74855601  0.75451223  0.61045477
   0.75187979  0.49861043  0.61065892
   0.83333333  0.83333333  0.40830017
   0.75345165  0.24589674  0.61405502
   0.08333333  0.58333333  0.40830017
   0.91736748  0.66444066  0.51076336
   0.00190002  0.49687926  0.61101300
   0.91970320  0.16664656  0.50576949
   0.83333333  0.58333333  0.40830017
   0.92065130  0.91456335  0.50691797
   0.50015125  0.24627371  0.61575953
   0.24767155  0.00150528  0.60664998
   0.08333333  0.33333333  0.40830017
   0.41465929  0.41893134  0.51214165
   0.33333333  0.33333333  0.40830017
   0.66757255  0.16421948  0.50844636
   0.33333333  0.58333333  0.40830017
   0.24720489  0.50257653  0.61180760
   0.49800113  0.75203071  0.60781015
   0.58333333  0.83333333  0.40830017
   0.49863742  0.50133472  0.61423756
   0.41627022  0.16359570  0.50702141
   0.58333333  0.33333333  0.40830017
   0.66747003  0.41984886  0.50768527
   0.33333333  0.08333333  0.40830017
   0.58333333  0.58333333  0.40830017
   0.16814806  0.16502844  0.50614581
   0.25037682  0.24862366  0.60399078
   0.58333333  0.08333333  0.40830017
   0.33333333  0.83333333  0.40830017
   0.17170580  0.91459467  0.50503238
   0.66574525  0.91435867  0.50769603
   0.00015254  0.75291000  0.60537581
   0.16840396  0.66721246  0.50749796
   0.08333333  0.83333333  0.40830017
   0.08333333  0.08333333  0.40830017
   0.91814060  0.41560840  0.50766695
   0.00045387 -0.00113456  0.60293919
   0.49912271  0.00120927  0.60332927
   0.66479253  0.66779789  0.50814475
   0.41650626  0.91442073  0.50596361
   0.75047710 -0.00001215  0.60502455
   0.83333333  0.08333333  0.40830017
   0.83333333  0.33333333  0.40830017
   0.41685583  0.66740367  0.50649372
   0.16649198  0.41541255  0.50955920
   0.00075057  0.24836416  0.60367939
   0.24874277  0.75095928  0.60209025
Direct configuration=    17
   0.74854353  0.75445985  0.61048285
   0.75170967  0.49877801  0.61075841
   0.83333333  0.83333333  0.40830017
   0.75354144  0.24593621  0.61414155