  48  48   0   0
  0.5349325E+02  0.1100258E-08  0.1100258E-08  0.2449179E-08  0.3500000E-15
  1.000000000000000E-004
  CAR 
 unknown system                          
      6.33781102     -9.88402050  301     -1.10722984      1.00000000
     -9.884  0.0000E+00  0.0000E+00
     -9.830  0.0000E+00  0.0000E+00
     -9.776  0.0000E+00  0.0000E+00
     -9.722  0.0000E+00  0.0000E+00
     -9.668  0.0000E+00  0.0000E+00
     -9.614  0.0000E+00  0.0000E+00
     -9.560  0.0000E+00  0.0000E+00
     -9.506  0.0000E+00  0.0000E+00
     -9.451  0.1163E-16  0.6291E-18
     -9.397  0.4665E-14  0.2529E-15
     -9.343  0.1030E-11  0.5597E-13
     -9.289  0.1284E-09  0.7000E-11
     -9.235  0.9048E-08  0.4963E-09
     -9.181  0.3611E-06  0.2002E-07
     -9.127  0.8184E-05  0.4626E-06
     -9.073  0.1056E-03  0.6172E-05
     -9.019  0.7775E-03  0.4822E-04
     -8.965  0.3276E-02  0.2254E-03
     -8.911  0.7923E-02  0.6538E-03
     -8.857  0.1111E-01  0.1255E-02
     -8.803  0.9695E-02  0.1779E-02
     -8.748  0.7671E-02  0.2194E-02
     -8.694  0.9278E-02  0.2695E-02
     -8.640  0.1095E-01  0.3288E-02
     -8.586  0.8309E-02  0.3737E-02
     -8.532  0.3735E-02  0.3939E-02
     -8.478  0.1076E-02  0.3997E-02
     -8.424  0.8371E-03  0.4042E-02
     -8.370  0.2781E-02  0.4193E-02
     -8.316  0.6649E-02  0.4552E-02
     -8.262  0.9785E-02  0.5081E-02
     -8.208  0.9123E-02  0.5575E-02
     -8.154  0.5938E-02  0.5896E-02
     -8.100  0.4691E-02  0.6149E-02
     -8.046  0.7973E-02  0.6581E-02
     -7.991  0.1362E-01  0.7317E-02
     -7.937  0.1701E-01  0.8237E-02
     -7.883  0.1584E-01  0.9093E-02
     -7.829  0.1118E-01  0.9698E-02
     -7.775  0.7524E-02  0.1010E-01
     -7.721  0.9134E-02  0.1060E-01
     -7.667  0.1429E-01  0.1137E-01
     -7.613  0.1736E-01  0.1231E-01
     -7.559  0.1636E-01  0.1319E-01
     -7.505  0.1504E-01  0.1401E-01
     -7.451  0.1786E-01  0.1497E-01
     -7.397  0.2266E-01  0.1620E-01
     -7.343  0.2339E-01  0.1746E-01
     -7.289  0.2257E-01  0.1868E-01
     -7.234  0.2752E-01  0.2017E-01
     -7.180  0.3914E-01  0.2229E-01
     -7.126  0.5193E-01  0.2510E-01
     -7.072  0.5998E-01  0.2834E-01
     -7.018  0.6260E-01  0.3172E-01
     -6.964  0.6261E-01  0.3511E-01
     -6.910  0.6265E-01  0.3850E-01
     -6.856  0.6413E-01  0.4197E-01
     -6.802  0.6834E-01  0.4566E-01
     -6.748  0.7731E-01  0.4984E-01
     -6.694  0.8709E-01  0.5455E-01
     -6.640  0.8993E-01  0.5941E-01
     -6.586  0.8728E-01  0.6413E-01
     -6.532  0.8734E-01  0.6886E-01
     -6.477  0.9427E-01  0.7395E-01
     -6.423  0.1049E+00  0.7963E-01
     -6.369  0.1153E+00  0.8586E-01
     -6.315  0.1253E+00  0.9264E-01
     -6.261  0.1364E+00  0.1000E+00
     -6.207  0.1506E+00  0.1082E+00
     -6.153  0.1658E+00  0.1171E+00
     -6.099  0.1765E+00  0.1267E+00
     -6.045  0.1778E+00  0.1363E+00
     -5.991  0.1695E+00  0.1454E+00
     -5.937  0.1590E+00  0.1540E+00
     -5.883  0.1523E+00  0.1623E+00
     -5.829  0.1475E+00  0.1702E+00
     -5.774  0.1435E+00  0.1780E+00
     -5.720  0.1394E+00  0.1855E+00
     -5.666  0.1320E+00  0.1927E+00
     -5.612  0.1233E+00  0.1993E+00
     -5.558  0.1210E+00  0.2059E+00
     -5.504  0.1272E+00  0.2128E+00
     -5.450  0.1367E+00  0.2202E+00
     -5.396  0.1450E+00  0.2280E+00
     -5.342  0.1513E+00  0.2362E+00
     -5.288  0.1539E+00  0.2445E+00
     -5.234  0.1505E+00  0.2526E+00
     -5.180  0.1469E+00  0.2606E+00
     -5.126  0.1526E+00  0.2688E+00
     -5.072  0.1670E+00  0.2779E+00
     -5.017  0.1794E+00  0.2876E+00
     -4.963  0.1828E+00  0.2974E+00
     -4.909  0.1786E+00  0.3071E+00
     -4.855  0.1735E+00  0.3165E+00
     -4.801  0.1716E+00  0.3258E+00
     -4.747  0.1730E+00  0.3351E+00
     -4.693  0.1772E+00  0.3447E+00
     -4.639  0.1821E+00  0.3545E+00
     -4.585  0.1827E+00  0.3644E+00
     -4.531  0.1764E+00  0.3740E+00
     -4.477  0.1676E+00  0.3830E+00
     -4.423  0.1633E+00  0.3919E+00
     -4.369  0.1643E+00  0.4007E+00
     -4.315  0.1669E+00  0.4098E+00
     -4.260  0.1679E+00  0.4188E+00
     -4.206  0.1681E+00  0.4279E+00
     -4.152  0.1697E+00  0.4371E+00
     -4.098  0.1732E+00  0.4465E+00
     -4.044  0.1766E+00  0.4560E+00
     -3.990  0.1791E+00  0.4657E+00
     -3.936  0.1818E+00  0.4755E+00
     -3.882  0.1826E+00  0.4854E+00
     -3.828  0.1801E+00  0.4952E+00
     -3.774  0.1782E+00  0.5048E+00
     -3.720  0.1785E+00  0.5144E+00
     -3.666  0.1818E+00  0.5243E+00
     -3.612  0.1887E+00  0.5345E+00
     -3.558  0.1965E+00  0.5451E+00
     -3.503  0.2039E+00  0.5561E+00
     -3.449  0.2111E+00  0.5675E+00
     -3.395  0.2136E+00  0.5791E+00
     -3.341  0.2076E+00  0.5903E+00
     -3.287  0.1959E+00  0.6009E+00
     -3.233  0.1842E+00  0.6109E+00
     -3.179  0.1804E+00  0.6206E+00
     -3.125  0.1850E+00  0.6306E+00
     -3.071  0.1884E+00  0.6408E+00
     -3.017  0.1860E+00  0.6509E+00
     -2.963  0.1820E+00  0.6607E+00
     -2.909  0.1812E+00  0.6705E+00
     -2.855  0.1833E+00  0.6804E+00
     -2.800  0.1865E+00  0.6905E+00
     -2.746  0.1907E+00  0.7008E+00
     -2.692  0.1945E+00  0.7113E+00
     -2.638  0.1973E+00  0.7220E+00
     -2.584  0.2009E+00  0.7329E+00
     -2.530  0.2044E+00  0.7439E+00
     -2.476  0.2062E+00  0.7551E+00
     -2.422  0.2067E+00  0.7662E+00
     -2.368  0.2051E+00  0.7773E+00
     -2.314  0.1996E+00  0.7881E+00
     -2.260  0.1902E+00  0.7984E+00
     -2.206  0.1797E+00  0.8081E+00
     -2.152  0.1740E+00  0.8175E+00
     -2.098  0.1768E+00  0.8271E+00
     -2.043  0.1864E+00  0.8372E+00
     -1.989  0.1956E+00  0.8478E+00
     -1.935  0.1974E+00  0.8584E+00
     -1.881  0.1924E+00  0.8688E+00
     -1.827  0.1879E+00  0.8790E+00
     -1.773  0.1898E+00  0.8893E+00
     -1.719  0.1955E+00  0.8998E+00
     -1.665  0.1981E+00  0.9106E+00
     -1.611  0.1959E+00  0.9211E+00
     -1.557  0.1939E+00  0.9316E+00
     -1.503  0.1939E+00  0.9421E+00
     -1.449  0.1943E+00  0.9526E+00
     -1.395  0.1950E+00  0.9632E+00
     -1.341  0.1942E+00  0.9737E+00
     -1.286  0.1871E+00  0.9838E+00
     -1.232  0.1690E+00  0.9929E+00
     -1.178  0.1406E+00  0.1001E+01
     -1.124  0.1096E+00  0.1006E+01
     -1.070  0.8293E-01  0.1011E+01
     -1.016  0.6215E-01  0.1014E+01
     -0.962  0.4427E-01  0.1017E+01
     -0.908  0.2844E-01  0.1018E+01
     -0.854  0.1907E-01  0.1019E+01
     -0.800  0.1740E-01  0.1020E+01
     -0.746  0.1982E-01  0.1021E+01
     -0.692  0.2396E-01  0.1023E+01
     -0.638  0.2938E-01  0.1024E+01
     -0.584  0.3583E-01  0.1026E+01
     -0.529  0.4302E-01  0.1028E+01
     -0.475  0.4816E-01  0.1031E+01
     -0.421  0.4552E-01  0.1033E+01
     -0.367  0.3722E-01  0.1035E+01
     -0.313  0.3386E-01  0.1037E+01
     -0.259  0.3789E-01  0.1039E+01
     -0.205  0.4081E-01  0.1042E+01
     -0.151  0.3675E-01  0.1044E+01
     -0.097  0.2815E-01  0.1045E+01
     -0.043  0.2005E-01  0.1046E+01
      0.011  0.1633E-01  0.1047E+01
      0.065  0.1852E-01  0.1048E+01
      0.119  0.2386E-01  0.1049E+01
      0.174  0.2829E-01  0.1051E+01
      0.228  0.3028E-01  0.1053E+01
      0.282  0.3080E-01  0.1054E+01
      0.336  0.3316E-01  0.1056E+01
      0.390  0.3978E-01  0.1058E+01
      0.444  0.4612E-01  0.1061E+01
      0.498  0.4707E-01  0.1063E+01
      0.552  0.4710E-01  0.1066E+01
      0.606  0.4960E-01  0.1068E+01
      0.660  0.4859E-01  0.1071E+01
      0.714  0.4215E-01  0.1073E+01
      0.768  0.3663E-01  0.1075E+01
      0.822  0.3336E-01  0.1077E+01
      0.876  0.2917E-01  0.1079E+01
      0.931  0.2601E-01  0.1080E+01
      0.985  0.2637E-01  0.1081E+01
      1.039  0.2651E-01  0.1083E+01
      1.093  0.2203E-01  0.1084E+01
      1.147  0.1591E-01  0.1085E+01
      1.201  0.1267E-01  0.1086E+01
      1.255  0.1202E-01  0.1086E+01
      1.309  0.1220E-01  0.1087E+01
      1.363  0.1200E-01  0.1088E+01
      1.417  0.1306E-01  0.1088E+01
      1.471  0.1910E-01  0.1089E+01
      1.525  0.2812E-01  0.1091E+01
      1.579  0.3353E-01  0.1093E+01
      1.633  0.3310E-01  0.1094E+01
      1.688  0.3042E-01  0.1096E+01
      1.742  0.2988E-01  0.1098E+01
      1.796  0.3164E-01  0.1099E+01
      1.850  0.3164E-01  0.1101E+01
      1.904  0.2917E-01  0.1103E+01
      1.958  0.2778E-01  0.1104E+01
      2.012  0.2760E-01  0.1106E+01
      2.066  0.2774E-01  0.1107E+01
      2.120  0.3124E-01  0.1109E+01
      2.174  0.3814E-01  0.1111E+01
      2.228  0.4386E-01  0.1113E+01
      2.282  0.4634E-01  0.1116E+01
      2.336  0.4541E-01  0.1118E+01
      2.390  0.4114E-01  0.1121E+01
      2.445  0.3587E-01  0.1122E+01
      2.499  0.3355E-01  0.1124E+01
      2.553  0.3648E-01  0.1126E+01
      2.607  0.4349E-01  0.1129E+01
      2.661  0.4971E-01  0.1131E+01
      2.715  0.4853E-01  0.1134E+01
      2.769  0.3803E-01  0.1136E+01
      2.823  0.2388E-01  0.1137E+01
      2.877  0.1394E-01  0.1138E+01
      2.931  0.1148E-01  0.1139E+01
      2.985  0.1185E-01  0.1139E+01
      3.039  0.9993E-02  0.1140E+01
      3.093  0.8268E-02  0.1140E+01
      3.148  0.1083E-01  0.1141E+01
      3.202  0.1746E-01  0.1142E+01
      3.256  0.2340E-01  0.1143E+01
      3.310  0.2382E-01  0.1144E+01
      3.364  0.2023E-01  0.1145E+01
      3.418  0.1772E-01  0.1146E+01
      3.472  0.2048E-01  0.1148E+01
      3.526  0.2935E-01  0.1149E+01
      3.580  0.4040E-01  0.1151E+01
      3.634  0.4805E-01  0.1154E+01
      3.688  0.4692E-01  0.1156E+01
      3.742  0.3779E-01  0.1158E+01
      3.796  0.2819E-01  0.1160E+01
      3.850  0.2298E-01  0.1161E+01
      3.905  0.2159E-01  0.1162E+01
      3.959  0.2284E-01  0.1164E+01
      4.013  0.2564E-01  0.1165E+01
      4.067  0.2686E-01  0.1166E+01
      4.121  0.2498E-01  0.1168E+01
      4.175  0.2295E-01  0.1169E+01
      4.229  0.2192E-01  0.1170E+01
      4.283  0.1882E-01  0.1171E+01
      4.337  0.1522E-01  0.1172E+01
      4.391  0.1831E-01  0.1173E+01
      4.445  0.2781E-01  0.1175E+01
      4.499  0.3579E-01  0.1177E+01
      4.553  0.4124E-01  0.1179E+01
      4.607  0.4910E-01  0.1181E+01
      4.662  0.5594E-01  0.1184E+01
      4.716  0.5457E-01  0.1187E+01
      4.770  0.4860E-01  0.1190E+01
      4.824  0.4590E-01  0.1193E+01
      4.878  0.4673E-01  0.1195E+01
      4.932  0.4944E-01  0.1198E+01
      4.986  0.5629E-01  0.1201E+01
      5.040  0.6600E-01  0.1204E+01
      5.094  0.7105E-01  0.1208E+01
      5.148  0.6868E-01  0.1212E+01
      5.202  0.6481E-01  0.1215E+01
      5.256  0.6051E-01  0.1219E+01
      5.310  0.4937E-01  0.1221E+01
      5.365  0.3097E-01  0.1223E+01
      5.419  0.1371E-01  0.1224E+01
      5.473  0.4033E-02  0.1224E+01
      5.527  0.7528E-03  0.1224E+01
      5.581  0.8633E-04  0.1224E+01
      5.635  0.5942E-05  0.1224E+01
      5.689  0.2414E-06  0.1224E+01
      5.743  0.5721E-08  0.1224E+01
      5.797  0.7835E-10  0.1224E+01
      5.851  0.6156E-12  0.1224E+01
      5.905  0.2760E-14  0.1224E+01
      5.959  0.5475E-17  0.1224E+01
      6.013  0.0000E+00  0.1224E+01
      6.067  0.0000E+00  0.1224E+01
      6.122  0.0000E+00  0.1224E+01
      6.176  0.0000E+00  0.1224E+01
      6.230  0.0000E+00  0.1224E+01
      6.284  0.0000E+00  0.1224E+01
      6.338  0.0000E+00  0.1224E+01
