unknown system                          
           1
    11.002582    0.000000    0.000000
     5.501291    9.528515    0.000000
     0.000000    0.000000   24.491785
   Au   Pd
  24  24
Direct configuration=     1
   0.08333333  0.08333333  0.40830017
   0.16666667  0.91666667  0.50000000
   0.66666667  0.91666667  0.50000000
   0.58333333  0.08333333  0.40830017
   0.58333333  0.33333333  0.40830017
   0.41666667  0.41666667  0.50000000
   0.41666667  0.66666667  0.50000000
   0.25000000  0.50000000  0.59169983
   0.58333333  0.83333333  0.40830017
   0.66666667  0.16666667  0.50000000
   0.83333333  0.33333333  0.40830017
   0.75000000  0.25000000  0.59169983
   0.66666667  0.66666667  0.50000000
   0.75000000  0.50000000  0.59169983
   0.83333333  0.83333333  0.40830017
   0.41666667  0.91666667  0.50000000
   0.33333333  0.58333333  0.40830017
   0.25000000  0.75000000  0.59169983
   0.16666667  0.41666667  0.50000000
   0.91666667  0.16666667  0.50000000
   0.00000000  0.00000000  0.59169983
   0.08333333  0.58333333  0.40830017
   0.91666667  0.91666667  0.50000000
   0.08333333  0.83333333  0.40830017
   0.08333333  0.33333333  0.40830017
   0.83333333  0.58333333  0.40830017
   0.91666667  0.41666667  0.50000000
   0.66666667  0.41666667  0.50000000
   0.00000000  0.25000000  0.59169983
   0.75000000  0.00000000  0.59169983
   0.83333333  0.08333333  0.40830017
   0.50000000  0.75000000  0.59169983
   0.91666667  0.66666667  0.50000000
   0.50000000  0.50000000  0.59169983
   0.25000000  0.25000000  0.59169983
   0.58333333  0.58333333  0.40830017
   0.50000000  0.25000000  0.59169983
   0.00000000  0.75000000  0.59169983
   0.50000000  0.00000000  0.59169983
   0.41666667  0.16666667  0.50000000
   0.33333333  0.08333333  0.40830017
   0.16666667  0.16666667  0.50000000
   0.25000000  0.00000000  0.59169983
   0.33333333  0.83333333  0.40830017
   0.33333333  0.33333333  0.40830017
   0.16666667  0.66666667  0.50000000
   0.00000000  0.50000000  0.59169983
   0.75000000  0.75000000  0.59169983
Direct configuration=     2
   0.08443344  0.08367041  0.40611301
   0.16787855  0.91684438  0.50002341
   0.66667473  0.91662421  0.50120052
   0.58191914  0.08437697  0.40603961
   0.58356498  0.33362424  0.40605031
   0.41700078  0.41589031  0.50039407
   0.41780789  0.66584444  0.50002382
   0.24960293  0.49979980  0.59384805
   0.58259855  0.83264450  0.40579104
   0.66587652  0.16690291  0.50045972
   0.83307978  0.33470000  0.40644065
   0.74898452  0.25061128  0.59389219
   0.66850264  0.66483137  0.50009425
   0.75028268  0.50027663  0.59353115
   0.83367043  0.83263520  0.40603712
   0.41511324  0.91884764  0.50040586
   0.33360742  0.58362764  0.40608524
   0.25050290  0.74966513  0.59393245
   0.16564397  0.41553059  0.50002939
   0.91682903  0.16858062  0.50003364
   0.00009967 -0.00008302  0.59423996
   0.08300827  0.58240982  0.40647725
   0.91674842  0.91507423  0.50045473
   0.08369143  0.83342714  0.40603823
   0.08371146  0.33303872  0.40744815
   0.83367599  0.58255552  0.40731775
   0.91744898  0.41671832  0.49999621
   0.66662247  0.41741877  0.50003112
   0.00123569  0.25012822  0.59270628
   0.74949497 -0.00044484  0.59304462
   0.83336628  0.08342327  0.40676234
   0.50001657  0.75052201  0.59312933
   0.91705510  0.66575513  0.50049140
   0.50019433  0.49988287  0.59298332
   0.25005931  0.24918153  0.59258347
   0.58359680  0.58335864  0.40706816
   0.49990509  0.24921047  0.59290617
  -0.00104621  0.74969308  0.59274640
   0.49955586  0.00057855  0.59280383
   0.41549441  0.16684315  0.50031261
   0.33262485  0.08426731  0.40730316
   0.16693273  0.16766429  0.50024917
   0.25032161  0.00096708  0.59284913
   0.33366091  0.83339139  0.40683543
   0.33307135  0.33242013  0.40710948
   0.16561899  0.66675417  0.50024369
  -0.00023203  0.50015451  0.59260325
   0.75049259  0.75016126  0.59283986
Direct configuration=     3
   0.08773376  0.08468165  0.39955153
   0.17151419  0.91737753  0.50009363
   0.66669894  0.91649683  0.50480208
   0.57767656  0.08750787  0.39925795
   0.58425991  0.33449696  0.39930074
   0.41800312  0.41356122  0.50157628
   0.42123155  0.66337778  0.50009529
   0.24841170  0.49919922  0.60029273
   0.58039420  0.83057802  0.39826365
   0.66350607  0.16761164  0.50183890
   0.83231913  0.33879998  0.40086211
   0.74593809  0.25244514  0.60046926
   0.67401056  0.65932548  0.50037699
   0.75113071  0.50110651  0.59902509
   0.83468174  0.83054082  0.39924798
   0.41045294  0.92539055  0.50162343
   0.33442966  0.58451057  0.39944046
   0.25201160  0.74866054  0.60063030
   0.16257588  0.41212236  0.50011754
   0.91731613  0.17432246  0.50013456
   0.00039868 -0.00033210  0.60186035
   0.08203306  0.57963929  0.40100849
   0.91699370  0.91029690  0.50181894
   0.08476571  0.83370856  0.39925239
   0.08484584  0.33215487  0.40489207
   0.83470398  0.58022207  0.40437050
   0.91979594  0.41687326  0.49998484
   0.66648988  0.41967507  0.50012447
   0.00494274  0.25051288  0.59572564
   0.74797987 -0.00177935  0.59707899
   0.83346512  0.08369309  0.40214887
   0.50006629  0.75208803  0.59741785
   0.91822042  0.66302052  0.50196558
   0.50077731  0.49953149  0.59683377
   0.25023722  0.24672612  0.59523439
   0.58438720  0.58343456  0.40337214
   0.49962038  0.24684188  0.59652518
  -0.00418485  0.74877234  0.59588612
   0.49822342  0.00231420  0.59611584
   0.41197765  0.16737261  0.50125044
   0.33049939  0.08706924  0.40431214
   0.16773091  0.17065716  0.50099667
   0.25128644  0.00386833  0.59629701
   0.33464364  0.83356557  0.40244122
   0.33228541  0.32968052  0.40353742
   0.16247595  0.66701669  0.50097474
  -0.00092813  0.50061804  0.59531352
   0.75197036  0.75064505  0.59625993
Direct configuration=     4
   0.08654229  0.08473514  0.39823881
   0.16814985  0.91752158  0.50011861
   0.66533032  0.91565449  0.50332933
   0.57939262  0.08535856  0.39825327
   0.58395496  0.33430084  0.39811917
   0.41554226  0.41530307  0.50120451
   0.41937960  0.66477732  0.50011575
   0.24840601  0.49861733  0.60161070
   0.58101574  0.83161114  0.39720355
   0.66576572  0.16688452  0.50118981
   0.83312780  0.33712947  0.39954229
   0.74723336  0.25153733  0.60185647
   0.67194989  0.66286610  0.50024779
   0.75129944  0.50083866  0.60053067
   0.83270685  0.83178050  0.39819394
   0.41491580  0.92147523  0.50097524
   0.33409422  0.58370759  0.39840301
   0.25167242  0.74915043  0.60186751
   0.16476279  0.41520507  0.50016997
   0.91732382  0.17175768  0.50008136
   0.00013276  0.00014362  0.60313809
   0.08316740  0.57959974  0.39999051
   0.91778421  0.91325408  0.50121502
   0.08441218  0.83412470  0.39822257
   0.08442702  0.33212240  0.40384254
   0.83420048  0.58155149  0.40361675
   0.91823557  0.41658144  0.49999567
   0.66770992  0.41698304  0.50015019
   0.00395955  0.25037335  0.59673342
   0.74851898 -0.00084583  0.59875395
   0.83378146  0.08369018  0.40206106
   0.50035357  0.75246254  0.59805283
   0.91817016  0.66327971  0.50116928
   0.50021239  0.49991798  0.59777167
   0.25032675  0.24793470  0.59654049
   0.58381646  0.58393302  0.40249177
   0.49897773  0.24717665  0.59781803
  -0.00329050  0.74884350  0.59720453
   0.49805496  0.00208417  0.59772815
   0.41392708  0.16770622  0.50075168
   0.33161454  0.08580869  0.40356494
   0.16576832  0.16928930  0.50055692
   0.25067432  0.00302637  0.59765133
   0.33463043  0.83370890  0.40176501
   0.33205639  0.33158596  0.40303967
   0.16505867  0.66537161  0.50074101
  -0.00039568  0.50006646  0.59644425
   0.75114912  0.75001398  0.59773693
Direct configuration=     5
   0.08603402  0.08475796  0.39767881
   0.16671465  0.91758304  0.50012926
   0.66474648  0.91529515  0.50270106
   0.58012469  0.08444169  0.39782468
   0.58382487  0.33421718  0.39761512
   0.41449248  0.41604613  0.50104591
   0.41858957  0.66537436  0.50012447
   0.24840358  0.49836910  0.60217295
   0.58128089  0.83205187  0.39675132
   0.66672967  0.16657434  0.50091292
   0.83347278  0.33641685  0.39897927
   0.74778591  0.25115007  0.60244824
   0.67107082  0.66437650  0.50019268
   0.75137141  0.50072439  0.60117294
   0.83186437  0.83230934  0.39774429
   0.41681962  0.91980498  0.50069872
   0.33395112  0.58336505  0.39796044
   0.25152773  0.74935941  0.60239530
   0.16569571  0.41652014  0.50019234
   0.91732710  0.17066356  0.50005866
   0.00001931  0.00034656  0.60368317
   0.08365131  0.57958287  0.39955624
   0.91812144  0.91451560  0.50095739
   0.08426137  0.83430222  0.39778325
   0.08424835  0.33210855  0.40339482
   0.83398570  0.58211861  0.40329521
   0.91756993  0.41645695  0.50000029
   0.66823038  0.41583464  0.50016116
   0.00354012  0.25031383  0.59716334
   0.74874896 -0.00044760  0.59946848
   0.83391641  0.08368893  0.40202360
   0.50047612  0.75262230  0.59832370
   0.91814871  0.66339028  0.50082958
   0.49997140  0.50008285  0.59817178
   0.25036495  0.24845027  0.59709766
   0.58357298  0.58414566  0.40211621
   0.49870358  0.24731946  0.59836955
  -0.00290897  0.74887385  0.59776695
   0.49798309  0.00198604  0.59841595
   0.41475869  0.16784853  0.50053891
   0.33209025  0.08527094  0.40324619
   0.16493109  0.16870578  0.50036933
   0.25041320  0.00266719  0.59822907
   0.33462479  0.83377004  0.40147654
   0.33195869  0.33239881  0.40282734
   0.16616045  0.66466982  0.50064130
  -0.00016854  0.49983117  0.59692661
   0.75079879  0.74974478  0.59836701
Direct configuration=     6
   0.08577555  0.08439224  0.39708461
   0.16699347  0.91711711  0.50023122
   0.66651531  0.91609369  0.50226400
   0.58067538  0.08441264  0.39750065
   0.58371351  0.33382182  0.39725492
   0.41609549  0.41603024  0.50096463
   0.41807495  0.66550532  0.50015832
   0.24859837  0.49857182  0.60285423
   0.58139729  0.83226341  0.39616799
   0.66641400  0.16650982  0.50080773
   0.83339400  0.33604535  0.39848148
   0.74804531  0.25096742  0.60298347
   0.67031691  0.66375311  0.50019726
   0.75108165  0.50058806  0.60168304
   0.83214919  0.83260486  0.39743772
   0.41554069  0.91947183  0.50049985
   0.33396224  0.58348055  0.39758284
   0.25122562  0.74958832  0.60281294
   0.16519378  0.41619419  0.50031388
   0.91722537  0.16970206  0.50012728
   0.00002709  0.00031468  0.60428477
   0.08324322  0.58071446  0.39911345
   0.91782176  0.91419826  0.50087347
   0.08384747  0.83410442  0.39745126
   0.08426486  0.33234053  0.40319206
   0.83372520  0.58243420  0.40309134
   0.91713923  0.41651521  0.50002915
   0.66778283  0.41589283  0.50021905
   0.00297739  0.25012774  0.59749680
   0.74881127 -0.00054691  0.59972767
   0.83388114  0.08365396  0.40214768
   0.50042650  0.75253568  0.59846452
   0.91811475  0.66478613  0.50044093
   0.49976483  0.50013682  0.59826886
   0.25013149  0.24858286  0.59734326
   0.58341352  0.58418216  0.40200777
   0.49901351  0.24759374  0.59868851
  -0.00269363  0.74936342  0.59796028
   0.49826426  0.00166006  0.59891737
   0.41543650  0.16736579  0.50035463
   0.33234627  0.08496503  0.40313604
   0.16569262  0.16814335  0.50021893
   0.25035043  0.00217313  0.59842738
   0.33431704  0.83378231  0.40145452
   0.33260465  0.33245397  0.40262809
   0.16627887  0.66573406  0.50058729
   0.00000386  0.49960416  0.59728337
   0.75062497  0.75007407  0.59878349
Direct configuration=     7
   0.08567930  0.08425605  0.39686334
   0.16709730  0.91694360  0.50026918
   0.66717400  0.91639106  0.50210125
   0.58088046  0.08440183  0.39737998
   0.58367204  0.33367459  0.39712079
   0.41669243  0.41602433  0.50093435
   0.41788331  0.66555409  0.50017092
   0.24867091  0.49864731  0.60310793
   0.58144064  0.83234219  0.39595076
   0.66629645  0.16648580  0.50076856
   0.83336467  0.33590701  0.39829611
   0.74814190  0.25089941  0.60318278
   0.67003617  0.66352097  0.50019896
   0.75097375  0.50053729  0.60187299
   0.83225525  0.83271491  0.39732355
   0.41506443  0.91934777  0.50042580
   0.33396638  0.58352356  0.39744223
   0.25111312  0.74967356  0.60296847
   0.16500687  0.41607282  0.50035914
   0.91718749  0.16934402  0.50015283
   0.00002998  0.00030281  0.60450880
   0.08309126  0.58113585  0.39894856
   0.91771016  0.91408009  0.50084222
   0.08369334  0.83403077  0.39732763
   0.08427100  0.33242692  0.40311656
   0.83362819  0.58255172  0.40301542
   0.91697884  0.41653690  0.50003989
   0.66761617  0.41591450  0.50024061
   0.00276783  0.25005844  0.59762098
   0.74883448 -0.00058390  0.59982418
   0.83386801  0.08364094  0.40219389
   0.50040802  0.75250342  0.59851696
   0.91810210  0.66530592  0.50029621
   0.49968790  0.50015692  0.59830501
   0.25004456  0.24863224  0.59743472
   0.58335414  0.58419575  0.40196739
   0.49912893  0.24769588  0.59880728
  -0.00261344  0.74954573  0.59803227
   0.49836897  0.00153867  0.59910409
   0.41568890  0.16718603  0.50028601
   0.33244161  0.08485111  0.40309502
   0.16597620  0.16793391  0.50016292
   0.25032706  0.00198915  0.59850122
   0.33420243  0.83378688  0.40144632
   0.33284520  0.33247452  0.40255389
   0.16632297  0.66613036  0.50056719
   0.00006807  0.49951963  0.59741622
   0.75056024  0.75019669  0.59893858
Direct configuration=     8
   0.08573481  0.08413713  0.39652437
   0.16693320  0.91709538  0.50035712
   0.66703122  0.91609325  0.50210330
   0.58084255  0.08463029  0.39711440
   0.58375305  0.33365400  0.39687305
   0.41691678  0.41584080  0.50095517
   0.41788043  0.66524043  0.50021005
   0.24875576  0.49881551  0.60344878
   0.58137792  0.83227441  0.39559811
   0.66588273  0.16697698  0.50091416
   0.83322066  0.33603030  0.39810523
   0.74799782  0.25087905  0.60349653
   0.67012263  0.66363070  0.50029491
   0.75077268  0.50067722  0.60210278
   0.83244409  0.83277764  0.39702221
   0.41529542  0.91973936  0.50047700
   0.33406315  0.58370804  0.39720977
   0.25107035  0.74965217  0.60326675
   0.16489517  0.41585394  0.50044360
   0.91732539  0.16929854  0.50026208
  -0.00003402  0.00024256  0.60500533
   0.08297067  0.58125895  0.39873834
   0.91816563  0.91371912  0.50096526
   0.08362614  0.83405852  0.39710867
   0.08438460  0.33266924  0.40314288
   0.83351925  0.58247070  0.40300536
   0.91685434  0.41650441  0.50009025
   0.66769607  0.41591469  0.50028794
   0.00265457  0.24986563  0.59765309
   0.74872172 -0.00069280  0.59982626
   0.83388629  0.08367571  0.40228556
   0.50035985  0.75236716  0.59852833
   0.91800542  0.66548429  0.50018530
   0.49967099  0.50014735  0.59829849
   0.24998773  0.24836208  0.59737896
   0.58338136  0.58405851  0.40200226
   0.49935887  0.24773715  0.59883301
  -0.00260408  0.74967951  0.59796451
   0.49858760  0.00134315  0.59900795
   0.41576512  0.16672549  0.50033242
   0.33236995  0.08498505  0.40307676
   0.16621479  0.16797586  0.50012341
   0.25040742  0.00197152  0.59846267
   0.33398016  0.83375574  0.40146601
   0.33292424  0.33243798  0.40254848
   0.16632001  0.66613449  0.50062035
  -0.00011742  0.49970209  0.59743919
   0.75062693  0.75044070  0.59884356
Direct configuration=     9
   0.08579641  0.08400515  0.39614818
   0.16675109  0.91726382  0.50045470
   0.66687276  0.91576276  0.50210557
   0.58080048  0.08488384  0.39681967
   0.58384295  0.33363115  0.39659813
   0.41716577  0.41563713  0.50097827
   0.41787723  0.66489235  0.50025346
   0.24884993  0.49900217  0.60382706
   0.58130831  0.83219919  0.39520674
   0.66542359  0.16752208  0.50107574
   0.83306084  0.33616713  0.39789341
   0.74783791  0.25085645  0.60384472
   0.67021859  0.66375248  0.50040140
   0.75054953  0.50083252  0.60235778
   0.83265366  0.83284727  0.39668780
   0.41555177  0.92017394  0.50053383
   0.33417055  0.58391278  0.39695180
   0.25102288  0.74962843  0.60359779
   0.16477120  0.41561103  0.50053733
   0.91747844  0.16924808  0.50038331
  -0.00010504  0.00017570  0.60555637
   0.08283684  0.58139556  0.39850505
   0.91867111  0.91331853  0.50110181
   0.08355157  0.83408931  0.39686566
   0.08451068  0.33293817  0.40317210
   0.83339834  0.58238079  0.40299420
   0.91671617  0.41646836  0.50014614
   0.66778474  0.41591489  0.50034047
   0.00252886  0.24965165  0.59768873
   0.74859658 -0.00081365  0.59982857
   0.83390656  0.08371431  0.40238730
   0.50030639  0.75221593  0.59854095
   0.91789812  0.66568223  0.50006222
   0.49965222  0.50013673  0.59829125
   0.24992467  0.24806225  0.59731708
   0.58341157  0.58390621  0.40204095
   0.49961405  0.24778294  0.59886155
  -0.00259369  0.74982798  0.59788930
   0.49883024  0.00112617  0.59890126
   0.41584971  0.16621438  0.50038391
   0.33229041  0.08513369  0.40305650
   0.16647957  0.16802241  0.50007956
   0.25049661  0.00195195  0.59841989
   0.33373348  0.83372118  0.40148785
   0.33301196  0.33239743  0.40254249
   0.16631671  0.66613907  0.50067936
  -0.00032326  0.49990458  0.59746469
   0.75070095  0.75071149  0.59873812
Direct configuration=    10
   0.08576164  0.08422120  0.39581672
   0.16700786  0.91735373  0.50055458
   0.66698869  0.91571861  0.50199314
   0.58083600  0.08488162  0.39654418
   0.58388798  0.33372192  0.39632510
   0.41658641  0.41556568  0.50097571
   0.41782371  0.66505427  0.50027971
   0.24885403  0.49889686  0.60413306
   0.58121424  0.83219461  0.39483627
   0.66568126  0.16721394  0.50120024
   0.83322843  0.33614232  0.39776397
   0.74780963  0.25080440  0.60419810
   0.67022506  0.66377444  0.50049172
   0.75047793  0.50094989  0.60259039
   0.83245510  0.83297060  0.39635596
   0.41563537  0.91990938  0.50052561
   0.33416283  0.58393415  0.39671137
   0.25101309  0.74969202  0.60393364
   0.16491032  0.41575950  0.50063940
   0.91755061  0.16929609  0.50049729
  -0.00020638  0.00012396  0.60618617
   0.08295282  0.58127474  0.39832610
   0.91849021  0.91358552  0.50121518
   0.08355658  0.83417112  0.39663396
   0.08448090  0.33308712  0.40323984
   0.83327305  0.58241646  0.40302877
   0.91663951  0.41645391  0.50020898
   0.66809736  0.41591971  0.50039402
   0.00240098  0.24955785  0.59768568
   0.74853849 -0.00079245  0.59977656
   0.83394150  0.08379461  0.40257931
   0.50021839  0.75213291  0.59851825
   0.91803135  0.66539957  0.49991643
   0.49966894  0.50013291  0.59829693
   0.24991930  0.24797723  0.59723989
   0.58341858  0.58392380  0.40213691
   0.49951780  0.24781204  0.59888172
  -0.00254787  0.74978249  0.59781733
   0.49893206  0.00106261  0.59878598
   0.41591066  0.16630186  0.50040894
   0.33225082  0.08519483  0.40301975
   0.16635532  0.16799769  0.49998699
   0.25052982  0.00185816  0.59836004
   0.33365712  0.83376473  0.40160801
   0.33292708  0.33262156  0.40262419
   0.16655517  0.66558806  0.50073846
  -0.00046687  0.50008269  0.59742124
   0.75084711  0.75071907  0.59859823
Direct configuration=    11
   0.08573264  0.08440142  0.39554022
   0.16722205  0.91742874  0.50063789
   0.66708539  0.91568178  0.50189935
   0.58086564  0.08487977  0.39631437
   0.58392555  0.33379764  0.39609734
   0.41610312  0.41550608  0.50097358
   0.41777906  0.66518934  0.50030160
   0.24885746  0.49880902  0.60438831
   0.58113578  0.83219078  0.39452723
   0.66589621  0.16695689  0.50130411
   0.83336822  0.33612162  0.39765600
   0.74778603  0.25076097  0.60449288
   0.67023046  0.66379277  0.50056707
   0.75041821  0.50104780  0.60278443
   0.83228946  0.83307349  0.39607916
   0.41570511  0.91968869  0.50051875
   0.33415640  0.58395198  0.39651081
   0.25100493  0.74974507  0.60421381
   0.16502637  0.41588335  0.50072454
   0.91761081  0.16933614  0.50059237
  -0.00029092  0.00008080  0.60671155
   0.08304957  0.58117395  0.39817682
   0.91833931  0.91380824  0.50130976
   0.08356077  0.83423937  0.39644067
   0.08445606  0.33321137  0.40329634
   0.83316853  0.58244621  0.40305761
   0.91657556  0.41644186  0.50026140
   0.66835814  0.41592373  0.50043869
   0.00229430  0.24947961  0.59768314
   0.74849003 -0.00077477  0.59973317
   0.83397064  0.08386161  0.40273948
   0.50014498  0.75206366  0.59849931
   0.91814249  0.66516378  0.49979482
   0.49968289  0.50012972  0.59830167
   0.24991483  0.24790631  0.59717549
   0.58342442  0.58393848  0.40221695
   0.49943752  0.24783631  0.59889855
  -0.00250965  0.74974455  0.59775728
   0.49901700  0.00100959  0.59868983
   0.41596151  0.16637482  0.50042982
   0.33221779  0.08524584  0.40298909
   0.16625167  0.16797706  0.49990977
   0.25055752  0.00177991  0.59831010
   0.33359343  0.83380107  0.40170825
   0.33285626  0.33280853  0.40269234
   0.16675409  0.66512841  0.50078776
  -0.00058666  0.50023127  0.59738499
   0.75096904  0.75072538  0.59848155
Direct configuration=    12
   0.08567332  0.08462627  0.39543017
   0.16708222  0.91722510  0.50068805
   0.66723972  0.91578254  0.50163912
   0.58082443  0.08484430  0.39621836
   0.58392009  0.33385073  0.39605679
   0.41633975  0.41550913  0.50096264
   0.41774386  0.66507634  0.50032479
   0.24877645  0.49863636  0.60451653
   0.58101657  0.83225993  0.39435510
   0.66608941  0.16696184  0.50129277
   0.83356921  0.33603175  0.39768806
   0.74783175  0.25078000  0.60466661
   0.67020482  0.66372222  0.50056207
   0.75051125  0.50097816  0.60291188
   0.83212772  0.83305311  0.39588801
   0.41579856  0.91942434  0.50040153
   0.33407483  0.58391676  0.39642488
   0.25097512  0.74978603  0.60436381
   0.16489548  0.41594297  0.50077954
   0.91765770  0.16924223  0.50066078
  -0.00026941  0.00003496  0.60708656
   0.08302905  0.58126418  0.39814792
   0.91855475  0.91380360  0.50130453
   0.08351306  0.83431018  0.39641482
   0.08435446  0.33317712  0.40338483
   0.83312611  0.58264845  0.40310346
   0.91676568  0.41643424  0.50031113
   0.66815609  0.41578124  0.50048093
   0.00227618  0.24953758  0.59768158
   0.74854237 -0.00066614  0.59971419
   0.83399202  0.08391278  0.40291100
   0.50013873  0.75210651  0.59849838
   0.91830358  0.66499874  0.49964297
   0.49965294  0.50007248  0.59826873
   0.24986887  0.24803283  0.59712661
   0.58339116  0.58405757  0.40232305
   0.49916693  0.24787096  0.59891744
  -0.00238137  0.74958758  0.59772610
   0.49891534  0.00106867  0.59862842
   0.41602791  0.16645795  0.50036096
   0.33232369  0.08520680  0.40298269
   0.16607535  0.16802942  0.49980943
   0.25041880  0.00177495  0.59829965
   0.33366352  0.83393271  0.40180040
   0.33289921  0.33286813  0.40275781
   0.16667029  0.66536110  0.50077888
  -0.00052243  0.50012697  0.59732316
   0.75099482  0.75055834  0.59838289
Direct configuration=    13
   0.08563099  0.08478674  0.39535163
   0.16698243  0.91707977  0.50072385
   0.66734986  0.91585444  0.50145339
   0.58079503  0.08481899  0.39614984
   0.58391620  0.33388862  0.39602785
   0.41650862  0.41551130  0.50095483
   0.41771874  0.66499569  0.50034133
   0.24871863  0.49851314  0.60460803
   0.58093150  0.83230928  0.39423225
   0.66622729  0.16696538  0.50128469
   0.83371265  0.33596761  0.39771095
   0.74786438  0.25079359  0.60479059
   0.67018653  0.66367187  0.50055850
   0.75057765  0.50092845  0.60300283
   0.83201229  0.83303856  0.39575159
   0.41586525  0.91923567  0.50031787
   0.33401662  0.58389163  0.39636355
   0.25095385  0.74981527  0.60447086
   0.16480206  0.41598552  0.50081879
   0.91769117  0.16917521  0.50070960
  -0.00025406  0.00000226  0.60735419
   0.08301441  0.58132858  0.39812729
   0.91870851  0.91380028  0.50130079
   0.08347902  0.83436071  0.39639638
   0.08428196  0.33315268  0.40344799
   0.83309583  0.58279278  0.40313618
   0.91690137  0.41642881  0.50034662
   0.66801190  0.41567955  0.50051107
   0.00226324  0.24957895  0.59768047
   0.74857973 -0.00058861  0.59970065
   0.83400728  0.08394930  0.40303342
   0.50013427  0.75213709  0.59849772
   0.91841855  0.66488096  0.49953460
   0.49963158  0.50003163  0.59824522
   0.24983606  0.24812313  0.59709173
   0.58336743  0.58414257  0.40239877
   0.49897382  0.24789569  0.59893092
  -0.00228982  0.74947554  0.59770385
   0.49884279  0.00111084  0.59858459
   0.41607529  0.16651727  0.50031182
   0.33239926  0.08517894  0.40297813
   0.16594952  0.16806679  0.49973782
   0.25031980  0.00177141  0.59829219
   0.33371355  0.83402667  0.40186617
   0.33292986  0.33291066  0.40280454
   0.16661048  0.66552717  0.50077254
  -0.00047659  0.50005254  0.59727903
   0.75101323  0.75043913  0.59831248
Direct configuration=    14
   0.08574583  0.08468118  0.39533545
   0.16693941  0.91700158  0.50077307
   0.66747917  0.91585105  0.50122954
   0.58078105  0.08491966  0.39611187
   0.58397282  0.33390949  0.39607444
   0.41658112  0.41555670  0.50095177
   0.41764644  0.66490390  0.50037712
   0.24866922  0.49854881  0.60464094
   0.58088012  0.83233810  0.39411439
   0.66625063  0.16698306  0.50129248
   0.83357192  0.33613391  0.39783120
   0.74783612  0.25081556  0.60487954
   0.67030046  0.66352165  0.50056404
   0.75060632  0.50083631  0.60305297
   0.83199781  0.83306682  0.39557773
   0.41585743  0.91933507  0.50025354
   0.33398077  0.58399259  0.39635361
   0.25097841  0.74966260  0.60454042
   0.16503779  0.41596695  0.50081446
   0.91772656  0.16920405  0.50081497
  -0.00026636  0.00000904  0.60755908
   0.08297164  0.58140938  0.39815580
   0.91876462  0.91361248  0.50129940
   0.08343277  0.83449073  0.39644638
   0.08433318  0.33322643  0.40350498
   0.83304308  0.58288399  0.40315285
   0.91674028  0.41643795  0.50039962
   0.66803643  0.41560952  0.50056504
   0.00233599  0.24955698  0.59769888
   0.74860815 -0.00060842  0.59964880
   0.83400899  0.08392255  0.40313723
   0.50014959  0.75219869  0.59849244
   0.91836750  0.66512306  0.49943039
   0.49956174  0.50000362  0.59823826
   0.24978477  0.24807012  0.59704896
   0.58338566  0.58415751  0.40249593
   0.49894291  0.24783940  0.59892025
  -0.00229125  0.74940540  0.59766787
   0.49879308  0.00109437  0.59846183
   0.41608390  0.16644828  0.50024516
   0.33242825  0.08523106  0.40297422
   0.16611318  0.16780620  0.49968184
   0.25019275  0.00185826  0.59824884
   0.33361119  0.83412282  0.40191079
   0.33292125  0.33288508  0.40285382
   0.16661782  0.66557567  0.50076623
  -0.00047781  0.49997096  0.59725354
   0.75096731  0.75042984  0.59815804
Direct configuration=    15
   0.08583654  0.08459778  0.39532267
   0.16690542  0.91693981  0.50081195
   0.66758133  0.91584837  0.50105269
   0.58077000  0.08499919  0.39608186
   0.58401755  0.33392598  0.39611125
   0.41663840  0.41559257  0.50094935
   0.41758932  0.66483138  0.50040538
   0.24863019  0.49857699  0.60466694
   0.58083953  0.83236088  0.39402128
   0.66626907  0.16699703  0.50129865
   0.83346075  0.33626529  0.39792620
   0.74781379  0.25083292  0.60494980
   0.67039047  0.66340298  0.50056842
   0.75062897  0.50076352  0.60309258
   0.83198637  0.83308914  0.39544037
   0.41585126  0.91941360  0.50020273
   0.33395245  0.58407235  0.39634575
   0.25099782  0.74954198  0.60459538
   0.16522401  0.41595229  0.50081104
   0.91775453  0.16922684  0.50089822
  -0.00027608  0.00001440  0.60772094
   0.08293786  0.58147321  0.39817832
   0.91880895  0.91346412  0.50129829
   0.08339623  0.83459344  0.39648588
   0.08437365  0.33328469  0.40355001
   0.83300140  0.58295605  0.40316602
   0.91661302  0.41644517  0.50044149
   0.66805581  0.41555420  0.50060767
   0.00239346  0.24953962  0.59771342
   0.74863060 -0.00062407  0.59960783
   0.83401035  0.08390142  0.40321923
   0.50016169  0.75224735  0.59848827
   0.91832717  0.66531432  0.49934806
   0.49950657  0.49998149  0.59823276
   0.24974425  0.24802824  0.59701516
   0.58340005  0.58416932  0.40257269
   0.49891849  0.24779494  0.59891182
  -0.00229239  0.74934998  0.59763944
   0.49875382  0.00108135  0.59836485
   0.41609069  0.16639378  0.50019249
   0.33245115  0.08527224  0.40297113
   0.16624246  0.16760034  0.49963762
   0.25009238  0.00192687  0.59821460
   0.33353032  0.83419877  0.40194603
   0.33291444  0.33286486  0.40289275
   0.16662362  0.66561400  0.50076125
  -0.00047877  0.49990651  0.59723340
   0.75093103  0.75042250  0.59803603
Direct configuration=    16
   0.08580165  0.08466617  0.39535880
   0.16690254  0.91695761  0.50089025
   0.66750401  0.91583810  0.50082681
   0.58080001  0.08510734  0.39603563
   0.58398121  0.33396668  0.39620100
   0.41665669  0.41551171  0.50095617
   0.41761454  0.66495351  0.50046762
   0.24860323  0.49855590  0.60466151
   0.58078954  0.83236937  0.39389779
   0.66625496  0.16695263  0.50134865
   0.83344644  0.33632072  0.39810928
   0.74775951  0.25078622  0.60502459
   0.67030858  0.66347378  0.50059026
   0.75055837  0.50072431  0.60313815
   0.83199653  0.83319868  0.39518002
   0.41601817  0.91925773  0.50015657
   0.33395985  0.58415510  0.39637049
   0.25098362  0.74948924  0.60463532
   0.16524500  0.41595066  0.50081594
   0.91784829  0.16911320  0.50105264
  -0.00026318 -0.00002990  0.60786669
   0.08293950  0.58154249  0.39821942
   0.91877028  0.91353862  0.50131123
   0.08332923  0.83466736  0.39656882
   0.08434787  0.33339576  0.40361172
   0.83296998  0.58300908  0.40316339
   0.91671384  0.41642210  0.50049108
   0.66812611  0.41554168  0.50069871
   0.00246637  0.24945577  0.59775697
   0.74862459 -0.00074318  0.59951576
   0.83401427  0.08393489  0.40331840
   0.50012319  0.75227117  0.59845671
   0.91835389  0.66533210  0.49924961
   0.49950388  0.49993955  0.59826421
   0.24974620  0.24796321  0.59695719
   0.58331701  0.58427642  0.40266765
   0.49897532  0.24769876  0.59887723
  -0.00236859  0.74932958  0.59761626
   0.49882703  0.00101250  0.59818201
   0.41619747  0.16632202  0.50013829
   0.33245692  0.08534327  0.40291773
   0.16629959  0.16755507  0.49958982
   0.25004480  0.00188423  0.59816570
   0.33349568  0.83419598  0.40198277
   0.33288748  0.33291993  0.40290892
   0.16670942  0.66548361  0.50076300
  -0.00051797  0.49988267  0.59718898
   0.75087708  0.75050658  0.59783424
Direct configuration=    17
   0.08577011  0.08472799  0.39539146
   0.16689994  0.91697370  0.50096104
   0.66743413  0.91582882  0.50062264
   0.58082713  0.08520511  0.39599384