  48  48   0   0
  0.5349325E+02  0.1100258E-08  0.1100258E-08  0.2449179E-08  0.3500000E-15
  1.000000000000000E-004
  CAR 
 unknown system                          
      6.37070105     -9.81839023  301     -1.10491772      1.00000000
     -9.818  0.0000E+00  0.0000E+00
     -9.764  0.0000E+00  0.0000E+00
     -9.710  0.0000E+00  0.0000E+00
     -9.656  0.0000E+00  0.0000E+00
     -9.603  0.0000E+00  0.0000E+00
     -9.549  0.0000E+00  0.0000E+00
     -9.495  0.0000E+00  0.0000E+00
     -9.441  0.0000E+00  0.0000E+00
     -9.387  0.1440E-16  0.7772E-18
     -9.333  0.5693E-14  0.3080E-15
     -9.279  0.1230E-11  0.6670E-13
     -9.225  0.1501E-09  0.8169E-11
     -9.171  0.1036E-07  0.5674E-09
     -9.117  0.4055E-06  0.2245E-07
     -9.063  0.9012E-05  0.5088E-06
     -9.009  0.1141E-03  0.6665E-05
     -8.955  0.8244E-03  0.5115E-04
     -8.901  0.3411E-02  0.2352E-03
     -8.847  0.8112E-02  0.6730E-03
     -8.793  0.1129E-01  0.1282E-02
     -8.739  0.1023E-01  0.1834E-02
     -8.685  0.9142E-02  0.2328E-02
     -8.631  0.1085E-01  0.2913E-02
     -8.577  0.1073E-01  0.3492E-02
     -8.523  0.6554E-02  0.3846E-02
     -8.469  0.2326E-02  0.3971E-02
     -8.415  0.4789E-03  0.3997E-02
     -8.361  0.1151E-03  0.4003E-02
     -8.307  0.4768E-03  0.4029E-02
     -8.253  0.2208E-02  0.4148E-02
     -8.199  0.6106E-02  0.4478E-02
     -8.146  0.1014E-01  0.5025E-02
     -8.092  0.1069E-01  0.5602E-02
     -8.038  0.9817E-02  0.6131E-02
     -7.984  0.1354E-01  0.6862E-02
     -7.930  0.2003E-01  0.7943E-02
     -7.876  0.2016E-01  0.9030E-02
     -7.822  0.1305E-01  0.9735E-02
     -7.768  0.7703E-02  0.1015E-01
     -7.714  0.8729E-02  0.1062E-01
     -7.660  0.1182E-01  0.1126E-01
     -7.606  0.1305E-01  0.1196E-01
     -7.552  0.1570E-01  0.1281E-01
     -7.498  0.2142E-01  0.1397E-01
     -7.444  0.2486E-01  0.1531E-01
     -7.390  0.2279E-01  0.1654E-01
     -7.336  0.1826E-01  0.1752E-01
     -7.282  0.1789E-01  0.1849E-01
     -7.228  0.2700E-01  0.1995E-01
     -7.174  0.4118E-01  0.2217E-01
     -7.120  0.5008E-01  0.2487E-01
     -7.066  0.5217E-01  0.2769E-01
     -7.012  0.5233E-01  0.3051E-01
     -6.958  0.5346E-01  0.3340E-01
     -6.904  0.5756E-01  0.3650E-01
     -6.850  0.6210E-01  0.3985E-01
     -6.796  0.6250E-01  0.4322E-01
     -6.742  0.6284E-01  0.4662E-01
     -6.688  0.7225E-01  0.5052E-01
     -6.635  0.8856E-01  0.5529E-01
     -6.581  0.1002E+00  0.6070E-01
     -6.527  0.1043E+00  0.6633E-01
     -6.473  0.1081E+00  0.7217E-01
     -6.419  0.1158E+00  0.7842E-01
     -6.365  0.1249E+00  0.8516E-01
     -6.311  0.1332E+00  0.9235E-01
     -6.257  0.1417E+00  0.1000E+00
     -6.203  0.1506E+00  0.1081E+00
     -6.149  0.1601E+00  0.1168E+00
     -6.095  0.1696E+00  0.1259E+00
     -6.041  0.1752E+00  0.1354E+00
     -5.987  0.1749E+00  0.1448E+00
     -5.933  0.1699E+00  0.1540E+00
     -5.879  0.1629E+00  0.1628E+00
     -5.825  0.1570E+00  0.1712E+00
     -5.771  0.1519E+00  0.1794E+00
     -5.717  0.1447E+00  0.1873E+00
     -5.663  0.1370E+00  0.1946E+00
     -5.609  0.1337E+00  0.2019E+00
     -5.555  0.1350E+00  0.2091E+00
     -5.501  0.1356E+00  0.2165E+00
     -5.447  0.1335E+00  0.2237E+00
     -5.393  0.1321E+00  0.2308E+00
     -5.339  0.1343E+00  0.2380E+00
     -5.285  0.1398E+00  0.2456E+00
     -5.231  0.1490E+00  0.2536E+00
     -5.178  0.1611E+00  0.2623E+00
     -5.124  0.1711E+00  0.2716E+00
     -5.070  0.1770E+00  0.2811E+00
     -5.016  0.1799E+00  0.2908E+00
     -4.962  0.1808E+00  0.3006E+00
     -4.908  0.1798E+00  0.3103E+00
     -4.854  0.1783E+00  0.3199E+00
     -4.800  0.1774E+00  0.3295E+00
     -4.746  0.1774E+00  0.3390E+00
     -4.692  0.1775E+00  0.3486E+00
     -4.638  0.1781E+00  0.3582E+00
     -4.584  0.1777E+00  0.3678E+00
     -4.530  0.1740E+00  0.3772E+00
     -4.476  0.1705E+00  0.3864E+00
     -4.422  0.1689E+00  0.3955E+00
     -4.368  0.1646E+00  0.4044E+00
     -4.314  0.1597E+00  0.4130E+00
     -4.260  0.1601E+00  0.4217E+00
     -4.206  0.1642E+00  0.4305E+00
     -4.152  0.1660E+00  0.4395E+00
     -4.098  0.1646E+00  0.4483E+00
     -4.044  0.1646E+00  0.4572E+00
     -3.990  0.1682E+00  0.4663E+00
     -3.936  0.1735E+00  0.4757E+00
     -3.882  0.1778E+00  0.4853E+00
     -3.828  0.1778E+00  0.4949E+00
     -3.774  0.1749E+00  0.5043E+00
     -3.720  0.1758E+00  0.5138E+00
     -3.667  0.1818E+00  0.5236E+00
     -3.613  0.1871E+00  0.5337E+00
     -3.559  0.1891E+00  0.5439E+00
     -3.505  0.1887E+00  0.5541E+00
     -3.451  0.1860E+00  0.5641E+00
     -3.397  0.1821E+00  0.5739E+00
     -3.343  0.1798E+00  0.5836E+00
     -3.289  0.1800E+00  0.5933E+00
     -3.235  0.1812E+00  0.6031E+00
     -3.181  0.1832E+00  0.6130E+00
     -3.127  0.1859E+00  0.6230E+00
     -3.073  0.1875E+00  0.6332E+00
     -3.019  0.1857E+00  0.6432E+00
     -2.965  0.1823E+00  0.6530E+00
     -2.911  0.1818E+00  0.6628E+00
     -2.857  0.1876E+00  0.6730E+00
     -2.803  0.1948E+00  0.6835E+00
     -2.749  0.1958E+00  0.6940E+00
     -2.695  0.1923E+00  0.7044E+00
     -2.641  0.1909E+00  0.7147E+00
     -2.587  0.1930E+00  0.7251E+00
     -2.533  0.1964E+00  0.7357E+00
     -2.479  0.2014E+00  0.7466E+00
     -2.425  0.2061E+00  0.7577E+00
     -2.371  0.2043E+00  0.7687E+00
     -2.317  0.1957E+00  0.7793E+00
     -2.263  0.1886E+00  0.7895E+00
     -2.210  0.1898E+00  0.7997E+00
     -2.156  0.1947E+00  0.8102E+00
     -2.102  0.1953E+00  0.8208E+00
     -2.048  0.1930E+00  0.8312E+00
     -1.994  0.1930E+00  0.8416E+00
     -1.940  0.1971E+00  0.8522E+00
     -1.886  0.2031E+00  0.8632E+00
     -1.832  0.2086E+00  0.8744E+00
     -1.778  0.2109E+00  0.8858E+00
     -1.724  0.2074E+00  0.8970E+00
     -1.670  0.2022E+00  0.9079E+00
     -1.616  0.2017E+00  0.9188E+00
     -1.562  0.2042E+00  0.9298E+00
     -1.508  0.2046E+00  0.9409E+00
     -1.454  0.2006E+00  0.9517E+00
     -1.400  0.1946E+00  0.9622E+00
     -1.346  0.1894E+00  0.9724E+00
     -1.292  0.1838E+00  0.9823E+00
     -1.238  0.1719E+00  0.9916E+00
     -1.184  0.1481E+00  0.9996E+00
     -1.130  0.1140E+00  0.1006E+01
     -1.076  0.8119E-01  0.1010E+01
     -1.022  0.5863E-01  0.1013E+01
     -0.968  0.4519E-01  0.1016E+01
     -0.914  0.3585E-01  0.1018E+01
     -0.860  0.2817E-01  0.1019E+01
     -0.806  0.2258E-01  0.1020E+01
     -0.752  0.1902E-01  0.1021E+01
     -0.699  0.1785E-01  0.1022E+01
     -0.645  0.1985E-01  0.1023E+01
     -0.591  0.2484E-01  0.1025E+01
     -0.537  0.3285E-01  0.1027E+01
     -0.483  0.4188E-01  0.1029E+01
     -0.429  0.4717E-01  0.1031E+01
     -0.375  0.4519E-01  0.1034E+01
     -0.321  0.3922E-01  0.1036E+01
     -0.267  0.3829E-01  0.1038E+01
     -0.213  0.4176E-01  0.1040E+01
     -0.159  0.3918E-01  0.1042E+01
     -0.105  0.3025E-01  0.1044E+01
     -0.051  0.2327E-01  0.1045E+01
      0.003  0.1991E-01  0.1046E+01
      0.057  0.1825E-01  0.1047E+01
      0.111  0.2082E-01  0.1048E+01
      0.165  0.2853E-01  0.1050E+01
      0.219  0.3500E-01  0.1052E+01
      0.273  0.3635E-01  0.1054E+01
      0.327  0.3606E-01  0.1056E+01
      0.381  0.3771E-01  0.1058E+01
      0.435  0.4205E-01  0.1060E+01
      0.489  0.4661E-01  0.1063E+01
      0.543  0.4720E-01  0.1065E+01
      0.597  0.4424E-01  0.1068E+01
      0.651  0.4185E-01  0.1070E+01
      0.705  0.4072E-01  0.1072E+01
      0.758  0.3938E-01  0.1074E+01
      0.812  0.3726E-01  0.1076E+01
      0.866  0.3295E-01  0.1078E+01
      0.920  0.2765E-01  0.1079E+01
      0.974  0.2511E-01  0.1081E+01
      1.028  0.2465E-01  0.1082E+01
      1.082  0.2244E-01  0.1083E+01
      1.136  0.1898E-01  0.1084E+01
      1.190  0.1686E-01  0.1085E+01
      1.244  0.1436E-01  0.1086E+01
      1.298  0.1068E-01  0.1087E+01
      1.352  0.8923E-02  0.1087E+01
      1.406  0.1011E-01  0.1088E+01
      1.460  0.1443E-01  0.1088E+01
      1.514  0.2427E-01  0.1090E+01
      1.568  0.3522E-01  0.1092E+01
      1.622  0.3759E-01  0.1094E+01
      1.676  0.3254E-01  0.1095E+01
      1.730  0.2888E-01  0.1097E+01
      1.784  0.2921E-01  0.1099E+01
      1.838  0.3070E-01  0.1100E+01
      1.892  0.2997E-01  0.1102E+01
      1.946  0.2653E-01  0.1103E+01
      2.000  0.2413E-01  0.1105E+01
      2.054  0.2523E-01  0.1106E+01
      2.108  0.2869E-01  0.1107E+01
      2.162  0.3301E-01  0.1109E+01
      2.216  0.3739E-01  0.1111E+01
      2.269  0.4080E-01  0.1113E+01
      2.323  0.4237E-01  0.1116E+01
      2.377  0.4239E-01  0.1118E+01
      2.431  0.4206E-01  0.1120E+01
      2.485  0.4194E-01  0.1123E+01
      2.539  0.4259E-01  0.1125E+01
      2.593  0.4528E-01  0.1127E+01
      2.647  0.4953E-01  0.1130E+01
      2.701  0.5113E-01  0.1133E+01
      2.755  0.4484E-01  0.1135E+01
      2.809  0.3114E-01  0.1137E+01
      2.863  0.1740E-01  0.1138E+01
      2.917  0.1105E-01  0.1138E+01
      2.971  0.1129E-01  0.1139E+01
      3.025  0.1093E-01  0.1140E+01
      3.079  0.8611E-02  0.1140E+01
      3.133  0.1033E-01  0.1141E+01
      3.187  0.1803E-01  0.1142E+01
      3.241  0.2538E-01  0.1143E+01
      3.295  0.2575E-01  0.1144E+01
      3.349  0.1896E-01  0.1145E+01
      3.403  0.1125E-01  0.1146E+01
      3.457  0.1061E-01  0.1147E+01
      3.511  0.1929E-01  0.1148E+01
      3.565  0.3147E-01  0.1149E+01
      3.619  0.4086E-01  0.1151E+01
      3.673  0.4643E-01  0.1154E+01
      3.726  0.4662E-01  0.1156E+01
      3.780  0.3887E-01  0.1159E+01
      3.834  0.2798E-01  0.1160E+01
      3.888  0.2214E-01  0.1161E+01
      3.942  0.2324E-01  0.1163E+01
      3.996  0.2822E-01  0.1164E+01
      4.050  0.3100E-01  0.1166E+01
      4.104  0.2737E-01  0.1167E+01
      4.158  0.2216E-01  0.1168E+01
      4.212  0.2102E-01  0.1170E+01
      4.266  0.2094E-01  0.1171E+01
      4.320  0.1853E-01  0.1172E+01
      4.374  0.1779E-01  0.1173E+01
      4.428  0.2210E-01  0.1174E+01
      4.482  0.2894E-01  0.1175E+01
      4.536  0.3790E-01  0.1177E+01
      4.590  0.4905E-01  0.1180E+01
      4.644  0.5563E-01  0.1183E+01
      4.698  0.5252E-01  0.1186E+01
      4.752  0.4389E-01  0.1188E+01
      4.806  0.3830E-01  0.1190E+01
      4.860  0.4125E-01  0.1193E+01
      4.914  0.4955E-01  0.1195E+01
      4.968  0.5804E-01  0.1198E+01
      5.022  0.6643E-01  0.1202E+01
      5.076  0.7138E-01  0.1206E+01
      5.130  0.6924E-01  0.1210E+01
      5.184  0.6529E-01  0.1213E+01
      5.237  0.6323E-01  0.1216E+01
      5.291  0.5715E-01  0.1220E+01
      5.345  0.4280E-01  0.1222E+01
      5.399  0.2490E-01  0.1223E+01
      5.453  0.1067E-01  0.1224E+01
      5.507  0.3154E-02  0.1224E+01
      5.561  0.6033E-03  0.1224E+01
      5.615  0.7115E-04  0.1224E+01
      5.669  0.5020E-05  0.1224E+01
      5.723  0.2079E-06  0.1224E+01
      5.777  0.4996E-08  0.1224E+01
      5.831  0.6912E-10  0.1224E+01
      5.885  0.5473E-12  0.1224E+01
      5.939  0.2470E-14  0.1224E+01
      5.993  0.5486E-17  0.1224E+01
      6.047  0.0000E+00  0.1224E+01
      6.101  0.0000E+00  0.1224E+01
      6.155  0.0000E+00  0.1224E+01
      6.209  0.0000E+00  0.1224E+01
      6.263  0.0000E+00  0.1224E+01
      6.317  0.0000E+00  0.1224E+01
      6.371  0.0000E+00  0.1224E+01
