       N       E                     dE             d eps       ncg     rms          rms(c)
DAV:   1     0.320082370422E+04    0.32008E+04   -0.18976E+05  3672   0.112E+03
DAV:   2     0.170250602772E+02   -0.31838E+04   -0.29305E+04  4368   0.263E+02
DAV:   3    -0.199772440924E+03   -0.21680E+03   -0.20172E+03  4176   0.651E+01
DAV:   4    -0.205597284014E+03   -0.58248E+01   -0.57521E+01  4224   0.108E+01
DAV:   5    -0.205792712565E+03   -0.19543E+00   -0.19489E+00  4392   0.202E+00    0.624E+01
RMM:   6    -0.202467854793E+03    0.33249E+01   -0.89314E+01  3678   0.150E+01    0.557E+01
RMM:   7    -0.223373843069E+03   -0.20906E+02   -0.68402E+01  3681   0.129E+01    0.533E+01
RMM:   8    -0.218257069960E+03    0.51168E+01   -0.88740E+01  3678   0.144E+01    0.415E+01
RMM:   9    -0.207341341262E+03    0.10916E+02   -0.47190E+01  3680   0.110E+01    0.314E+01
RMM:  10    -0.194125665072E+03    0.13216E+02   -0.19159E+01  3684   0.731E+00    0.163E+01
RMM:  11    -0.190557279630E+03    0.35684E+01   -0.99155E+00  3681   0.488E+00    0.111E+01
RMM:  12    -0.189015645630E+03    0.15416E+01   -0.31067E+00  3681   0.271E+00    0.729E+00
RMM:  13    -0.189038488347E+03   -0.22843E-01   -0.11666E+00  3681   0.168E+00    0.659E+00
RMM:  14    -0.189143524193E+03   -0.10504E+00   -0.51193E-01  3681   0.114E+00    0.622E+00
RMM:  15    -0.188864075793E+03    0.27945E+00   -0.31902E-01  3682   0.893E-01    0.459E+00
RMM:  16    -0.188749611047E+03    0.11446E+00   -0.26648E-01  3681   0.799E-01    0.294E+00
RMM:  17    -0.188664092827E+03    0.85518E-01   -0.82367E-02  3681   0.436E-01    0.162E+00
RMM:  18    -0.188630439644E+03    0.33653E-01   -0.30916E-02  3686   0.261E-01    0.823E-01
RMM:  19    -0.188627895642E+03    0.25440E-02   -0.88555E-03  3681   0.142E-01    0.741E-01
RMM:  20    -0.188623534465E+03    0.43612E-02   -0.25373E-03  3682   0.747E-02    0.463E-01
RMM:  21    -0.188621948122E+03    0.15863E-02   -0.47157E-03  3681   0.975E-02    0.408E-01
RMM:  22    -0.188621016475E+03    0.93165E-03   -0.13394E-03  3681   0.566E-02    0.257E-01
RMM:  23    -0.188620550365E+03    0.46611E-03   -0.10892E-03  3681   0.484E-02    0.139E-01
RMM:  24    -0.188620568063E+03   -0.17698E-04   -0.27492E-04  3682   0.260E-02    0.792E-02
RMM:  25    -0.188620835627E+03   -0.26756E-03   -0.22192E-04  3680   0.208E-02    0.769E-02
RMM:  26    -0.188621035425E+03   -0.19980E-03   -0.62555E-05  3677   0.122E-02    0.398E-02
RMM:  27    -0.188621619732E+03   -0.58431E-03   -0.59955E-05  3679   0.110E-02    0.393E-02
RMM:  28    -0.188622119259E+03   -0.49953E-03   -0.40142E-05  3672   0.907E-03    0.195E-02
RMM:  29    -0.188622927407E+03   -0.80815E-03   -0.45753E-05  3672   0.909E-03    0.214E-02
RMM:  30    -0.188623415852E+03   -0.48844E-03   -0.30562E-05  3600   0.723E-03    0.170E-02
RMM:  31    -0.188623840898E+03   -0.42505E-03   -0.28627E-05  3354   0.682E-03    0.134E-02
RMM:  32    -0.188623967931E+03   -0.12703E-03   -0.84846E-06  2836   0.369E-03    0.870E-03
RMM:  33    -0.188624073599E+03   -0.10567E-03   -0.32293E-06  2496   0.230E-03    0.624E-03
RMM:  34    -0.188624140570E+03   -0.66971E-04   -0.14896E-06  2222   0.173E-03    0.370E-03
RMM:  35    -0.188624208645E+03   -0.68074E-04   -0.13729E-06  2207   0.157E-03    0.227E-03
RMM:  36    -0.188624236543E+03   -0.27899E-04   -0.65209E-07  2138   0.108E-03    0.194E-03
RMM:  37    -0.188624258959E+03   -0.22415E-04   -0.43054E-07  2086   0.904E-04    0.154E-03
RMM:  38    -0.188624265732E+03   -0.67730E-05   -0.20764E-07  1451   0.593E-04    0.113E-03
RMM:  39    -0.188624269144E+03   -0.34122E-05   -0.12365E-07  1413   0.521E-04    0.626E-04
RMM:  40    -0.188624270261E+03   -0.11168E-05   -0.25264E-08   767   0.364E-04    0.390E-04
RMM:  41    -0.188624271555E+03   -0.12940E-05   -0.42546E-08  1028   0.386E-04    0.343E-04
RMM:  42    -0.188624272758E+03   -0.12029E-05   -0.49395E-08   881   0.375E-04    0.317E-04
RMM:  43    -0.188624273091E+03   -0.33358E-06   -0.11430E-09   396   0.300E-04
   1 F= -.18862427E+03 E0= -.18849958E+03  d E =-.188624E+03
       N       E                     dE             d eps       ncg     rms          rms(c)
DAV:   1    -0.189155231111E+03   -0.53096E+00   -0.17310E+02  3696   0.202E+01    0.214E+00
RMM:   2    -0.189343952815E+03   -0.18872E+00   -0.18729E+00  3685   0.293E+00    0.163E+00
RMM:   3    -0.189478065268E+03   -0.13411E+00   -0.18338E-01  3709   0.717E-01    0.366E+00
RMM:   4    -0.189333136116E+03    0.14493E+00   -0.80291E-02  3687   0.446E-01    0.122E+00
RMM:   5    -0.189330655181E+03    0.24809E-02   -0.38523E-02  3681   0.315E-01    0.103E+00
RMM:   6    -0.189326062782E+03    0.45924E-02   -0.20708E-02  3687   0.234E-01    0.723E-01
RMM:   7    -0.189322344841E+03    0.37179E-02   -0.73521E-03  3680   0.138E-01    0.416E-01
RMM:   8    -0.189320753746E+03    0.15911E-02   -0.20904E-03  3680   0.716E-02    0.232E-01
RMM:   9    -0.189320226826E+03    0.52692E-03   -0.89230E-04  3684   0.475E-02    0.111E-01
RMM:  10    -0.189320144736E+03    0.82090E-04   -0.37788E-04  3682   0.301E-02    0.849E-02
RMM:  11    -0.189320077681E+03    0.67055E-04   -0.12745E-04  3686   0.179E-02    0.369E-02
RMM:  12    -0.189320079566E+03   -0.18851E-05   -0.30265E-05  3679   0.876E-03    0.335E-02
RMM:  13    -0.189320071547E+03    0.80194E-05   -0.12992E-05  3638   0.593E-03    0.155E-02
RMM:  14    -0.189320071047E+03    0.50024E-06   -0.51558E-06  2897   0.367E-03
   2 F= -.18932007E+03 E0= -.18919760E+03  d E =-.695798E+00
       N       E                     dE             d eps       ncg     rms          rms(c)
DAV:   1    -0.188803000722E+03    0.51707E+00   -0.16161E+03  3672   0.625E+01    0.547E+00
RMM:   2    -0.190454238434E+03   -0.16512E+01   -0.16988E+01  3683   0.885E+00    0.353E+00
RMM:   3    -0.191119799783E+03   -0.66556E+00   -0.11916E+00  3704   0.185E+00    0.778E+00
RMM:   4    -0.190386716006E+03    0.73308E+00   -0.40115E-01  3689   0.101E+00    0.292E+00
RMM:   5    -0.190363853399E+03    0.22863E-01   -0.21264E-01  3682   0.732E-01    0.241E+00
RMM:   6    -0.190334748335E+03    0.29105E-01   -0.16794E-01  3686   0.652E-01    0.154E+00
RMM:   7    -0.190317372298E+03    0.17376E-01   -0.52745E-02  3681   0.367E-01    0.112E+00
RMM:   8    -0.190304310477E+03    0.13062E-01   -0.17742E-02  3683   0.210E-01    0.549E-01
RMM:   9    -0.190301349898E+03    0.29606E-02   -0.64041E-03  3683   0.126E-01    0.310E-01
RMM:  10    -0.190300724750E+03    0.62515E-03   -0.23112E-03  3682   0.740E-02    0.247E-01
RMM:  11    -0.190300297093E+03    0.42766E-03   -0.81270E-04  3684   0.448E-02    0.149E-01
RMM:  12    -0.190300201026E+03    0.96067E-04   -0.34631E-04  3683   0.299E-02    0.825E-02
RMM:  13    -0.190300174267E+03    0.26759E-04   -0.17145E-04  3682   0.210E-02    0.513E-02
RMM:  14    -0.190300161569E+03    0.12698E-04   -0.48367E-05  3680   0.112E-02    0.257E-02
RMM:  15    -0.190300159245E+03    0.23232E-05   -0.14828E-05  3647   0.625E-03    0.982E-03
RMM:  16    -0.190300164609E+03   -0.53636E-05   -0.28738E-06  2375   0.281E-03    0.634E-03
RMM:  17    -0.190300168687E+03   -0.40776E-05   -0.13160E-06  2084   0.208E-03    0.430E-03
RMM:  18    -0.190300175247E+03   -0.65601E-05   -0.70569E-07  2080   0.147E-03    0.306E-03
RMM:  19    -0.190300178792E+03   -0.35457E-05   -0.27899E-07  2025   0.927E-04    0.178E-03
RMM:  20    -0.190300183603E+03   -0.48107E-05   -0.11493E-07  1318   0.521E-04    0.151E-03
RMM:  21    -0.190300188054E+03   -0.44513E-05   -0.11814E-07  1518   0.530E-04    0.154E-03
RMM:  22    -0.190300194611E+03   -0.65565E-05   -0.20625E-07  1711   0.584E-04    0.162E-03
RMM:  23    -0.190300199122E+03   -0.45114E-05   -0.19821E-07  1561   0.532E-04    0.132E-03
RMM:  24    -0.190300202018E+03   -0.28958E-05   -0.15328E-07  1235   0.472E-04    0.662E-04
RMM:  25    -0.190300202903E+03   -0.88495E-06   -0.37040E-08   715   0.379E-04
   3 F= -.19030020E+03 E0= -.19018426E+03  d E =-.167593E+01
       N       E                     dE             d eps       ncg     rms          rms(c)
DAV:   1    -0.190681338914E+03   -0.38114E+00   -0.33683E+02  3672   0.284E+01    0.216E+00
RMM:   2    -0.191051263380E+03   -0.36992E+00   -0.35133E+00  3687   0.406E+00    0.197E+00
RMM:   3    -0.191163356446E+03   -0.11209E+00   -0.27030E-01  3706   0.879E-01    0.394E+00
RMM:   4    -0.191011567348E+03    0.15179E+00   -0.55331E-02  3687   0.401E-01    0.138E+00
RMM:   5    -0.191005184036E+03    0.63833E-02   -0.30234E-02  3682   0.283E-01    0.112E+00
RMM:   6    -0.191001869386E+03    0.33147E-02   -0.43070E-02  3687   0.328E-01    0.933E-01
RMM:   7    -0.190995974955E+03    0.58944E-02   -0.15485E-02  3684   0.197E-01    0.543E-01
RMM:   8    -0.190993133339E+03    0.28416E-02   -0.40334E-03  3684   0.101E-01    0.270E-01
RMM:   9    -0.190992197929E+03    0.93541E-03   -0.13695E-03  3684   0.602E-02    0.114E-01
RMM:  10    -0.190992069015E+03    0.12891E-03   -0.36728E-04  3684   0.298E-02    0.792E-02
RMM:  11    -0.190992011467E+03    0.57548E-04   -0.16519E-04  3686   0.200E-02    0.507E-02
RMM:  12    -0.190992000137E+03    0.11330E-04   -0.11305E-04  3684   0.164E-02    0.415E-02
RMM:  13    -0.190991988493E+03    0.11644E-04   -0.32566E-05  3681   0.912E-03    0.194E-02
RMM:  14    -0.190991988244E+03    0.24814E-06   -0.69510E-06  3087   0.434E-03
   4 F= -.19099199E+03 E0= -.19087832E+03  d E =-.691785E+00
       N       E                     dE             d eps       ncg     rms          rms(c)
DAV:   1    -0.189005392465E+03    0.19866E+01   -0.31543E+03  3672   0.891E+01    0.553E+00
RMM:   2    -0.192148956234E+03   -0.31436E+01   -0.31236E+01  3686   0.122E+01    0.488E+00
RMM:   3    -0.192682167029E+03   -0.53321E+00   -0.18848E+00  3697   0.235E+00    0.834E+00
RMM:   4    -0.191933673634E+03    0.74849E+00   -0.33521E-01  3693   0.971E-01    0.377E+00
RMM:   5    -0.191880717346E+03    0.52956E-01   -0.16502E-01  3680   0.652E-01    0.333E+00
RMM:   6    -0.191814183234E+03    0.66534E-01   -0.33823E-01  3684   0.910E-01    0.236E+00
RMM:   7    -0.191800337684E+03    0.13846E-01   -0.19382E-01  3681   0.695E-01    0.196E+00
RMM:   8    -0.191761523145E+03    0.38815E-01   -0.53759E-02  3684   0.373E-01    0.922E-01
RMM:   9    -0.191752914889E+03    0.86083E-02   -0.14285E-02  3682   0.192E-01    0.501E-01
RMM:  10    -0.191750538286E+03    0.23766E-02   -0.48014E-03  3683   0.110E-01    0.342E-01
RMM:  11    -0.191749744854E+03    0.79343E-03   -0.31985E-03  3682   0.883E-02    0.265E-01
RMM:  12    -0.191749026468E+03    0.71839E-03   -0.24636E-03  3684   0.770E-02    0.134E-01
RMM:  13    -0.191748986935E+03    0.39533E-04   -0.59491E-04  3685   0.386E-02    0.100E-01
RMM:  14    -0.191748911632E+03    0.75303E-04   -0.15308E-04  3684   0.201E-02    0.435E-02
RMM:  15    -0.191748899097E+03    0.12535E-04   -0.33732E-05  3678   0.946E-03    0.236E-02
RMM:  16    -0.191748899137E+03   -0.40112E-07   -0.13463E-05  3672   0.584E-03    0.118E-02
RMM:  17    -0.191748903575E+03   -0.44372E-05   -0.43977E-06  2812   0.338E-03    0.764E-03
RMM:  18    -0.191748912135E+03   -0.85603E-05   -0.22495E-06  2151   0.263E-03    0.401E-03
RMM:  19    -0.191748915840E+03   -0.37055E-05   -0.73089E-07  2045   0.162E-03    0.184E-03
RMM:  20    -0.191748922367E+03   -0.65263E-05   -0.27655E-07  2086   0.838E-04    0.139E-03
RMM:  21    -0.191748926318E+03   -0.39515E-05   -0.13601E-07  1417   0.571E-04    0.109E-03
RMM:  22    -0.191748931433E+03   -0.51149E-05   -0.14501E-07  1623   0.541E-04    0.123E-03
RMM:  23    -0.191748936707E+03   -0.52735E-05   -0.20201E-07  1629   0.537E-04    0.129E-03
RMM:  24    -0.191748941042E+03   -0.43356E-05   -0.21803E-07  1373   0.525E-04    0.767E-04
RMM:  25    -0.191748942733E+03   -0.16914E-05   -0.13348E-07  1295   0.462E-04    0.528E-04
RMM:  26    -0.191748943305E+03   -0.57190E-06   -0.46658E-08   790   0.358E-04
   5 F= -.19174894E+03 E0= -.19164129E+03  d E =-.144874E+01
       N       E                     dE             d eps       ncg     rms          rms(c)
DAV:   1    -0.191312007138E+03    0.43694E+00   -0.83649E+02  3672   0.450E+01    0.294E+00
RMM:   2    -0.192240022533E+03   -0.92802E+00   -0.89351E+00  3684   0.644E+00    0.297E+00
RMM:   3    -0.192436103313E+03   -0.19608E+00   -0.61468E-01  3711   0.133E+00    0.523E+00
RMM:   4    -0.192156682120E+03    0.27942E+00   -0.11451E-01  3687   0.573E-01    0.207E+00
RMM:   5    -0.192132120957E+03    0.24561E-01   -0.42314E-02  3682   0.337E-01    0.147E+00
RMM:   6    -0.192122439025E+03    0.96819E-02   -0.10163E-01  3684   0.497E-01    0.126E+00
RMM:   7    -0.192116378809E+03    0.60602E-02   -0.45895E-02  3681   0.336E-01    0.933E-01
RMM:   8    -0.192107189764E+03    0.91890E-02   -0.11399E-02  3684   0.171E-01    0.405E-01
RMM:   9    -0.192105262334E+03    0.19274E-02   -0.33744E-03  3681   0.931E-02    0.215E-01
RMM:  10    -0.192104719607E+03    0.54273E-03   -0.10740E-03  3682   0.509E-02    0.136E-01
RMM:  11    -0.192104565975E+03    0.15363E-03   -0.61779E-04  3683   0.383E-02    0.100E-01
RMM:  12    -0.192104479389E+03    0.86586E-04   -0.44164E-04  3685   0.320E-02    0.515E-02
RMM:  13    -0.192104475737E+03    0.36520E-05   -0.86295E-05  3686   0.147E-02    0.362E-02
RMM:  14    -0.192104468861E+03    0.68768E-05   -0.17968E-05  3672   0.700E-03    0.194E-02
RMM:  15    -0.192104467320E+03    0.15402E-05   -0.57050E-06  2931   0.391E-03    0.996E-03
RMM:  16    -0.192104468569E+03   -0.12485E-05   -0.23967E-06  2128   0.265E-03    0.507E-03
RMM:  17    -0.192104470271E+03   -0.17023E-05   -0.10673E-06  2010   0.192E-03    0.334E-03
RMM:  18    -0.192104472806E+03   -0.25346E-05   -0.61747E-07  2031   0.143E-03    0.172E-03
RMM:  19    -0.192104474575E+03   -0.17691E-05   -0.24994E-07  1995   0.924E-04    0.107E-03
RMM:  20    -0.192104476361E+03   -0.17859E-05   -0.87261E-08  1644   0.546E-04    0.716E-04
RMM:  21    -0.192104478113E+03   -0.17517E-05   -0.20264E-08   659   0.395E-04    0.772E-04
RMM:  22    -0.192104479846E+03   -0.17331E-05   -0.72903E-08  1130   0.453E-04    0.840E-04
RMM:  23    -0.192104481648E+03   -0.18018E-05   -0.81122E-08  1271   0.468E-04    0.818E-04
RMM:  24    -0.192104482876E+03   -0.12286E-05   -0.10040E-07  1154   0.418E-04    0.603E-04
RMM:  25    -0.192104483366E+03   -0.48953E-06   -0.20387E-08   586   0.341E-04
   6 F= -.19210448E+03 E0= -.19199977E+03  d E =-.355540E+00
       N       E                     dE             d eps       ncg     rms          rms(c)
DAV:   1    -0.192076415365E+03    0.28068E-01   -0.38544E+01  3708   0.957E+00    0.596E-01
RMM:   2    -0.192122995900E+03   -0.46581E-01   -0.42875E-01  3684   0.141E+00    0.800E-01
RMM:   3    -0.192126072191E+03   -0.30763E-02   -0.30210E-02  3714   0.297E-01    0.981E-01
RMM:   4    -0.192116397031E+03    0.96752E-02   -0.46549E-03  3685   0.118E-01    0.432E-01
RMM:   5    -0.192115371004E+03    0.10260E-02   -0.17513E-03  3682   0.698E-02    0.306E-01
RMM:   6    -0.192114926503E+03    0.44450E-03   -0.57836E-03  3684   0.119E-01    0.249E-01
RMM:   7    -0.192114703424E+03    0.22308E-03   -0.17719E-03  3683   0.659E-02    0.179E-01
RMM:   8    -0.192114341430E+03    0.36199E-03   -0.33247E-04  3686   0.294E-02    0.675E-02
RMM:   9    -0.192114296480E+03    0.44951E-04   -0.10768E-04  3682   0.165E-02    0.430E-02
RMM:  10    -0.192114272935E+03    0.23545E-04   -0.46264E-05  3679   0.104E-02    0.227E-02
RMM:  11    -0.192114270135E+03    0.28004E-05   -0.23394E-05  3681   0.737E-03    0.171E-02
RMM:  12    -0.192114268319E+03    0.18157E-05   -0.15700E-05  3672   0.602E-03    0.774E-03
RMM:  13    -0.192114268462E+03   -0.14265E-06   -0.19719E-06  2106   0.245E-03
   7 F= -.19211427E+03 E0= -.19201009E+03  d E =-.365325E+00
       N       E                     dE             d eps       ncg     rms          rms(c)
DAV:   1    -0.192111079114E+03    0.31892E-02   -0.54318E+01  3672   0.114E+01    0.904E-01
RMM:   2    -0.192180028245E+03   -0.68949E-01   -0.65390E-01  3687   0.169E+00    0.105E+00
RMM:   3    -0.192189587799E+03   -0.95596E-02   -0.50141E-02  3706   0.370E-01    0.130E+00
RMM:   4    -0.192173881200E+03    0.15707E-01   -0.14046E-02  3684   0.190E-01    0.766E-01
RMM:   5    -0.192169292861E+03    0.45883E-02   -0.52321E-03  3682   0.118E-01    0.387E-01
RMM:   6    -0.192170091876E+03   -0.79902E-03   -0.84498E-03  3684   0.143E-01    0.407E-01
RMM:   7    -0.192168683968E+03    0.14079E-02   -0.36978E-03  3681   0.954E-02    0.200E-01
RMM:   8    -0.192168274269E+03    0.40970E-03   -0.72441E-04  3683   0.422E-02    0.119E-01
RMM:   9    -0.192168075292E+03    0.19898E-03   -0.29599E-04  3680   0.272E-02    0.496E-02
RMM:  10    -0.192168046020E+03    0.29273E-04   -0.86179E-05  3681   0.138E-02    0.308E-02
RMM:  11    -0.192168035370E+03    0.10649E-04   -0.33768E-05  3679   0.875E-03    0.172E-02
RMM:  12    -0.192168033830E+03    0.15398E-05   -0.22302E-05  3681   0.698E-03    0.830E-03
RMM:  13    -0.192168034345E+03   -0.51461E-06   -0.34348E-06  2608   0.307E-03
   8 F= -.19216803E+03 E0= -.19206504E+03  d E =-.537659E-01
       N       E                     dE             d eps       ncg     rms          rms(c)
DAV:   1    -0.192167914943E+03    0.11889E-03   -0.68210E-01  3744   0.127E+00    0.972E-02
RMM:   2    -0.192168806833E+03   -0.89189E-03   -0.82517E-03  3685   0.190E-01    0.131E-01
RMM:   3    -0.192168819142E+03   -0.12309E-04   -0.62037E-04  3708   0.413E-02    0.125E-01
RMM:   4    -0.192168688701E+03    0.13044E-03   -0.15795E-04  3686   0.203E-02    0.849E-02
RMM:   5    -0.192168636877E+03    0.51824E-04   -0.64092E-05  3680   0.131E-02    0.440E-02
RMM:   6    -0.192168654416E+03   -0.17539E-04   -0.11423E-04  3682   0.166E-02    0.483E-02
RMM:   7    -0.192168633262E+03    0.21154E-04   -0.52324E-05  3679   0.114E-02    0.207E-02
RMM:   8    -0.192168630201E+03    0.30607E-05   -0.87290E-06  3485   0.465E-03    0.141E-02
RMM:   9    -0.192168627621E+03    0.25797E-05   -0.37356E-06  2652   0.314E-03    0.581E-03
RMM:  10    -0.192168627472E+03    0.14881E-06   -0.13028E-06  1965   0.194E-03
   9 F= -.19216863E+03 E0= -.19206577E+03  d E =-.543590E-01
       N       E                     dE             d eps       ncg     rms          rms(c)
DAV:   1    -0.192169286227E+03   -0.65861E-03   -0.10123E+01  3696   0.491E+00    0.366E-01
RMM:   2    -0.192182359937E+03   -0.13074E-01   -0.12033E-01  3687   0.728E-01    0.483E-01
RMM:   3    -0.192182667683E+03   -0.30775E-03   -0.87085E-03  3703   0.154E-01    0.460E-01
RMM:   4    -0.192180663454E+03    0.20042E-02   -0.21618E-03  3685   0.751E-02    0.284E-01
RMM:   5    -0.192180156621E+03    0.50683E-03   -0.88506E-04  3682   0.486E-02    0.187E-01
RMM:   6    -0.192180266524E+03   -0.10990E-03   -0.15931E-03  3684   0.617E-02    0.185E-01
RMM:   7    -0.192179961670E+03    0.30485E-03   -0.84566E-04  3683   0.457E-02    0.651E-02
RMM:   8    -0.192179919675E+03    0.41995E-04   -0.10892E-04  3683   0.165E-02    0.490E-02
RMM:   9    -0.192179885708E+03    0.33968E-04   -0.46094E-05  3678   0.107E-02    0.223E-02
RMM:  10    -0.192179879779E+03    0.59290E-05   -0.16698E-05  3675   0.611E-03    0.144E-02
RMM:  11    -0.192179877252E+03    0.25268E-05   -0.96619E-06  3670   0.464E-03    0.789E-03
RMM:  12    -0.192179877082E+03    0.16930E-06   -0.42296E-06  2741   0.315E-03
  10 F= -.19217988E+03 E0= -.19207754E+03  d E =-.112496E-01
       N       E                     dE             d eps       ncg     rms          rms(c)
DAV:   1    -0.192179685316E+03    0.19194E-03   -0.70630E-01  3720   0.130E+00    0.945E-02
RMM:   2    -0.192180610061E+03   -0.92474E-03   -0.84114E-03  3687   0.192E-01    0.134E-01
RMM:   3    -0.192180577625E+03    0.32435E-04   -0.60312E-04  3704   0.406E-02    0.112E-01
RMM:   4    -0.192180470012E+03    0.10761E-03   -0.14405E-04  3684   0.195E-02    0.760E-02
RMM:   5    -0.192180434529E+03    0.35483E-04   -0.60007E-05  3679   0.127E-02    0.489E-02
RMM:   6    -0.192180447846E+03   -0.13317E-04   -0.11296E-04  3683   0.164E-02    0.506E-02
RMM:   7    -0.192180425183E+03    0.22662E-04   -0.63981E-05  3684   0.125E-02    0.169E-02
RMM:   8    -0.192180422613E+03    0.25700E-05   -0.74025E-06  3288   0.433E-03    0.132E-02
RMM:   9    -0.192180420272E+03    0.23412E-05   -0.30877E-06  2377   0.293E-03    0.645E-03
RMM:  10    -0.192180419942E+03    0.33042E-06   -0.14546E-06  1956   0.208E-03
  11 F= -.19218042E+03 E0= -.19207822E+03  d E =-.117925E-01
       N       E                     dE             d eps       ncg     rms          rms(c)
DAV:   1    -0.192180710929E+03   -0.29066E-03   -0.21553E+00  3696   0.226E+00    0.131E-01
RMM:   2    -0.192183348141E+03   -0.26372E-02   -0.25324E-02  3684   0.334E-01    0.183E-01
RMM:   3    -0.192183508961E+03   -0.16082E-03   -0.17649E-03  3700   0.693E-02    0.219E-01
RMM:   4    -0.192183018834E+03    0.49013E-03   -0.25194E-04  3690   0.267E-02    0.848E-02
RMM:   5    -0.192182999859E+03    0.18974E-04   -0.89828E-05  3684   0.157E-02    0.747E-02
RMM:   6    -0.192183003172E+03   -0.33126E-05   -0.21630E-04  3681   0.226E-02    0.753E-02
RMM:   7    -0.192182966956E+03    0.36216E-04   -0.20817E-04  3685   0.223E-02    0.250E-02
RMM:   8    -0.192182967894E+03   -0.93857E-06   -0.22410E-05  3672   0.761E-03    0.224E-02
RMM:   9    -0.192182961984E+03    0.59103E-05   -0.54575E-06  2973   0.385E-03    0.129E-02
RMM:  10    -0.192182959853E+03    0.21309E-05   -0.40164E-06  2688   0.321E-03    0.915E-03
RMM:  11    -0.192182958595E+03    0.12585E-05   -0.41412E-06  2739   0.329E-03    0.372E-03
RMM:  12    -0.192182958569E+03    0.26193E-07   -0.16269E-06  1951   0.220E-03
  12 F= -.19218296E+03 E0= -.19208078E+03  d E =-.253863E-02
       N       E                     dE             d eps       ncg     rms          rms(c)
DAV:   1    -0.192182924140E+03    0.34455E-04   -0.34637E-01  3696   0.907E-01    0.519E-02
RMM:   2    -0.192183348788E+03   -0.42465E-03   -0.40608E-03  3684   0.134E-01    0.758E-02
RMM:   3    -0.192183362124E+03   -0.13336E-04   -0.28225E-04  3699   0.278E-02    0.850E-02
RMM:   4    -0.192183289335E+03    0.72789E-04   -0.39099E-05  3689   0.106E-02    0.343E-02
RMM:   5    -0.192183287617E+03    0.17180E-05   -0.14269E-05  3671   0.628E-03    0.305E-02
RMM:   6    -0.192183290029E+03   -0.24115E-05   -0.36123E-05  3677   0.926E-03    0.307E-02
RMM:   7    -0.192183284414E+03    0.56147E-05   -0.35037E-05  3681   0.913E-03    0.985E-03
RMM:   8    -0.192183284453E+03   -0.38672E-07   -0.32576E-06  2567   0.301E-03
  13 F= -.19218328E+03 E0= -.19208112E+03  d E =-.286451E-02
       N       E                     dE             d eps       ncg     rms          rms(c)
DAV:   1    -0.192183037723E+03    0.24669E-03   -0.16125E+00  3672   0.196E+00    0.123E-01
RMM:   2    -0.192184913387E+03   -0.18757E-02   -0.18657E-02  3685   0.289E-01    0.143E-01
RMM:   3    -0.192185162869E+03   -0.24948E-03   -0.13155E-03  3700   0.608E-02    0.209E-01
RMM:   4    -0.192184736465E+03    0.42640E-03   -0.19793E-04  3687   0.234E-02    0.834E-02
RMM:   5    -0.192184740353E+03   -0.38882E-05   -0.11430E-04  3681   0.173E-02    0.859E-02
RMM:   6    -0.192184733939E+03    0.64145E-05   -0.18933E-04  3683   0.213E-02    0.737E-02
RMM:   7    -0.192184698937E+03    0.35001E-04   -0.15366E-04  3683   0.194E-02    0.275E-02
RMM:   8    -0.192184697872E+03    0.10653E-05   -0.22506E-05  3670   0.758E-03    0.201E-02
RMM:   9    -0.192184693455E+03    0.44169E-05   -0.47032E-06  2881   0.354E-03    0.119E-02
RMM:  10    -0.192184691580E+03    0.18748E-05   -0.34786E-06  2443   0.304E-03    0.844E-03
RMM:  11    -0.192184690468E+03    0.11124E-05   -0.32184E-06  2148   0.304E-03    0.358E-03
RMM:  12    -0.192184690400E+03    0.68176E-07   -0.17913E-06  1944   0.234E-03
  14 F= -.19218469E+03 E0= -.19208260E+03  d E =-.140595E-02
       N       E                     dE             d eps       ncg     rms          rms(c)
DAV:   1    -0.192184650554E+03    0.39914E-04   -0.15377E-01  3744   0.604E-01    0.375E-02
RMM:   2    -0.192184832101E+03   -0.18155E-03   -0.17707E-03  3685   0.894E-02    0.481E-02
RMM:   3    -0.192184846992E+03   -0.14892E-04   -0.12542E-04  3700   0.188E-02    0.631E-02
RMM:   4    -0.192184808563E+03    0.38429E-04   -0.17751E-05  3684   0.710E-03    0.262E-02
RMM:   5    -0.192184809852E+03   -0.12887E-05   -0.10391E-05  3605   0.524E-03    0.271E-02
RMM:   6    -0.192184810621E+03   -0.76959E-06   -0.19777E-05  3672   0.689E-03    0.238E-02
RMM:   7    -0.192184807000E+03    0.36212E-05   -0.15937E-05  3667   0.623E-03    0.799E-03
RMM:   8    -0.192184806867E+03    0.13279E-06   -0.17628E-06  2112   0.226E-03
  15 F= -.19218481E+03 E0= -.19208274E+03  d E =-.152241E-02
       N       E                     dE             d eps       ncg     rms          rms(c)
DAV:   1    -0.192184787693E+03    0.19307E-04   -0.24348E-02  3732   0.240E-01    0.165E-02
RMM:   2    -0.192184815390E+03   -0.27697E-04   -0.29405E-04  3686   0.359E-02    0.162E-02
RMM:   3    -0.192184821074E+03   -0.56834E-05   -0.21447E-05  3680   0.774E-03    0.276E-02
RMM:   4    -0.192184813612E+03    0.74618E-05   -0.36297E-06  2629   0.321E-03    0.108E-02
RMM:   5    -0.192184813850E+03   -0.23862E-06   -0.20108E-06  2172   0.249E-03
  16 F= -.19218481E+03 E0= -.19208277E+03  d E =-.152940E-02
       N       E                     dE             d eps       ncg     rms          rms(c)
DAV:   1    -0.192184561521E+03    0.25209E-03   -0.72252E-01  3672   0.131E+00    0.775E-02
RMM:   2    -0.192185413970E+03   -0.85245E-03   -0.82157E-03  3684   0.193E-01    0.105E-01
RMM:   3    -0.192185453737E+03   -0.39767E-04   -0.57477E-04  3708   0.406E-02    0.123E-01
RMM:   4    -0.192185310049E+03    0.14369E-03   -0.77403E-05  3688   0.149E-02    0.557E-02
RMM:   5    -0.192185304952E+03    0.50964E-05   -0.39391E-05  3681   0.103E-02    0.521E-02
RMM:   6    -0.192185305530E+03   -0.57797E-06   -0.10801E-04  3682   0.159E-02    0.471E-02
RMM:   7    -0.192185290216E+03    0.15314E-04   -0.69491E-05  3681   0.129E-02    0.187E-02
RMM:   8    -0.192185289261E+03    0.95513E-06   -0.91154E-06  3259   0.485E-03
  17 F= -.19218529E+03 E0= -.19208332E+03  d E =-.475411E-03
