unknown system                          
           1
    11.002582    0.000000    0.000000
     5.501291    9.528515    0.000000
     0.000000    0.000000   24.491785
   Au   Pd
  24  24
Direct configuration=     1
   0.08333333  0.08333333  0.40830017
   0.91666667  0.91666667  0.50000000
   0.08333333  0.33333333  0.40830017
   0.91666667  0.16666667  0.50000000
   0.33333333  0.08333333  0.40830017
   0.16666667  0.16666667  0.50000000
   0.75000000  0.75000000  0.59169983
   0.25000000  0.75000000  0.59169983
   0.16666667  0.41666667  0.50000000
   0.25000000  0.25000000  0.59169983
   0.33333333  0.58333333  0.40830017
   0.16666667  0.66666667  0.50000000
   0.00000000  0.25000000  0.59169983
   0.41666667  0.16666667  0.50000000
   0.41666667  0.41666667  0.50000000
   0.50000000  0.25000000  0.59169983
   0.58333333  0.58333333  0.40830017
   0.41666667  0.91666667  0.50000000
   0.83333333  0.08333333  0.40830017
   0.75000000  0.00000000  0.59169983
   0.83333333  0.58333333  0.40830017
   0.66666667  0.66666667  0.50000000
   0.83333333  0.83333333  0.40830017
   0.58333333  0.08333333  0.40830017
   0.00000000  0.50000000  0.59169983
   0.08333333  0.83333333  0.40830017
   0.58333333  0.33333333  0.40830017
   0.50000000  0.00000000  0.59169983
   0.25000000  0.50000000  0.59169983
   0.66666667  0.91666667  0.50000000
   0.16666667  0.91666667  0.50000000
   0.33333333  0.83333333  0.40830017
   0.91666667  0.66666667  0.50000000
   0.00000000  0.75000000  0.59169983
   0.41666667  0.66666667  0.50000000
   0.66666667  0.16666667  0.50000000
   0.25000000  0.00000000  0.59169983
   0.08333333  0.58333333  0.40830017
   0.50000000  0.75000000  0.59169983
   0.91666667  0.41666667  0.50000000
   0.83333333  0.33333333  0.40830017
   0.66666667  0.41666667  0.50000000
   0.75000000  0.25000000  0.59169983
   0.00000000  0.00000000  0.59169983
   0.75000000  0.50000000  0.59169983
   0.58333333  0.83333333  0.40830017
   0.33333333  0.33333333  0.40830017
   0.50000000  0.50000000  0.59169983
Direct configuration=     2
   0.08333333  0.08333333  0.40830017
   0.91729042  0.91586868  0.50040926
   0.08333333  0.33333333  0.40830017
   0.91492267  0.16800584  0.50042371
   0.33333333  0.08333333  0.40830017
   0.16611008  0.16582123  0.50042627
   0.75042124  0.74939173  0.59348839
   0.25019316  0.75034727  0.59354734
   0.16472235  0.41887771  0.50001532
   0.24987448  0.25008192  0.59422787
   0.33333333  0.58333333  0.40830017
   0.16560308  0.66751030  0.50004657
  -0.00106097  0.25049371  0.59385868
   0.41858512  0.16570551  0.49998471
   0.41851635  0.41664963  0.49998502
   0.50065637  0.25043280  0.59388110
   0.58333333  0.58333333  0.40830017
   0.41708067  0.91499820  0.50036373
   0.83333333  0.08333333  0.40830017
   0.75028175  0.00012310  0.59354545
   0.83333333  0.58333333  0.40830017
   0.66677267  0.66615709  0.50043898
   0.83333333  0.83333333  0.40830017
   0.58333333  0.08333333  0.40830017
  -0.00025502  0.50059429  0.59274342
   0.08333333  0.83333333  0.40830017
   0.58333333  0.33333333  0.40830017
   0.49969356 -0.00057300  0.59297403
   0.24953836  0.50056411  0.59314974
   0.66657853  0.91662905  0.50007555
   0.16740953  0.91590164  0.50007264
   0.33333333  0.83333333  0.40830017
   0.91701030  0.66617060  0.50026703
   0.00020560  0.74949371  0.59289003
   0.41697328  0.66694608  0.50026206
   0.66665671  0.16757737  0.50005999
   0.25044531 -0.00085367  0.59292664
   0.08333333  0.58333333  0.40830017
   0.49974055  0.74991318  0.59275438
   0.91556487  0.41756813  0.50024055
   0.83333333  0.33333333  0.40830017
   0.66679631  0.41621326  0.50030790
   0.74977277  0.25061990  0.59264534
   0.00024954 -0.00011802  0.59289677
   0.74940969  0.49974312  0.59257904
   0.58333333  0.83333333  0.40830017
   0.33333333  0.33333333  0.40830017
   0.50091096  0.49997488  0.59261153
Direct configuration=     3
   0.08333333  0.08333333  0.40830017
   0.91916169  0.91347470  0.50163704
   0.08333333  0.33333333  0.40830017
   0.90969067  0.17202337  0.50169483
   0.33333333  0.08333333  0.40830017
   0.16444031  0.16328492  0.50170507
   0.75168497  0.74756691  0.59885407
   0.25077266  0.75138909  0.59908986
   0.15888939  0.42551085  0.50006127
   0.24949793  0.25032768  0.60181200
   0.33333333  0.58333333  0.40830017
   0.16241230  0.67004119  0.50018626
  -0.00424386  0.25197486  0.60033524
   0.42434049  0.16282203  0.49993886
   0.42406538  0.41659852  0.49994007
   0.50262547  0.25173118  0.60042492
   0.58333333  0.58333333  0.40830017
   0.41832267  0.90999279  0.50145493
   0.83333333  0.08333333  0.40830017
   0.75112699  0.00049241  0.59908232
   0.83333333  0.58333333  0.40830017
   0.66709069  0.66462835  0.50175591
   0.83333333  0.83333333  0.40830017
   0.58333333  0.08333333  0.40830017
  -0.00102010  0.50237717  0.59587417
   0.08333333  0.83333333  0.40830017
   0.58333333  0.33333333  0.40830017
   0.49877423 -0.00229198  0.59679664
   0.24815346  0.50225645  0.59749948
   0.66631412  0.91651619  0.50030218
   0.16963813  0.91360655  0.50029057
   0.33333333  0.83333333  0.40830017
   0.91804120  0.66468241  0.50106812
   0.00082240  0.74797484  0.59646064
   0.41789311  0.66778433  0.50104825
   0.66662683  0.17030947  0.50023995
   0.25178122 -0.00341469  0.59660708
   0.08333333  0.58333333  0.40830017
   0.49896220  0.74965271  0.59591802
   0.91225949  0.42027254  0.50096220
   0.83333333  0.33333333  0.40830017
   0.66718523  0.41485305  0.50123160
   0.74909107  0.25247961  0.59548186
   0.00099815 -0.00047208  0.59648759
   0.74763878  0.49897248  0.59521668
   0.58333333  0.83333333  0.40830017
   0.33333333  0.33333333  0.40830017
   0.50364383  0.49989953  0.59534661
Direct configuration=     4
   0.08333333  0.08333333  0.40830017
   0.91768916  0.91503820  0.50318923
   0.08333333  0.33333333  0.40830017
   0.91064939  0.17153882  0.50311470
   0.33333333  0.08333333  0.40830017
   0.16461660  0.16433103  0.50387775
   0.75142093  0.74763562  0.60083669
   0.25075198  0.75071707  0.60111213
   0.16164497  0.42243698  0.50172781
   0.24951236  0.25046112  0.60399789
   0.33333333  0.58333333  0.40830017
   0.16461689  0.66933480  0.50163134
  -0.00394150  0.25206877  0.60272643
   0.42217508  0.16446636  0.50207864
   0.42231766  0.41707396  0.50150927
   0.50189096  0.25217371  0.60269097
   0.58333333  0.58333333  0.40830017
   0.41837943  0.91092738  0.50254301
   0.83333333  0.08333333  0.40830017
   0.75117052  0.00038479  0.60097182
   0.83333333  0.58333333  0.40830017
   0.66784785  0.66468377  0.50308118
   0.83333333  0.83333333  0.40830017
   0.58333333  0.08333333  0.40830017
  -0.00084373  0.50190509  0.59728269
   0.08333333  0.83333333  0.40830017
   0.58333333  0.33333333  0.40830017
   0.49868737 -0.00218207  0.59813470
   0.24872974  0.50217676  0.59874700
   0.66761951  0.91540578  0.50184261
   0.16918188  0.91332621  0.50139583
   0.33333333  0.83333333  0.40830017
   0.91537541  0.66642274  0.50223434
   0.00103700  0.74801635  0.59803392
   0.41722879  0.66707621  0.50216443
   0.66730027  0.16905997  0.50162978
   0.25146140 -0.00287159  0.59811919
   0.08333333  0.58333333  0.40830017
   0.49940657  0.74929731  0.59753509
   0.91251045  0.41941972  0.50218261
   0.83333333  0.33333333  0.40830017
   0.66719477  0.41595605  0.50191371
   0.74907203  0.25228921  0.59700213
   0.00119789 -0.00041621  0.59777594
   0.74729175  0.49931643  0.59659414
   0.58333333  0.83333333  0.40830017
   0.33333333  0.33333333  0.40830017
   0.50329241  0.50040931  0.59662598
Direct configuration=     5
   0.08333333  0.08333333  0.40830017
   0.91327155  0.91972869  0.50784583
   0.08333333  0.33333333  0.40830017
   0.91352554  0.17008516  0.50737430
   0.33333333  0.08333333  0.40830017
   0.16514546  0.16746936  0.51039578
   0.75062880  0.74784176  0.60678453
   0.25068995  0.74870102  0.60717896
   0.16991172  0.41321537  0.50672742
   0.24955565  0.25086144  0.61055555
   0.33333333  0.58333333  0.40830017
   0.17123066  0.66721564  0.50596656
  -0.00303441  0.25235051  0.60990002
   0.41567886  0.16939936  0.50849797
   0.41707449  0.41850029  0.50621686
   0.49968743  0.25350131  0.60948912
   0.58333333  0.58333333  0.40830017
   0.41854969  0.91373114  0.50580724
   0.83333333  0.08333333  0.40830017
   0.75130108  0.00006193  0.60664033
   0.83333333  0.58333333  0.40830017
   0.67011933  0.66485005  0.50705700
   0.83333333  0.83333333  0.40830017
   0.58333333  0.08333333  0.40830017
  -0.00031462  0.50048884  0.60150823
   0.08333333  0.83333333  0.40830017
   0.58333333  0.33333333  0.40830017
   0.49842678 -0.00185235  0.60214890
   0.25045860  0.50193768  0.60248955
   0.67153567  0.91207456  0.50646389
   0.16781311  0.91248520  0.50471162
   0.33333333  0.83333333  0.40830017
   0.90737807  0.67164373  0.50573302
   0.00168078  0.74814087  0.60275377
   0.41523582  0.66495185  0.50551297
   0.66932056  0.16531147  0.50579926
   0.25050194 -0.00124228  0.60265552
   0.08333333  0.58333333  0.40830017
   0.50073966  0.74823113  0.60238630
   0.91326333  0.41686129  0.50584383
   0.83333333  0.33333333  0.40830017
   0.66722339  0.41926507  0.50396003
   0.74901489  0.25171801  0.60156291
   0.00179713 -0.00024860  0.60164102
   0.74625068  0.50034828  0.60072652
   0.58333333  0.83333333  0.40830017
   0.33333333  0.33333333  0.40830017
   0.50223816  0.50193865  0.60046409
Direct configuration=     6
   0.08333333  0.08333333  0.40830017
   0.91522597  0.91789087  0.50973969
   0.08333333  0.33333333  0.40830017
   0.91578410  0.16955286  0.50930154
   0.33333333  0.08333333  0.40830017
   0.16459402  0.16698685  0.51310972
   0.75060136  0.74826689  0.61007154
   0.25070738  0.74940868  0.61021437
   0.16635967  0.41624144  0.50881960
   0.24960801  0.25116143  0.61432622
   0.33333333  0.58333333  0.40830017
   0.16645590  0.66768831  0.50802371
  -0.00301542  0.25244255  0.61358247
   0.41838618  0.16701924  0.51123551
   0.42004473  0.41494859  0.50826352
   0.49978192  0.25311802  0.61278575
   0.58333333  0.58333333  0.40830017
   0.41812436  0.91454176  0.50732265
   0.83333333  0.08333333  0.40830017
   0.75026994  0.00041062  0.60972320
   0.83333333  0.58333333  0.40830017
   0.66692890  0.66613461  0.50881757
   0.83333333  0.83333333  0.40830017
   0.58333333  0.08333333  0.40830017
  -0.00001970  0.50014076  0.60350445
   0.08333333  0.83333333  0.40830017
   0.58333333  0.33333333  0.40830017
   0.49897081 -0.00132190  0.60451962
   0.25065585  0.50134607  0.60490764
   0.66813288  0.91554460  0.50892161
   0.16724828  0.91462687  0.50672913
   0.33333333  0.83333333  0.40830017
   0.91302856  0.66882554  0.50779701
   0.00159208  0.74814577  0.60497520
   0.41698943  0.66621288  0.50733562
   0.66610157  0.16670589  0.50820318
   0.25043470 -0.00157150  0.60526929
   0.08333333  0.58333333  0.40830017
   0.50003279  0.74909846  0.60473949
   0.91627887  0.41562077  0.50781367
   0.83333333  0.33333333  0.40830017
   0.66610616  0.41863843  0.50522924
   0.74869436  0.25164000  0.60394366
   0.00214743 -0.00008259  0.60405488
   0.74713368  0.49996305  0.60332722
   0.58333333  0.83333333  0.40830017
   0.33333333  0.33333333  0.40830017
   0.50191039  0.50148043  0.60277939
Direct configuration=     7
   0.08333333  0.08333333  0.40830017
   0.91564786  0.91749416  0.51014850
   0.08333333  0.33333333  0.40830017
   0.91627164  0.16943795  0.50971755
   0.33333333  0.08333333  0.40830017
   0.16447498  0.16688270  0.51369556
   0.75059544  0.74835866  0.61078108
   0.25071114  0.74956143  0.61086960
   0.16559292  0.41689465  0.50927122
   0.24961931  0.25122619  0.61514016
   0.33333333  0.58333333  0.40830017
   0.16542521  0.66779034  0.50846777
  -0.00301132  0.25246242  0.61437736
   0.41897059  0.16650547  0.51182644
   0.42068590  0.41418191  0.50870532
   0.49980231  0.25303528  0.61349737
   0.58333333  0.58333333  0.40830017
   0.41803255  0.91471675  0.50764977
   0.83333333  0.08333333  0.40830017
   0.75004735  0.00048588  0.61038868
   0.83333333  0.58333333  0.40830017
   0.66624021  0.66641190  0.50919761
   0.83333333  0.83333333  0.40830017
   0.58333333  0.08333333  0.40830017
   0.00004396  0.50006562  0.60393536
   0.08333333  0.83333333  0.40830017
   0.58333333  0.33333333  0.40830017
   0.49908825 -0.00120740  0.60503136
   0.25069843  0.50121836  0.60542962
   0.66739835  0.91629365  0.50945214
   0.16712636  0.91508918  0.50716463
   0.33333333  0.83333333  0.40830017
   0.91424828  0.66821720  0.50824255
   0.00157294  0.74814683  0.60545472
   0.41736796  0.66648508  0.50772905
   0.66540671  0.16700690  0.50872210
   0.25042018 -0.00164256  0.60583351
   0.08333333  0.58333333  0.40830017
   0.49988021  0.74928568  0.60524745
   0.91692981  0.41535299  0.50823888
   0.83333333  0.33333333  0.40830017
   0.66586499  0.41850317  0.50550321
   0.74862517  0.25162316  0.60445757
   0.00222305 -0.00004675  0.60457594
   0.74732428  0.49987990  0.60388861
   0.58333333  0.83333333  0.40830017
   0.33333333  0.33333333  0.40830017
   0.50183963  0.50138152  0.60327918
Direct configuration=     8
   0.08333333  0.08333333  0.40830017
   0.91568146  0.91715186  0.50985822
   0.08333333  0.33333333  0.40830017
   0.91383429  0.17011738  0.50968806
   0.33333333  0.08333333  0.40830017
   0.16587677  0.16605634  0.51359335
   0.75102082  0.74806662  0.61112743
   0.25080087  0.75018314  0.61107477
   0.16428946  0.41853961  0.50879911
   0.24961393  0.25100794  0.61603035
   0.33333333  0.58333333  0.40830017
   0.16520906  0.66789702  0.50822257
  -0.00348023  0.25234323  0.61507595
   0.41891115  0.16573629  0.51140984
   0.42078402  0.41502142  0.50838430
   0.50054934  0.25252534  0.61418366
   0.58333333  0.58333333  0.40830017
   0.41658094  0.91499674  0.50762058
   0.83333333  0.08333333  0.40830017
   0.75028517  0.00060897  0.61092230
   0.83333333  0.58333333  0.40830017
   0.66764710  0.66595868  0.50924564
   0.83333333  0.83333333  0.40830017
   0.58333333  0.08333333  0.40830017
  -0.00037569  0.50061741  0.60460156
   0.08333333  0.83333333  0.40830017
   0.58333333  0.33333333  0.40830017
   0.49897631 -0.00125094  0.60618815
   0.25034592  0.50117861  0.60618949
   0.66731902  0.91653853  0.50958252
   0.16825309  0.91473269  0.50746463
   0.33333333  0.83333333  0.40830017
   0.91543865  0.66667851  0.50842708
   0.00104851  0.74844611  0.60612472
   0.41598396  0.66741686  0.50791742
   0.66662121  0.16740572  0.50901582
   0.25111524 -0.00218710  0.60668979
   0.08333333  0.58333333  0.40830017
   0.49924022  0.75014587  0.60567399
   0.91586240  0.41709001  0.50841551
   0.83333333  0.33333333  0.40830017
   0.66699292  0.41632768  0.50589898
   0.74878016  0.25176689  0.60476246
   0.00165524  0.00016620  0.60544945
   0.74802687  0.49954020  0.60439943
   0.58333333  0.83333333  0.40830017
   0.33333333  0.33333333  0.40830017
   0.50213647  0.50080017  0.60389314
Direct configuration=     9
   0.08333333  0.08333333  0.40830017
   0.91568522  0.91711350  0.50982569
   0.08333333  0.33333333  0.40830017
   0.91356110  0.17019353  0.50968475
   0.33333333  0.08333333  0.40830017
   0.16603389  0.16596372  0.51358190
   0.75106849  0.74803389  0.61116625
   0.25081092  0.75025282  0.61109776
   0.16414336  0.41872399  0.50874620
   0.24961333  0.25098348  0.61613013
   0.33333333  0.58333333  0.40830017
   0.16518483  0.66790898  0.50819509
  -0.00353279  0.25232987  0.61515426
   0.41890449  0.16565008  0.51136315
   0.42079502  0.41511552  0.50834832
   0.50063307  0.25246819  0.61426058
   0.58333333  0.58333333  0.40830017
   0.41641824  0.91502812  0.50761731
   0.83333333  0.08333333  0.40830017
   0.75031182  0.00062276  0.61098211
   0.83333333  0.58333333  0.40830017
   0.66780479  0.66590788  0.50925102
   0.83333333  0.83333333  0.40830017
   0.58333333  0.08333333  0.40830017
  -0.00042273  0.50067926  0.60467623
   0.08333333  0.83333333  0.40830017
   0.58333333  0.33333333  0.40830017
   0.49896377 -0.00125582  0.60631780
   0.25030641  0.50117415  0.60627466
   0.66731013  0.91656598  0.50959713
   0.16837938  0.91469273  0.50749826
   0.33333333  0.83333333  0.40830017
   0.91557207  0.66650604  0.50844776
   0.00098973  0.74847966  0.60619982
   0.41582883  0.66752130  0.50793854
   0.66675733  0.16745043  0.50904874
   0.25119315 -0.00224814  0.60678576
   0.08333333  0.58333333  0.40830017
   0.49916849  0.75024229  0.60572179
   0.91574276  0.41728470  0.50843531
   0.83333333  0.33333333  0.40830017
   0.66711935  0.41608384  0.50594334
   0.74879753  0.25178300  0.60479663
   0.00159160  0.00019007  0.60554736
   0.74810562  0.49950212  0.60445668
   0.58333333  0.83333333  0.40830017
   0.33333333  0.33333333  0.40830017
   0.50216974  0.50073501  0.60396196
Direct configuration=    10
   0.08333333  0.08333333  0.40830017
   0.91596984  0.91667779  0.50959670
   0.08333333  0.33333333  0.40830017
   0.91402991  0.17008915  0.50957271
   0.33333333  0.08333333  0.40830017
   0.16512432  0.16660923  0.51346543
   0.75097274  0.74810354  0.61111465
   0.25062220  0.75028248  0.61093132
   0.16464676  0.41840363  0.50838867
   0.24951617  0.25089520  0.61642212
   0.33333333  0.58333333  0.40830017
   0.16548039  0.66823858  0.50800381
  -0.00326531  0.25191579  0.61527250
   0.41892318  0.16616627  0.51097790
   0.42033599  0.41552587  0.50810259
   0.50068073  0.25229544  0.61441665
   0.58333333  0.58333333  0.40830017
   0.41701139  0.91421456  0.50763228
   0.83333333  0.08333333  0.40830017
   0.75060867  0.00049254  0.61111102
   0.83333333  0.58333333  0.40830017
   0.66769343  0.66597159  0.50922351
   0.83333333  0.83333333  0.40830017
   0.58333333  0.08333333  0.40830017
  -0.00026308  0.50061225  0.60513379
   0.08333333  0.83333333  0.40830017
   0.58333333  0.33333333  0.40830017
   0.49893258 -0.00115044  0.60690391
   0.25014967  0.50114422  0.60653040
   0.66749647  0.91628184  0.50959344
   0.16780913  0.91497150  0.50768655
   0.33333333  0.83333333  0.40830017
   0.91529270  0.66674056  0.50846609
   0.00089351  0.74878032  0.60646299
   0.41589591  0.66733149  0.50801312
   0.66673981  0.16734240  0.50911411
   0.25124468 -0.00197808  0.60728306
   0.08333333  0.58333333  0.40830017
   0.49935714  0.75035959  0.60573083
   0.91543644  0.41719944  0.50847480
   0.83333333  0.33333333  0.40830017
   0.66713098  0.41623988  0.50619687
   0.74894683  0.25189837  0.60502084
   0.00115527  0.00031070  0.60591307
   0.74808792  0.49966515  0.60462409
   0.58333333  0.83333333  0.40830017
   0.33333333  0.33333333  0.40830017
   0.50228678  0.50060292  0.60417880
Direct configuration=    11
   0.08333333  0.08333333  0.40830017
   0.91604502  0.91656270  0.50953621
   0.08333333  0.33333333  0.40830017
   0.91415375  0.17006158  0.50954311
   0.33333333  0.08333333  0.40830017
   0.16488406  0.16677975  0.51343467
   0.75094744  0.74812194  0.61110102
   0.25057234  0.75029032  0.61088735
   0.16477974  0.41831901  0.50829423
   0.24949050  0.25087188  0.61649925
   0.33333333  0.58333333  0.40830017
   0.16555846  0.66832565  0.50795328
  -0.00319466  0.25180641  0.61530373
   0.41892812  0.16630262  0.51087613
   0.42021474  0.41563426  0.50803768
   0.50069332  0.25224981  0.61445788
   0.58333333  0.58333333  0.40830017
   0.41716807  0.91399965  0.50763623
   0.83333333  0.08333333  0.40830017
   0.75068708  0.00045814  0.61114507
   0.83333333  0.58333333  0.40830017
   0.66766401  0.66598842  0.50921624
   0.83333333  0.83333333  0.40830017
   0.58333333  0.08333333  0.40830017
  -0.00022091  0.50059456  0.60525465
   0.08333333  0.83333333  0.40830017
   0.58333333  0.33333333  0.40830017
   0.49892435 -0.00112260  0.60705873
   0.25010827  0.50113631  0.60659795
   0.66754569  0.91620678  0.50959246
   0.16765850  0.91504513  0.50773628
   0.33333333  0.83333333  0.40830017
   0.91521891  0.66680250  0.50847094
   0.00086809  0.74885974  0.60653251
   0.41591363  0.66728135  0.50803282
   0.66673519  0.16731387  0.50913137
   0.25125829 -0.00190675  0.60741443
   0.08333333  0.58333333  0.40830017
   0.49940698  0.75039057  0.60573322
   0.91535552  0.41717692  0.50848523
   0.83333333  0.33333333  0.40830017
   0.66713405  0.41628110  0.50626384
   0.74898626  0.25192884  0.60508006
   0.00104002  0.00034256  0.60600967
   0.74808325  0.49970822  0.60466831
   0.58333333  0.83333333  0.40830017
   0.33333333  0.33333333  0.40830017
   0.50231769  0.50056803  0.60423608
Direct configuration=    12
   0.08333333  0.08333333  0.40830017
   0.91605444  0.91658761  0.50951746
   0.08333333  0.33333333  0.40830017
   0.91431771  0.16976213  0.50955142
   0.33333333  0.08333333  0.40830017
   0.16501328  0.16670715  0.51347991
   0.75092266  0.74823095  0.61099747
   0.25053526  0.75028431  0.61066351
   0.16468876  0.41843960  0.50826888
   0.24949977  0.25090391  0.61656949
   0.33333333  0.58333333  0.40830017
   0.16555049  0.66826205  0.50794580
  -0.00301279  0.25166196  0.61530900
   0.41896862  0.16602649  0.51078313
   0.42024250  0.41576493  0.50802406
   0.50055088  0.25222692  0.61442584
   0.58333333  0.58333333  0.40830017
   0.41703869  0.91443881  0.50780115
   0.83333333  0.08333333  0.40830017
   0.75073891  0.00041806  0.61114424
   0.83333333  0.58333333  0.40830017
   0.66759273  0.66578290  0.50919957
   0.83333333  0.83333333  0.40830017
   0.58333333  0.08333333  0.40830017
   0.00009593  0.50037555  0.60544762
   0.08333333  0.83333333  0.40830017
   0.58333333  0.33333333  0.40830017
   0.49890561 -0.00081492  0.60720468
   0.25004017  0.50104600  0.60658967
   0.66737844  0.91629850  0.50965308
   0.16742957  0.91548523  0.50793855
   0.33333333  0.83333333  0.40830017
   0.91531338  0.66673555  0.50856462
   0.00094208  0.74887643  0.60658414
   0.41622384  0.66700486  0.50809234
   0.66673137  0.16723024  0.50921002
   0.25113541 -0.00160188  0.60759156
   0.08333333  0.58333333  0.40830017
   0.49949151  0.75038072  0.60570687
   0.91532380  0.41725626  0.50858651
   0.83333333  0.33333333  0.40830017
   0.66689369  0.41657362  0.50646307
   0.74906163  0.25194607  0.60519027
   0.00083460  0.00040169  0.60613916
   0.74812491  0.49981352  0.60476692
   0.58333333  0.83333333  0.40830017
   0.33333333  0.33333333  0.40830017
   0.50222428  0.50055956  0.60431826
Direct configuration=    13
   0.08333333  0.08333333  0.40830017
   0.91605821  0.91659760  0.50950995
   0.08333333  0.33333333  0.40830017
   0.91438342  0.16964211  0.50955474
   0.33333333  0.08333333  0.40830017
   0.16506508  0.16667806  0.51349805
   0.75091273  0.74827464  0.61095597
   0.25052040  0.75028191  0.61057379
   0.16465230  0.41848793  0.50825872
   0.24950348  0.25091676  0.61659764
   0.33333333  0.58333333  0.40830017
   0.16554729  0.66823655  0.50794280
  -0.00293989  0.25160407  0.61531111
   0.41898485  0.16591581  0.51074586
   0.42025362  0.41581730  0.50801860
   0.50049379  0.25221775  0.61441299
   0.58333333  0.58333333  0.40830017
   0.41698683  0.91461483  0.50786725
   0.83333333  0.08333333  0.40830017
   0.75075969  0.00040200  0.61114390
   0.83333333  0.58333333  0.40830017
   0.66756416  0.66570052  0.50919289
   0.83333333  0.83333333  0.40830017
   0.58333333  0.08333333  0.40830017
   0.00022292  0.50028777  0.60552496
   0.08333333  0.83333333  0.40830017
   0.58333333  0.33333333  0.40830017
   0.49889809 -0.00069160  0.60726317
   0.25001288  0.50100980  0.60658635
   0.66731141  0.91633527  0.50967737
   0.16733781  0.91566163  0.50801962
   0.33333333  0.83333333  0.40830017
   0.91535125  0.66670871  0.50860217
   0.00097173  0.74888312  0.60660483
   0.41634817  0.66689404  0.50811620
   0.66672983  0.16719672  0.50924154
   0.25108616 -0.00147968  0.60766256
   0.08333333  0.58333333  0.40830017
   0.49952539  0.75037677  0.60569631
   0.91531108  0.41728806  0.50862711
   0.83333333  0.33333333  0.40830017
   0.66679735  0.41669087  0.50654292
   0.74909184  0.25195298  0.60523445
   0.00075227  0.00042539  0.60619105
   0.74814161  0.49985572  0.60480644
   0.58333333  0.83333333  0.40830017
   0.33333333  0.33333333  0.40830017
   0.50218684  0.50055617  0.60435121
Direct configuration=    14
   0.08333333  0.08333333  0.40830017
   0.91599778  0.91657329  0.50954985
   0.08333333  0.33333333  0.40830017
   0.91409414  0.16983719  0.50961037
   0.33333333  0.08333333  0.40830017
   0.16514458  0.16682309  0.51358430
   0.75100697  0.74829413  0.61082505
   0.25052918  0.75036943  0.61032997
   0.16459338  0.41847986  0.50832131
   0.24955846  0.25097876  0.61665165
   0.33333333  0.58333333  0.40830017
   0.16549517  0.66833192  0.50794800
  -0.00296261  0.25166533  0.61529303
   0.41891828  0.16601302  0.51072641
   0.42034931  0.41556495  0.50807147
   0.50045937  0.25226503  0.61432525
   0.58333333  0.58333333  0.40830017
   0.41683421  0.91468694  0.50805210
   0.83333333  0.08333333  0.40830017
   0.75072606  0.00045638  0.61112820
   0.83333333  0.58333333  0.40830017
   0.66751875  0.66580369  0.50916162
   0.83333333  0.83333333  0.40830017
   0.58333333  0.08333333  0.40830017
   0.00037540  0.50020612  0.60566036
   0.08333333  0.83333333  0.40830017
   0.58333333  0.33333333  0.40830017
   0.49888062 -0.00048724  0.60731626
   0.25000823  0.50096501  0.60651937
   0.66733878  0.91624376  0.50974303
   0.16754504  0.91564466  0.50818877
   0.33333333  0.83333333  0.40830017
   0.91535020  0.66668846  0.50872151
   0.00105574  0.74879418  0.60660970
   0.41629615  0.66716559  0.50814261
   0.66668011  0.16727929  0.50933090
   0.25102533 -0.00137989  0.60781742
   0.08333333  0.58333333  0.40830017
   0.49948515  0.75047464  0.60568201
   0.91542115  0.41717654  0.50875307
   0.83333333  0.33333333  0.40830017
   0.66688920  0.41652898  0.50672143
   0.74908152  0.25198665  0.60531546
   0.00065679  0.00044984  0.60630300
   0.74826214  0.49986281  0.60490647
   0.58333333  0.83333333  0.40830017
   0.33333333  0.33333333  0.40830017
   0.50210339  0.50052753  0.60445564
Direct configuration=    15
   0.08333333  0.08333333  0.40830017
   0.91597912  0.91656579  0.50956216
   0.08333333  0.33333333  0.40830017
   0.91400484  0.16989741  0.50962754
   0.33333333  0.08333333  0.40830017
   0.16516912  0.16686786  0.51361092
   0.75103605  0.74830015  0.61078464
   0.25053189  0.75039644  0.61025471
   0.16457519  0.41847737  0.50834064
   0.24957543  0.25099790  0.61666832
   0.33333333  0.58333333  0.40830017
   0.16547908  0.66836136  0.50794960
  -0.00296963  0.25168424  0.61528745
   0.41889774  0.16604303  0.51072041
   0.42037884  0.41548705  0.50808778
   0.50044875  0.25227963  0.61429816
   0.58333333  0.58333333  0.40830017
   0.41678710  0.91470920  0.50810916
   0.83333333  0.08333333  0.40830017
   0.75071567  0.00047316  0.61112336
   0.83333333  0.58333333  0.40830017
   0.66750473  0.66583553  0.50915196
   0.83333333  0.83333333  0.40830017
   0.58333333  0.08333333  0.40830017
   0.00042247  0.50018091  0.60570215
   0.08333333  0.83333333  0.40830017
   0.58333333  0.33333333  0.40830017
   0.49887522 -0.00042416  0.60733265
   0.25000680  0.50095118  0.60649869
   0.66734723  0.91621551  0.50976330
   0.16760901  0.91563942  0.50824098
   0.33333333  0.83333333  0.40830017
   0.91534988  0.66668221  0.50875834
   0.00108167  0.74876672  0.60661120
   0.41628009  0.66724942  0.50815076
   0.66666476  0.16730478  0.50935848
   0.25100656 -0.00134908  0.60786522
   0.08333333  0.58333333  0.40830017
   0.49947273  0.75050485  0.60567759
   0.91545513  0.41714212  0.50879195
   0.83333333  0.33333333  0.40830017
   0.66691755  0.41647901  0.50677653
   0.74907833  0.25199704  0.60534047
   0.00062732  0.00045739  0.60633755
   0.74829935  0.49986500  0.60493735
   0.58333333  0.83333333  0.40830017
   0.33333333  0.33333333  0.40830017
   0.50207763  0.50051868  0.60448787
Direct configuration=    16
   0.08333333  0.08333333  0.40830017
   0.91597168  0.91656280  0.50956707
   0.08333333  0.33333333  0.40830017
   0.91396925  0.16992141  0.50963438
   0.33333333  0.08333333  0.40830017
   0.16517890  0.16688570  0.51362154
   0.75104765  0.74830255  0.61076853
   0.25053297  0.75040721  0.61022472
   0.16456794  0.41847637  0.50834834
   0.24958219  0.25100553  0.61667496
   0.33333333  0.58333333  0.40830017
   0.16547267  0.66837309  0.50795024
  -0.00297242  0.25169178  0.61528522
   0.41888955  0.16605499  0.51071802
   0.42039062  0.41545600  0.50809429
   0.50044451  0.25228545  0.61428736
   0.58333333  0.58333333  0.40830017
   0.41676832  0.91471807  0.50813191
   0.83333333  0.08333333  0.40830017
   0.75071154  0.00047985  0.61112142
   0.83333333  0.58333333  0.40830017
   0.66749914  0.66584823  0.50914812
   0.83333333  0.83333333  0.40830017
   0.58333333  0.08333333  0.40830017
   0.00044123  0.50017087  0.60571881
   0.08333333  0.83333333  0.40830017
   0.58333333  0.33333333  0.40830017
   0.49887307 -0.00039901  0.60733918
   0.25000623  0.50094567  0.60649045
   0.66735059  0.91620425  0.50977138
   0.16763450  0.91563733  0.50826179
   0.33333333  0.83333333  0.40830017
   0.91534975  0.66667972  0.50877302
   0.00109201  0.74875578  0.60661180
   0.41627369  0.66728283  0.50815400
   0.66665865  0.16731494  0.50936947
   0.25099907 -0.00133680  0.60788427
   0.08333333  0.58333333  0.40830017
   0.49946778  0.75051690  0.60567583
   0.91546867  0.41712840  0.50880745
   0.83333333  0.33333333  0.40830017
   0.66692885  0.41645909  0.50679849
   0.74907706  0.25200119  0.60535044
   0.00061557  0.00046039  0.60635132
   0.74831418  0.49986587  0.60494965
   0.58333333  0.83333333  0.40830017
   0.33333333  0.33333333  0.40830017
   0.50206737  0.50051516  0.60450072
Direct configuration=    17
   0.08333333  0.08333333  0.40830017
   0.91599160  0.91664964  0.50960893
   0.08333333  0.33333333  0.40830017
   0.91405903  0.16989759  0.50969436