unknown system                          
           1
    11.002582    0.000000    0.000000
     5.501291    9.528515    0.000000
     0.000000    0.000000   24.491785
   Au   Pd
  24  24
Direct configuration=     1
   0.25000000  0.75000000  0.59169983
   0.91666667  0.91666667  0.50000000
   0.00000000  0.50000000  0.59169983
   0.00000000  0.25000000  0.59169983
   0.08333333  0.58333333  0.40830017
   0.83333333  0.58333333  0.40830017
   0.08333333  0.33333333  0.40830017
   0.00000000  0.00000000  0.59169983
   0.91666667  0.16666667  0.50000000
   0.66666667  0.66666667  0.50000000
   0.41666667  0.66666667  0.50000000
   0.16666667  0.16666667  0.50000000
   0.91666667  0.66666667  0.50000000
   0.58333333  0.58333333  0.40830017
   0.25000000  0.25000000  0.59169983
   0.33333333  0.58333333  0.40830017
   0.75000000  0.00000000  0.59169983
   0.25000000  0.50000000  0.59169983
   0.16666667  0.91666667  0.50000000
   0.58333333  0.08333333  0.40830017
   0.50000000  0.75000000  0.59169983
   0.50000000  0.00000000  0.59169983
   0.58333333  0.83333333  0.40830017
   0.75000000  0.25000000  0.59169983
   0.33333333  0.83333333  0.40830017
   0.16666667  0.66666667  0.50000000
   0.16666667  0.41666667  0.50000000
   0.33333333  0.33333333  0.40830017
   0.91666667  0.41666667  0.50000000
   0.33333333  0.08333333  0.40830017
   0.00000000  0.75000000  0.59169983
   0.08333333  0.83333333  0.40830017
   0.66666667  0.91666667  0.50000000
   0.25000000  0.00000000  0.59169983
   0.41666667  0.16666667  0.50000000
   0.50000000  0.50000000  0.59169983
   0.41666667  0.41666667  0.50000000
   0.08333333  0.08333333  0.40830017
   0.66666667  0.41666667  0.50000000
   0.41666667  0.91666667  0.50000000
   0.83333333  0.33333333  0.40830017
   0.75000000  0.50000000  0.59169983
   0.83333333  0.83333333  0.40830017
   0.83333333  0.08333333  0.40830017
   0.66666667  0.16666667  0.50000000
   0.50000000  0.25000000  0.59169983
   0.58333333  0.33333333  0.40830017
   0.75000000  0.75000000  0.59169983
Direct configuration=     2
   0.24979809  0.74958507  0.59391909
   0.91613406  0.91588998  0.49920398
  -0.00117024  0.50094175  0.59353474
  -0.00043383  0.25073573  0.59394599
   0.08333333  0.58333333  0.40830017
   0.83333333  0.58333333  0.40830017
   0.08333333  0.33333333  0.40830017
   0.00069171 -0.00077524  0.59431320
   0.91483865  0.16851399  0.49878602
   0.66742123  0.66621905  0.50075510
   0.41665723  0.66578734  0.49998191
   0.16837696  0.16602650  0.49949641
   0.91677816  0.66736216  0.50041025
   0.58333333  0.58333333  0.40830017
   0.25100909  0.24957635  0.59352537
   0.33333333  0.58333333  0.40830017
   0.74929772 -0.00038455  0.59359422
   0.25080144  0.49998796  0.59316659
   0.16790255  0.91612402  0.49915269
   0.58333333  0.08333333  0.40830017
   0.50053923  0.74980117  0.59383859
   0.50009202 -0.00000111  0.59322569
   0.58333333  0.83333333  0.40830017
   0.74795331  0.25187262  0.59356043
   0.33333333  0.83333333  0.40830017
   0.16666834  0.66611582  0.49993147
   0.16818914  0.41620330  0.49977211
   0.33333333  0.33333333  0.40830017
   0.91583886  0.41665814  0.50001435
   0.33333333  0.08333333  0.40830017
  -0.00010130  0.74978066  0.59298975
   0.08333333  0.83333333  0.40830017
   0.66605336  0.91755546  0.49997654
   0.25036270 -0.00016463  0.59302146
   0.41698200  0.16708173  0.49975787
   0.50065087  0.49908373  0.59263852
   0.41726189  0.41527190  0.49994819
   0.08333333  0.08333333  0.40830017
   0.66668263  0.41577116  0.50001178
   0.41635332  0.91781472  0.49975966
   0.83333333  0.33333333  0.40830017
   0.74970150  0.50010632  0.59269454
   0.83333333  0.83333333  0.40830017
   0.83333333  0.08333333  0.40830017
   0.66500094  0.16797244  0.49965992
   0.50009043  0.25041331  0.59230749
   0.58333333  0.33333333  0.40830017
   0.75027985  0.74978251  0.59287704
Direct configuration=     3
   0.24932472  0.74861228  0.59912203
   0.91488539  0.91406908  0.49733774
  -0.00391382  0.50314965  0.59783660
  -0.00145093  0.25246061  0.59921200
   0.08333333  0.58333333  0.40830017
   0.83333333  0.58333333  0.40830017
   0.08333333  0.33333333  0.40830017
   0.00231339 -0.00259276  0.60044010
   0.91055295  0.17284494  0.49593991
   0.66919027  0.66516964  0.50252540
   0.41663510  0.66372580  0.49993950
   0.17238664  0.16452567  0.49831577
   0.91703954  0.66899272  0.50137205
   0.58333333  0.58333333  0.40830017
   0.25337486  0.24858311  0.59780524
   0.33333333  0.58333333  0.40830017
   0.74765127 -0.00128610  0.59803552
   0.25268037  0.49995974  0.59660534
   0.17080001  0.91485181  0.49716620
   0.58333333  0.08333333  0.40830017
   0.50180344  0.74933501  0.59885280
   0.50030776 -0.00000370  0.59680299
   0.58333333  0.83333333  0.40830017
   0.74315496  0.25626287  0.59792250
   0.33333333  0.83333333  0.40830017
   0.16667226  0.66482438  0.49977081
   0.17175851  0.41511698  0.49923782
   0.33333333  0.33333333  0.40830017
   0.91389810  0.41663817  0.50004799
   0.33333333  0.08333333  0.40830017
  -0.00033879  0.74926642  0.59601390
   0.08333333  0.83333333  0.40830017
   0.66461550  0.91963920  0.49992152
   0.25121302 -0.00055059  0.59611995
   0.41772128  0.16805483  0.49919022
   0.50217680  0.49693557  0.59483923
   0.41865737  0.41200193  0.49982674
   0.08333333  0.08333333  0.40830017
   0.66672006  0.41367168  0.50003940
   0.41561871  0.92050629  0.49919619
   0.83333333  0.33333333  0.40830017
   0.74900167  0.50035559  0.59502659
   0.83333333  0.83333333  0.40830017
   0.83333333  0.08333333  0.40830017
   0.66109573  0.17103376  0.49886263
   0.50030244  0.25138231  0.59373210
   0.58333333  0.33333333  0.40830017
   0.75093593  0.74927260  0.59563695
Direct configuration=     4
   0.24986855  0.74860509  0.60189759
   0.91469775  0.91658391  0.49899102
  -0.00359998  0.50298770  0.60025010
  -0.00147292  0.25185118  0.60175560
   0.08333333  0.58333333  0.40830017
   0.83333333  0.58333333  0.40830017
   0.08333333  0.33333333  0.40830017
   0.00137993 -0.00168823  0.60313355
   0.91125342  0.17135316  0.49778133
   0.66800044  0.66597171  0.50427691
   0.41717745  0.66330607  0.50197452
   0.17152180  0.16569366  0.50017669
   0.91763630  0.66760227  0.50300497
   0.58333333  0.58333333  0.40830017
   0.25308314  0.24900416  0.60015722
   0.33333333  0.58333333  0.40830017
   0.74836394 -0.00104705  0.60036085
   0.25270636  0.49972641  0.59864065
   0.16944921  0.91513771  0.49888913
   0.58333333  0.08333333  0.40830017
   0.50142189  0.74910241  0.60172693
   0.50025393 -0.00023471  0.59895415
   0.58333333  0.83333333  0.40830017
   0.74412964  0.25510770  0.60038897
   0.33333333  0.83333333  0.40830017
   0.16748453  0.66434664  0.50123125
   0.17234602  0.41473057  0.50074649
   0.33333333  0.33333333  0.40830017
   0.91518466  0.41597636  0.50155801
   0.33333333  0.08333333  0.40830017
  -0.00046963  0.74963308  0.59779284
   0.08333333  0.83333333  0.40830017
   0.66355062  0.92085669  0.50125220
   0.25091871 -0.00069423  0.59757752
   0.41793678  0.16795663  0.50025469
   0.50150303  0.49803205  0.59617196
   0.41839729  0.41190672  0.50061437
   0.08333333  0.08333333  0.40830017
   0.66556808  0.41389156  0.50102445
   0.41740400  0.91952462  0.50048711
   0.83333333  0.33333333  0.40830017
   0.74856685  0.50042346  0.59671915
   0.83333333  0.83333333  0.40830017
   0.83333333  0.08333333  0.40830017
   0.66133450  0.17072878  0.49998067
   0.50041075  0.25110746  0.59474352
   0.58333333  0.33333333  0.40830017
   0.75078782  0.74955758  0.59755088
Direct configuration=     5
   0.25150005  0.74858351  0.61022427
   0.91413483  0.92412842  0.50395087
  -0.00265847  0.50250184  0.60749059
  -0.00153887  0.25002290  0.60938640
   0.08333333  0.58333333  0.40830017
   0.83333333  0.58333333  0.40830017
   0.08333333  0.33333333  0.40830017
  -0.00142046  0.00102536  0.61121389
   0.91335482  0.16687783  0.50330560
   0.66443095  0.66837792  0.50953143
   0.41880449  0.66204687  0.50807957
   0.16892728  0.16919763  0.50575946
   0.91942659  0.66343091  0.50790373
   0.58333333  0.58333333  0.40830017
   0.25220798  0.25026730  0.60721317
   0.33333333  0.58333333  0.40830017
   0.75050194 -0.00032989  0.60733686
   0.25278434  0.49902642  0.60474659
   0.16539681  0.91599542  0.50405791
   0.58333333  0.08333333  0.40830017
   0.50027724  0.74840460  0.61034929
   0.50009246 -0.00092772  0.60540765
   0.58333333  0.83333333  0.40830017
   0.74705366  0.25164218  0.60778838
   0.33333333  0.83333333  0.40830017
   0.16992135  0.66291344  0.50561257
   0.17410856  0.41357134  0.50527251
   0.33333333  0.33333333  0.40830017
   0.91904434  0.41399094  0.50608806
   0.33333333  0.08333333  0.40830017
  -0.00086216  0.75073306  0.60312966
   0.08333333  0.83333333  0.40830017
   0.66035596  0.92450915  0.50524425
   0.25003579 -0.00112513  0.60195026
   0.41858330  0.16766206  0.50344810
   0.49948172  0.50132147  0.60017013
   0.41761706  0.41162107  0.50297727
   0.08333333  0.08333333  0.40830017
   0.66211214  0.41455119  0.50397962
   0.42275990  0.91657960  0.50435987
   0.83333333  0.33333333  0.40830017
   0.74726239  0.50062707  0.60179684
   0.83333333  0.83333333  0.40830017
   0.83333333  0.08333333  0.40830017
   0.66205082  0.16981385  0.50333478
   0.50073568  0.25028292  0.59777778
   0.58333333  0.33333333  0.40830017
   0.75034351  0.75041251  0.60329264
Direct configuration=     6
   0.24894499  0.75040849  0.61198711
   0.91347650  0.91781823  0.50582755
  -0.00221251  0.50139073  0.60913167
  -0.00122314  0.25077100  0.61092308
   0.08333333  0.58333333  0.40830017
   0.83333333  0.58333333  0.40830017
   0.08333333  0.33333333  0.40830017
   0.00039881 -0.00056339  0.61297589
   0.91318139  0.17177961  0.50529923
   0.66697195  0.66664804  0.51035129
   0.41544293  0.66654323  0.50881725
   0.16971897  0.16644394  0.50730745
   0.91833219  0.66645419  0.50876614
   0.58333333  0.58333333  0.40830017
   0.25141664  0.24957019  0.60871488
   0.33333333  0.58333333  0.40830017
   0.74961878 -0.00053268  0.60866768
   0.25201201  0.49983265  0.60610746
   0.16959651  0.91472654  0.50580685
   0.58333333  0.08333333  0.40830017
   0.50030751  0.74957363  0.61258271
   0.49990095 -0.00061466  0.60682057
   0.58333333  0.83333333  0.40830017
   0.74606738  0.25320126  0.60904884
   0.33333333  0.83333333  0.40830017
   0.16859798  0.66449613  0.50726520
   0.17278890  0.41432308  0.50697749
   0.33333333  0.33333333  0.40830017
   0.91728628  0.41443789  0.50772207
   0.33333333  0.08333333  0.40830017
   0.00013407  0.75111426  0.60420767
   0.08333333  0.83333333  0.40830017
   0.66492842  0.92194554  0.50697198
   0.24966939 -0.00092333  0.60283128
   0.41681843  0.16662099  0.50495501
   0.50064033  0.49877287  0.60197100
   0.41639170  0.41373302  0.50410029
   0.08333333  0.08333333  0.40830017
   0.66575948  0.41295243  0.50537719
   0.41834762  0.91746632  0.50604152
   0.83333333  0.33333333  0.40830017
   0.74864387  0.49924320  0.60313212
   0.83333333  0.83333333  0.40830017
   0.83333333  0.08333333  0.40830017
   0.66368676  0.16934701  0.50483648
   0.50121221  0.25001635  0.59888386
   0.58333333  0.33333333  0.40830017
   0.74994343  0.75095725  0.60480702
Direct configuration=     7
   0.24908319  0.75030978  0.61189177
   0.91351210  0.91815953  0.50572604
  -0.00223663  0.50145083  0.60904291
  -0.00124022  0.25073054  0.61083997
   0.08333333  0.58333333  0.40830017
   0.83333333  0.58333333  0.40830017
   0.08333333  0.33333333  0.40830017
   0.00030041 -0.00047746  0.61288059
   0.91319077  0.17151448  0.50519140
   0.66683452  0.66674160  0.51030695
   0.41562475  0.66630003  0.50877735
   0.16967615  0.16659288  0.50722372
   0.91839138  0.66629066  0.50871949
   0.58333333  0.58333333  0.40830017
   0.25145944  0.24960790  0.60863365
   0.33333333  0.58333333  0.40830017
   0.74966654 -0.00052171  0.60859570
   0.25205379  0.49978904  0.60603385
   0.16936936  0.91479517  0.50571226
   0.58333333  0.08333333  0.40830017
   0.50030587  0.74951040  0.61246191
   0.49991131 -0.00063159  0.60674415
   0.58333333  0.83333333  0.40830017
   0.74612072  0.25311694  0.60898066
   0.33333333  0.83333333  0.40830017
   0.16866956  0.66441053  0.50717581
   0.17286028  0.41428242  0.50688527
   0.33333333  0.33333333  0.40830017
   0.91738137  0.41441372  0.50763369
   0.33333333  0.08333333  0.40830017
   0.00008019  0.75109364  0.60414937
   0.08333333  0.83333333  0.40830017
   0.66468111  0.92208420  0.50687853
   0.24968920 -0.00093424  0.60278363
   0.41691389  0.16667730  0.50487351
   0.50057767  0.49891071  0.60187359
   0.41645797  0.41361879  0.50403955
   0.08333333  0.08333333  0.40830017
   0.66556220  0.41303891  0.50530159
   0.41858627  0.91741836  0.50595057
   0.83333333  0.33333333  0.40830017
   0.74856915  0.49931805  0.60305990
   0.83333333  0.83333333  0.40830017
   0.83333333  0.08333333  0.40830017
   0.66359827  0.16937226  0.50475526
   0.50118643  0.25003077  0.59882403
   0.58333333  0.33333333  0.40830017
   0.74996507  0.75092779  0.60472511
Direct configuration=     8
   0.24904175  0.75024041  0.61232733
   0.91532502  0.91712315  0.50606300
  -0.00240228  0.50184457  0.60930228
  -0.00114983  0.25074318  0.61125982
   0.08333333  0.58333333  0.40830017
   0.83333333  0.58333333  0.40830017
   0.08333333  0.33333333  0.40830017
   0.00039611 -0.00042811  0.61323278
   0.91442505  0.16979024  0.50568342
   0.66717838  0.66635208  0.51024503
   0.41633682  0.66644265  0.50884035
   0.16939633  0.16615341  0.50722036
   0.91813853  0.66622650  0.50871852
   0.58333333  0.58333333  0.40830017
   0.25162130  0.24910336  0.60896125
   0.33333333  0.58333333  0.40830017
   0.74924805 -0.00026899  0.60890793
   0.25186707  0.49996997  0.60639496
   0.16777462  0.91570242  0.50591767
   0.58333333  0.08333333  0.40830017
   0.50065332  0.74922722  0.61297454
   0.49955602 -0.00002944  0.60694678
   0.58333333  0.83333333  0.40830017
   0.74617413  0.25315189  0.60912652
   0.33333333  0.83333333  0.40830017
   0.16765850  0.66548105  0.50765897
   0.17102551  0.41497343  0.50751580
   0.33333333  0.33333333  0.40830017
   0.91694544  0.41607188  0.50812132
   0.33333333  0.08333333  0.40830017
   0.00023242  0.75076280  0.60468049
   0.08333333  0.83333333  0.40830017
   0.66513892  0.92059429  0.50750116
   0.24982112 -0.00080702  0.60348634
   0.41684021  0.16580063  0.50547936
   0.50054807  0.49868091  0.60251804
   0.41629518  0.41490045  0.50460069
   0.08333333  0.08333333  0.40830017
   0.66568341  0.41433609  0.50596436
   0.41833867  0.91726803  0.50658675
   0.83333333  0.33333333  0.40830017
   0.74898111  0.49942169  0.60370708
   0.83333333  0.83333333  0.40830017
   0.83333333  0.08333333  0.40830017
   0.66460239  0.16900065  0.50528733
   0.50075256  0.25009544  0.59937198
   0.58333333  0.33333333  0.40830017
   0.75019570  0.75040596  0.60529873
Direct configuration=     9
   0.24902998  0.75022069  0.61245111
   0.91584026  0.91682861  0.50615877
  -0.00244935  0.50195647  0.60937599
  -0.00112415  0.25074677  0.61137914
   0.08333333  0.58333333  0.40830017
   0.83333333  0.58333333  0.40830017
   0.08333333  0.33333333  0.40830017
   0.00042331 -0.00041409  0.61333288
   0.91477583  0.16930020  0.50582325
   0.66727610  0.66624138  0.51022743
   0.41653920  0.66648318  0.50885825
   0.16931680  0.16602851  0.50721940
   0.91806667  0.66620826  0.50871825
   0.58333333  0.58333333  0.40830017
   0.25166730  0.24895997  0.60905435
   0.33333333  0.58333333  0.40830017
   0.74912911 -0.00019716  0.60899667
   0.25181401  0.50002139  0.60649759
   0.16732139  0.91596026  0.50597606
   0.58333333  0.08333333  0.40830017
   0.50075206  0.74914674  0.61312024
   0.49945505  0.00014170  0.60700437
   0.58333333  0.83333333  0.40830017
   0.74618931  0.25316182  0.60916797
   0.33333333  0.83333333  0.40830017
   0.16737115  0.66578530  0.50779629
   0.17050406  0.41516981  0.50769499
   0.33333333  0.33333333  0.40830017
   0.91682155  0.41654313  0.50825991
   0.33333333  0.08333333  0.40830017
   0.00027569  0.75066877  0.60483143
   0.08333333  0.83333333  0.40830017
   0.66526903  0.92017086  0.50767812
   0.24985861 -0.00077086  0.60368606
   0.41681927  0.16555148  0.50565155
   0.50053966  0.49861560  0.60270119
   0.41624891  0.41526470  0.50476017
   0.08333333  0.08333333  0.40830017
   0.66571786  0.41470476  0.50615271
   0.41826830  0.91722531  0.50676755
   0.83333333  0.33333333  0.40830017
   0.74909819  0.49945115  0.60389101
   0.83333333  0.83333333  0.40830017
   0.83333333  0.08333333  0.40830017
   0.66488777  0.16889504  0.50543854
   0.50062925  0.25011383  0.59952770
   0.58333333  0.33333333  0.40830017
   0.75026125  0.75025765  0.60546175
Direct configuration=    10
   0.24974746  0.74988094  0.61257524
   0.91569450  0.91732172  0.50614187
  -0.00229960  0.50210717  0.60951775
  -0.00108753  0.25072871  0.61158531
   0.08333333  0.58333333  0.40830017
   0.83333333  0.58333333  0.40830017
   0.08333333  0.33333333  0.40830017
   0.00005689 -0.00014933  0.61355811
   0.91436923  0.16943831  0.50585251
   0.66669157  0.66679457  0.51025209
   0.41645591  0.66662558  0.50894234
   0.16876737  0.16679249  0.50699902
   0.91791838  0.66631874  0.50867891
   0.58333333  0.58333333  0.40830017
   0.25142404  0.24931144  0.60916477
   0.33333333  0.58333333  0.40830017
   0.74930604 -0.00024789  0.60909368
   0.25187297  0.49974788  0.60668910
   0.16739835  0.91566509  0.50594257
   0.58333333  0.08333333  0.40830017
   0.50093456  0.74874780  0.61325277
   0.49969690 -0.00021190  0.60708890
   0.58333333  0.83333333  0.40830017
   0.74640067  0.25290954  0.60912090
   0.33333333  0.83333333  0.40830017
   0.16783589  0.66554123  0.50791277
   0.17036649  0.41509875  0.50791677
   0.33333333  0.33333333  0.40830017
   0.91702707  0.41617821  0.50839425
   0.33333333  0.08333333  0.40830017
  -0.00017846  0.75069113  0.60525560
   0.08333333  0.83333333  0.40830017
   0.66506728  0.91995758  0.50788151
   0.24997116 -0.00099452  0.60425517
   0.41718044  0.16584518  0.50583992
   0.50028088  0.49913651  0.60305576
   0.41617189  0.41521348  0.50503489
   0.08333333  0.08333333  0.40830017
   0.66611509  0.41462346  0.50645390
   0.41871258  0.91667329  0.50702619
   0.83333333  0.33333333  0.40830017
   0.74896753  0.49983755  0.60437848
   0.83333333  0.83333333  0.40830017
   0.83333333  0.08333333  0.40830017
   0.66500444  0.16869192  0.50563091
   0.50019730  0.25047829  0.59987691
   0.58333333  0.33333333  0.40830017
   0.75030542  0.75007744  0.60578124
Direct configuration=    11
   0.24993665  0.74979135  0.61260797
   0.91565606  0.91745175  0.50613741
  -0.00226011  0.50214691  0.60955514
  -0.00107787  0.25072395  0.61163967
   0.08333333  0.58333333  0.40830017
   0.83333333  0.58333333  0.40830017
   0.08333333  0.33333333  0.40830017
  -0.00003973 -0.00007951  0.61361750
   0.91426201  0.16947472  0.50586023
   0.66653743  0.66694044  0.51025859
   0.41643395  0.66666313  0.50896451
   0.16862249  0.16699395  0.50694091
   0.91787927  0.66634787  0.50866854
   0.58333333  0.58333333  0.40830017
   0.25135990  0.24940413  0.60919389
   0.33333333  0.58333333  0.40830017
   0.74935269 -0.00026127  0.60911926
   0.25188852  0.49967576  0.60673960
   0.16741864  0.91558726  0.50593374
   0.58333333  0.08333333  0.40830017
   0.50098269  0.74864261  0.61328772
   0.49976067 -0.00030514  0.60711119
   0.58333333  0.83333333  0.40830017
   0.74645641  0.25284301  0.60910849
   0.33333333  0.83333333  0.40830017
   0.16795844  0.66547687  0.50794348
   0.17033022  0.41508001  0.50797525
   0.33333333  0.33333333  0.40830017
   0.91708126  0.41608198  0.50842968
   0.33333333  0.08333333  0.40830017
  -0.00029822  0.75069703  0.60536745
   0.08333333  0.83333333  0.40830017
   0.66501408  0.91990133  0.50793515
   0.25000084 -0.00105350  0.60440524
   0.41727567  0.16592263  0.50588959
   0.50021265  0.49927387  0.60314925
   0.41615158  0.41519997  0.50510733
   0.08333333  0.08333333  0.40830017
   0.66621984  0.41460202  0.50653332
   0.41882973  0.91652773  0.50709439
   0.83333333  0.33333333  0.40830017
   0.74893308  0.49993944  0.60450703
   0.83333333  0.83333333  0.40830017
   0.83333333  0.08333333  0.40830017
   0.66503521  0.16863835  0.50568164
   0.50008339  0.25057439  0.59996900
   0.58333333  0.33333333  0.40830017
   0.75031707  0.75002991  0.60586548
Direct configuration=    12
   0.24981479  0.74982804  0.61267694
   0.91519006  0.91762766  0.50611266
  -0.00228881  0.50218565  0.60966466
  -0.00101626  0.25078171  0.61180076
   0.08333333  0.58333333  0.40830017
   0.83333333  0.58333333  0.40830017
   0.08333333  0.33333333  0.40830017
   0.00015047 -0.00036498  0.61380280
   0.91395532  0.16983808  0.50576115
   0.66668161  0.66680230  0.51043057
   0.41642410  0.66628012  0.50903524
   0.16896308  0.16668020  0.50687666
   0.91787055  0.66660348  0.50873297
   0.58333333  0.58333333  0.40830017
   0.25124103  0.24926668  0.60924433
   0.33333333  0.58333333  0.40830017
   0.74932208 -0.00031175  0.60917066
   0.25183244  0.49987964  0.60694167
   0.16782163  0.91571507  0.50596914
   0.58333333  0.08333333  0.40830017
   0.50114796  0.74857105  0.61342151
   0.49980835 -0.00049570  0.60722168
   0.58333333  0.83333333  0.40830017
   0.74624754  0.25308932  0.60904924
   0.33333333  0.83333333  0.40830017
   0.16817724  0.66508378  0.50805851
   0.17060806  0.41512767  0.50805095
   0.33333333  0.33333333  0.40830017
   0.91685925  0.41592209  0.50856782
   0.33333333  0.08333333  0.40830017
  -0.00039750  0.75079759  0.60565951
   0.08333333  0.83333333  0.40830017
   0.66493073  0.92013001  0.50800843
   0.24994646 -0.00103202  0.60474952
   0.41745402  0.16615681  0.50596350
   0.50031769  0.49936153  0.60340252
   0.41635937  0.41485680  0.50527823
   0.08333333  0.08333333  0.40830017
   0.66621814  0.41459328  0.50676501
   0.41836930  0.91701626  0.50727391
   0.83333333  0.33333333  0.40830017
   0.74895136  0.50007384  0.60488538
   0.83333333  0.83333333  0.40830017
   0.83333333  0.08333333  0.40830017
   0.66461283  0.16871220  0.50578907
   0.50010050  0.25072065  0.60033414
   0.58333333  0.33333333  0.40830017
   0.75035326  0.74992552  0.60610257
Direct configuration=    13
   0.24976949  0.74984168  0.61270258
   0.91501684  0.91769305  0.50610346
  -0.00229948  0.50220005  0.60970537
  -0.00099335  0.25080318  0.61186064
   0.08333333  0.58333333  0.40830017
   0.83333333  0.58333333  0.40830017
   0.08333333  0.33333333  0.40830017
   0.00022116 -0.00047109  0.61387168
   0.91384132  0.16997313  0.50572433
   0.66673521  0.66675096  0.51049450
   0.41642044  0.66613776  0.50906153
   0.16908967  0.16656358  0.50685277
   0.91786731  0.66669849  0.50875692
   0.58333333  0.58333333  0.40830017
   0.25119684  0.24921559  0.60926308
   0.33333333  0.58333333  0.40830017
   0.74931071 -0.00033051  0.60918977
   0.25181159  0.49995543  0.60701679
   0.16797142  0.91576258  0.50598229
   0.58333333  0.08333333  0.40830017
   0.50120940  0.74854446  0.61347124
   0.49982608 -0.00056654  0.60726275
   0.58333333  0.83333333  0.40830017
   0.74616990  0.25318087  0.60902721
   0.33333333  0.83333333  0.40830017
   0.16825857  0.66493767  0.50810127
   0.17071134  0.41514539  0.50807909
   0.33333333  0.33333333  0.40830017
   0.91677673  0.41586266  0.50861916
   0.33333333  0.08333333  0.40830017
  -0.00043440  0.75083497  0.60576807
   0.08333333  0.83333333  0.40830017
   0.66489975  0.92021501  0.50803567
   0.24992624 -0.00102404  0.60487749
   0.41752032  0.16624385  0.50599098
   0.50035674  0.49939411  0.60349667
   0.41643661  0.41472924  0.50534176
   0.08333333  0.08333333  0.40830017
   0.66621751  0.41459003  0.50685113
   0.41819815  0.91719785  0.50734064
   0.83333333  0.33333333  0.40830017
   0.74895816  0.50012379  0.60502602
   0.83333333  0.83333333  0.40830017
   0.83333333  0.08333333  0.40830017
   0.66445583  0.16873964  0.50582900
   0.50010686  0.25077501  0.60046986
   0.58333333  0.33333333  0.40830017
   0.75036671  0.74988672  0.60619070
Direct configuration=    14
   0.24950476  0.75001583  0.61274268
   0.91536052  0.91765592  0.50612892
  -0.00226202  0.50215840  0.60976341
  -0.00106909  0.25069103  0.61195267
   0.08333333  0.58333333  0.40830017
   0.83333333  0.58333333  0.40830017
   0.08333333  0.33333333  0.40830017
   0.00027476 -0.00046813  0.61398767
   0.91399706  0.16969520  0.50565036
   0.66683904  0.66666259  0.51069154
   0.41662606  0.66585992  0.50912263
   0.16929658  0.16649483  0.50695886
   0.91792370  0.66666717  0.50891425
   0.58333333  0.58333333  0.40830017
   0.25134124  0.24903865  0.60925515
   0.33333333  0.58333333  0.40830017
   0.74919306 -0.00023369  0.60922639
   0.25176181  0.50007936  0.60722206
   0.16775348  0.91584677  0.50607397
   0.58333333  0.08333333  0.40830017
   0.50109699  0.74871655  0.61359556
   0.49970593 -0.00038792  0.60737316
   0.58333333  0.83333333  0.40830017
   0.74628210  0.25319552  0.60900478
   0.33333333  0.83333333  0.40830017
   0.16798602  0.66515916  0.50820861
   0.17075489  0.41512019  0.50808237
   0.33333333  0.33333333  0.40830017
   0.91675189  0.41604203  0.50877003
   0.33333333  0.08333333  0.40830017
  -0.00038263  0.75087940  0.60589938
   0.08333333  0.83333333  0.40830017
   0.66467083  0.92034260  0.50803286
   0.24981847 -0.00095870  0.60504733
   0.41742790  0.16630794  0.50605937
   0.50041357  0.49938718  0.60370530
   0.41671418  0.41448277  0.50543759
   0.08333333  0.08333333  0.40830017
   0.66580665  0.41476271  0.50696328
   0.41814548  0.91737532  0.50743183
   0.83333333  0.33333333  0.40830017
   0.74910251  0.50004017  0.60527100
   0.83333333  0.83333333  0.40830017
   0.83333333  0.08333333  0.40830017
   0.66415965  0.16897785  0.50587315
   0.50014461  0.25064292  0.60082171
   0.58333333  0.33333333  0.40830017
   0.75047475  0.74989617  0.60633563
Direct configuration=    15
   0.24947103  0.75003802  0.61274778
   0.91540430  0.91765119  0.50613217
  -0.00225724  0.50215309  0.60977080
  -0.00107874  0.25067674  0.61196439
   0.08333333  0.58333333  0.40830017
   0.83333333  0.58333333  0.40830017
   0.08333333  0.33333333  0.40830017
   0.00028159 -0.00046775  0.61400245
   0.91401690  0.16965978  0.50564094
   0.66685227  0.66665134  0.51071664
   0.41665225  0.66582453  0.50913041
   0.16932294  0.16648607  0.50697237
   0.91793088  0.66666318  0.50893429
   0.58333333  0.58333333  0.40830017
   0.25135964  0.24901610  0.60925413
   0.33333333  0.58333333  0.40830017
   0.74917807 -0.00022136  0.60923105
   0.25175546  0.50009515  0.60724821
   0.16772571  0.91585750  0.50608565
   0.58333333  0.08333333  0.40830017
   0.50108267  0.74873847  0.61361140
   0.49969062 -0.00036516  0.60738722
   0.58333333  0.83333333  0.40830017
   0.74629640  0.25319738  0.60900192
   0.33333333  0.83333333  0.40830017
   0.16795129  0.66518738  0.50822229
   0.17076044  0.41511698  0.50808279
   0.33333333  0.33333333  0.40830017
   0.91674873  0.41606488  0.50878925
   0.33333333  0.08333333  0.40830017
  -0.00037604  0.75088506  0.60591611
   0.08333333  0.83333333  0.40830017
   0.66464167  0.92035885  0.50803250
   0.24980474 -0.00095037  0.60506897
   0.41741613  0.16631610  0.50606808
   0.50042081  0.49938629  0.60373188
   0.41674954  0.41445137  0.50544980
   0.08333333  0.08333333  0.40830017
   0.66575430  0.41478471  0.50697757
   0.41813877  0.91739793  0.50744345
   0.83333333  0.33333333  0.40830017
   0.74912090  0.50002951  0.60530222
   0.83333333  0.83333333  0.40830017
   0.83333333  0.08333333  0.40830017
   0.66412191  0.16900819  0.50587878
   0.50014943  0.25062609  0.60086654
   0.58333333  0.33333333  0.40830017
   0.75048852  0.74989737  0.60635409
Direct configuration=    16
   0.24947100  0.75011181  0.61277885
   0.91539914  0.91760530  0.50618536
  -0.00208812  0.50199563  0.60981069
  -0.00108037  0.25059287  0.61199642
   0.08333333  0.58333333  0.40830017
   0.83333333  0.58333333  0.40830017
   0.08333333  0.33333333  0.40830017
   0.00007437 -0.00027503  0.61407685
   0.91403841  0.16971419  0.50560779
   0.66675813  0.66674118  0.51086457
   0.41653389  0.66607206  0.50918372
   0.16912011  0.16666886  0.50709545
   0.91787407  0.66669773  0.50907577
   0.58333333  0.58333333  0.40830017
   0.25135912  0.24914561  0.60924926
   0.33333333  0.58333333  0.40830017
   0.74922221 -0.00016839  0.60922923
   0.25182059  0.49997088  0.60736460
   0.16780464  0.91567083  0.50617117
   0.58333333  0.08333333  0.40830017
   0.50089657  0.74890900  0.61370545
   0.49968722 -0.00033544  0.60746416
   0.58333333  0.83333333  0.40830017
   0.74644397  0.25304397  0.60899895
   0.33333333  0.83333333  0.40830017
   0.16788369  0.66534428  0.50829894
   0.17071213  0.41517028  0.50807581
   0.33333333  0.33333333  0.40830017
   0.91684567  0.41603778  0.50888739
   0.33333333  0.08333333  0.40830017
  -0.00041316  0.75094867  0.60596049
   0.08333333  0.83333333  0.40830017
   0.66475491  0.92027296  0.50802150
   0.24977132 -0.00095115  0.60510736
   0.41731966  0.16632139  0.50613042
   0.50037428  0.49939983  0.60389615
   0.41659867  0.41453663  0.50553237
   0.08333333  0.08333333  0.40830017
   0.66577283  0.41473809  0.50698886
   0.41833885  0.91709686  0.50746601
   0.83333333  0.33333333  0.40830017
   0.74915327  0.50000407  0.60544187
   0.83333333  0.83333333  0.40830017
   0.83333333  0.08333333  0.40830017
   0.66424159  0.16898237  0.50590535
   0.50009193  0.25062008  0.60109630
   0.58333333  0.33333333  0.40830017
   0.75049372  0.75004941  0.60644029
