unknown system                          
           1
    11.002582    0.000000    0.000000
     5.501291    9.528515    0.000000
     0.000000    0.000000   24.491785
   Au   Pd
  24  24
Direct configuration=     1
   0.08333333  0.08333333  0.40830017
   0.83333333  0.83333333  0.40830017
   0.66666667  0.66666667  0.50000000
   0.75000000  0.25000000  0.59169983
   0.83333333  0.33333333  0.40830017
   0.83333333  0.08333333  0.40830017
   0.50000000  0.50000000  0.59169983
   0.41666667  0.41666667  0.50000000
   0.41666667  0.16666667  0.50000000
   0.58333333  0.08333333  0.40830017
   0.66666667  0.91666667  0.50000000
   0.33333333  0.83333333  0.40830017
   0.25000000  0.50000000  0.59169983
   0.33333333  0.33333333  0.40830017
   0.25000000  0.75000000  0.59169983
   0.16666667  0.16666667  0.50000000
   0.91666667  0.16666667  0.50000000
   0.00000000  0.25000000  0.59169983
   0.25000000  0.00000000  0.59169983
   0.91666667  0.66666667  0.50000000
   0.00000000  0.50000000  0.59169983
   0.08333333  0.83333333  0.40830017
   0.75000000  0.75000000  0.59169983
   0.00000000  0.75000000  0.59169983
   0.91666667  0.91666667  0.50000000
   0.16666667  0.41666667  0.50000000
   0.75000000  0.50000000  0.59169983
   0.00000000  0.00000000  0.59169983
   0.83333333  0.58333333  0.40830017
   0.08333333  0.33333333  0.40830017
   0.66666667  0.41666667  0.50000000
   0.91666667  0.41666667  0.50000000
   0.75000000  0.00000000  0.59169983
   0.66666667  0.16666667  0.50000000
   0.25000000  0.25000000  0.59169983
   0.50000000  0.75000000  0.59169983
   0.41666667  0.91666667  0.50000000
   0.58333333  0.83333333  0.40830017
   0.08333333  0.58333333  0.40830017
   0.33333333  0.58333333  0.40830017
   0.58333333  0.58333333  0.40830017
   0.50000000  0.25000000  0.59169983
   0.16666667  0.66666667  0.50000000
   0.58333333  0.33333333  0.40830017
   0.50000000  0.00000000  0.59169983
   0.33333333  0.08333333  0.40830017
   0.16666667  0.91666667  0.50000000
   0.41666667  0.66666667  0.50000000
Direct configuration=     2
   0.08443320  0.08359749  0.40611218
   0.83371172  0.83215045  0.40614019
   0.66540350  0.66551476  0.49964930
   0.74946585  0.24948879  0.59351528
   0.83237294  0.33523512  0.40641416
   0.83222927  0.08392603  0.40634812
   0.50096771  0.50014655  0.59357678
   0.41735157  0.41719965  0.49959104
   0.41636932  0.16625872  0.50072480
   0.58283587  0.08355416  0.40606201
   0.66568955  0.91801179  0.50040514
   0.33463844  0.83267937  0.40678610
   0.25025770  0.49878824  0.59362739
   0.33208810  0.33438024  0.40620957
   0.24996436  0.75085881  0.59325503
   0.16750387  0.16735355  0.49966632
   0.91603048  0.16596662  0.50040668
  -0.00025423  0.25059867  0.59386556
   0.25116509 -0.00073697  0.59352757
   0.91869448  0.66499175  0.49920644
   0.00039097  0.49872604  0.59364797
   0.08421689  0.83170409  0.40677080
   0.74849887  0.75074594  0.59414564
  -0.00045901  0.75179776  0.59356330
   0.91706539  0.91712612  0.50049022
   0.16579570  0.41709135  0.49967719
   0.74951645  0.50023565  0.59270603
  -0.00038838 -0.00034730  0.59270091
   0.83345524  0.58291835  0.40716731
   0.08306950  0.33409525  0.40724939
   0.66622407  0.41747553  0.49972050
   0.91641583  0.41723400  0.49965676
   0.74971568  0.00065021  0.59270011
   0.66684021  0.16688964  0.50034015
   0.25066081  0.24992878  0.59290303
   0.50004697  0.75016869  0.59260446
   0.41683142  0.91592791  0.50006839
   0.58303061  0.83280841  0.40711999
   0.08359740  0.58262519  0.40736576
   0.33379500  0.58313188  0.40746392
   0.58342034  0.58314844  0.40742410
   0.50025119  0.24883446  0.59286226
   0.16683399  0.66692247  0.49944728
   0.58313084  0.33434357  0.40732662
   0.49987650  0.00046900  0.59282058
   0.33350356  0.08297190  0.40705927
   0.16700965  0.91541947  0.50024198
   0.41673551  0.66699342  0.49966641
Direct configuration=     3
   0.08772456  0.08438799  0.39956456
   0.83484407  0.82861065  0.39967640
   0.66162345  0.66206765  0.49859982
   0.74786739  0.24795899  0.59894808
   0.82949892  0.34092626  0.40077020
   0.82892534  0.08569968  0.40050656
   0.50386361  0.50058512  0.59919362
   0.41940118  0.41879463  0.49836721
   0.41547952  0.16503792  0.50289377
   0.58134718  0.08421498  0.39936425
   0.66276551  0.92203710  0.50161755
   0.33854399  0.83072238  0.40225519
   0.25102888  0.49516201  0.59939567
   0.32836170  0.33751314  0.39995339
   0.24985770  0.75342882  0.59790901
   0.17000923  0.16940906  0.49866775
   0.91412669  0.16387172  0.50162369
  -0.00101500  0.25239020  0.60034657
   0.25465166 -0.00294238  0.59899714
   0.92476277  0.65997952  0.49683168
   0.00156097  0.49491367  0.59947785
   0.08686095  0.82682854  0.40219413
   0.74400670  0.75297819  0.60146478
  -0.00183263  0.75717759  0.59913980
   0.91825857  0.91850105  0.50195721
   0.16318932  0.41836222  0.49871119
   0.74806942  0.50094083  0.59571710
  -0.00155064 -0.00138660  0.59569665
   0.83382006  0.58167650  0.40377720
   0.08227997  0.33637529  0.40410489
   0.66489960  0.41989606  0.49888410
   0.91566519  0.41893177  0.49862959
   0.74886483  0.00259600  0.59569348
   0.66735956  0.16755690  0.50135805
   0.25263831  0.24971565  0.59650364
   0.50018752  0.75067350  0.59531159
   0.41732444  0.91371717  0.50027307
   0.58212470  0.83123755  0.40358829
   0.08438762  0.58050605  0.40456951
   0.33517656  0.58252901  0.40496144
   0.58368073  0.58259514  0.40480243
   0.50100288  0.24534654  0.59634087
   0.16733471  0.66768796  0.49779326
   0.58252486  0.33736673  0.40441324
   0.49950692  0.00187251  0.59617444
   0.33401298  0.08189031  0.40334584
   0.16803604  0.91168718  0.50096613
   0.41694153  0.66797124  0.49866813
Direct configuration=     4
   0.08615774  0.08449137  0.39812233
   0.83373675  0.82946772  0.39815410
   0.66440906  0.66456785  0.49902573
   0.74795413  0.24871941  0.60075507
   0.83100320  0.33854667  0.39916312
   0.83028062  0.08546238  0.39910026
   0.50229000  0.50060579  0.60070653
   0.41818746  0.41803426  0.49898664
   0.41567206  0.16750122  0.50204182
   0.58021910  0.08464060  0.39774500
   0.66619575  0.91817726  0.50112093
   0.33751891  0.83111116  0.40073328
   0.25145811  0.49650716  0.60056763
   0.32979615  0.33611415  0.39830923
   0.25082114  0.75109984  0.59922814
   0.16712787  0.16799702  0.49891855
   0.91582342  0.16563590  0.50115816
  -0.00046230  0.25036434  0.60185351
   0.25335085 -0.00064225  0.60040913
   0.92044894  0.66428711  0.49781071
   0.00007165  0.49792897  0.60095623
   0.08606558  0.82875295  0.40072962
   0.74557514  0.75207932  0.60299935
  -0.00216331  0.75444532  0.60051300
   0.91780853  0.91646823  0.50117119
   0.16624302  0.41753686  0.49916826
   0.74874024  0.50095004  0.59645710
  -0.00111470  0.00070413  0.59702446
   0.83313124  0.58279277  0.40240657
   0.08197144  0.33592895  0.40279373
   0.66647521  0.41713130  0.49925606
   0.91563682  0.41668532  0.49894994
   0.74848173  0.00190298  0.59693917
   0.66639841  0.16828127  0.50088743
   0.25212637  0.24868520  0.59778548
   0.50061139  0.75044911  0.59619662
   0.41612358  0.91405820  0.50026656
   0.58357611  0.83129966  0.40277757
   0.08469910  0.58029331  0.40275705
   0.33578042  0.58216320  0.40368567
   0.58323405  0.58289265  0.40314432
   0.50070420  0.24641062  0.59745242
   0.16801095  0.66718548  0.49865161
   0.58220673  0.33690191  0.40330920
   0.49966008  0.00154539  0.59779600
   0.33504831  0.08235353  0.40233631
   0.16826148  0.91304132  0.50058691
   0.41464729  0.66844306  0.49909229
Direct configuration=     5
   0.08560523  0.08452783  0.39761375
   0.83334627  0.82976995  0.39761728
   0.66539137  0.66544951  0.49917591
   0.74798471  0.24898756  0.60139228
   0.83153366  0.33770754  0.39859640
   0.83075853  0.08537870  0.39860436
   0.50173509  0.50061308  0.60124004
   0.41775946  0.41776613  0.49920508
   0.41573996  0.16836986  0.50174139
   0.57982130  0.08479069  0.39717400
   0.66740537  0.91681614  0.50094581
   0.33715743  0.83124826  0.40019659
   0.25160947  0.49698151  0.60098090
   0.33030199  0.33562081  0.39772944
   0.25116088  0.75027856  0.59969331
   0.16611180  0.16749909  0.49900699
   0.91642174  0.16625801  0.50099400
  -0.00026740  0.24964995  0.60238491
   0.25289213  0.00016886  0.60090705
   0.91892774  0.66580611  0.49815595
  -0.00045354  0.49899227  0.60147757
   0.08578511  0.82943157  0.40021318
   0.74612823  0.75176235  0.60354049
  -0.00227992  0.75348182  0.60099724
   0.91764983  0.91575138  0.50089401
   0.16731986  0.41724580  0.49932944
   0.74897680  0.50095329  0.59671805
  -0.00096098  0.00144140  0.59749269
   0.83288834  0.58318641  0.40192323
   0.08186263  0.33577156  0.40233137
   0.66703083  0.41615635  0.49938723
   0.91562681  0.41589314  0.49906290
   0.74834664  0.00165860  0.59737845
   0.66605947  0.16853671  0.50072147
   0.25194584  0.24832182  0.59823750
   0.50076086  0.75036998  0.59650872
   0.41570012  0.91417845  0.50026427
   0.58408792  0.83132156  0.40249168
   0.08480894  0.58021829  0.40211791
   0.33599336  0.58203420  0.40323578
   0.58307654  0.58299756  0.40255962
   0.50059888  0.24678585  0.59784439
   0.16824941  0.66700829  0.49895429
   0.58209455  0.33673800  0.40291988
   0.49971409  0.00143003  0.59836782
   0.33541340  0.08251687  0.40198032
   0.16834098  0.91351884  0.50045318
   0.41383825  0.66860944  0.49924187
Direct configuration=     6
   0.08537437  0.08424973  0.39724797
   0.83327950  0.83081486  0.39721485
   0.66570993  0.66519629  0.49935910
   0.74809013  0.24930338  0.60182416
   0.83181612  0.33688417  0.39821481
   0.83109529  0.08491104  0.39838079
   0.50168734  0.50021477  0.60155989
   0.41748981  0.41809299  0.49951598
   0.41634133  0.16701138  0.50125474
   0.58057932  0.08458950  0.39682607
   0.66663858  0.91761640  0.50074955
   0.33648541  0.83200293  0.39983685
   0.25124026  0.49727557  0.60122051
   0.33082882  0.33520832  0.39732987
   0.25047028  0.75075433  0.59995279
   0.16642529  0.16697427  0.49912290
   0.91626707  0.16560307  0.50073025
  -0.00036255  0.25020860  0.60281746
   0.25258271 -0.00010769  0.60120593
   0.91945691  0.66488601  0.49853329
  -0.00038834  0.49915296  0.60164630
   0.08516470  0.83017752  0.39998070
   0.74662359  0.75151660  0.60399663
  -0.00203044  0.75310013  0.60121399
   0.91786414  0.91622105  0.50051081
   0.16647559  0.41793812  0.49955468
   0.74927496  0.50065960  0.59671539
  -0.00057231  0.00084411  0.59756878
   0.83294409  0.58310960  0.40169949
   0.08206874  0.33541079  0.40219242
   0.66675100  0.41655391  0.49954900
   0.91628711  0.41613230  0.49922222
   0.74860478  0.00133432  0.59746947
   0.66712573  0.16741590  0.50044732
   0.25109153  0.24895703  0.59837724
   0.50078008  0.75040452  0.59659989
   0.41529690  0.91541459  0.50027278
   0.58414297  0.83162804  0.40244975
   0.08445703  0.58077483  0.40192892
   0.33567293  0.58198705  0.40294174
   0.58340073  0.58297088  0.40240953
   0.50032426  0.24736823  0.59806122
   0.16725755  0.66720250  0.49934596
   0.58228061  0.33607834  0.40270992
   0.50011253  0.00112133  0.59850685
   0.33495673  0.08274456  0.40199618
   0.16763116  0.91423746  0.50031699
   0.41490574  0.66785381  0.49941808
Direct configuration=     7
   0.08528781  0.08414547  0.39711082
   0.83325446  0.83120664  0.39706397
   0.66582937  0.66510135  0.49942779
   0.74812966  0.24942179  0.60198609
   0.83192203  0.33657545  0.39807173
   0.83122155  0.08473569  0.39829697
   0.50166943  0.50006543  0.60167981
   0.41738871  0.41821554  0.49963256
   0.41656681  0.16650203  0.50107227
   0.58086353  0.08451406  0.39669562
   0.66635107  0.91791645  0.50067596
   0.33623343  0.83228589  0.39970197
   0.25110182  0.49738583  0.60131035
   0.33102635  0.33505365  0.39718005
   0.25021135  0.75093273  0.60005008
   0.16654283  0.16677749  0.49916636
   0.91620908  0.16535751  0.50063136
  -0.00039822  0.25041806  0.60297964
   0.25246669 -0.00021138  0.60131800
   0.91965532  0.66454102  0.49867477
  -0.00036389  0.49921320  0.60170956
   0.08493208  0.83045721  0.39989352
   0.74680932  0.75142446  0.60416765
  -0.00193690  0.75295702  0.60129526
   0.91794449  0.91639715  0.50036713
   0.16615904  0.41819770  0.49963914
   0.74938676  0.50054948  0.59671439
  -0.00042658  0.00062016  0.59759730
   0.83296499  0.58308080  0.40161560
   0.08214602  0.33527552  0.40214032
   0.66664608  0.41670297  0.49960965
   0.91653468  0.41622198  0.49928196
   0.74870157  0.00121273  0.59750360
   0.66752552  0.16699566  0.50034453
   0.25077121  0.24919520  0.59842964
   0.50078729  0.75041748  0.59663408
   0.41514572  0.91587808  0.50027597
   0.58416361  0.83174295  0.40243403
   0.08432508  0.58098350  0.40185806
   0.33555278  0.58196937  0.40283149
   0.58352229  0.58296087  0.40235325
   0.50022129  0.24758658  0.59814252
   0.16688565  0.66727532  0.49949281
   0.58235037  0.33583100  0.40263120
   0.50026193  0.00100559  0.59855898
   0.33478551  0.08282993  0.40200213
   0.16736502  0.91450691  0.50026592
   0.41530599  0.66757048  0.49948414
Direct configuration=     8
   0.08527680  0.08420067  0.39685092
   0.83339849  0.83117362  0.39690767
   0.66568439  0.66516845  0.49947251
   0.74848075  0.24910090  0.60212596
   0.83186243  0.33649610  0.39797663
   0.83120635  0.08477324  0.39808698
   0.50163689  0.50017489  0.60187263
   0.41739260  0.41789801  0.49974025
   0.41640137  0.16673955  0.50089325
   0.58115501  0.08442283  0.39639661
   0.66655223  0.91776041  0.50060115
   0.33629081  0.83221092  0.39964457
   0.25093240  0.49740630  0.60149107
   0.33098386  0.33515934  0.39706136
   0.25010723  0.75118741  0.60011082
   0.16646185  0.16711469  0.49926118
   0.91581780  0.16564253  0.50056141
  -0.00054225  0.25066446  0.60321297
   0.25248064 -0.00041792  0.60146432
   0.91946615  0.66466843  0.49874544
  -0.00031473  0.49906803  0.60184295
   0.08509790  0.83024810  0.39983177
   0.74679149  0.75146365  0.60444735
  -0.00201587  0.75326555  0.60138344
   0.91799431  0.91622406  0.50017835
   0.16619654  0.41783480  0.49970233
   0.74935192  0.50049225  0.59668210
  -0.00060029  0.00042355  0.59749233
   0.83313578  0.58301270  0.40163910
   0.08232875  0.33514952  0.40223445
   0.66671339  0.41673648  0.49963041
   0.91698184  0.41586700  0.49929785
   0.74891187  0.00124785  0.59736006
   0.66780469  0.16677784  0.50024913
   0.25075341  0.24932619  0.59830405
   0.50074732  0.75036202  0.59659565
   0.41515214  0.91574360  0.50030488
   0.58403754  0.83186300  0.40253581
   0.08406159  0.58132791  0.40195239
   0.33526860  0.58210189  0.40288306
   0.58366941  0.58295252  0.40244929
   0.50004003  0.24754652  0.59804571
   0.16658924  0.66771090  0.49961997
   0.58240704  0.33571225  0.40267139
   0.50025969  0.00111876  0.59849203
   0.33445224  0.08300280  0.40201790
   0.16751555  0.91418160  0.50015812
   0.41562282  0.66769386  0.49952044
Direct configuration=     9
   0.08526611  0.08425433  0.39659832
   0.83353847  0.83114151  0.39675576
   0.66554348  0.66523367  0.49951598
   0.74882199  0.24878901  0.60226191
   0.83180452  0.33641899  0.39788421
   0.83119157  0.08480973  0.39788288
   0.50160526  0.50028128  0.60206003
   0.41739638  0.41758939  0.49984492
   0.41624057  0.16697041  0.50071925
   0.58143831  0.08433416  0.39610599
   0.66674774  0.91760875  0.50052843
   0.33634657  0.83213806  0.39958879
   0.25076774  0.49742619  0.60166671
   0.33094256  0.33526206  0.39694600
   0.25000603  0.75143494  0.60016986
   0.16638314  0.16744242  0.49935334
   0.91543752  0.16591955  0.50049343
  -0.00068224  0.25090394  0.60343975
   0.25249420 -0.00061867  0.60160653
   0.91928229  0.66479227  0.49881413
  -0.00026696  0.49892694  0.60197259
   0.08525906  0.83004485  0.39977175
   0.74677415  0.75150174  0.60471920
  -0.00209263  0.75356541  0.60146915
   0.91804274  0.91605582  0.49999487
   0.16623299  0.41748209  0.49976375
   0.74931806  0.50043662  0.59665073
  -0.00076913  0.00023245  0.59739030
   0.83330178  0.58294650  0.40166194
   0.08250636  0.33502706  0.40232594
   0.66677881  0.41676904  0.49965059
   0.91741644  0.41552199  0.49931329
   0.74911626  0.00128199  0.59722054
   0.66807602  0.16656613  0.50015640
   0.25073611  0.24945351  0.59818199
   0.50070848  0.75030813  0.59655830
   0.41515839  0.91561290  0.50033299
   0.58391502  0.83197968  0.40263473
   0.08380550  0.58166264  0.40204408
   0.33499239  0.58223069  0.40293317
   0.58381240  0.58294441  0.40254264
   0.49986385  0.24750758  0.59795162
   0.16630115  0.66813425  0.49974355
   0.58246211  0.33559684  0.40271044
   0.50025752  0.00122875  0.59842696
   0.33412833  0.08317081  0.40203322
   0.16766186  0.91386542  0.50005335
   0.41593075  0.66781377  0.49955571
Direct configuration=    10
   0.08522358  0.08429021  0.39633259
   0.83356864  0.83095449  0.39657794
   0.66579211  0.66515393  0.49956964
   0.74886496  0.24863179  0.60237589
   0.83178095  0.33652785  0.39781237
   0.83133310  0.08478538  0.39759715
   0.50157669  0.50027843  0.60225737
   0.41735256  0.41769609  0.49993052
   0.41643722  0.16689353  0.50050549
   0.58138047  0.08428855  0.39573999
   0.66680212  0.91754377  0.50045917
   0.33648088  0.83200403  0.39955888
   0.25063892  0.49761870  0.60185963
   0.33082479  0.33547584  0.39683724
   0.25006112  0.75140267  0.60021738
   0.16626600  0.16720403  0.49948412
   0.91550699  0.16597791  0.50044178
  -0.00064055  0.25073718  0.60369700
   0.25238063 -0.00049429  0.60172458
   0.91913977  0.66477179  0.49890778
  -0.00039342  0.49905993  0.60214324
   0.08546114  0.82993861  0.39968490
   0.74668571  0.75156731  0.60502711
  -0.00220873  0.75366719  0.60156068
   0.91808879  0.91596681  0.49975803
   0.16622931  0.41759229  0.49979761
   0.74920682  0.50046739  0.59660820
  -0.00087667  0.00035220  0.59718628
   0.83343934  0.58287410  0.40176065
   0.08256776  0.33503425  0.40243809
   0.66677024  0.41676123  0.49969172
   0.91742093  0.41544612  0.49931313
   0.74908874  0.00136851  0.59699582
   0.66805888  0.16649967  0.50005453
   0.25086874  0.24927508  0.59803727
   0.50075938  0.75028440  0.59654510
   0.41506132  0.91568439  0.50038634
   0.58385738  0.83209354  0.40276645
   0.08370827  0.58171512  0.40223952
   0.33491609  0.58223562  0.40313124
   0.58390436  0.58290912  0.40268525
   0.49990793  0.24742765  0.59777302
   0.16641271  0.66811465  0.49989231
   0.58234425  0.33571896  0.40281878
   0.50020808  0.00134177  0.59826756
   0.33404853  0.08328454  0.40205297
   0.16775004  0.91386033  0.49992350
   0.41594313  0.66771733  0.49957417
Direct configuration=    11
   0.08512978  0.08436934  0.39574649
   0.83363520  0.83054199  0.39618576
   0.66634049  0.66497808  0.49968801
   0.74895975  0.24828502  0.60262729
   0.83172896  0.33676797  0.39765395
   0.83164525  0.08473168  0.39696694
   0.50151369  0.50027213  0.60269260
   0.41725591  0.41793143  0.50011932
   0.41687094  0.16672395  0.50003403
   0.58125291  0.08418797  0.39493273
   0.66692206  0.91740046  0.50030642
   0.33677710  0.83170843  0.39949292
   0.25035480  0.49804331  0.60228515
   0.33056505  0.33594733  0.39659738
   0.25018261  0.75133150  0.60032218
   0.16600763  0.16667826  0.49977259
   0.91566022  0.16610662  0.50032788
  -0.00054859  0.25036937  0.60426439
   0.25213014 -0.00021996  0.60198493
   0.91882545  0.66472661  0.49911436
  -0.00067235  0.49935324  0.60251964
   0.08590686  0.82970430  0.39949334
   0.74649065  0.75171194  0.60570623
  -0.00246480  0.75389168  0.60176255
   0.91819035  0.91577049  0.49923567
   0.16622119  0.41783533  0.49987231
   0.74896148  0.50053524  0.59651439
  -0.00111386  0.00061633  0.59673630
   0.83374275  0.58271441  0.40197835
   0.08270317  0.33505013  0.40268545
   0.66675135  0.41674399  0.49978244
   0.91743083  0.41527879  0.49931276
   0.74902803  0.00155934  0.59650015
   0.66802107  0.16635311  0.49982984
   0.25116125  0.24888156  0.59771808
   0.50087165  0.75023206  0.59651598
   0.41484724  0.91584205  0.50050401
   0.58373026  0.83234466  0.40305697
   0.08349384  0.58183085  0.40267058
   0.33474780  0.58224651  0.40356809
   0.58410718  0.58283130  0.40299979
   0.50000514  0.24725136  0.59737910
   0.16665878  0.66807140  0.50022041
   0.58208429  0.33598830  0.40305772
   0.50009902  0.00159103  0.59791601
   0.33387250  0.08353538  0.40209651
   0.16794453  0.91384911  0.49963712
   0.41597045  0.66750463  0.49961489
Direct configuration=    12
   0.08526856  0.08437452  0.39558467
   0.83352838  0.83065240  0.39601340
   0.66621831  0.66504532  0.49980839
   0.74849023  0.24877248  0.60262145
   0.83182894  0.33678090  0.39764165
   0.83151560  0.08469235  0.39667567
   0.50162288  0.49996389  0.60282642
   0.41726700  0.41808937  0.50025049
   0.41674824  0.16668063  0.49975147
   0.58106823  0.08441517  0.39458608
   0.66688365  0.91745176  0.50021379
   0.33685273  0.83186653  0.39949737
   0.25045545  0.49784068  0.60243259
   0.33057641  0.33595996  0.39653131
   0.25016990  0.75145063  0.60033173
   0.16616996  0.16645081  0.49977728
   0.91572627  0.16580371  0.50020559
  -0.00063272  0.25047217  0.60444339
   0.25216270 -0.00030965  0.60205925
   0.91918033  0.66471101  0.49932762
  -0.00072413  0.49922872  0.60262960
   0.08573821  0.82983058  0.39939416
   0.74620348  0.75195500  0.60596087
  -0.00265492  0.75395676  0.60178670
   0.91823181  0.91587260  0.49896918
   0.16629478  0.41794571  0.50000105
   0.74914045  0.50034526  0.59653759
  -0.00088663  0.00060716  0.59644977
   0.83361986  0.58276286  0.40209681
   0.08264260  0.33495304  0.40281988
   0.66676636  0.41650099  0.49993171
   0.91728585  0.41534012  0.49944167
   0.74889263  0.00129416  0.59625462
   0.66813082  0.16648302  0.49960172
   0.25108782  0.24910040  0.59759821
   0.50081008  0.75039868  0.59653519
   0.41491343  0.91577733  0.50058188
   0.58385731  0.83224967  0.40314753
   0.08370620  0.58164639  0.40291543
   0.33501569  0.58211708  0.40379932
   0.58404913  0.58289382  0.40313115
   0.49996999  0.24754812  0.59717399
   0.16666981  0.66783899  0.50039995
   0.58215484  0.33588140  0.40316793
   0.50019676  0.00135060  0.59771027
   0.33397628  0.08349486  0.40212033
   0.16788401  0.91397079  0.49953378
   0.41592641  0.66749126  0.49973009
Direct configuration=    13
   0.08535644  0.08437780  0.39548221
   0.83346074  0.83072232  0.39590427
   0.66614095  0.66508789  0.49988461
   0.74819294  0.24908113  0.60261776
   0.83189224  0.33678909  0.39763386
   0.83143351  0.08466746  0.39649125
   0.50169201  0.49976871  0.60291116
   0.41727403  0.41818937  0.50033354
   0.41667055  0.16665320  0.49957256
   0.58095128  0.08455902  0.39436658
   0.66685933  0.91748424  0.50015514
   0.33690062  0.83196664  0.39950019
   0.25051919  0.49771237  0.60252594
   0.33058361  0.33596796  0.39648948
   0.25016186  0.75152607  0.60033777
   0.16627274  0.16630680  0.49978026
   0.91576810  0.16561191  0.50012816
  -0.00068598  0.25053725  0.60455673
   0.25218332 -0.00036645  0.60210631
   0.91940503  0.66470113  0.49946266
  -0.00075692  0.49914988  0.60269922
   0.08563142  0.82991054  0.39933136
   0.74602166  0.75210890  0.60612211
  -0.00277530  0.75399797  0.60180199
   0.91825806  0.91593726  0.49880045
   0.16634137  0.41801561  0.50008256
   0.74925377  0.50022498  0.59655227
  -0.00074274  0.00060136  0.59626835
   0.83354205  0.58279354  0.40217183
   0.08260425  0.33489157  0.40290499
   0.66677587  0.41634713  0.50002623
   0.91719405  0.41537895  0.49952330
   0.74880690  0.00112624  0.59609915
   0.66820031  0.16656528  0.49945728
   0.25104132  0.24923896  0.59752231
   0.50077108  0.75050419  0.59654736
   0.41495534  0.91573635  0.50063118
   0.58393775  0.83218952  0.40320487
   0.08384066  0.58152959  0.40307046
   0.33518532  0.58203512  0.40394573
   0.58401238  0.58293340  0.40321432
   0.49994774  0.24773603  0.59704412
   0.16667680  0.66769183  0.50051363
   0.58219952  0.33581371  0.40323771
   0.50025864  0.00119836  0.59757999
   0.33404199  0.08346920  0.40213542
   0.16784570  0.91404783  0.49946835
   0.41589852  0.66748280  0.49980303
Direct configuration=    14
   0.08547145  0.08432854  0.39540127
   0.83336447  0.83078098  0.39576576
   0.66609936  0.66509753  0.50006869
   0.74821356  0.24896212  0.60248746
   0.83194396  0.33665388  0.39770775
   0.83129212  0.08474820  0.39618136
   0.50152058  0.50006922  0.60302888
   0.41729029  0.41806284  0.50044830
   0.41663093  0.16681881  0.49932503
   0.58082818  0.08469925  0.39402454
   0.66702013  0.91749873  0.49995721
   0.33680747  0.83213952  0.39955775
   0.25047663  0.49769251  0.60268295
   0.33059407  0.33591851  0.39647032
   0.25017418  0.75138659  0.60031761
   0.16622834  0.16642131  0.49972932
   0.91586600  0.16551362  0.49992859
  -0.00074080  0.25051018  0.60462014
   0.25220507 -0.00022797  0.60214281
   0.91939495  0.66491166  0.49971693
  -0.00085343  0.49915345  0.60280670
   0.08560655  0.82989066  0.39924748
   0.74591161  0.75203118  0.60631369
  -0.00280960  0.75397325  0.60178307
   0.91821886  0.91593645  0.49853555
   0.16650537  0.41776728  0.50027409
   0.74931080  0.50031680  0.59667663
  -0.00081682  0.00073809  0.59594143
   0.83342966  0.58295623  0.40237660
   0.08256335  0.33482931  0.40308182
   0.66693959  0.41624056  0.50019906
   0.91715894  0.41534378  0.49973975
   0.74874394  0.00119821  0.59583554
   0.66819263  0.16652986  0.49917171
   0.25100929  0.24930920  0.59742835
   0.50071784  0.75035498  0.59665035
   0.41502134  0.91552537  0.50067787
   0.58414558  0.83209536  0.40323906
   0.08402536  0.58140905  0.40332300
   0.33532848  0.58216818  0.40416833
   0.58396972  0.58293313  0.40336488
   0.49988554  0.24768615  0.59680714
   0.16668365  0.66777661  0.50070761
   0.58242451  0.33565521  0.40328878
   0.50011226  0.00130854  0.59736251
   0.33420803  0.08332052  0.40208846
   0.16792034  0.91389117  0.49934896
   0.41576567  0.66767538  0.49999889
Direct configuration=    15
   0.08556355  0.08428909  0.39533645
   0.83328737  0.83082796  0.39565484
   0.66606606  0.66510525  0.50021611
   0.74823008  0.24886682  0.60238312
   0.83198539  0.33654560  0.39776692
   0.83117889  0.08481287  0.39593320
   0.50138329  0.50030988  0.60312315
   0.41730331  0.41796152  0.50054019
   0.41659921  0.16695143  0.49912680
   0.58072960  0.08481155  0.39375063
   0.66714890  0.91751034  0.49979870
   0.33673288  0.83227796  0.39960385
   0.25044256  0.49767660  0.60280868
   0.33060245  0.33587891  0.39645497
   0.25018405  0.75127489  0.60030146
   0.16619278  0.16651301  0.49968853
   0.91594440  0.16543490  0.49976877
  -0.00078471  0.25048849  0.60467092
   0.25222249 -0.00011707  0.60217204
   0.91938688  0.66508025  0.49992057
  -0.00093072  0.49915631  0.60289277
   0.08558664  0.82987474  0.39918031
   0.74582348  0.75196894  0.60646711
  -0.00283707  0.75395346  0.60176792
   0.91818747  0.91593580  0.49832341
   0.16663670  0.41756841  0.50042747
   0.74935646  0.50039034  0.59677622
  -0.00087614  0.00084759  0.59567963
   0.83333966  0.58308652  0.40254059
   0.08253060  0.33477946  0.40322344
   0.66707070  0.41615521  0.50033747
   0.91713082  0.41531562  0.49991309
   0.74869352  0.00125585  0.59562444
   0.66818648  0.16650150  0.49894302
   0.25098363  0.24936546  0.59735311
   0.50067520  0.75023550  0.59673283
   0.41507420  0.91535642  0.50071526
   0.58431201  0.83201997  0.40326644
   0.08417327  0.58131251  0.40352525
   0.33544313  0.58227473  0.40434659
   0.58393556  0.58293291  0.40348546
   0.49983572  0.24764620  0.59661736
   0.16668913  0.66784450  0.50086296
   0.58260470  0.33552828  0.40332968
   0.49999504  0.00139677  0.59718834
   0.33434099  0.08320145  0.40205086
   0.16798012  0.91376571  0.49925334
   0.41565928  0.66782961  0.50015574
Direct configuration=    16
   0.08546906  0.08425608  0.39529194
   0.83351059  0.83065433  0.39551696
   0.66628977  0.66506456  0.50042457
   0.74838704  0.24859906  0.60211666
   0.83195479  0.33661462  0.39792827
   0.83137750  0.08468610  0.39554762
   0.50142795  0.50041054  0.60324982
   0.41734979  0.41808406  0.50059291
   0.41690074  0.16660302  0.49894728
   0.58078198  0.08468372  0.39336149
   0.66703540  0.91759081  0.49952029
   0.33682529  0.83214352  0.39968000
   0.25028650  0.49776625  0.60302470
   0.33054763  0.33606376  0.39647308
   0.24981463  0.75154033  0.60034452
   0.16621833  0.16640598  0.49965852
   0.91600245  0.16555346  0.49949300
  -0.00074445  0.25030224  0.60460009
   0.25211735 -0.00004116  0.60211634
   0.91917183  0.66496239  0.50009389
  -0.00090867  0.49923504  0.60305751
   0.08568322  0.82964955  0.39909237
   0.74574016  0.75208565  0.60657503
  -0.00292807  0.75412875  0.60175151
   0.91818753  0.91591377  0.49807563
   0.16641035  0.41762730  0.50062289
   0.74916191  0.50049319  0.59707597
  -0.00099502  0.00077616  0.59529802
   0.83348393  0.58304922  0.40291152
   0.08248062  0.33496200  0.40341097
   0.66701532  0.41633425  0.50051482
   0.91726333  0.41536903  0.50015015
   0.74875150  0.00135417  0.59534381
   0.66819319  0.16628337  0.49865099
   0.25095935  0.24923887  0.59731239
   0.50062429  0.75021644  0.59697391
   0.41506864  0.91553421  0.50071988
   0.58428000  0.83204431  0.40324617
   0.08410829  0.58146044  0.40383044
   0.33541655  0.58240013  0.40454606
   0.58403675  0.58283583  0.40372372
   0.49983880  0.24743872  0.59641628
   0.16671469  0.66788641  0.50099090
   0.58253507  0.33572544  0.40332200
   0.49989949  0.00159914  0.59695809
   0.33443737  0.08304259  0.40193569
   0.16802475  0.91369959  0.49915259
   0.41579250  0.66767280  0.50035873
Direct configuration=    17
   0.08541540  0.08423733  0.39526667
   0.83363736  0.83055571  0.39543865
   0.66641683  0.66504145  0.50054296
   0.74847619  0.24844699  0.60196533