<?xml version="1.0" encoding="ISO-8859-1"?>
<modeling>
 <generator>
  <i name="program" type="string">vasp </i>
  <i name="version" type="string">5.4.1  </i>
  <i name="subversion" type="string">24Jun15 (build Mar 14 2019 10:18:33) complex                          parallel </i>
  <i name="platform" type="string">INTEL-19.0.2+OPENMPI-3.1.3 </i>
  <i name="date" type="string">2022 07 15 </i>
  <i name="time" type="string">18:42:11 </i>
 </generator>
 <incar>
  <i type="int" name="ISTART">     0</i>
  <i type="string" name="PREC">normal</i>
  <i type="string" name="ALGO"> Fast</i>
  <i type="int" name="NELM">   500</i>
  <i type="int" name="IBRION">     2</i>
  <i type="int" name="NFREE">     2</i>
  <i name="EDIFF">      0.00000100</i>
  <i name="EDIFFG">     -0.02000000</i>
  <i type="int" name="NSW">   500</i>
  <i type="int" name="ISIF">     0</i>
  <i type="int" name="ISYM">     2</i>
  <i name="ENCUT">    400.00000000</i>
  <i name="POTIM">      0.35000000</i>
  <i type="string" name="LREAL"> Auto</i>
  <i type="logical" name="LPLANE"> T  </i>
  <i type="int" name="ISMEAR">     0</i>
  <i name="SIGMA">      0.10000000</i>
  <i type="int" name="NWRITE">     1</i>
  <i type="logical" name="LWAVE"> F  </i>
  <i type="logical" name="LCHARG"> F  </i>
  <i type="logical" name="LVTOT"> F  </i>
  <i type="logical" name="LORBIT"> F  </i>
  <i type="logical" name="LAECHG"> F  </i>
  <v type="int" name="KPOINT_BSE">    -1     0     0     0</v>
  <i type="int" name="NELM">   500</i>
  <i type="string" name="GGA"> PE          ! optPBE-vdW XC-functional</i>
  <i type="int" name="VOSKOWN">     1</i>
  <i type="logical" name="LDIPOL"> T  </i>
  <i type="logical" name="LMONO"> F  </i>
  <i type="int" name="IDIPOL">     3</i>
  <v name="DIPOL">      0.00000000      0.00000000      0.50000000</v>
 </incar>
 <kpoints>
  <generation param="Monkhorst-Pack">
   <v type="int" name="divisions">       2        2        1 </v>
   <v name="usershift">      0.00000000       0.00000000       0.00000000 </v>
   <v name="genvec1">      0.50000000      -0.00000000       0.00000000 </v>
   <v name="genvec2">      0.00000000       0.50000000       0.00000000 </v>
   <v name="genvec3">      0.00000000       0.00000000       1.00000000 </v>
   <v name="shift">      0.50000000       0.50000000       0.00000000 </v>
  </generation>
  <varray name="kpointlist" >
   <v>       0.25000000       0.25000000       0.00000000 </v>
   <v>       0.00000000       0.25000000       0.00000000 </v>
   <v>      -0.25000000       0.00000000       0.00000000 </v>
   <v>      -0.25000000       0.25000000       0.00000000 </v>
   <v>       0.50000000      -0.25000000       0.00000000 </v>
   <v>      -0.25000000       0.50000000       0.00000000 </v>
  </varray>
  <varray name="weights" >
   <v>       0.16666667 </v>
   <v>       0.16666667 </v>
   <v>       0.16666667 </v>
   <v>       0.16666667 </v>
   <v>       0.16666667 </v>
   <v>       0.16666667 </v>
  </varray>
 </kpoints>
 <parameters>
  <separator name="general" >
   <i type="string" name="SYSTEM">unknown system</i>
   <i type="logical" name="LCOMPAT"> F  </i>
  </separator>
  <separator name="electronic" >
   <i type="string" name="PREC">normal</i>
   <i name="ENMAX">    400.00000000</i>
   <i name="ENAUG">    416.23000000</i>
   <i name="EDIFF">      0.00000100</i>
   <i type="int" name="IALGO">    68</i>
   <i type="int" name="IWAVPR">    11</i>
   <i type="int" name="NBANDS">   306</i>
   <i name="NELECT">    504.00000000</i>
   <i type="int" name="TURBO">     0</i>
   <i type="int" name="IRESTART">     0</i>
   <i type="int" name="NREBOOT">     0</i>
   <i type="int" name="NMIN">     0</i>
   <i name="EREF">      0.00000000</i>
   <separator name="electronic smearing" >
    <i type="int" name="ISMEAR">     0</i>
    <i name="SIGMA">      0.10000000</i>
    <i name="KSPACING">      0.50000000</i>
    <i type="logical" name="KGAMMA"> T  </i>
   </separator>
   <separator name="electronic projectors" >
    <i type="logical" name="LREAL"> T  </i>
    <v name="ROPT">     -0.00050000     -0.00050000</v>
    <i type="int" name="LMAXPAW">  -100</i>
    <i type="int" name="LMAXMIX">     2</i>
    <i type="logical" name="NLSPLINE"> F  </i>
   </separator>
   <separator name="electronic startup" >
    <i type="int" name="ISTART">     0</i>
    <i type="int" name="ICHARG">     2</i>
    <i type="int" name="INIWAV">     1</i>
   </separator>
   <separator name="electronic spin" >
    <i type="int" name="ISPIN">     1</i>
    <i type="logical" name="LNONCOLLINEAR"> F  </i>
    <v name="MAGMOM">      1.00000000      1.00000000      1.00000000      1.00000000      1.00000000      1.00000000      1.00000000      1.00000000      1.00000000      1.00000000      1.00000000      1.00000000      1.00000000      1.00000000      1.00000000      1.00000000      1.00000000      1.00000000      1.00000000      1.00000000
      1.00000000      1.00000000      1.00000000      1.00000000      1.00000000      1.00000000      1.00000000      1.00000000      1.00000000      1.00000000      1.00000000      1.00000000      1.00000000      1.00000000      1.00000000      1.00000000      1.00000000      1.00000000      1.00000000      1.00000000
      1.00000000      1.00000000      1.00000000      1.00000000      1.00000000      1.00000000      1.00000000      1.00000000</v>
    <i name="NUPDOWN">     -1.00000000</i>
    <i type="logical" name="LSORBIT"> F  </i>
    <v name="SAXIS">      0.00000000      0.00000000      1.00000000</v>
    <i type="logical" name="LSPIRAL"> F  </i>
    <v name="QSPIRAL">      0.00000000      0.00000000      0.00000000</v>
    <i type="logical" name="LZEROZ"> F  </i>
   </separator>
   <separator name="electronic exchange-correlation" >
    <i type="logical" name="LASPH"> F  </i>
    <i type="logical" name="LMETAGGA"> F  </i>
   </separator>
   <separator name="electronic convergence" >
    <i type="int" name="NELM">   500</i>
    <i type="int" name="NELMDL">    -5</i>
    <i type="int" name="NELMIN">     2</i>
    <i name="ENINI">    400.00000000</i>
    <separator name="electronic convergence detail" >
     <i type="logical" name="LDIAG"> T  </i>
     <i type="logical" name="LSUBROT"> F  </i>
     <i name="WEIMIN">      0.00100000</i>
     <i name="EBREAK">      0.00000000</i>
     <i name="DEPER">      0.30000000</i>
     <i type="int" name="NRMM">     4</i>
     <i name="TIME">      0.40000000</i>
    </separator>
   </separator>
   <separator name="electronic mixer" >
    <i name="AMIX">      0.40000000</i>
    <i name="BMIX">      1.00000000</i>
    <i name="AMIN">      0.10000000</i>
    <i name="AMIX_MAG">      1.60000000</i>
    <i name="BMIX_MAG">      1.00000000</i>
    <separator name="electronic mixer details" >
     <i type="int" name="IMIX">     4</i>
     <i type="logical" name="MIXFIRST"> F  </i>
     <i type="int" name="MAXMIX">   -45</i>
     <i name="WC">    100.00000000</i>
     <i type="int" name="INIMIX">     1</i>
     <i type="int" name="MIXPRE">     1</i>
     <i type="int" name="MREMOVE">     5</i>
    </separator>
   </separator>
   <separator name="electronic dipolcorrection" >
    <i type="logical" name="LDIPOL"> T  </i>
    <i type="logical" name="LMONO"> F  </i>
    <i type="int" name="IDIPOL">     3</i>
    <i name="EPSILON">      1.00000000</i>
    <v name="DIPOL">      0.00000000      0.00000000      0.50000000</v>
    <i name="EFIELD">      0.00000000</i>
   </separator>
  </separator>
  <separator name="grids" >
   <i type="int" name="NGX">    54</i>
   <i type="int" name="NGY">    54</i>
   <i type="int" name="NGZ">   120</i>
   <i type="int" name="NGXF">   108</i>
   <i type="int" name="NGYF">   108</i>
   <i type="int" name="NGZF">   240</i>
   <i type="logical" name="ADDGRID"> F  </i>
  </separator>
  <separator name="ionic" >
   <i type="int" name="NSW">   500</i>
   <i type="int" name="IBRION">     2</i>
   <i type="int" name="ISIF">     0</i>
   <i name="PSTRESS">      0.00000000</i>
   <i name="EDIFFG">     -0.02000000</i>
   <i type="int" name="NFREE">     2</i>
   <i name="POTIM">      0.35000000</i>
   <i name="SMASS">     -3.00000000</i>
   <i name="SCALEE">      1.00000000</i>
  </separator>
  <separator name="ionic md" >
   <i name="TEBEG">      0.00010000</i>
   <i name="TEEND">      0.00010000</i>
   <i type="int" name="NBLOCK">     1</i>
   <i type="int" name="KBLOCK">   500</i>
   <i type="int" name="NPACO">   256</i>
   <i name="APACO">     16.00000000</i>
  </separator>
  <separator name="symmetry" >
   <i type="int" name="ISYM">     2</i>
   <i name="SYMPREC">      0.00001000</i>
  </separator>
  <separator name="dos" >
   <i type="logical" name="LORBIT"> F  </i>
   <v name="RWIGS">     -1.00000000     -1.00000000</v>
   <i type="int" name="NEDOS">   301</i>
   <i name="EMIN">     10.00000000</i>
   <i name="EMAX">    -10.00000000</i>
   <i name="EFERMI">      0.00000000</i>
  </separator>
  <separator name="writing" >
   <i type="int" name="NWRITE">     1</i>
   <i type="logical" name="LWAVE"> F  </i>
   <i type="logical" name="LCHARG"> F  </i>
   <i type="logical" name="LPARD"> F  </i>
   <i type="logical" name="LVTOT"> F  </i>
   <i type="logical" name="LVHAR"> F  </i>
   <i type="logical" name="LELF"> F  </i>
   <i type="logical" name="LOPTICS"> F  </i>
   <v name="STM">      0.00000000      0.00000000      0.00000000      0.00000000      0.00000000      0.00000000      0.00000000</v>
  </separator>
  <separator name="performance" >
   <i type="int" name="NPAR">     6</i>
   <i type="int" name="NSIM">     4</i>
   <i type="int" name="NBLK">    -1</i>
   <i type="logical" name="LPLANE"> T  </i>
   <i type="logical" name="LSCALAPACK"> T  </i>
   <i type="logical" name="LSCAAWARE"> F  </i>
   <i type="logical" name="LSCALU"> F  </i>
   <i type="logical" name="LASYNC"> F  </i>
   <i type="logical" name="LORBITALREAL"> F  </i>
  </separator>
  <separator name="miscellaneous" >
   <i type="int" name="IDIOT">     3</i>
   <i type="logical" name="LMUSIC"> F  </i>
   <v name="POMASS">    196.96600000    106.42000000</v>
   <v name="DARWINR">      0.00000000      0.00000000</v>
   <v name="DARWINV">      1.00000000      1.00000000</v>
   <i type="logical" name="LCORR"> T  </i>
  </separator>
  <i type="logical" name="GGA_COMPAT"> T  </i>
  <i type="logical" name="LBERRY"> F  </i>
  <i type="int" name="ICORELEVEL">     0</i>
  <i type="logical" name="LDAU"> F  </i>
  <i type="int" name="I_CONSTRAINED_M">     0</i>
  <separator name="electronic exchange-correlation" >
   <i type="string" name="GGA">PE</i>
   <i type="int" name="VOSKOWN">     1</i>
   <i type="logical" name="LHFCALC"> F  </i>
   <i type="string" name="PRECFOCK"></i>
   <i type="logical" name="LSYMGRAD"> F  </i>
   <i type="logical" name="LHFONE"> F  </i>
   <i type="logical" name="LRHFCALC"> F  </i>
   <i type="logical" name="LTHOMAS"> F  </i>
   <i type="logical" name="LMODELHF"> F  </i>
   <i name="ENCUT4O">     -1.00000000</i>
   <i type="int" name="EXXOEP">     0</i>
   <i type="int" name="FOURORBIT">     0</i>
   <i name="AEXX">      0.00000000</i>
   <i name="HFALPHA">      0.00000000</i>
   <i name="MCALPHA">      0.00000000</i>
   <i name="ALDAX">      1.00000000</i>
   <i name="AGGAX">      1.00000000</i>
   <i name="ALDAC">      1.00000000</i>
   <i name="AGGAC">      1.00000000</i>
   <i type="int" name="NKREDX">     1</i>
   <i type="int" name="NKREDY">     1</i>
   <i type="int" name="NKREDZ">     1</i>
   <i type="logical" name="SHIFTRED"> F  </i>
   <i type="logical" name="ODDONLY"> F  </i>
   <i type="logical" name="EVENONLY"> F  </i>
   <i type="int" name="LMAXFOCK">     0</i>
   <i type="int" name="NMAXFOCKAE">     0</i>
   <i type="logical" name="LFOCKAEDFT"> F  </i>
   <i name="HFSCREEN">      0.00000000</i>
   <i name="HFSCREENC">      0.00000000</i>
   <i type="int" name="NBANDSGWLOW">     0</i>
  </separator>
  <separator name="vdW DFT" >
   <i type="logical" name="LUSE_VDW"> F  </i>
   <i name="Zab_VDW">     -0.84910000</i>
   <i name="PARAM1">      0.12340000</i>
   <i name="PARAM2">      1.00000000</i>
   <i name="PARAM3">      0.00000000</i>
  </separator>
  <separator name="model GW" >
   <i type="int" name="MODEL_GW">     0</i>
   <i name="MODEL_EPS0">     32.09595293</i>
   <i name="MODEL_ALPHA">      1.00000000</i>
  </separator>
  <separator name="linear response parameters" >
   <i type="logical" name="LEPSILON"> F  </i>
   <i type="logical" name="LRPA"> F  </i>
   <i type="logical" name="LNABLA"> F  </i>
   <i type="logical" name="LVEL"> F  </i>
   <i type="int" name="KINTER">     0</i>
   <i name="CSHIFT">      0.10000000</i>
   <i name="OMEGAMAX">     -1.00000000</i>
   <i name="DEG_THRESHOLD">      0.00200000</i>
  </separator>
  <separator name="orbital magnetization" >
   <i type="logical" name="NUCIND"> F  </i>
   <v name="MAGPOS">      0.00000000      0.00000000      0.00000000</v>
   <i type="logical" name="LNICSALL"> T  </i>
   <i type="logical" name="ORBITALMAG"> F  </i>
   <i type="logical" name="LMAGBLOCH"> F  </i>
   <i type="logical" name="LCHIMAG"> F  </i>
   <i type="logical" name="LGAUGE"> T  </i>
   <i type="int" name="MAGATOM">     0</i>
   <v name="MAGDIPOL">      0.00000000      0.00000000      0.00000000</v>
   <v name="AVECCONST">      0.00000000      0.00000000      0.00000000</v>
  </separator>
  <separator name="response functions" >
   <i type="logical" name="LADDER"> F  </i>
   <i type="logical" name="LFXC"> F  </i>
   <i type="logical" name="LHARTREE"> T  </i>
   <i type="int" name="IBSE">     0</i>
   <v type="int" name="KPOINT">    -1     0     0     0</v>
   <i type="logical" name="LTCTE"> F  </i>
   <i type="logical" name="LTETE"> F  </i>
   <i type="logical" name="LTRIPLET"> F  </i>
   <i type="logical" name="LFXCEPS"> F  </i>
   <i type="logical" name="LFXHEG"> F  </i>
   <i type="int" name="NATURALO">     0</i>
   <i type="logical" name="L2ORDER"> F  </i>
   <i type="logical" name="LUSEW"> F  </i>
   <i name="ENCUTGW">     -2.00000000</i>
   <i name="ENCUTGWSOFT">     -2.00000000</i>
   <i name="ENCUTLF">     -1.00000000</i>
   <i type="int" name="LMAXMP2">    -1</i>
   <i name="SCISSOR">      0.00000000</i>
   <i type="int" name="NOMEGA">     0</i>
   <i type="int" name="NOMEGAR">     0</i>
   <i type="int" name="NBANDSGW">    -1</i>
   <i type="int" name="NBANDSO">    -1</i>
   <i type="int" name="NBANDSV">    -1</i>
   <i type="int" name="NELM">   500</i>
   <i type="int" name="NELMHF">     1</i>
   <i type="int" name="DIM">     3</i>
   <i type="int" name="ANTIRES">     0</i>
   <i name="OMEGAMAX">    -30.00000000</i>
   <i name="OMEGAMIN">    -30.00000000</i>
   <i name="OMEGATL">   -200.00000000</i>
   <i type="int" name="OMEGAGRID">     0</i>
   <i name="CSHIFT">     -0.10000000</i>
   <i type="logical" name="SELFENERGY"> F  </i>
   <i type="logical" name="LSPECTRAL"> F  </i>
   <i type="logical" name="LSPECTRALGW"> F  </i>
   <i type="logical" name="LSINGLES"> F  </i>
   <i type="logical" name="LFERMIGW"> F  </i>
   <i type="logical" name="ODDONLYGW"> F  </i>
   <i type="logical" name="EVENONLYGW"> F  </i>
   <i type="int" name="NKREDLFX">     1</i>
   <i type="int" name="NKREDLFY">     1</i>
   <i type="int" name="NKREDLFZ">     1</i>
   <i type="int" name="MAXMEM">  1800</i>
   <i type="int" name="TELESCOPE">     0</i>
   <i type="int" name="TAUPAR">     1</i>
   <i type="int" name="OMEGAPAR">    -1</i>
   <i name="LAMBDA">      1.00000000</i>
  </separator>
  <separator name="External order field" >
   <i name="OFIELD_KAPPA">      0.00000000</i>
   <v name="OFIELD_K">      0.00000000      0.00000000      0.00000000</v>
   <i name="OFIELD_Q6_NEAR">      0.00000000</i>
   <i name="OFIELD_Q6_FAR">      0.00000000</i>
   <i name="OFIELD_A">      0.00000000</i>
  </separator>
 </parameters>
 <atominfo>
  <atoms>      48 </atoms>
  <types>       2 </types>
  <array name="atoms" >
   <dimension dim="1">ion</dimension>
   <field type="string">element</field>
   <field type="int">atomtype</field>
   <set>
    <rc><c>Au</c><c>   1</c></rc>
    <rc><c>Au</c><c>   1</c></rc>
    <rc><c>Au</c><c>   1</c></rc>
    <rc><c>Au</c><c>   1</c></rc>
    <rc><c>Au</c><c>   1</c></rc>
    <rc><c>Au</c><c>   1</c></rc>
    <rc><c>Au</c><c>   1</c></rc>
    <rc><c>Au</c><c>   1</c></rc>
    <rc><c>Au</c><c>   1</c></rc>
    <rc><c>Au</c><c>   1</c></rc>
    <rc><c>Au</c><c>   1</c></rc>
    <rc><c>Au</c><c>   1</c></rc>
    <rc><c>Au</c><c>   1</c></rc>
    <rc><c>Au</c><c>   1</c></rc>
    <rc><c>Au</c><c>   1</c></rc>
    <rc><c>Au</c><c>   1</c></rc>
    <rc><c>Au</c><c>   1</c></rc>
    <rc><c>Au</c><c>   1</c></rc>
    <rc><c>Au</c><c>   1</c></rc>
    <rc><c>Au</c><c>   1</c></rc>
    <rc><c>Au</c><c>   1</c></rc>
    <rc><c>Au</c><c>   1</c></rc>
    <rc><c>Au</c><c>   1</c></rc>
    <rc><c>Au</c><c>   1</c></rc>
    <rc><c>Pd</c><c>   2</c></rc>
    <rc><c>Pd</c><c>   2</c></rc>
    <rc><c>Pd</c><c>   2</c></rc>
    <rc><c>Pd</c><c>   2</c></rc>
    <rc><c>Pd</c><c>   2</c></rc>
    <rc><c>Pd</c><c>   2</c></rc>
    <rc><c>Pd</c><c>   2</c></rc>
    <rc><c>Pd</c><c>   2</c></rc>
    <rc><c>Pd</c><c>   2</c></rc>
    <rc><c>Pd</c><c>   2</c></rc>
    <rc><c>Pd</c><c>   2</c></rc>
    <rc><c>Pd</c><c>   2</c></rc>
    <rc><c>Pd</c><c>   2</c></rc>
    <rc><c>Pd</c><c>   2</c></rc>
    <rc><c>Pd</c><c>   2</c></rc>
    <rc><c>Pd</c><c>   2</c></rc>
    <rc><c>Pd</c><c>   2</c></rc>
    <rc><c>Pd</c><c>   2</c></rc>
    <rc><c>Pd</c><c>   2</c></rc>
    <rc><c>Pd</c><c>   2</c></rc>
    <rc><c>Pd</c><c>   2</c></rc>
    <rc><c>Pd</c><c>   2</c></rc>
    <rc><c>Pd</c><c>   2</c></rc>
    <rc><c>Pd</c><c>   2</c></rc>
   </set>
  </array>
  <array name="atomtypes" >
   <dimension dim="1">type</dimension>
   <field type="int">atomspertype</field>
   <field type="string">element</field>
   <field>mass</field>
   <field>valence</field>
   <field type="string">pseudopotential</field>
   <set>
    <rc><c>  24</c><c>Au</c><c>    196.96600000</c><c>     11.00000000</c><c>  PAW_PBE Au 04Oct2007                  </c></rc>
    <rc><c>  24</c><c>Pd</c><c>    106.42000000</c><c>     10.00000000</c><c>  PAW_PBE Pd 04Jan2005                  </c></rc>
   </set>
  </array>
 </atominfo>
 <structure name="initialpos" >
  <crystal>
   <varray name="basis" >
    <v>      11.00258152       0.00000000       0.00000000 </v>
    <v>       5.50129076       9.52851510       0.00000000 </v>
    <v>       0.00000000       0.00000000      24.49178509 </v>
   </varray>
   <i name="volume">   2567.67623402 </i>
   <varray name="rec_basis" >
    <v>       0.09088776      -0.05247407       0.00000000 </v>
    <v>       0.00000000       0.10494815       0.00000000 </v>
    <v>       0.00000000       0.00000000       0.04083002 </v>
   </varray>
  </crystal>
  <varray name="positions" >
   <v>       0.25000000       0.75000000       0.59169983 </v>
   <v>       0.83333333       0.83333333       0.40830017 </v>
   <v>       0.83333333       0.58333333       0.40830017 </v>
   <v>       0.75000000       0.25000000       0.59169983 </v>
   <v>       0.83333333       0.08333333       0.40830017 </v>
   <v>       0.58333333       0.83333333       0.40830017 </v>
   <v>       0.41666667       0.66666667       0.50000000 </v>
   <v>       0.50000000       0.25000000       0.59169983 </v>
   <v>       0.58333333       0.33333333       0.40830017 </v>
   <v>       0.41666667       0.16666667       0.50000000 </v>
   <v>       0.58333333       0.08333333       0.40830017 </v>
   <v>       0.66666667       0.91666667       0.50000000 </v>
   <v>       0.16666667       0.66666667       0.50000000 </v>
   <v>       0.33333333       0.33333333       0.40830017 </v>
   <v>       0.75000000       0.75000000       0.59169983 </v>
   <v>       0.16666667       0.16666667       0.50000000 </v>
   <v>       0.91666667       0.66666667       0.50000000 </v>
   <v>       0.91666667       0.41666667       0.50000000 </v>
   <v>       0.91666667       0.91666667       0.50000000 </v>
   <v>       0.25000000       0.00000000       0.59169983 </v>
   <v>       0.08333333       0.33333333       0.40830017 </v>
   <v>       0.00000000       0.25000000       0.59169983 </v>
   <v>       0.33333333       0.08333333       0.40830017 </v>
   <v>       0.91666667       0.16666667       0.50000000 </v>
   <v>       0.66666667       0.41666667       0.50000000 </v>
   <v>       0.66666667       0.66666667       0.50000000 </v>
   <v>       0.75000000       0.00000000       0.59169983 </v>
   <v>       0.66666667       0.16666667       0.50000000 </v>
   <v>       0.75000000       0.50000000       0.59169983 </v>
   <v>       0.50000000       0.75000000       0.59169983 </v>
   <v>       0.41666667       0.91666667       0.50000000 </v>
   <v>       0.00000000       0.00000000       0.59169983 </v>
   <v>       0.83333333       0.33333333       0.40830017 </v>
   <v>       0.08333333       0.58333333       0.40830017 </v>
   <v>       0.58333333       0.58333333       0.40830017 </v>
   <v>       0.41666667       0.41666667       0.50000000 </v>
   <v>       0.00000000       0.50000000       0.59169983 </v>
   <v>       0.50000000       0.00000000       0.59169983 </v>
   <v>       0.08333333       0.83333333       0.40830017 </v>
   <v>       0.00000000       0.75000000       0.59169983 </v>
   <v>       0.16666667       0.91666667       0.50000000 </v>
   <v>       0.33333333       0.83333333       0.40830017 </v>
   <v>       0.25000000       0.50000000       0.59169983 </v>
   <v>       0.33333333       0.58333333       0.40830017 </v>
   <v>       0.25000000       0.25000000       0.59169983 </v>
   <v>       0.16666667       0.41666667       0.50000000 </v>
   <v>       0.50000000       0.50000000       0.59169983 </v>
   <v>       0.08333333       0.08333333       0.40830017 </v>
  </varray>
 </structure>
 <calculation>
  <scstep>
   <time name="dav">    7.10    7.15</time>
   <time name="total">    7.16    7.20</time>
   <dipole>
    <v name="dipole">      0.00000000       0.00000000       0.00000222 </v>
    <i name="Tr[quadrupol]"> -10189.05152887 </i>
    <i name="Echarged">      0.00000000 </i>
    <i name="Edipol_quadrupol">      0.00000000 </i>
    <i name="Eion">      0.00000000 </i>
   </dipole>
   <energy>
    <i name="alphaZ">    805.86936534 </i>
    <i name="ewald"> 200402.56044417 </i>
    <i name="hartreedc">-242817.81855416 </i>
    <i name="XCdc">   -327.56215127 </i>
    <i name="pawpsdc">  40340.05962942 </i>
    <i name="pawaedc"> -38292.62782345 </i>
    <i name="eentropy">     -0.13145215 </i>
    <i name="bandstr">   1431.36856963 </i>
    <i name="atom">  41659.78587232 </i>
    <i name="e_fr_energy">   3201.50389985 </i>
    <i name="e_wo_entrp">   3201.63535200 </i>
    <i name="e_0_energy">   3201.56962593 </i>
   </energy>
  </scstep>
  <scstep>
   <time name="dav">    8.61    8.64</time>
   <time name="total">    8.61    8.64</time>
   <dipole>
    <v name="dipole">      0.00000000       0.00000000       0.00000222 </v>
    <i name="Tr[quadrupol]"> -10189.05152887 </i>
    <i name="Echarged">      0.00000000 </i>
    <i name="Edipol_quadrupol">      0.00000000 </i>
    <i name="Eion">      0.00000000 </i>
   </dipole>
   <energy>
    <i name="e_fr_energy">     13.42112234 </i>
    <i name="e_wo_entrp">     13.53541764 </i>
    <i name="e_0_energy">     13.47826999 </i>
   </energy>
  </scstep>
  <scstep>
   <time name="dav">    8.18    8.21</time>
   <time name="total">    8.19    8.21</time>
   <dipole>
    <v name="dipole">      0.00000000       0.00000000       0.00000222 </v>
    <i name="Tr[quadrupol]"> -10189.05152887 </i>
    <i name="Echarged">      0.00000000 </i>
    <i name="Edipol_quadrupol">      0.00000000 </i>
    <i name="Eion">      0.00000000 </i>
   </dipole>
   <energy>
    <i name="e_fr_energy">   -200.16258481 </i>
    <i name="e_wo_entrp">   -199.95784969 </i>
    <i name="e_0_energy">   -200.06021725 </i>
   </energy>
  </scstep>
  <scstep>
   <time name="dav">    8.36    8.38</time>
   <time name="total">    8.36    8.39</time>
   <dipole>
    <v name="dipole">      0.00000000       0.00000000       0.00000222 </v>
    <i name="Tr[quadrupol]"> -10189.05152887 </i>
    <i name="Echarged">      0.00000000 </i>
    <i name="Edipol_quadrupol">      0.00000000 </i>
    <i name="Eion">      0.00000000 </i>
   </dipole>
   <energy>
    <i name="e_fr_energy">   -205.92981326 </i>
    <i name="e_wo_entrp">   -205.71478070 </i>
    <i name="e_0_energy">   -205.82229698 </i>
   </energy>
  </scstep>
  <scstep>
   <time name="dav">    8.61    8.70</time>
   <time name="total">    8.83    8.93</time>
   <dipole>
    <v name="dipole">      0.00000000       0.00000000       0.00000222 </v>
    <i name="Tr[quadrupol]"> -10189.05152887 </i>
    <i name="Echarged">      0.00000000 </i>
    <i name="Edipol_quadrupol">      0.00000000 </i>
    <i name="Eion">      0.00000000 </i>
   </dipole>
   <energy>
    <i name="e_fr_energy">   -206.11521891 </i>
    <i name="e_wo_entrp">   -205.90009997 </i>
    <i name="e_0_energy">   -206.00765944 </i>
   </energy>
  </scstep>
  <scstep>
   <time name="diag">    1.28    1.29</time>
   <time name="diis">    3.43    3.44</time>
   <time name="orth">    0.36    0.36</time>
   <time name="total">    5.35    5.37</time>
   <dipole>
    <v name="dipole">      0.00000000       0.00000000       1.02311433 </v>
    <i name="Tr[quadrupol]"> -10189.76202658 </i>
    <i name="Echarged">      0.00000000 </i>
    <i name="Edipol_quadrupol">      0.00000000 </i>
    <i name="Eion">      0.00000000 </i>
   </dipole>
   <energy>
    <i name="e_fr_energy">   -201.99271466 </i>
    <i name="e_wo_entrp">   -201.73291314 </i>
    <i name="e_0_energy">   -201.86281390 </i>
   </energy>
  </scstep>
  <scstep>
   <time name="diag">    1.29    1.30</time>
   <time name="diis">    3.37    3.38</time>
   <time name="orth">    0.36    0.36</time>
   <time name="total">    5.29    5.31</time>
   <dipole>
    <v name="dipole">      0.00000000       0.00000000      -1.54676963 </v>
    <i name="Tr[quadrupol]"> -10189.55299683 </i>
    <i name="Echarged">      0.00000000 </i>
    <i name="Edipol_quadrupol">      0.00000000 </i>
    <i name="Eion">      0.00000000 </i>
   </dipole>
   <energy>
    <i name="e_fr_energy">   -218.18270209 </i>
    <i name="e_wo_entrp">   -217.95501156 </i>
    <i name="e_0_energy">   -218.06885683 </i>
   </energy>
  </scstep>
  <scstep>
   <time name="diag">    1.28    1.28</time>
   <time name="diis">    3.43    3.44</time>
   <time name="orth">    0.35    0.35</time>
   <time name="total">    5.33    5.35</time>
   <dipole>
    <v name="dipole">      0.00000000       0.00000000       1.58836251 </v>
    <i name="Tr[quadrupol]"> -10190.37506922 </i>
    <i name="Echarged">      0.00000000 </i>
    <i name="Edipol_quadrupol">      0.00000000 </i>
    <i name="Eion">      0.00000000 </i>
   </dipole>
   <energy>
    <i name="e_fr_energy">   -218.42743529 </i>
    <i name="e_wo_entrp">   -218.16621417 </i>
    <i name="e_0_energy">   -218.29682473 </i>
   </energy>
  </scstep>
  <scstep>
   <time name="diag">    1.29    1.29</time>
   <time name="diis">    3.42    3.42</time>
   <time name="orth">    0.35    0.35</time>
   <time name="total">    5.33    5.35</time>
   <dipole>
    <v name="dipole">      0.00000000       0.00000000      -0.09681683 </v>
    <i name="Tr[quadrupol]"> -10190.99670281 </i>
    <i name="Echarged">      0.00000000 </i>
    <i name="Edipol_quadrupol">      0.00000000 </i>
    <i name="Eion">      0.00000000 </i>
   </dipole>
   <energy>
    <i name="e_fr_energy">   -215.35673506 </i>
    <i name="e_wo_entrp">   -215.14702469 </i>
    <i name="e_0_energy">   -215.25187988 </i>
   </energy>
  </scstep>
  <scstep>
   <time name="diag">    1.28    1.28</time>
   <time name="diis">    3.40    3.43</time>
   <time name="orth">    0.36    0.36</time>
   <time name="total">    5.30    5.35</time>
   <dipole>
    <v name="dipole">      0.00000000       0.00000000       0.38596074 </v>
    <i name="Tr[quadrupol]"> -10190.31175656 </i>
    <i name="Echarged">      0.00000000 </i>
    <i name="Edipol_quadrupol">      0.00000000 </i>
    <i name="Eion">      0.00000000 </i>
   </dipole>
   <energy>
    <i name="e_fr_energy">   -198.83664949 </i>
    <i name="e_wo_entrp">   -198.65648902 </i>
    <i name="e_0_energy">   -198.74656925 </i>
   </energy>
  </scstep>
  <scstep>
   <time name="diag">    1.28    1.29</time>
   <time name="diis">    3.39    3.40</time>
   <time name="orth">    0.35    0.35</time>
   <time name="total">    5.29    5.31</time>
   <dipole>
    <v name="dipole">      0.00000000       0.00000000       0.20128171 </v>
    <i name="Tr[quadrupol]"> -10190.95591278 </i>
    <i name="Echarged">      0.00000000 </i>
    <i name="Edipol_quadrupol">      0.00000000 </i>
    <i name="Eion">      0.00000000 </i>
   </dipole>
   <energy>
    <i name="e_fr_energy">   -192.32245415 </i>
    <i name="e_wo_entrp">   -192.09541303 </i>
    <i name="e_0_energy">   -192.20893359 </i>
   </energy>
  </scstep>
  <scstep>
   <time name="diag">    1.28    1.28</time>
   <time name="diis">    3.35    3.40</time>
   <time name="orth">    0.34    0.37</time>
   <time name="total">    5.24    5.34</time>
   <dipole>
    <v name="dipole">      0.00000000       0.00000000       0.22961616 </v>
    <i name="Tr[quadrupol]"> -10191.15398993 </i>
    <i name="Echarged">      0.00000000 </i>
    <i name="Edipol_quadrupol">      0.00000000 </i>
    <i name="Eion">      0.00000000 </i>
   </dipole>
   <energy>
    <i name="e_fr_energy">   -189.11893108 </i>
    <i name="e_wo_entrp">   -188.93826609 </i>
    <i name="e_0_energy">   -189.02859858 </i>
   </energy>
  </scstep>
  <scstep>
   <time name="diag">    1.28    1.28</time>
   <time name="diis">    3.35    3.36</time>
   <time name="orth">    0.35    0.35</time>
   <time name="total">    5.25    5.27</time>
   <dipole>
    <v name="dipole">      0.00000000       0.00000000       0.15063899 </v>
    <i name="Tr[quadrupol]"> -10191.60948890 </i>
    <i name="Echarged">      0.00000000 </i>
    <i name="Edipol_quadrupol">      0.00000000 </i>
    <i name="Eion">      0.00000000 </i>
   </dipole>
   <energy>
    <i name="e_fr_energy">   -188.80439871 </i>
    <i name="e_wo_entrp">   -188.56784010 </i>
    <i name="e_0_energy">   -188.68611940 </i>
   </energy>
  </scstep>
  <scstep>
   <time name="diag">    1.28    1.28</time>
   <time name="diis">    3.38    3.39</time>
   <time name="orth">    0.35    0.35</time>
   <time name="total">    5.28    5.30</time>
   <dipole>
    <v name="dipole">      0.00000000       0.00000000       0.12454573 </v>
    <i name="Tr[quadrupol]"> -10191.85727661 </i>
    <i name="Echarged">      0.00000000 </i>
    <i name="Edipol_quadrupol">      0.00000000 </i>
    <i name="Eion">      0.00000000 </i>
   </dipole>
   <energy>
    <i name="e_fr_energy">   -188.89385009 </i>
    <i name="e_wo_entrp">   -188.65176576 </i>
    <i name="e_0_energy">   -188.77280793 </i>
   </energy>
  </scstep>
  <scstep>
   <time name="diag">    1.28    1.28</time>
   <time name="diis">    3.42    3.43</time>
   <time name="orth">    0.35    0.35</time>
   <time name="total">    5.31    5.33</time>
   <dipole>
    <v name="dipole">      0.00000000       0.00000000       0.08581834 </v>
    <i name="Tr[quadrupol]"> -10192.15429708 </i>
    <i name="Echarged">      0.00000000 </i>
    <i name="Edipol_quadrupol">      0.00000000 </i>
    <i name="Eion">      0.00000000 </i>
   </dipole>
   <energy>
    <i name="e_fr_energy">   -188.78290176 </i>
    <i name="e_wo_entrp">   -188.54508717 </i>
    <i name="e_0_energy">   -188.66399446 </i>
   </energy>
  </scstep>
  <scstep>
   <time name="diag">    1.28    1.28</time>
   <time name="diis">    3.42    3.43</time>
   <time name="orth">    0.35    0.35</time>
   <time name="total">    5.31    5.33</time>
   <dipole>
    <v name="dipole">      0.00000000       0.00000000       0.09184200 </v>
    <i name="Tr[quadrupol]"> -10192.40539086 </i>
    <i name="Echarged">      0.00000000 </i>
    <i name="Edipol_quadrupol">      0.00000000 </i>
    <i name="Eion">      0.00000000 </i>
   </dipole>
   <energy>
    <i name="e_fr_energy">   -188.46877389 </i>
    <i name="e_wo_entrp">   -188.22819043 </i>
    <i name="e_0_energy">   -188.34848216 </i>
   </energy>
  </scstep>
  <scstep>
   <time name="diag">    1.29    1.29</time>
   <time name="diis">    3.42    3.43</time>
   <time name="orth">    0.35    0.35</time>
   <time name="total">    5.33    5.34</time>
   <dipole>
    <v name="dipole">      0.00000000       0.00000000       0.09829754 </v>
    <i name="Tr[quadrupol]"> -10192.70267701 </i>
    <i name="Echarged">      0.00000000 </i>
    <i name="Edipol_quadrupol">      0.00000000 </i>
    <i name="Eion">      0.00000000 </i>
   </dipole>
   <energy>
    <i name="e_fr_energy">   -188.35913432 </i>
    <i name="e_wo_entrp">   -188.12311554 </i>
    <i name="e_0_energy">   -188.24112493 </i>
   </energy>
  </scstep>
  <scstep>
   <time name="diag">    1.28    1.28</time>
   <time name="diis">    3.41    3.42</time>
   <time name="orth">    0.35    0.35</time>
   <time name="total">    5.30    5.32</time>
   <dipole>
    <v name="dipole">      0.00000000       0.00000000       0.09353611 </v>
    <i name="Tr[quadrupol]"> -10193.02432661 </i>
    <i name="Echarged">      0.00000000 </i>
    <i name="Edipol_quadrupol">      0.00000000 </i>
    <i name="Eion">      0.00000000 </i>
   </dipole>
   <energy>
    <i name="e_fr_energy">   -188.28855438 </i>
    <i name="e_wo_entrp">   -188.04491595 </i>
    <i name="e_0_energy">   -188.16673517 </i>
   </energy>
  </scstep>
  <scstep>
   <time name="diag">    1.29    1.29</time>
   <time name="diis">    3.41    3.42</time>
   <time name="orth">    0.35    0.35</time>
   <time name="total">    5.32    5.33</time>
   <dipole>
    <v name="dipole">      0.00000000       0.00000000       0.07809409 </v>
    <i name="Tr[quadrupol]"> -10193.13687483 </i>
    <i name="Echarged">      0.00000000 </i>
    <i name="Edipol_quadrupol">      0.00000000 </i>
    <i name="Eion">      0.00000000 </i>
   </dipole>
   <energy>
    <i name="e_fr_energy">   -188.27679957 </i>
    <i name="e_wo_entrp">   -188.03791801 </i>
    <i name="e_0_energy">   -188.15735879 </i>
   </energy>
  </scstep>
  <scstep>
   <time name="diag">    1.27    1.28</time>
   <time name="diis">    3.34    3.44</time>
   <time name="orth">    0.35    0.35</time>
   <time name="total">    5.23    5.34</time>
   <dipole>
    <v name="dipole">      0.00000000       0.00000000       0.06565090 </v>
    <i name="Tr[quadrupol]"> -10193.24533342 </i>
    <i name="Echarged">      0.00000000 </i>
    <i name="Edipol_quadrupol">      0.00000000 </i>
    <i name="Eion">      0.00000000 </i>
   </dipole>
   <energy>
    <i name="e_fr_energy">   -188.27430220 </i>
    <i name="e_wo_entrp">   -188.03170903 </i>
    <i name="e_0_energy">   -188.15300561 </i>
   </energy>
  </scstep>
  <scstep>
   <time name="diag">    1.28    1.28</time>
   <time name="diis">    3.41    3.42</time>
   <time name="orth">    0.35    0.35</time>
   <time name="total">    5.31    5.33</time>
   <dipole>
    <v name="dipole">      0.00000000       0.00000000       0.06421590 </v>
    <i name="Tr[quadrupol]"> -10193.40539947 </i>
    <i name="Echarged">      0.00000000 </i>
    <i name="Edipol_quadrupol">      0.00000000 </i>
    <i name="Eion">      0.00000000 </i>
   </dipole>
   <energy>
    <i name="e_fr_energy">   -188.27286642 </i>
    <i name="e_wo_entrp">   -188.03149782 </i>
    <i name="e_0_energy">   -188.15218212 </i>
   </energy>
  </scstep>
  <scstep>
   <time name="diag">    1.27    1.29</time>
   <time name="diis">    3.38    3.39</time>
   <time name="orth">    0.35    0.35</time>
   <time name="total">    5.26    5.30</time>
   <dipole>
    <v name="dipole">      0.00000000       0.00000000       0.06059094 </v>
    <i name="Tr[quadrupol]"> -10193.59327781 </i>
    <i name="Echarged">      0.00000000 </i>
    <i name="Edipol_quadrupol">      0.00000000 </i>
    <i name="Eion">      0.00000000 </i>
   </dipole>
   <energy>
    <i name="e_fr_energy">   -188.27055140 </i>
    <i name="e_wo_entrp">   -188.03017770 </i>
    <i name="e_0_energy">   -188.15036455 </i>
   </energy>
  </scstep>
  <scstep>
   <time name="diag">    1.28    1.28</time>
   <time name="diis">    3.38    3.39</time>
   <time name="orth">    0.35    0.35</time>
   <time name="total">    5.27    5.29</time>
   <dipole>
    <v name="dipole">      0.00000000       0.00000000       0.05710010 </v>
    <i name="Tr[quadrupol]"> -10193.69727174 </i>
    <i name="Echarged">      0.00000000 </i>
    <i name="Edipol_quadrupol">      0.00000000 </i>
    <i name="Eion">      0.00000000 </i>
   </dipole>
   <energy>
    <i name="e_fr_energy">   -188.26990431 </i>
    <i name="e_wo_entrp">   -188.02902613 </i>
    <i name="e_0_energy">   -188.14946522 </i>
   </energy>
  </scstep>
  <scstep>
   <time name="diag">    1.29    1.29</time>
   <time name="diis">    3.40    3.42</time>
   <time name="orth">    0.34    0.34</time>
   <time name="total">    5.30    5.33</time>
   <dipole>
    <v name="dipole">      0.00000000       0.00000000       0.05204361 </v>
    <i name="Tr[quadrupol]"> -10193.77575261 </i>
    <i name="Echarged">      0.00000000 </i>
    <i name="Edipol_quadrupol">      0.00000000 </i>
    <i name="Eion">      0.00000000 </i>
   </dipole>
   <energy>
    <i name="e_fr_energy">   -188.26977216 </i>
    <i name="e_wo_entrp">   -188.02871235 </i>
    <i name="e_0_energy">   -188.14924226 </i>
   </energy>
  </scstep>
  <scstep>
   <time name="diag">    1.29    1.29</time>
   <time name="diis">    3.39    3.40</time>
   <time name="orth">    0.34    0.35</time>
   <time name="total">    5.29    5.31</time>
   <dipole>
    <v name="dipole">      0.00000000       0.00000000       0.04702585 </v>
    <i name="Tr[quadrupol]"> -10193.89034127 </i>
    <i name="Echarged">      0.00000000 </i>
    <i name="Edipol_quadrupol">      0.00000000 </i>
    <i name="Eion">      0.00000000 </i>
   </dipole>
   <energy>
    <i name="e_fr_energy">   -188.27005780 </i>
    <i name="e_wo_entrp">   -188.02910769 </i>
    <i name="e_0_energy">   -188.14958274 </i>
   </energy>
  </scstep>
  <scstep>
   <time name="diag">    1.28    1.28</time>
   <time name="diis">    3.41    3.42</time>
   <time name="orth">    0.34    0.34</time>
   <time name="total">    5.30    5.32</time>
   <dipole>
    <v name="dipole">      0.00000000       0.00000000       0.04400676 </v>
    <i name="Tr[quadrupol]"> -10193.96017062 </i>
    <i name="Echarged">      0.00000000 </i>
    <i name="Edipol_quadrupol">      0.00000000 </i>
    <i name="Eion">      0.00000000 </i>
   </dipole>
   <energy>
    <i name="e_fr_energy">   -188.27033555 </i>
    <i name="e_wo_entrp">   -188.02927479 </i>
    <i name="e_0_energy">   -188.14980517 </i>
   </energy>
  </scstep>
  <scstep>
   <time name="diag">    1.28    1.28</time>
   <time name="diis">    3.42    3.45</time>
   <time name="orth">    0.34    0.37</time>
   <time name="total">    5.31    5.40</time>
   <dipole>
    <v name="dipole">      0.00000000       0.00000000       0.04114308 </v>
    <i name="Tr[quadrupol]"> -10194.04482458 </i>
    <i name="Echarged">      0.00000000 </i>
    <i name="Edipol_quadrupol">      0.00000000 </i>
    <i name="Eion">      0.00000000 </i>
   </dipole>
   <energy>
    <i name="e_fr_energy">   -188.27087323 </i>
    <i name="e_wo_entrp">   -188.02996631 </i>
    <i name="e_0_energy">   -188.15041977 </i>
   </energy>
  </scstep>
  <scstep>
   <time name="diag">    1.27    1.28</time>
   <time name="diis">    3.54    3.55</time>
   <time name="orth">    0.34    0.34</time>
   <time name="total">    5.42    5.45</time>
   <dipole>
    <v name="dipole">      0.00000000       0.00000000       0.03889423 </v>
    <i name="Tr[quadrupol]"> -10194.09995722 </i>
    <i name="Echarged">      0.00000000 </i>
    <i name="Edipol_quadrupol">      0.00000000 </i>
    <i name="Eion">      0.00000000 </i>
   </dipole>
   <energy>
    <i name="e_fr_energy">   -188.27131970 </i>
    <i name="e_wo_entrp">   -188.03034973 </i>
    <i name="e_0_energy">   -188.15083472 </i>
   </energy>
  </scstep>
  <scstep>
   <time name="diag">    1.28    1.28</time>
   <time name="diis">    3.51    3.53</time>
   <time name="orth">    0.34    0.34</time>
   <time name="total">    5.41    5.43</time>
   <dipole>
    <v name="dipole">      0.00000000       0.00000000       0.03500334 </v>
    <i name="Tr[quadrupol]"> -10194.18696292 </i>
    <i name="Echarged">      0.00000000 </i>
    <i name="Edipol_quadrupol">      0.00000000 </i>
    <i name="Eion">      0.00000000 </i>
   </dipole>
   <energy>
    <i name="e_fr_energy">   -188.27209528 </i>
    <i name="e_wo_entrp">   -188.03109888 </i>
    <i name="e_0_energy">   -188.15159708 </i>
   </energy>
  </scstep>
  <scstep>
   <time name="diag">    1.28    1.28</time>
   <time name="diis">    3.32    3.34</time>
   <time name="orth">    0.34    0.35</time>
   <time name="total">    5.21    5.24</time>
   <dipole>
    <v name="dipole">      0.00000000       0.00000000       0.03160393 </v>
    <i name="Tr[quadrupol]"> -10194.25466199 </i>
    <i name="Echarged">      0.00000000 </i>
    <i name="Edipol_quadrupol">      0.00000000 </i>
    <i name="Eion">      0.00000000 </i>
   </dipole>
   <energy>
    <i name="e_fr_energy">   -188.27269412 </i>
    <i name="e_wo_entrp">   -188.03159269 </i>
    <i name="e_0_energy">   -188.15214341 </i>
   </energy>
  </scstep>
  <scstep>
   <time name="diag">    1.28    1.28</time>
   <time name="diis">    3.03    3.04</time>
   <time name="orth">    0.34    0.34</time>
   <time name="total">    4.92    4.93</time>
   <dipole>
    <v name="dipole">      0.00000000       0.00000000       0.02886695 </v>
    <i name="Tr[quadrupol]"> -10194.30543842 </i>
    <i name="Echarged">      0.00000000 </i>
    <i name="Edipol_quadrupol">      0.00000000 </i>
    <i name="Eion">      0.00000000 </i>
   </dipole>
   <energy>
    <i name="e_fr_energy">   -188.27309876 </i>
    <i name="e_wo_entrp">   -188.03208785 </i>
    <i name="e_0_energy">   -188.15259330 </i>
   </energy>
  </scstep>
  <scstep>
   <time name="diag">    1.28    1.28</time>
   <time name="diis">    2.57    2.58</time>
   <time name="orth">    0.34    0.34</time>
   <time name="total">    4.46    4.48</time>
   <dipole>
    <v name="dipole">      0.00000000       0.00000000       0.02795861 </v>
    <i name="Tr[quadrupol]"> -10194.32074715 </i>
    <i name="Echarged">      0.00000000 </i>
    <i name="Edipol_quadrupol">      0.00000000 </i>
    <i name="Eion">      0.00000000 </i>
   </dipole>
   <energy>
    <i name="e_fr_energy">   -188.27322784 </i>
    <i name="e_wo_entrp">   -188.03219928 </i>
    <i name="e_0_energy">   -188.15271356 </i>
   </energy>
  </scstep>
  <scstep>
   <time name="diag">    1.28    1.28</time>
   <time name="diis">    2.38    2.41</time>
   <time name="orth">    0.34    0.35</time>
   <time name="total">    4.27    4.32</time>
   <dipole>
    <v name="dipole">      0.00000000       0.00000000       0.02687109 </v>
    <i name="Tr[quadrupol]"> -10194.33587198 </i>
    <i name="Echarged">      0.00000000 </i>
    <i name="Edipol_quadrupol">      0.00000000 </i>
    <i name="Eion">      0.00000000 </i>
   </dipole>
   <energy>
    <i name="e_fr_energy">   -188.27335030 </i>
    <i name="e_wo_entrp">   -188.03234513 </i>
    <i name="e_0_energy">   -188.15284772 </i>
   </energy>
  </scstep>
  <scstep>
   <time name="diag">    1.28    1.28</time>
   <time name="diis">    2.15    2.15</time>
   <time name="orth">    0.34    0.35</time>
   <time name="total">    4.04    4.06</time>
   <dipole>
    <v name="dipole">      0.00000000       0.00000000       0.02603111 </v>
    <i name="Tr[quadrupol]"> -10194.34476693 </i>
    <i name="Echarged">      0.00000000 </i>
    <i name="Edipol_quadrupol">      0.00000000 </i>
    <i name="Eion">      0.00000000 </i>
   </dipole>
   <energy>
    <i name="e_fr_energy">   -188.27342409 </i>
    <i name="e_wo_entrp">   -188.03241552 </i>
    <i name="e_0_energy">   -188.15291980 </i>
   </energy>
  </scstep>
  <scstep>
   <time name="diag">    1.28    1.28</time>
   <time name="diis">    2.14    2.15</time>
   <time name="orth">    0.34    0.34</time>
   <time name="total">    4.03    4.05</time>
   <dipole>
    <v name="dipole">      0.00000000       0.00000000       0.02522615 </v>
    <i name="Tr[quadrupol]"> -10194.35318000 </i>
    <i name="Echarged">      0.00000000 </i>
    <i name="Edipol_quadrupol">      0.00000000 </i>
    <i name="Eion">      0.00000000 </i>
   </dipole>
   <energy>
    <i name="e_fr_energy">   -188.27347992 </i>
    <i name="e_wo_entrp">   -188.03247744 </i>
    <i name="e_0_energy">   -188.15297868 </i>
   </energy>
  </scstep>
  <scstep>
   <time name="diag">    1.27    1.29</time>
   <time name="diis">    2.03    2.11</time>
   <time name="orth">    0.34    0.34</time>
   <time name="total">    3.93    4.02</time>
   <dipole>
    <v name="dipole">      0.00000000       0.00000000       0.02457427 </v>
    <i name="Tr[quadrupol]"> -10194.35913999 </i>
    <i name="Echarged">      0.00000000 </i>
    <i name="Edipol_quadrupol">      0.00000000 </i>
    <i name="Eion">      0.00000000 </i>
   </dipole>
   <energy>
    <i name="e_fr_energy">   -188.27351099 </i>
    <i name="e_wo_entrp">   -188.03251770 </i>
    <i name="e_0_energy">   -188.15301434 </i>
   </energy>
  </scstep>
  <scstep>
   <time name="diag">    1.27    1.29</time>
   <time name="diis">    1.92    1.92</time>
   <time name="orth">    0.34    0.34</time>
   <time name="total">    3.81    3.83</time>
   <dipole>
    <v name="dipole">      0.00000000       0.00000000       0.02415637 </v>
    <i name="Tr[quadrupol]"> -10194.36291507 </i>
    <i name="Echarged">      0.00000000 </i>
    <i name="Edipol_quadrupol">      0.00000000 </i>
    <i name="Eion">      0.00000000 </i>
   </dipole>
   <energy>
    <i name="e_fr_energy">   -188.27352371 </i>
    <i name="e_wo_entrp">   -188.03252371 </i>
    <i name="e_0_energy">   -188.15302371 </i>
   </energy>
  </scstep>
  <scstep>
   <time name="diag">    1.28    1.28</time>
   <time name="diis">    1.93    1.93</time>
   <time name="orth">    0.34    0.34</time>
   <time name="total">    3.82    3.83</time>
   <dipole>
    <v name="dipole">      0.00000000       0.00000000       0.02363445 </v>
    <i name="Tr[quadrupol]"> -10194.36780116 </i>
    <i name="Echarged">      0.00000000 </i>
    <i name="Edipol_quadrupol">      0.00000000 </i>
    <i name="Eion">      0.00000000 </i>
   </dipole>
   <energy>
    <i name="e_fr_energy">   -188.27353232 </i>
    <i name="e_wo_entrp">   -188.03253571 </i>
    <i name="e_0_energy">   -188.15303402 </i>
   </energy>
  </scstep>
  <scstep>
   <time name="diag">    1.27    1.28</time>
   <time name="diis">    1.64    1.64</time>
   <time name="orth">    0.34    0.34</time>
   <time name="total">    3.52    3.54</time>
   <dipole>
    <v name="dipole">      0.00000000       0.00000000       0.02340402 </v>
    <i name="Tr[quadrupol]"> -10194.37000427 </i>
    <i name="Echarged">      0.00000000 </i>
    <i name="Edipol_quadrupol">      0.00000000 </i>
    <i name="Eion">      0.00000000 </i>
   </dipole>
   <energy>
    <i name="e_fr_energy">   -188.27353426 </i>
    <i name="e_wo_entrp">   -188.03253721 </i>
    <i name="e_0_energy">   -188.15303574 </i>
   </energy>
  </scstep>
  <scstep>
   <time name="diag">    1.27    1.28</time>
   <time name="diis">    1.48    1.48</time>
   <time name="orth">    0.34    0.34</time>
   <time name="total">    3.37    3.38</time>
   <dipole>
    <v name="dipole">      0.00000000       0.00000000       0.02318732 </v>
    <i name="Tr[quadrupol]"> -10194.37228241 </i>
    <i name="Echarged">      0.00000000 </i>
    <i name="Edipol_quadrupol">      0.00000000 </i>
    <i name="Eion">      0.00000000 </i>
   </dipole>
   <energy>
    <i name="e_fr_energy">   -188.27353593 </i>
    <i name="e_wo_entrp">   -188.03253851 </i>
    <i name="e_0_energy">   -188.15303722 </i>
   </energy>
  </scstep>
  <scstep>
   <time name="diag">    1.28    1.28</time>
   <time name="diis">    1.44    1.45</time>
   <time name="orth">    0.34    0.34</time>
   <time name="total">    3.34    3.35</time>
   <dipole>
    <v name="dipole">      0.00000000       0.00000000       0.02302503 </v>
    <i name="Tr[quadrupol]"> -10194.37408513 </i>
    <i name="Echarged">      0.00000000 </i>
    <i name="Edipol_quadrupol">      0.00000000 </i>
    <i name="Eion">      0.00000000 </i>
   </dipole>
   <energy>
    <i name="e_fr_energy">   -188.27353719 </i>
    <i name="e_wo_entrp">   -188.03254050 </i>
    <i name="e_0_energy">   -188.15303885 </i>
   </energy>
  </scstep>
  <scstep>
   <time name="diag">    1.27    1.28</time>
   <time name="diis">    1.60    1.60</time>
   <time name="orth">    0.34    0.34</time>
   <time name="total">    3.49    3.50</time>
   <dipole>
    <v name="dipole">      0.00000000       0.00000000       0.02273908 </v>
    <i name="Tr[quadrupol]"> -10194.37736522 </i>
    <i name="Echarged">      0.00000000 </i>
    <i name="Edipol_quadrupol">      0.00000000 </i>
    <i name="Eion">      0.00000000 </i>
   </dipole>
   <energy>
    <i name="e_fr_energy">   -188.27353894 </i>
    <i name="e_wo_entrp">   -188.03254189 </i>
    <i name="e_0_energy">   -188.15304041 </i>
   </energy>
  </scstep>
  <scstep>
   <time name="diag">    1.28    1.28</time>
   <time name="diis">    1.41    1.41</time>
   <time name="orth">    0.34    0.34</time>
   <time name="total">    3.07    3.08</time>
   <dipole>
    <v name="dipole">      0.00000000       0.00000000       0.02263431 </v>
    <i name="Tr[quadrupol]"> -10194.37866089 </i>
    <i name="Echarged">      0.00000000 </i>
    <i name="Edipol_quadrupol">      0.00000000 </i>
    <i name="Eion">      0.00000000 </i>
   </dipole>
   <energy>
    <i name="alphaZ">    805.88009381 </i>
    <i name="ewald"> 200402.56044417 </i>
    <i name="hartreedc">-242589.34897935 </i>
    <i name="XCdc">   -343.23809000 </i>
    <i name="pawpsdc">  49415.68978115 </i>
    <i name="pawaedc"> -47493.53134512 </i>
    <i name="eentropy">     -0.24099638 </i>
    <i name="bandstr">  -2045.83032012 </i>
    <i name="atom">  41659.78587232 </i>
    <i name="e_fr_energy">   -188.27353952 </i>
    <i name="e_wo_entrp">   -188.03254313 </i>
    <i name="e_0_energy">   -188.15304132 </i>
   </energy>
  </scstep>
  <structure>
   <crystal>
    <varray name="basis" >
     <v>      11.00258152       0.00000000       0.00000000 </v>
     <v>       5.50129076       9.52851510       0.00000000 </v>
     <v>       0.00000000       0.00000000      24.49178509 </v>
    </varray>
    <i name="volume">   2567.67623402 </i>
    <varray name="rec_basis" >
     <v>       0.09088776      -0.05247407       0.00000000 </v>
     <v>       0.00000000       0.10494815       0.00000000 </v>
     <v>       0.00000000       0.00000000       0.04083002 </v>
    </varray>
   </crystal>
   <varray name="positions" >
    <v>       0.25000000       0.75000000       0.59169983 </v>
    <v>       0.83333333       0.83333333       0.40830017 </v>
    <v>       0.83333333       0.58333333       0.40830017 </v>
    <v>       0.75000000       0.25000000       0.59169983 </v>
    <v>       0.83333333       0.08333333       0.40830017 </v>
    <v>       0.58333333       0.83333333       0.40830017 </v>
    <v>       0.41666667       0.66666667       0.50000000 </v>
    <v>       0.50000000       0.25000000       0.59169983 </v>
    <v>       0.58333333       0.33333333       0.40830017 </v>
    <v>       0.41666667       0.16666667       0.50000000 </v>
    <v>       0.58333333       0.08333333       0.40830017 </v>
    <v>       0.66666667       0.91666667       0.50000000 </v>
    <v>       0.16666667       0.66666667       0.50000000 </v>
    <v>       0.33333333       0.33333333       0.40830017 </v>
    <v>       0.75000000       0.75000000       0.59169983 </v>
    <v>       0.16666667       0.16666667       0.50000000 </v>
    <v>       0.91666667       0.66666667       0.50000000 </v>
    <v>       0.91666667       0.41666667       0.50000000 </v>
    <v>       0.91666667       0.91666667       0.50000000 </v>
    <v>       0.25000000       0.00000000       0.59169983 </v>
    <v>       0.08333333       0.33333333       0.40830017 </v>
    <v>       0.00000000       0.25000000       0.59169983 </v>
    <v>       0.33333333       0.08333333       0.40830017 </v>
    <v>       0.91666667       0.16666667       0.50000000 </v>
    <v>       0.66666667       0.41666667       0.50000000 </v>
    <v>       0.66666667       0.66666667       0.50000000 </v>
    <v>       0.75000000       0.00000000       0.59169983 </v>
    <v>       0.66666667       0.16666667       0.50000000 </v>
    <v>       0.75000000       0.50000000       0.59169983 </v>
    <v>       0.50000000       0.75000000       0.59169983 </v>
    <v>       0.41666667       0.91666667       0.50000000 </v>
    <v>       0.00000000       0.00000000       0.59169983 </v>
    <v>       0.83333333       0.33333333       0.40830017 </v>
    <v>       0.08333333       0.58333333       0.40830017 </v>
    <v>       0.58333333       0.58333333       0.40830017 </v>
    <v>       0.41666667       0.41666667       0.50000000 </v>
    <v>       0.00000000       0.50000000       0.59169983 </v>
    <v>       0.50000000       0.00000000       0.59169983 </v>
    <v>       0.08333333       0.83333333       0.40830017 </v>
    <v>       0.00000000       0.75000000       0.59169983 </v>
    <v>       0.16666667       0.91666667       0.50000000 </v>
    <v>       0.33333333       0.83333333       0.40830017 </v>
    <v>       0.25000000       0.50000000       0.59169983 </v>
    <v>       0.33333333       0.58333333       0.40830017 </v>
    <v>       0.25000000       0.25000000       0.59169983 </v>
    <v>       0.16666667       0.41666667       0.50000000 </v>
    <v>       0.50000000       0.50000000       0.59169983 </v>
    <v>       0.08333333       0.08333333       0.40830017 </v>
   </varray>
  </structure>
  <varray name="forces" >
   <v>      -0.09181310      -0.07497663       1.53223387 </v>
   <v>       0.40356883      -0.21681102      -1.89020627 </v>
   <v>      -0.27847282      -0.12779178      -1.62884599 </v>
   <v>      -0.15100750       0.10798171       1.35868468 </v>
   <v>       0.37186404       0.07044795      -1.61770620 </v>
   <v>      -0.51534101      -0.30031942      -1.41160712 </v>
   <v>       0.42868323      -0.08962071      -0.25958669 </v>
   <v>      -0.09075891       0.14257283       1.26906508 </v>
   <v>       0.24080402       0.38707422      -1.13111892 </v>
   <v>      -0.02374281       0.16781117       0.65144681 </v>
   <v>       0.13872654       0.12046686      -1.67640157 </v>
   <v>      -0.30552274       0.21235913       0.67243447 </v>
   <v>       0.03070397      -0.33947630      -0.23270091 </v>
   <v>       0.00423001       0.59571083      -1.39647972 </v>
   <v>      -0.17623299      -0.09515334       1.52122806 </v>
   <v>       0.12040000      -0.28334883       0.02178135 </v>
   <v>       0.27003165      -0.48537966       0.35675757 </v>
   <v>      -0.33106615       0.37061145       0.25732871 </v>
   <v>       0.38373483       0.13341015       0.52843696 </v>
   <v>       0.25264514      -0.17669989       1.39220985 </v>
   <v>      -0.09678911       0.07697792      -1.63523472 </v>
   <v>       0.11909753       0.23916789       1.82778319 </v>
   <v>      -0.41211611      -0.39016803      -1.65219039 </v>
   <v>      -0.12130836      -0.13046452      -0.26813644 </v>
   <v>      -0.17538429       0.28643040       0.00346668 </v>
   <v>      -0.56051795      -0.15798285       0.19971850 </v>
   <v>       0.10268072      -0.06504170       0.87299717 </v>
   <v>       0.02673193       0.21718462       0.23920589 </v>
   <v>      -0.11236254       0.16601796       0.73821908 </v>
   <v>       0.14237697      -0.09947224       0.70083591 </v>
   <v>      -0.12862741      -0.38745960       0.13671545 </v>
   <v>      -0.20499824      -0.20224845       0.90519688 </v>
   <v>      -0.11461408       0.08103651      -0.86864277 </v>
   <v>       0.27816996       0.00984365      -0.86894834 </v>
   <v>      -0.11793233      -0.00801799      -0.61581386 </v>
   <v>       0.10223952       0.17159032       0.12395346 </v>
   <v>       0.21958235      -0.05300219       0.88553035 </v>
   <v>      -0.11664861      -0.10842608       0.84726317 </v>
   <v>       0.25872802      -0.06405788      -0.86540362 </v>
   <v>       0.02319947       0.01286827       1.00057222 </v>
   <v>       0.10143702      -0.01465931      -0.36995598 </v>
   <v>      -0.18363973      -0.02746473      -0.62295658 </v>
   <v>      -0.21443048      -0.09231780       0.71184263 </v>
   <v>       0.00420200       0.16914417      -0.73503420 </v>
   <v>       0.09136246       0.25496087       0.83880150 </v>
   <v>       0.27570188       0.18081871       0.35404747 </v>
   <v>       0.17408544       0.05887972       0.64931173 </v>
   <v>      -0.04166027      -0.24300635      -0.85009839 </v>
  </varray>
  <energy>
   <i name="e_fr_energy">   -188.27353952 </i>
   <i name="e_wo_entrp">   -188.15304132 </i>
   <i name="e_0_energy">     -0.24099638 </i>
  </energy>
  <time name="totalsc">  226.26  227.56</time>
 </calculation>
 <calculation>
  <scstep>
   <time name="dav">    7.17    7.20</time>
   <time name="total">    7.44    7.49</time>
   <dipole>
    <v name="dipole">      0.00000000       0.00000000       0.02255681 </v>
    <i name="Tr[quadrupol]"> -10209.67173727 </i>
    <i name="Echarged">      0.00000000 </i>
    <i name="Edipol_quadrupol">      0.00000000 </i>
    <i name="Eion">      0.00000000 </i>
   </dipole>
   <energy>
    <i name="alphaZ">    805.88024023 </i>
    <i name="ewald"> 197651.03067737 </i>
    <i name="hartreedc">-239854.49175967 </i>
    <i name="XCdc">   -345.50575037 </i>
    <i name="pawpsdc">  49415.69081260 </i>
    <i name="pawaedc"> -47493.53247194 </i>
    <i name="eentropy">     -0.23166468 </i>
    <i name="bandstr">  -2028.02685601 </i>
    <i name="atom">  41659.78587232 </i>
    <i name="e_fr_energy">   -189.40090015 </i>
    <i name="e_wo_entrp">   -189.16923547 </i>
    <i name="e_0_energy">   -189.28506781 </i>
   </energy>
  </scstep>
  <scstep>
   <time name="diag">    1.27    1.28</time>
   <time name="diis">    3.37    3.47</time>
   <time name="orth">    0.34    0.34</time>
   <time name="total">    5.26    5.36</time>
   <dipole>
    <v name="dipole">      0.00000000       0.00000000       0.01120256 </v>
    <i name="Tr[quadrupol]"> -10209.41370003 </i>
    <i name="Echarged">      0.00000000 </i>
    <i name="Edipol_quadrupol">      0.00000000 </i>
    <i name="Eion">      0.00000000 </i>
   </dipole>
   <energy>
    <i name="e_fr_energy">   -189.80425246 </i>
    <i name="e_wo_entrp">   -189.57322440 </i>
    <i name="e_0_energy">   -189.68873843 </i>
   </energy>
  </scstep>
  <scstep>
   <time name="diag">    1.28    1.28</time>
   <time name="diis">    3.59    3.60</time>
   <time name="orth">    0.34    0.34</time>
   <time name="total">    5.48    5.50</time>
   <dipole>
    <v name="dipole">      0.00000000       0.00000000       0.05977566 </v>
    <i name="Tr[quadrupol]"> -10209.89541768 </i>
    <i name="Echarged">      0.00000000 </i>
    <i name="Edipol_quadrupol">      0.00000000 </i>
    <i name="Eion">      0.00000000 </i>
   </dipole>
   <energy>
    <i name="e_fr_energy">   -189.91230035 </i>
    <i name="e_wo_entrp">   -189.67854013 </i>
    <i name="e_0_energy">   -189.79542024 </i>
   </energy>
  </scstep>
  <scstep>
   <time name="diag">    1.27    1.28</time>
   <time name="diis">    3.34    3.39</time>
   <time name="orth">    0.34    0.34</time>
   <time name="total">    5.22    5.28</time>
   <dipole>
    <v name="dipole">      0.00000000       0.00000000       0.00003327 </v>
    <i name="Tr[quadrupol]"> -10209.78504664 </i>
    <i name="Echarged">      0.00000000 </i>
    <i name="Edipol_quadrupol">      0.00000000 </i>
    <i name="Eion">      0.00000000 </i>
   </dipole>
   <energy>
    <i name="e_fr_energy">   -189.79653174 </i>
    <i name="e_wo_entrp">   -189.55819169 </i>
    <i name="e_0_energy">   -189.67736172 </i>
   </energy>
  </scstep>
  <scstep>
   <time name="diag">    1.27    1.28</time>
   <time name="diis">    3.41    3.41</time>
   <time name="orth">    0.34    0.34</time>
   <time name="total">    5.29    5.30</time>
   <dipole>
    <v name="dipole">      0.00000000       0.00000000       0.07605050 </v>
    <i name="Tr[quadrupol]"> -10209.73376698 </i>
    <i name="Echarged">      0.00000000 </i>
    <i name="Edipol_quadrupol">      0.00000000 </i>
    <i name="Eion">      0.00000000 </i>
   </dipole>
   <energy>
    <i name="e_fr_energy">   -189.85399193 </i>
    <i name="e_wo_entrp">   -189.63540931 </i>
    <i name="e_0_energy">   -189.74470062 </i>
   </energy>
  </scstep>
  <scstep>
   <time name="diag">    1.28    1.29</time>
   <time name="diis">    3.39    3.41</time>
   <time name="orth">    0.34    0.34</time>
   <time name="total">    5.28    5.32</time>
   <dipole>
    <v name="dipole">      0.00000000       0.00000000      -0.01597862 </v>
    <i name="Tr[quadrupol]"> -10209.75825568 </i>
    <i name="Echarged">      0.00000000 </i>
    <i name="Edipol_quadrupol">      0.00000000 </i>
    <i name="Eion">      0.00000000 </i>
   </dipole>
   <energy>
    <i name="e_fr_energy">   -189.79515108 </i>
    <i name="e_wo_entrp">   -189.55960246 </i>
    <i name="e_0_energy">   -189.67737677 </i>
   </energy>
  </scstep>
  <scstep>
   <time name="diag">    1.28    1.28</time>
   <time name="diis">    3.40    3.41</time>
   <time name="orth">    0.34    0.34</time>
   <time name="total">    5.29    5.31</time>
   <dipole>
    <v name="dipole">      0.00000000       0.00000000       0.02291071 </v>
    <i name="Tr[quadrupol]"> -10209.73984860 </i>
    <i name="Echarged">      0.00000000 </i>
    <i name="Edipol_quadrupol">      0.00000000 </i>
    <i name="Eion">      0.00000000 </i>
   </dipole>
   <energy>
    <i name="e_fr_energy">   -189.77529438 </i>
    <i name="e_wo_entrp">   -189.54140279 </i>
    <i name="e_0_energy">   -189.65834858 </i>
   </energy>
  </scstep>
  <scstep>
   <time name="diag">    1.28    1.29</time>
   <time name="diis">    3.42    3.43</time>
   <time name="orth">    0.34    0.34</time>
   <time name="total">    5.32    5.34</time>
   <dipole>
    <v name="dipole">      0.00000000       0.00000000       0.01939457 </v>
    <i name="Tr[quadrupol]"> -10209.71619064 </i>
    <i name="Echarged">      0.00000000 </i>
    <i name="Edipol_quadrupol">      0.00000000 </i>
    <i name="Eion">      0.00000000 </i>
   </dipole>
   <energy>
    <i name="e_fr_energy">   -189.77303742 </i>
    <i name="e_wo_entrp">   -189.53873029 </i>
    <i name="e_0_energy">   -189.65588386 </i>
   </energy>
  </scstep>
  <scstep>
   <time name="diag">    1.27    1.28</time>
   <time name="diis">    3.46    3.47</time>
   <time name="orth">    0.34    0.34</time>
   <time name="total">    5.35    5.38</time>
   <dipole>
    <v name="dipole">      0.00000000       0.00000000       0.02033989 </v>
    <i name="Tr[quadrupol]"> -10209.70402393 </i>
    <i name="Echarged">      0.00000000 </i>
    <i name="Edipol_quadrupol">      0.00000000 </i>
    <i name="Eion">      0.00000000 </i>
   </dipole>
   <energy>
    <i name="e_fr_energy">   -189.77238702 </i>
    <i name="e_wo_entrp">   -189.53871894 </i>
    <i name="e_0_energy">   -189.65555298 </i>
   </energy>
  </scstep>
  <scstep>
   <time name="diag">    1.25    1.32</time>
   <time name="diis">    3.44    3.45</time>
   <time name="orth">    0.34    0.34</time>
   <time name="total">    5.31    5.38</time>
   <dipole>
    <v name="dipole">      0.00000000       0.00000000       0.01801684 </v>
    <i name="Tr[quadrupol]"> -10209.70164157 </i>
    <i name="Echarged">      0.00000000 </i>
    <i name="Edipol_quadrupol">      0.00000000 </i>
    <i name="Eion">      0.00000000 </i>
   </dipole>
   <energy>
    <i name="e_fr_energy">   -189.77225521 </i>
    <i name="e_wo_entrp">   -189.53726569 </i>
    <i name="e_0_energy">   -189.65476045 </i>
   </energy>
  </scstep>
  <scstep>
   <time name="diag">    1.28    1.28</time>
   <time name="diis">    3.46    3.47</time>
   <time name="orth">    0.34    0.34</time>
   <time name="total">    5.35    5.37</time>
   <dipole>
    <v name="dipole">      0.00000000       0.00000000       0.01812265 </v>
    <i name="Tr[quadrupol]"> -10209.70200823 </i>
    <i name="Echarged">      0.00000000 </i>
    <i name="Edipol_quadrupol">      0.00000000 </i>
    <i name="Eion">      0.00000000 </i>
   </dipole>
   <energy>
    <i name="e_fr_energy">   -189.77217463 </i>
    <i name="e_wo_entrp">   -189.53746347 </i>
    <i name="e_0_energy">   -189.65481905 </i>
   </energy>
  </scstep>
  <scstep>
   <time name="diag">    1.27    1.28</time>
   <time name="diis">    3.36    3.39</time>
   <time name="orth">    0.34    0.34</time>
   <time name="total">    5.25    5.28</time>
   <dipole>
    <v name="dipole">      0.00000000       0.00000000       0.01846840 </v>
    <i name="Tr[quadrupol]"> -10209.70530639 </i>
    <i name="Echarged">      0.00000000 </i>
    <i name="Edipol_quadrupol">      0.00000000 </i>
    <i name="Eion">      0.00000000 </i>
   </dipole>
   <energy>
    <i name="e_fr_energy">   -189.77215532 </i>
    <i name="e_wo_entrp">   -189.53751000 </i>
    <i name="e_0_energy">   -189.65483266 </i>
   </energy>
  </scstep>
  <scstep>
   <time name="diag">    1.27    1.28</time>
   <time name="diis">    3.38    3.39</time>
   <time name="orth">    0.34    0.34</time>
   <time name="total">    5.26    5.28</time>
   <dipole>
    <v name="dipole">      0.00000000       0.00000000       0.01883639 </v>
    <i name="Tr[quadrupol]"> -10209.70982850 </i>
    <i name="Echarged">      0.00000000 </i>
    <i name="Edipol_quadrupol">      0.00000000 </i>
    <i name="Eion">      0.00000000 </i>
   </dipole>
   <energy>
    <i name="e_fr_energy">   -189.77214558 </i>
    <i name="e_wo_entrp">   -189.53753280 </i>
    <i name="e_0_energy">   -189.65483919 </i>
   </energy>
  </scstep>
  <scstep>
   <time name="diag">    1.27    1.27</time>
   <time name="diis">    3.39    3.39</time>
   <time name="orth">    0.34    0.34</time>
   <time name="total">    5.27    5.29</time>
   <dipole>
    <v name="dipole">      0.00000000       0.00000000       0.01870236 </v>
    <i name="Tr[quadrupol]"> -10209.71382906 </i>
    <i name="Echarged">      0.00000000 </i>
    <i name="Edipol_quadrupol">      0.00000000 </i>
    <i name="Eion">      0.00000000 </i>
   </dipole>
   <energy>
    <i name="e_fr_energy">   -189.77214380 </i>
    <i name="e_wo_entrp">   -189.53762556 </i>
    <i name="e_0_energy">   -189.65488468 </i>
   </energy>
  </scstep>
  <scstep>
   <time name="diag">    1.27    1.28</time>
   <time name="diis">    2.34    2.35</time>
   <time name="orth">    0.34    0.35</time>
   <time name="total">    4.00    4.02</time>
   <dipole>
    <v name="dipole">      0.00000000       0.00000000       0.01870574 </v>
    <i name="Tr[quadrupol]"> -10209.71581009 </i>
    <i name="Echarged">      0.00000000 </i>
    <i name="Edipol_quadrupol">      0.00000000 </i>
    <i name="Eion">      0.00000000 </i>
   </dipole>
   <energy>
    <i name="alphaZ">    805.87838595 </i>
    <i name="ewald"> 197651.03067737 </i>
    <i name="hartreedc">-239856.87120893 </i>
    <i name="XCdc">   -345.43910615 </i>
    <i name="pawpsdc">  48955.28264264 </i>
    <i name="pawaedc"> -47029.91174314 </i>
    <i name="eentropy">     -0.23454708 </i>
    <i name="bandstr">  -2029.29311649 </i>
    <i name="atom">  41659.78587232 </i>
    <i name="e_fr_energy">   -189.77214351 </i>
    <i name="e_wo_entrp">   -189.53759643 </i>
    <i name="e_0_energy">   -189.65486997 </i>
   </energy>
  </scstep>
  <structure>
   <crystal>
    <varray name="basis" >
     <v>      11.00258152       0.00000000       0.00000000 </v>
     <v>       5.50129076       9.52851510       0.00000000 </v>
     <v>       0.00000000       0.00000000      24.49178509 </v>
    </varray>
    <i name="volume">   2567.67623402 </i>
    <varray name="rec_basis" >
     <v>       0.09088776      -0.05247407       0.00000000 </v>
     <v>       0.00000000       0.10494815       0.00000000 </v>
     <v>       0.00000000       0.00000000       0.04083002 </v>
    </varray>
   </crystal>
   <varray name="positions" >
    <v>       0.24985106       0.74973428       0.59381251 </v>
    <v>       0.83495619       0.83256494       0.40569391 </v>
    <v>       0.83270508       0.58288043       0.40605428 </v>
    <v>       0.74934517       0.25038270       0.59357322 </v>
    <v>       0.83434985       0.08358301       0.40606964 </v>
    <v>       0.58228379       0.83226898       0.40635381 </v>
    <v>       0.41814122       0.66634904       0.49964208 </v>
    <v>       0.49946879       0.25050529       0.59344965 </v>
    <v>       0.58338651       0.33470516       0.40674056 </v>
    <v>       0.41629643       0.16726140       0.50089823 </v>
    <v>       0.58354565       0.08376028       0.40598871 </v>
    <v>       0.66535263       0.91741929       0.50092717 </v>
    <v>       0.16736247       0.66546353       0.49967915 </v>
    <v>       0.33229069       0.33544458       0.40637467 </v>
    <v>       0.74962771       0.74966277       0.59379734 </v>
    <v>       0.16753831       0.16566245       0.50003003 </v>
    <v>       0.91835558       0.66494644       0.50049191 </v>
    <v>       0.91499380       0.41798014       0.50035481 </v>
    <v>       0.91760804       0.91713948       0.50072862 </v>
    <v>       0.25108855      -0.00062624       0.59361944 </v>
    <v>       0.08289985       0.33360615       0.40604547 </v>
    <v>      -0.00005827       0.25084763       0.59422002 </v>
    <v>       0.33275983       0.08195055       0.40602209 </v>
    <v>       0.91652553       0.16620429       0.49963029 </v>
    <v>       0.66562080       0.41768180       0.50000478 </v>
    <v>       0.66522624       0.66610676       0.50027538 </v>
    <v>       0.75043041      -0.00023051       0.59290354 </v>
    <v>       0.66636385       0.16743639       0.50032982 </v>
    <v>       0.74936094       0.50058838       0.59271770 </v>
    <v>       0.50061326       0.74964746       0.59266616 </v>
    <v>       0.41695847       0.91529348       0.50018851 </v>
    <v>      -0.00027080      -0.00071679       0.59294794 </v>
    <v>       0.83283795       0.33362053       0.40710246 </v>
    <v>       0.08416967       0.58336822       0.40710204 </v>
    <v>       0.58298558       0.58330492       0.40745107 </v>
    <v>       0.41667640       0.41727480       0.50017091 </v>
    <v>       0.00076788       0.49981216       0.59292082 </v>
    <v>       0.49983411      -0.00038427       0.59286806 </v>
    <v>       0.08424095       0.83310631       0.40710693 </v>
    <v>       0.00004840       0.75004561       0.59307944 </v>
    <v>       0.16700398       0.91661471       0.49948990 </v>
    <v>       0.33281836       0.83323600       0.40744122 </v>
    <v>       0.24950545       0.49967282       0.59268134 </v>
    <v>       0.33304650       0.58393279       0.40728669 </v>
    <v>       0.24982861       0.25090360       0.59285639 </v>
    <v>       0.16719245       0.41730750       0.50048817 </v>
    <v>       0.50042998       0.50020867       0.59259512 </v>
    <v>       0.08363608       0.08247210       0.40712803 </v>
   </varray>
  </structure>
  <varray name="forces" >
   <v>      -0.04662716      -0.09244791       1.03519469 </v>
   <v>       0.18098727      -0.11582310      -1.13506455 </v>
   <v>      -0.12762644      -0.02443565      -1.13011764 </v>
   <v>      -0.02090931       0.05939413       0.99257052 </v>
   <v>       0.17951962      -0.00912098      -1.16942467 </v>
   <v>      -0.17155751      -0.13991709      -0.95981195 </v>
   <v>       0.06703456       0.01141764      -0.04141785 </v>
   <v>      -0.03751949       0.10198723       1.02874660 </v>
   <v>       0.12475905       0.20128759      -0.83907593 </v>
   <v>      -0.01737271       0.11437960       0.09682829 </v>
   <v>       0.02549955       0.04720786      -1.07724090 </v>
   <v>      -0.06623317      -0.01722447       0.11478843 </v>
   <v>       0.15908433      -0.10126939      -0.05668632 </v>
   <v>      -0.01064710       0.23142672      -0.94100687 </v>
   <v>      -0.06787776      -0.09881498       1.13290951 </v>
   <v>       0.02932066      -0.06467570       0.01184298 </v>
   <v>      -0.00834450      -0.07315993       0.07351902 </v>
   <v>      -0.14457200       0.07135871       0.09248650 </v>
   <v>       0.05798029      -0.00540067       0.11884481 </v>
   <v>       0.09948868      -0.08399028       1.03476574 </v>
   <v>      -0.07188762       0.03268182      -1.07947202 </v>
   <v>       0.04846525       0.09322917       1.26976572 </v>
   <v>      -0.14162593      -0.15262527      -1.13263487 </v>
   <v>      -0.01515864       0.06214183      -0.03997278 </v>
   <v>      -0.12383446       0.03530856       0.02870627 </v>
   <v>      -0.14352268      -0.00066367       0.04788724 </v>
   <v>       0.04489409      -0.03282357       0.72423839 </v>
   <v>       0.00818459       0.15409428       0.04664684 </v>
   <v>      -0.06142662       0.07973507       0.64520672 </v>
   <v>       0.03598185      -0.08136319       0.60093355 </v>
   <v>      -0.05613210      -0.16417451       0.02352971 </v>
   <v>      -0.04405444      -0.05272769       0.71067209 </v>
   <v>      -0.02423520       0.04638127      -0.63343493 </v>
   <v>       0.10479242       0.02683214      -0.67971352 </v>
   <v>      -0.08961090      -0.00484025      -0.56123095 </v>
   <v>       0.09206885       0.02876465       0.03581224 </v>
   <v>       0.11808802      -0.02439537       0.75449095 </v>
   <v>      -0.08375321      -0.05398105       0.74884710 </v>
   <v>       0.13280555      -0.03531189      -0.65995337 </v>
   <v>       0.01220397      -0.02260395       0.78222639 </v>
   <v>       0.11214546      -0.10146446      -0.08347748 </v>
   <v>      -0.16076546      -0.06426859      -0.54667678 </v>
   <v>      -0.11194956      -0.00153535       0.60749446 </v>
   <v>       0.04422577       0.15372744      -0.61149815 </v>
   <v>       0.00054116       0.13872829       0.70597838 </v>
   <v>       0.09866015      -0.05903966       0.06673603 </v>
   <v>       0.08713901       0.09617401       0.53197339 </v>
   <v>      -0.01662617      -0.10815941      -0.68573102 </v>
  </varray>
  <energy>
   <i name="e_fr_energy">   -189.77214351 </i>
   <i name="e_wo_entrp">   -189.65486997 </i>
   <i name="e_0_energy">     -0.23454708 </i>
  </energy>
  <time name="totalsc">   82.85   83.39</time>
 </calculation>
 <calculation>
  <scstep>
   <time name="dav">    7.17    7.23</time>
   <time name="total">    7.44    7.53</time>
   <dipole>
    <v name="dipole">      0.00000000       0.00000000       0.01873296 </v>
    <i name="Tr[quadrupol]"> -10256.49389012 </i>
    <i name="Echarged">      0.00000000 </i>
    <i name="Edipol_quadrupol">      0.00000000 </i>
    <i name="Eion">      0.00000000 </i>
   </dipole>
   <energy>
    <i name="alphaZ">    805.87885526 </i>
    <i name="ewald"> 189524.53000390 </i>
    <i name="hartreedc">-231773.43039821 </i>
    <i name="XCdc">   -351.06110750 </i>
    <i name="pawpsdc">  48955.07160237 </i>
    <i name="pawaedc"> -47029.70035904 </i>
    <i name="eentropy">     -0.21336423 </i>
    <i name="bandstr">  -1979.00950280 </i>
    <i name="atom">  41659.78587232 </i>
    <i name="e_fr_energy">   -188.14839793 </i>
    <i name="e_wo_entrp">   -187.93503370 </i>
    <i name="e_0_energy">   -188.04171581 </i>
   </energy>
  </scstep>
  <scstep>
   <time name="diag">    1.27    1.28</time>
   <time name="diis">    3.39    3.42</time>
   <time name="orth">    0.34    0.35</time>
   <time name="total">    5.27    5.31</time>
   <dipole>
    <v name="dipole">      0.00000000       0.00000000      -0.00919098 </v>
    <i name="Tr[quadrupol]"> -10255.66172770 </i>
    <i name="Echarged">      0.00000000 </i>
    <i name="Edipol_quadrupol">      0.00000000 </i>
    <i name="Eion">      0.00000000 </i>
   </dipole>
   <energy>
    <i name="e_fr_energy">   -191.72621150 </i>
    <i name="e_wo_entrp">   -191.52123010 </i>
    <i name="e_0_energy">   -191.62372080 </i>
   </energy>
  </scstep>
  <scstep>
   <time name="diag">    1.27    1.27</time>
   <time name="diis">    3.42    3.43</time>
   <time name="orth">    0.34    0.34</time>
   <time name="total">    5.30    5.32</time>
   <dipole>
    <v name="dipole">      0.00000000       0.00000000       0.08585179 </v>
    <i name="Tr[quadrupol]"> -10256.84347905 </i>
    <i name="Echarged">      0.00000000 </i>
    <i name="Edipol_quadrupol">      0.00000000 </i>
    <i name="Eion">      0.00000000 </i>
   </dipole>
   <energy>
    <i name="e_fr_energy">   -192.22709490 </i>
    <i name="e_wo_entrp">   -192.03436051 </i>
    <i name="e_0_energy">   -192.13072770 </i>
   </energy>
  </scstep>
  <scstep>
   <time name="diag">    1.27    1.27</time>
   <time name="diis">    3.47    3.48</time>
   <time name="orth">    0.34    0.34</time>
   <time name="total">    5.35    5.36</time>
   <dipole>
    <v name="dipole">      0.00000000       0.00000000      -0.00093527 </v>
    <i name="Tr[quadrupol]"> -10256.57174972 </i>
    <i name="Echarged">      0.00000000 </i>
    <i name="Edipol_quadrupol">      0.00000000 </i>
    <i name="Eion">      0.00000000 </i>
   </dipole>
   <energy>
    <i name="e_fr_energy">   -191.52583910 </i>
    <i name="e_wo_entrp">   -191.30861095 </i>
    <i name="e_0_energy">   -191.41722503 </i>
   </energy>
  </scstep>
  <scstep>
   <time name="diag">    1.27    1.28</time>
   <time name="diis">    3.40    3.41</time>
   <time name="orth">    0.34    0.34</time>
   <time name="total">    5.28    5.30</time>
   <dipole>
    <v name="dipole">      0.00000000       0.00000000      -0.01564122 </v>
    <i name="Tr[quadrupol]"> -10256.70075913 </i>
    <i name="Echarged">      0.00000000 </i>
    <i name="Edipol_quadrupol">      0.00000000 </i>
    <i name="Eion">      0.00000000 </i>
   </dipole>
   <energy>
    <i name="e_fr_energy">   -191.66964582 </i>
    <i name="e_wo_entrp">   -191.46190172 </i>
    <i name="e_0_energy">   -191.56577377 </i>
   </energy>
  </scstep>
  <scstep>
   <time name="diag">    1.27    1.27</time>
   <time name="diis">    3.42    3.43</time>
   <time name="orth">    0.34    0.34</time>
   <time name="total">    5.30    5.32</time>
   <dipole>
    <v name="dipole">      0.00000000       0.00000000       0.04488859 </v>
    <i name="Tr[quadrupol]"> -10256.68997493 </i>
    <i name="Echarged">      0.00000000 </i>
    <i name="Edipol_quadrupol">      0.00000000 </i>
    <i name="Eion">      0.00000000 </i>
   </dipole>
   <energy>
    <i name="e_fr_energy">   -191.49984366 </i>
    <i name="e_wo_entrp">   -191.28593440 </i>
    <i name="e_0_energy">   -191.39288903 </i>
   </energy>
  </scstep>
  <scstep>
   <time name="diag">    1.27    1.28</time>
   <time name="diis">    3.39    3.40</time>
   <time name="orth">    0.34    0.34</time>
   <time name="total">    5.27    5.29</time>
   <dipole>
    <v name="dipole">      0.00000000       0.00000000      -0.07190384 </v>
    <i name="Tr[quadrupol]"> -10256.63322040 </i>
    <i name="Echarged">      0.00000000 </i>
    <i name="Edipol_quadrupol">      0.00000000 </i>
    <i name="Eion">      0.00000000 </i>
[...]
       <r>    2.3291    0.0000 </r>
       <r>    2.3553    0.0000 </r>
       <r>    2.4630    0.0000 </r>
       <r>    2.5598    0.0000 </r>
       <r>    2.6997    0.0000 </r>
       <r>    2.9961    0.0000 </r>
       <r>    3.1654    0.0000 </r>
       <r>    3.2555    0.0000 </r>
       <r>    3.4944    0.0000 </r>
       <r>    3.6043    0.0000 </r>
       <r>    3.7421    0.0000 </r>
       <r>    3.9761    0.0000 </r>
       <r>    4.0785    0.0000 </r>
       <r>    4.1924    0.0000 </r>
       <r>    4.4488    0.0000 </r>
       <r>    4.5207    0.0000 </r>
       <r>    4.6199    0.0000 </r>
       <r>    4.6338    0.0000 </r>
       <r>    4.7212    0.0000 </r>
       <r>    4.7877    0.0000 </r>
       <r>    4.8312    0.0000 </r>
       <r>    4.9011    0.0000 </r>
       <r>    4.9302    0.0000 </r>
       <r>    4.9824    0.0000 </r>
       <r>    5.0628    0.0000 </r>
       <r>    5.0727    0.0000 </r>
       <r>    5.2120    0.0000 </r>
       <r>    5.2641    0.0000 </r>
      </set>
     </set>
    </set>
   </array>
  </eigenvalues>
  <separator name="orbital magnetization" >
   <v name="MAGDIPOLOUT">      0.00000000      0.00000000      0.00000000</v>
  </separator>
  <dos>
   <i name="efermi">     -1.09464497 </i>
   <total>
    <array>
     <dimension dim="1">gridpoints</dimension>
     <dimension dim="2">spin</dimension>
     <field>energy</field>
     <field>total</field>
     <field>integrated</field>
     <set>
      <set comment="spin 1">
       <r>    -9.8018     0.0000     0.0000 </r>
       <r>    -9.7479     0.0000     0.0000 </r>
       <r>    -9.6940     0.0000     0.0000 </r>
       <r>    -9.6401     0.0000     0.0000 </r>
       <r>    -9.5862     0.0000     0.0000 </r>
       <r>    -9.5323     0.0000     0.0000 </r>
       <r>    -9.4784     0.0000     0.0000 </r>
       <r>    -9.4245     0.0000     0.0000 </r>
       <r>    -9.3706     0.0000     0.0000 </r>
       <r>    -9.3167     0.0000     0.0000 </r>
       <r>    -9.2628     0.0000     0.0000 </r>
       <r>    -9.2089     0.0000     0.0000 </r>
       <r>    -9.1550     0.0000     0.0000 </r>
       <r>    -9.1010     0.0002     0.0000 </r>
       <r>    -9.0471     0.0040     0.0002 </r>
       <r>    -8.9932     0.0519     0.0030 </r>
       <r>    -8.9393     0.3831     0.0237 </r>
       <r>    -8.8854     1.6198     0.1110 </r>
       <r>    -8.8315     3.9371     0.3232 </r>
       <r>    -8.7776     5.5539     0.6226 </r>
       <r>    -8.7237     4.8609     0.8846 </r>
       <r>    -8.6698     3.8390     1.0915 </r>
       <r>    -8.6159     4.6780     1.3437 </r>
       <r>    -8.5620     5.5660     1.6437 </r>
       <r>    -8.5081     4.2057     1.8704 </r>
       <r>    -8.4542     1.8605     1.9707 </r>
       <r>    -8.4003     0.5280     1.9992 </r>
       <r>    -8.3464     0.4565     2.0238 </r>
       <r>    -8.2925     1.5944     2.1097 </r>
       <r>    -8.2386     3.8225     2.3158 </r>
       <r>    -8.1847     5.4251     2.6082 </r>
       <r>    -8.1308     4.7354     2.8635 </r>
       <r>    -8.0769     3.3794     3.0456 </r>
       <r>    -8.0230     3.9350     3.2577 </r>
       <r>    -7.9691     6.1023     3.5867 </r>
       <r>    -7.9152     7.9336     4.0143 </r>
       <r>    -7.8613     8.6146     4.4787 </r>
       <r>    -7.8074     8.1855     4.9199 </r>
       <r>    -7.7535     6.8112     5.2870 </r>
       <r>    -7.6996     5.2147     5.5681 </r>
       <r>    -7.6457     4.2420     5.7968 </r>
       <r>    -7.5918     4.4344     6.0358 </r>
       <r>    -7.5379     6.3608     6.3787 </r>
       <r>    -7.4839     9.9257     6.9137 </r>
       <r>    -7.4300    12.6129     7.5936 </r>
       <r>    -7.3761    11.8283     8.2312 </r>
       <r>    -7.3222     9.2001     8.7271 </r>
       <r>    -7.2683     8.8415     9.2037 </r>
       <r>    -7.2144    12.6946     9.8880 </r>
       <r>    -7.1605    18.1509    10.8664 </r>
       <r>    -7.1066    21.1980    12.0090 </r>
       <r>    -7.0527    22.0286    13.1964 </r>
       <r>    -6.9988    24.2316    14.5026 </r>
       <r>    -6.9449    29.5481    16.0953 </r>
       <r>    -6.8910    36.1537    18.0441 </r>
       <r>    -6.8371    41.6428    20.2888 </r>
       <r>    -6.7832    45.0603    22.7177 </r>
       <r>    -6.7293    45.2298    25.1557 </r>
       <r>    -6.6754    42.2262    27.4319 </r>
       <r>    -6.6215    39.7106    29.5724 </r>
       <r>    -6.5676    40.7493    31.7689 </r>
       <r>    -6.5137    44.0972    34.1459 </r>
       <r>    -6.4598    46.4335    36.6488 </r>
       <r>    -6.4059    48.1574    39.2447 </r>
       <r>    -6.3520    52.6477    42.0826 </r>
       <r>    -6.2981    59.7778    45.3048 </r>
       <r>    -6.2442    66.9831    48.9154 </r>
       <r>    -6.1903    72.9939    52.8500 </r>
       <r>    -6.1364    78.0358    57.0564 </r>
       <r>    -6.0825    82.7040    61.5144 </r>
       <r>    -6.0286    86.3300    66.1679 </r>
       <r>    -5.9747    87.6777    70.8940 </r>
       <r>    -5.9208    86.0067    75.5301 </r>
       <r>    -5.8668    82.8157    79.9941 </r>
       <r>    -5.8129    80.4566    84.3310 </r>
       <r>    -5.7590    78.4775    88.5612 </r>
       <r>    -5.7051    75.2606    92.6180 </r>
       <r>    -5.6512    71.4273    96.4682 </r>
       <r>    -5.5973    68.5338   100.1624 </r>
       <r>    -5.5434    66.4666   103.7451 </r>
       <r>    -5.4895    64.3812   107.2155 </r>
       <r>    -5.4356    63.8170   110.6554 </r>
       <r>    -5.3817    68.4410   114.3446 </r>
       <r>    -5.3278    77.2827   118.5104 </r>
       <r>    -5.2739    84.3038   123.0547 </r>
       <r>    -5.2200    86.0865   127.6950 </r>
       <r>    -5.1661    84.5367   132.2518 </r>
       <r>    -5.1122    83.2261   136.7380 </r>
       <r>    -5.0583    83.1951   141.2225 </r>
       <r>    -5.0044    83.5028   145.7236 </r>
       <r>    -4.9505    83.7457   150.2377 </r>
       <r>    -4.8966    83.6628   154.7474 </r>
       <r>    -4.8427    83.3756   159.2417 </r>
       <r>    -4.7888    84.2763   163.7844 </r>
       <r>    -4.7349    86.4469   168.4442 </r>
       <r>    -4.6810    87.6314   173.1678 </r>
       <r>    -4.6271    86.1899   177.8138 </r>
       <r>    -4.5732    83.9398   182.3384 </r>
       <r>    -4.5193    82.6339   186.7926 </r>
       <r>    -4.4654    81.3343   191.1768 </r>
       <r>    -4.4115    80.7740   195.5308 </r>
       <r>    -4.3576    82.4842   199.9770 </r>
       <r>    -4.3037    85.2474   204.5721 </r>
       <r>    -4.2497    87.0214   209.2628 </r>
       <r>    -4.1958    87.0529   213.9553 </r>
       <r>    -4.1419    86.5773   218.6221 </r>
       <r>    -4.0880    87.6643   223.3475 </r>
       <r>    -4.0341    90.0683   228.2025 </r>
       <r>    -3.9802    91.7253   233.1468 </r>
       <r>    -3.9263    91.8672   238.0987 </r>
       <r>    -3.8724    91.0921   243.0089 </r>
       <r>    -3.8185    90.7544   247.9008 </r>
       <r>    -3.7646    92.1444   252.8677 </r>
       <r>    -3.7107    95.3543   258.0076 </r>
       <r>    -3.6568    99.3699   263.3640 </r>
       <r>    -3.6029   102.0301   268.8638 </r>
       <r>    -3.5490   102.1236   274.3686 </r>
       <r>    -3.4951   101.5062   279.8401 </r>
       <r>    -3.4412   101.9019   285.3330 </r>
       <r>    -3.3873   102.6979   290.8687 </r>
       <r>    -3.3334   103.3040   296.4371 </r>
       <r>    -3.2795   103.1658   301.9981 </r>
       <r>    -3.2256   101.6156   307.4755 </r>
       <r>    -3.1717    99.7632   312.8531 </r>
       <r>    -3.1178    98.1674   318.1447 </r>
       <r>    -3.0639    95.1156   323.2717 </r>
       <r>    -3.0100    90.7209   328.1619 </r>
       <r>    -2.9561    87.3184   332.8686 </r>
       <r>    -2.9022    86.3502   337.5232 </r>
       <r>    -2.8483    87.6003   342.2451 </r>
       <r>    -2.7944    89.9467   347.0936 </r>
       <r>    -2.7405    92.7446   352.0928 </r>
       <r>    -2.6866    95.0166   357.2145 </r>
       <r>    -2.6326    95.9493   362.3865 </r>
       <r>    -2.5787    96.2179   367.5730 </r>
       <r>    -2.5248    97.0503   372.8043 </r>
       <r>    -2.4709    98.5456   378.1162 </r>
       <r>    -2.4170    98.7000   383.4365 </r>
       <r>    -2.3631    95.4175   388.5798 </r>
       <r>    -2.3092    90.2382   393.4439 </r>
       <r>    -2.2553    87.4111   398.1557 </r>
       <r>    -2.2014    87.9911   402.8987 </r>
       <r>    -2.1475    89.2676   407.7105 </r>
       <r>    -2.0936    89.8344   412.5529 </r>
       <r>    -2.0397    90.7577   417.4451 </r>
       <r>    -1.9858    92.6575   422.4396 </r>
       <r>    -1.9319    95.3619   427.5799 </r>
       <r>    -1.8780    98.5977   432.8947 </r>
       <r>    -1.8241   101.1474   438.3469 </r>
       <r>    -1.7702   101.9229   443.8408 </r>
       <r>    -1.7163   101.1250   449.2918 </r>
       <r>    -1.6624    99.6599   454.6638 </r>
       <r>    -1.6085    99.0034   460.0004 </r>
       <r>    -1.5546    99.1748   465.3463 </r>
       <r>    -1.5007    98.7724   470.6704 </r>
       <r>    -1.4468    98.2891   475.9685 </r>
       <r>    -1.3929    99.2930   481.3208 </r>
       <r>    -1.3390    99.5762   486.6883 </r>
       <r>    -1.2851    93.7792   491.7433 </r>
       <r>    -1.2312    81.4201   496.1321 </r>
       <r>    -1.1773    67.3313   499.7615 </r>
       <r>    -1.1234    54.4203   502.6949 </r>
       <r>    -1.0695    42.9590   505.0105 </r>
       <r>    -1.0155    32.9702   506.7877 </r>
       <r>    -0.9616    24.3621   508.1009 </r>
       <r>    -0.9077    17.5015   509.0443 </r>
       <r>    -0.8538    12.8216   509.7355 </r>
       <r>    -0.7999    10.3720   510.2945 </r>
       <r>    -0.7460     9.8095   510.8233 </r>
       <r>    -0.6921    10.7491   511.4027 </r>
       <r>    -0.6382    13.2325   512.1160 </r>
       <r>    -0.5843    16.7478   513.0187 </r>
       <r>    -0.5304    20.1003   514.1022 </r>
       <r>    -0.4765    21.8513   515.2801 </r>
       <r>    -0.4226    21.0559   516.4151 </r>
       <r>    -0.3687    18.1883   517.3955 </r>
       <r>    -0.3148    16.4230   518.2807 </r>
       <r>    -0.2609    18.8063   519.2945 </r>
       <r>    -0.2070    22.0203   520.4814 </r>
       <r>    -0.1531    20.6452   521.5943 </r>
       <r>    -0.0992    15.7075   522.4410 </r>
       <r>    -0.0453    11.5001   523.0609 </r>
       <r>     0.0086     9.5371   523.5749 </r>
       <r>     0.0625     9.7833   524.1023 </r>
       <r>     0.1164    12.2617   524.7632 </r>
       <r>     0.1703    14.8605   525.5643 </r>
       <r>     0.2242    15.2869   526.3883 </r>
       <r>     0.2781    14.8335   527.1878 </r>
       <r>     0.3320    15.7747   528.0382 </r>
       <r>     0.3859    18.1757   529.0179 </r>
       <r>     0.4398    20.4539   530.1204 </r>
       <r>     0.4937    21.6319   531.2864 </r>
       <r>     0.5476    22.3076   532.4889 </r>
       <r>     0.6016    23.6279   533.7625 </r>
       <r>     0.6555    24.8895   535.1042 </r>
       <r>     0.7094    24.4004   536.4194 </r>
       <r>     0.7633    22.4453   537.6293 </r>
       <r>     0.8172    19.2643   538.6677 </r>
       <r>     0.8711    14.2774   539.4373 </r>
       <r>     0.9250     9.5443   539.9518 </r>
       <r>     0.9789     8.7717   540.4246 </r>
       <r>     1.0328    11.3064   541.0340 </r>
       <r>     1.0867    12.3333   541.6989 </r>
       <r>     1.1406    10.3821   542.2585 </r>
       <r>     1.1945     8.0118   542.6904 </r>
       <r>     1.2484     6.8178   543.0579 </r>
       <r>     1.3023     6.5578   543.4113 </r>
       <r>     1.3562     6.2341   543.7474 </r>
       <r>     1.4101     6.2117   544.0822 </r>
       <r>     1.4640     8.7003   544.5512 </r>
       <r>     1.5179    13.6903   545.2891 </r>
       <r>     1.5718    17.6522   546.2407 </r>
       <r>     1.6257    17.5409   547.1862 </r>
       <r>     1.6796    14.7864   547.9832 </r>
       <r>     1.7335    13.9891   548.7373 </r>
       <r>     1.7874    16.3906   549.6208 </r>
       <r>     1.8413    18.3769   550.6113 </r>
       <r>     1.8952    17.0216   551.5289 </r>
       <r>     1.9491    13.2156   552.2412 </r>
       <r>     2.0030     9.2625   552.7405 </r>
       <r>     2.0569     7.4914   553.1443 </r>
       <r>     2.1108     9.9455   553.6804 </r>
       <r>     2.1647    15.6994   554.5267 </r>
       <r>     2.2187    21.2578   555.6725 </r>
       <r>     2.2726    24.4280   556.9893 </r>
       <r>     2.3265    25.3383   558.3551 </r>
       <r>     2.3804    24.1772   559.6583 </r>
       <r>     2.4343    21.6864   560.8273 </r>
       <r>     2.4882    20.0344   561.9072 </r>
       <r>     2.5421    19.6669   562.9673 </r>
       <r>     2.5960    19.8151   564.0354 </r>
       <r>     2.6499    20.8630   565.1600 </r>
       <r>     2.7038    22.0137   566.3466 </r>
       <r>     2.7577    20.5792   567.4559 </r>
       <r>     2.8116    15.5878   568.2962 </r>
       <r>     2.8655     9.3998   568.8028 </r>
       <r>     2.9194     5.7144   569.1109 </r>
       <r>     2.9733     5.5523   569.4101 </r>
       <r>     3.0272     6.1316   569.7407 </r>
       <r>     3.0811     5.9454   570.0611 </r>
       <r>     3.1350     6.5518   570.4143 </r>
       <r>     3.1889     8.2462   570.8588 </r>
       <r>     3.2428    10.1043   571.4035 </r>
       <r>     3.2967    11.3350   572.0144 </r>
       <r>     3.3506    11.0581   572.6105 </r>
       <r>     3.4045    10.9197   573.1991 </r>
       <r>     3.4584    12.9271   573.8959 </r>
       <r>     3.5123    15.5105   574.7320 </r>
       <r>     3.5662    16.8403   575.6398 </r>
       <r>     3.6201    17.6154   576.5893 </r>
       <r>     3.6740    18.6424   577.5942 </r>
       <r>     3.7279    19.0330   578.6201 </r>
       <r>     3.7818    16.8504   579.5284 </r>
       <r>     3.8358    12.7263   580.2144 </r>
       <r>     3.8897    10.2824   580.7687 </r>
       <r>     3.9436    11.1029   581.3671 </r>
       <r>     3.9975    13.4594   582.0926 </r>
       <r>     4.0514    14.6916   582.8846 </r>
       <r>     4.1053    13.7433   583.6254 </r>
       <r>     4.1592    12.5139   584.2999 </r>
       <r>     4.2131    12.2389   584.9596 </r>
       <r>     4.2670    10.7970   585.5416 </r>
       <r>     4.3209     8.2981   585.9889 </r>
       <r>     4.3748     8.6455   586.4550 </r>
       <r>     4.4287    12.2668   587.1162 </r>
       <r>     4.4826    15.6198   587.9581 </r>
       <r>     4.5365    18.3750   588.9486 </r>
       <r>     4.5904    22.8808   590.1820 </r>
       <r>     4.6443    27.7510   591.6778 </r>
       <r>     4.6982    29.0662   593.2446 </r>
       <r>     4.7521    26.7653   594.6873 </r>
       <r>     4.8060    24.3405   595.9994 </r>
       <r>     4.8599    24.5117   597.3206 </r>
       <r>     4.9138    27.0283   598.7775 </r>
       <r>     4.9677    30.0490   600.3973 </r>
       <r>     5.0216    32.7570   602.1630 </r>
       <r>     5.0755    34.1061   604.0014 </r>
       <r>     5.1294    32.7313   605.7658 </r>
       <r>     5.1833    30.1959   607.3934 </r>
       <r>     5.2372    28.2886   608.9183 </r>
       <r>     5.2911    24.7820   610.2541 </r>
       <r>     5.3450    17.7383   611.2102 </r>
       <r>     5.3989     9.5927   611.7273 </r>
       <r>     5.4529     3.7830   611.9312 </r>
       <r>     5.5068     1.0530   611.9880 </r>
       <r>     5.5607     0.1972   611.9986 </r>
       <r>     5.6146     0.0236   611.9999 </r>
       <r>     5.6685     0.0017   612.0000 </r>
       <r>     5.7224     0.0001   612.0000 </r>
       <r>     5.7763     0.0000   612.0000 </r>
       <r>     5.8302     0.0000   612.0000 </r>
       <r>     5.8841     0.0000   612.0000 </r>
       <r>     5.9380     0.0000   612.0000 </r>
       <r>     5.9919     0.0000   612.0000 </r>
       <r>     6.0458     0.0000   612.0000 </r>
       <r>     6.0997     0.0000   612.0000 </r>
       <r>     6.1536     0.0000   612.0000 </r>
       <r>     6.2075     0.0000   612.0000 </r>
       <r>     6.2614     0.0000   612.0000 </r>
       <r>     6.3153     0.0000   612.0000 </r>
       <r>     6.3692     0.0000   612.0000 </r>
      </set>
     </set>
    </array>
   </total>
  </dos>
 </calculation>
 <structure name="finalpos" >
  <crystal>
   <varray name="basis" >
    <v>      11.00258152       0.00000000       0.00000000 </v>
    <v>       5.50129076       9.52851510       0.00000000 </v>
    <v>       0.00000000       0.00000000      24.49178509 </v>
   </varray>
   <i name="volume">   2567.67623402 </i>
   <varray name="rec_basis" >
    <v>       0.09088776      -0.05247407       0.00000000 </v>
    <v>       0.00000000       0.10494815       0.00000000 </v>
    <v>       0.00000000       0.00000000       0.04083002 </v>
   </varray>
  </crystal>
  <varray name="positions" >
   <v>       0.24909357       0.74813870       0.60624864 </v>
   <v>       0.83767788       0.83209842       0.39208728 </v>
   <v>       0.83242908       0.58300073       0.39524559 </v>
   <v>       0.74841492       0.25092715       0.60345795 </v>
   <v>       0.83731955       0.08384370       0.39513276 </v>
   <v>       0.58195186       0.83180684       0.39691993 </v>
   <v>       0.41821380       0.66621223       0.50225450 </v>
   <v>       0.49753602       0.25140928       0.60054038 </v>
   <v>       0.58439203       0.33638180       0.40011416 </v>
   <v>       0.41695317       0.16729637       0.49876703 </v>
   <v>       0.58428288       0.08431574       0.39338184 </v>
   <v>       0.66573397       0.91673427       0.49883512 </v>
   <v>       0.16913675       0.66428035       0.50075210 </v>
   <v>       0.33166820       0.33770034       0.39624407 </v>
   <v>       0.74931179       0.74897926       0.60217240 </v>
   <v>       0.16815450       0.16455346       0.50112886 </v>
   <v>       0.91748346       0.66481215       0.49930852 </v>
   <v>       0.91503403       0.41717996       0.50154218 </v>
   <v>       0.91763906       0.91713154       0.49985586 </v>
   <v>       0.25138803      -0.00090533       0.60476731 </v>
   <v>       0.08231325       0.33365077       0.39551975 </v>
   <v>      -0.00052738       0.25206660       0.60889981 </v>
   <v>       0.33211781       0.08131002       0.39408088 </v>
   <v>       0.91575263       0.16632756       0.50222862 </v>
   <v>       0.66470652       0.41613949       0.50185840 </v>
   <v>       0.66560057       0.66644726       0.50006556 </v>
   <v>       0.74955610      -0.00020213       0.59621836 </v>
   <v>       0.66633268       0.16784623       0.49945015 </v>
   <v>       0.74870354       0.50108949       0.59810985 </v>
   <v>       0.50050528       0.74911415       0.59798775 </v>
   <v>       0.41725319       0.91543243       0.49999772 </v>
   <v>      -0.00168103      -0.00065206       0.60024364 </v>
   <v>       0.83376862       0.33408512       0.40463449 </v>
   <v>       0.08454535       0.58476739       0.40173088 </v>
   <v>       0.58208182       0.58432751       0.40523303 </v>
   <v>       0.41840873       0.41488435       0.49962834 </v>
   <v>       0.00124504       0.49982410       0.59753449 </v>
   <v>       0.49889433      -0.00067946       0.59654595 </v>
   <v>       0.08551491       0.83373643       0.40373887 </v>
   <v>      -0.00112909       0.75041211       0.59818349 </v>
   <v>       0.16871569       0.91527766       0.50403330 </v>
   <v>       0.33188403       0.83322922       0.40585224 </v>
   <v>       0.24755079       0.49970004       0.59665773 </v>
   <v>       0.33279861       0.58624138       0.40396356 </v>
   <v>       0.24844511       0.25166176       0.59670482 </v>
   <v>       0.16842571       0.41507917       0.49815158 </v>
   <v>       0.49942453       0.50130099       0.59839117 </v>
   <v>       0.08497811       0.08168544       0.40559906 </v>
  </varray>
 </structure>
</modeling>
