unknown system                          
           1
    11.002582    0.000000    0.000000
     5.501291    9.528515    0.000000
     0.000000    0.000000   24.491785
   Au   Pd
  24  24
Direct configuration=     1
   0.25000000  0.75000000  0.59169983
   0.83333333  0.83333333  0.40830017
   0.83333333  0.58333333  0.40830017
   0.75000000  0.25000000  0.59169983
   0.83333333  0.08333333  0.40830017
   0.58333333  0.83333333  0.40830017
   0.41666667  0.66666667  0.50000000
   0.50000000  0.25000000  0.59169983
   0.58333333  0.33333333  0.40830017
   0.41666667  0.16666667  0.50000000
   0.58333333  0.08333333  0.40830017
   0.66666667  0.91666667  0.50000000
   0.16666667  0.66666667  0.50000000
   0.33333333  0.33333333  0.40830017
   0.75000000  0.75000000  0.59169983
   0.16666667  0.16666667  0.50000000
   0.91666667  0.66666667  0.50000000
   0.91666667  0.41666667  0.50000000
   0.91666667  0.91666667  0.50000000
   0.25000000  0.00000000  0.59169983
   0.08333333  0.33333333  0.40830017
   0.00000000  0.25000000  0.59169983
   0.33333333  0.08333333  0.40830017
   0.91666667  0.16666667  0.50000000
   0.66666667  0.41666667  0.50000000
   0.66666667  0.66666667  0.50000000
   0.75000000  0.00000000  0.59169983
   0.66666667  0.16666667  0.50000000
   0.75000000  0.50000000  0.59169983
   0.50000000  0.75000000  0.59169983
   0.41666667  0.91666667  0.50000000
   0.00000000  0.00000000  0.59169983
   0.83333333  0.33333333  0.40830017
   0.08333333  0.58333333  0.40830017
   0.58333333  0.58333333  0.40830017
   0.41666667  0.41666667  0.50000000
   0.00000000  0.50000000  0.59169983
   0.50000000  0.00000000  0.59169983
   0.08333333  0.83333333  0.40830017
   0.00000000  0.75000000  0.59169983
   0.16666667  0.91666667  0.50000000
   0.33333333  0.83333333  0.40830017
   0.25000000  0.50000000  0.59169983
   0.33333333  0.58333333  0.40830017
   0.25000000  0.25000000  0.59169983
   0.16666667  0.41666667  0.50000000
   0.50000000  0.50000000  0.59169983
   0.08333333  0.08333333  0.40830017
Direct configuration=     2
   0.24985106  0.74973428  0.59381251
   0.83495619  0.83256494  0.40569391
   0.83270508  0.58288043  0.40605428
   0.74934517  0.25038270  0.59357322
   0.83434985  0.08358301  0.40606964
   0.58228379  0.83226898  0.40635381
   0.41814122  0.66634904  0.49964208
   0.49946879  0.25050529  0.59344965
   0.58338651  0.33470516  0.40674056
   0.41629643  0.16726140  0.50089823
   0.58354565  0.08376028  0.40598871
   0.66535263  0.91741929  0.50092717
   0.16736247  0.66546353  0.49967915
   0.33229069  0.33544458  0.40637467
   0.74962771  0.74966277  0.59379734
   0.16753831  0.16566245  0.50003003
   0.91835558  0.66494644  0.50049191
   0.91499380  0.41798014  0.50035481
   0.91760804  0.91713948  0.50072862
   0.25108855 -0.00062624  0.59361944
   0.08289985  0.33360615  0.40604547
  -0.00005827  0.25084763  0.59422002
   0.33275983  0.08195055  0.40602209
   0.91652553  0.16620429  0.49963029
   0.66562080  0.41768180  0.50000478
   0.66522624  0.66610676  0.50027538
   0.75043041 -0.00023051  0.59290354
   0.66636385  0.16743639  0.50032982
   0.74936094  0.50058838  0.59271770
   0.50061326  0.74964746  0.59266616
   0.41695847  0.91529348  0.50018851
  -0.00027080 -0.00071679  0.59294794
   0.83283795  0.33362053  0.40710246
   0.08416967  0.58336822  0.40710204
   0.58298558  0.58330492  0.40745107
   0.41667640  0.41727480  0.50017091
   0.00076788  0.49981216  0.59292082
   0.49983411 -0.00038427  0.59286806
   0.08424095  0.83310631  0.40710693
   0.00004840  0.75004561  0.59307944
   0.16700398  0.91661471  0.49948990
   0.33281836  0.83323600  0.40744122
   0.24950545  0.49967282  0.59268134
   0.33304650  0.58393279  0.40728669
   0.24982861  0.25090360  0.59285639
   0.16719245  0.41730750  0.50048817
   0.50042998  0.50020867  0.59259512
   0.08363608  0.08247210  0.40712803
Direct configuration=     3
   0.24940425  0.74893711  0.60015055
   0.83982477  0.83025975  0.39787512
   0.83082031  0.58152171  0.39931660
   0.74738068  0.25153079  0.59919338
   0.83739939  0.08433203  0.39937804
   0.57913517  0.82907590  0.40051474
   0.42256489  0.66539617  0.49856830
   0.49787517  0.25202116  0.59869910
   0.58354605  0.33882063  0.40206171
   0.41518570  0.16904561  0.50359292
   0.58418260  0.08504111  0.39905432
   0.66141051  0.91967714  0.50370867
   0.16944989  0.66185414  0.49871659
   0.32916277  0.34177833  0.40059817
   0.74851084  0.74865107  0.60008985
   0.17015325  0.16264982  0.50012013
   0.92342232  0.65978576  0.50196762
   0.90997519  0.42192058  0.50141924
   0.92043217  0.91855793  0.50291449
   0.25435422 -0.00250496  0.59937828
   0.08159941  0.33442460  0.39928137
  -0.00023309  0.25339052  0.60178060
   0.33103933  0.07780218  0.39918785
   0.91610211  0.16481716  0.49852115
   0.66248320  0.42072720  0.50001912
   0.66090496  0.66442705  0.50110151
   0.75172164 -0.00092205  0.59651467
   0.66545542  0.16974555  0.50131929
   0.74744375  0.50235353  0.59577133
   0.50245305  0.74858985  0.59556515
   0.41783388  0.91117391  0.50075403
  -0.00108321 -0.00286714  0.59669226
   0.83135181  0.33448213  0.40350935
   0.08667867  0.58347288  0.40350766
   0.58194230  0.58321967  0.40490377
   0.41670561  0.41909919  0.50068364
   0.00307152  0.49924862  0.59658379
   0.49933644 -0.00153708  0.59637274
   0.08696381  0.83242523  0.40352721
   0.00019361  0.75018242  0.59721828
   0.16801592  0.91645885  0.49795958
   0.33127345  0.83294398  0.40486438
   0.24802179  0.49869127  0.59562585
   0.33218600  0.58573118  0.40424624
   0.24931446  0.25361441  0.59632607
   0.16876980  0.41923001  0.50195268
   0.50171991  0.50083470  0.59528098
   0.08454434  0.07988839  0.40361163
Direct configuration=     4
   0.25005603  0.74816164  0.60129666
   0.83877929  0.83054472  0.39677748
   0.83117202  0.58246813  0.39791565
   0.74869726  0.25122480  0.60051368
   0.83687526  0.08356521  0.39771814
   0.58085219  0.82997441  0.39937656
   0.41757710  0.66663929  0.49913756
   0.49822180  0.25207599  0.60049941
   0.58329111  0.33772617  0.40093610
   0.41512021  0.16937702  0.50250824
   0.58360435  0.08467811  0.39799491
   0.66440943  0.91721897  0.50269717
   0.17044237  0.66449533  0.49909752
   0.33058403  0.33906594  0.39951090
   0.74975737  0.74819095  0.60173226
   0.16853800  0.16464156  0.50009593
   0.91891660  0.66406895  0.50147196
   0.91219280  0.41878573  0.50116576
   0.91893169  0.91640623  0.50210508
   0.25291206 -0.00183982  0.60083011
   0.08180121  0.33389989  0.39812445
  -0.00018603  0.25239043  0.60338105
   0.33169331  0.07955409  0.39775893
   0.91567861  0.16763632  0.49892402
   0.66407914  0.41728539  0.50015654
   0.66395121  0.66645763  0.50076581
   0.75114075 -0.00077022  0.59776050
   0.66511507  0.17002505  0.50098434
   0.74818193  0.50155125  0.59704796
   0.50150385  0.74840360  0.59673801
   0.41736785  0.91293139  0.50050441
  -0.00037874 -0.00135062  0.59794184
   0.83228665  0.33435036  0.40278887
   0.08490986  0.58417843  0.40250704
   0.58173464  0.58328561  0.40366296
   0.41796250  0.41759472  0.50047161
   0.00242558  0.49965402  0.59805642
   0.49916039 -0.00123670  0.59800650
   0.08629802  0.83252089  0.40264768
   0.00021300  0.74957928  0.59839214
   0.16946820  0.91474500  0.49867204
   0.33101450  0.83193502  0.40382859
   0.24807261  0.49997614  0.59677648
   0.33250155  0.58662007  0.40320436
   0.24867438  0.25284030  0.59763694
   0.16959018  0.41560332  0.50119240
   0.50064484  0.50190402  0.59612911
   0.08416399  0.08096600  0.40255792
Direct configuration=     5
   0.25026984  0.74790725  0.60167263
   0.83843632  0.83063820  0.39641741
   0.83128740  0.58277860  0.39745608
   0.74912916  0.25112442  0.60094680
   0.83670333  0.08331366  0.39717362
   0.58141545  0.83026916  0.39900318
   0.41594088  0.66704709  0.49932431
   0.49833551  0.25209397  0.60108999
   0.58320747  0.33736713  0.40056684
   0.41509872  0.16948574  0.50215241
   0.58341466  0.08455902  0.39764738
   0.66539322  0.91641257  0.50236534
   0.17076795  0.66536177  0.49922249
   0.33105027  0.33817614  0.39915422
   0.75016629  0.74804001  0.60227105
   0.16800812  0.16529495  0.50008799
   0.91743852  0.66547404  0.50130936
   0.91292028  0.41775735  0.50108260
   0.91843947  0.91570037  0.50183956
   0.25243896 -0.00162163  0.60130638
   0.08186741  0.33372776  0.39774492
  -0.00017060  0.25206235  0.60390608
   0.33190785  0.08012880  0.39729018
   0.91553969  0.16856114  0.49905618
   0.66460269  0.41615631  0.50020162
   0.66495052  0.66712375  0.50065568
   0.75095019 -0.00072041  0.59816919
   0.66500342  0.17011674  0.50087446
   0.74842408  0.50128807  0.59746676
   0.50119247  0.74834251  0.59712277
   0.41721497  0.91350793  0.50042252
  -0.00014764 -0.00085313  0.59835177
   0.83259333  0.33430713  0.40255251
   0.08432960  0.58440989  0.40217879
   0.58166652  0.58330725  0.40325591
   0.41837482  0.41710118  0.50040206
   0.00221368  0.49978701  0.59853951
   0.49910264 -0.00113815  0.59854244
   0.08607960  0.83255227  0.40235916
   0.00021936  0.74938142  0.59877722
   0.16994462  0.91418278  0.49890576
   0.33092955  0.83160403  0.40348880
   0.24808929  0.50039764  0.59715395
   0.33260506  0.58691166  0.40286257
   0.24846441  0.25258635  0.59806697
   0.16985930  0.41441359  0.50094300
   0.50029217  0.50225481  0.59640734
   0.08403921  0.08131950  0.40221225
Direct configuration=     6
   0.25003231  0.74823694  0.60228599
   0.83722952  0.83149827  0.39601757
   0.83180555  0.58288016  0.39698736
   0.74960445  0.25078344  0.60144794
   0.83631840  0.08297528  0.39664919
   0.58180290  0.83132292  0.39868521
   0.41782065  0.66653673  0.49976829
   0.49839746  0.25191835  0.60176068
   0.58335624  0.33633501  0.40014517
   0.41664561  0.16787402  0.50161789
   0.58350835  0.08393086  0.39737574
   0.66518968  0.91713336  0.50181008
   0.16911684  0.66482037  0.49955454
   0.33139802  0.33721889  0.39881144
   0.75030949  0.74813127  0.60301160
   0.16765052  0.16518715  0.50007553
   0.91773952  0.66485339  0.50098205
   0.91417255  0.41806919  0.50103165
   0.91762245  0.91688998  0.50133172
   0.25164982 -0.00126507  0.60183007
   0.08200676  0.33373771  0.39733906
  -0.00004482  0.25155906  0.60467330
   0.33232555  0.08076973  0.39681506
   0.91612698  0.16678876  0.49938097
   0.66442193  0.41657790  0.50027952
   0.66530194  0.66694470  0.50040923
   0.75058608 -0.00049600  0.59846048
   0.66563291  0.16876662  0.50071992
   0.74893523  0.50097254  0.59781710
   0.50094410  0.74845748  0.59737840
   0.41718803  0.91501320  0.50022537
   0.00003632 -0.00034143  0.59854584
   0.83294195  0.33421810  0.40230944
   0.08398388  0.58413820  0.40215217
   0.58175605  0.58356617  0.40311584
   0.41847858  0.41604592  0.50020105
   0.00174994  0.49992005  0.59882373
   0.49937043 -0.00084319  0.59891227
   0.08499044  0.83308513  0.40210231
   0.00020866  0.74944594  0.59910973
   0.16854233  0.91599072  0.49956476
   0.33143095  0.83201372  0.40301986
   0.24812161  0.50052562  0.59738983
   0.33260726  0.58625880  0.40235644
   0.24858668  0.25195865  0.59850553
   0.16831853  0.41553623  0.50041562
   0.50010602  0.50225075  0.59674161
   0.08397534  0.08180843  0.40205587
Direct configuration=     7
   0.24997188  0.74832082  0.60244204
   0.83692250  0.83171708  0.39591585
   0.83193738  0.58290600  0.39686811
   0.74972537  0.25069669  0.60157543
   0.83622047  0.08288919  0.39651577
   0.58190148  0.83159101  0.39860431
   0.41829889  0.66640688  0.49988124
   0.49841322  0.25187367  0.60193131
   0.58339409  0.33607242  0.40003788
   0.41703916  0.16746397  0.50148190
   0.58353218  0.08377104  0.39730663
   0.66513790  0.91731674  0.50166881
   0.16869677  0.66468263  0.49963901
   0.33148649  0.33697535  0.39872423
   0.75034593  0.74815449  0.60320000
   0.16755954  0.16515973  0.50007236
   0.91781610  0.66469548  0.50089878
   0.91449115  0.41814852  0.50101869
   0.91741459  0.91719263  0.50120252
   0.25144906 -0.00117435  0.60196331
   0.08204222  0.33374024  0.39723580
  -0.00001282  0.25143101  0.60486849
   0.33243182  0.08093279  0.39669419
   0.91627640  0.16633784  0.49946360
   0.66437594  0.41668516  0.50029934
   0.66539135  0.66689914  0.50034652
   0.75049344 -0.00043891  0.59853459
   0.66579306  0.16842313  0.50068060
   0.74906528  0.50089227  0.59790624
   0.50088091  0.74848673  0.59744343
   0.41718118  0.91539617  0.50017521
   0.00008313 -0.00021125  0.59859521
   0.83303064  0.33419545  0.40224760
   0.08389593  0.58406908  0.40214540
   0.58177883  0.58363204  0.40308020
   0.41850498  0.41577745  0.50014991
   0.00163195  0.49995390  0.59889604
   0.49943856 -0.00076815  0.59900636
   0.08471334  0.83322069  0.40203697
   0.00020594  0.74946235  0.59919433
   0.16818556  0.91645069  0.49973242
   0.33155852  0.83211796  0.40290056
   0.24812984  0.50055818  0.59744985
   0.33260782  0.58609271  0.40222767
   0.24861778  0.25179896  0.59861710
   0.16792653  0.41582184  0.50028144
   0.50005866  0.50224972  0.59682665
   0.08395909  0.08193282  0.40201608
Direct configuration=     8
   0.24964086  0.74862584  0.60273581
   0.83679910  0.83176516  0.39564664
   0.83197269  0.58285199  0.39661922
   0.74943668  0.25072683  0.60174069
   0.83612083  0.08321697  0.39625003
   0.58180344  0.83158574  0.39848278
   0.41845516  0.66675646  0.49994942
   0.49822050  0.25189181  0.60208172
   0.58369131  0.33586300  0.39992910
   0.41672232  0.16759091  0.50146617
   0.58369419  0.08376478  0.39705383
   0.66532270  0.91707757  0.50162988
   0.16877648  0.66449989  0.49974138
   0.33131666  0.33709402  0.39858690
   0.75002985  0.74847276  0.60344586
   0.16786673  0.16521246  0.50013605
   0.91772832  0.66477653  0.50087651
   0.91441304  0.41801120  0.50106843
   0.91740531  0.91732930  0.50105514
   0.25176777 -0.00125711  0.60219172
   0.08208438  0.33375483  0.39699120
  -0.00001537  0.25166992  0.60530088
   0.33222830  0.08101472  0.39642224
   0.91591233  0.16638649  0.49958209
   0.66487845  0.41665778  0.50032146
   0.66531721  0.66669908  0.50026994
   0.75051991 -0.00044259  0.59845260
   0.66614739  0.16819366  0.50071424
   0.74917295  0.50089442  0.59789062
   0.50098745  0.74881986  0.59742096
   0.41709928  0.91560605  0.50010184
  -0.00023114 -0.00042550  0.59858487
   0.83294889  0.33405057  0.40235324
   0.08407197  0.58397042  0.40219982
   0.58186921  0.58374049  0.40322044
   0.41813171  0.41554534  0.50003524
   0.00167857  0.49979648  0.59884067
   0.49960374 -0.00079614  0.59891871
   0.08466166  0.83325628  0.40214528
  -0.00004273  0.74989371  0.59917608
   0.16825369  0.91619749  0.50003741
   0.33171055  0.83250257  0.40295486
   0.24818738  0.50009959  0.59737499
   0.33237386  0.58590641  0.40228629
   0.24890211  0.25171219  0.59849628
   0.16804233  0.41578006  0.50012136
   0.50022774  0.50179059  0.59697428
   0.08409421  0.08186910  0.40212483
Direct configuration=     9
   0.24928180  0.74895670  0.60305446
   0.83666526  0.83181730  0.39535463
   0.83201099  0.58279341  0.39634925
   0.74912354  0.25075953  0.60191995
   0.83601274  0.08357251  0.39596179
   0.58169710  0.83158003  0.39835096
   0.41862465  0.66713563  0.50002338
   0.49801146  0.25191148  0.60224486
   0.58401370  0.33563584  0.39981111
   0.41637865  0.16772860  0.50144910
   0.58386991  0.08375800  0.39677962
   0.66552314  0.91681815  0.50158766
   0.16886295  0.66430167  0.49985241
   0.33113245  0.33722274  0.39843794
   0.74968702  0.74881798  0.60371253
   0.16819994  0.16526965  0.50020514
   0.91763310  0.66486445  0.50085234
   0.91432833  0.41786225  0.50112238
   0.91739523  0.91747755  0.50089529
   0.25211347 -0.00134688  0.60243947
   0.08213012  0.33377065  0.39672589
  -0.00001813  0.25192907  0.60576989
   0.33200755  0.08110359  0.39612727
   0.91551744  0.16643927  0.49971061
   0.66542352  0.41662808  0.50034544
   0.66523679  0.66648208  0.50018688
   0.75054862 -0.00044659  0.59836366
   0.66653173  0.16794475  0.50075072
   0.74928975  0.50089676  0.59787367
   0.50110302  0.74918119  0.59739658
   0.41701046  0.91583371  0.50002225
  -0.00057201 -0.00065789  0.59857365
   0.83286022  0.33389341  0.40246784
   0.08426291  0.58386341  0.40225885
   0.58196725  0.58385812  0.40337256
   0.41772684  0.41529359  0.49991086
   0.00172913  0.49962573  0.59878061
   0.49978291 -0.00082649  0.59882364
   0.08460561  0.83329487  0.40226277
  -0.00031245  0.75036160  0.59915628
   0.16832759  0.91592284  0.50036823
   0.33187545  0.83291975  0.40301377
   0.24824979  0.49960218  0.59729379
   0.33212010  0.58570434  0.40234987
   0.24921051  0.25161807  0.59836524
   0.16816793  0.41573474  0.49994772
   0.50041115  0.50129257  0.59713440
   0.08424077  0.08179997  0.40224277
Direct configuration=    10
   0.24932337  0.74882443  0.60338785
   0.83678173  0.83174212  0.39499774
   0.83212108  0.58265653  0.39607182
   0.74895509  0.25083284  0.60210651
   0.83621915  0.08362319  0.39563656
   0.58166028  0.83157912  0.39821614
   0.41842006  0.66702785  0.50013915
   0.49795999  0.25178036  0.60235029
   0.58396168  0.33581490  0.39977512
   0.41659790  0.16768196  0.50139472
   0.58379115  0.08387698  0.39647001
   0.66555851  0.91660185  0.50153189
   0.16922412  0.66431940  0.50001483
   0.33125384  0.33712578  0.39822784
   0.74965621  0.74893216  0.60393630
   0.16793132  0.16527516  0.50028800
   0.91747358  0.66489045  0.50086357
   0.91453563  0.41758138  0.50116579
   0.91758406  0.91718325  0.50069338
   0.25219061 -0.00122915  0.60270425
   0.08193179  0.33379503  0.39642829
   0.00004968  0.25186870  0.60629193
   0.33194261  0.08125421  0.39577505
   0.91572543  0.16654356  0.49987297
   0.66528493  0.41661374  0.50042296
   0.66535932  0.66645212  0.50013106
   0.75045253 -0.00037564  0.59821244
   0.66625655  0.16808580  0.50079540
   0.74924343  0.50102199  0.59783356
   0.50120054  0.74924041  0.59734180
   0.41702055  0.91590829  0.49993649
  -0.00087938 -0.00056287  0.59859875
   0.83297255  0.33388065  0.40262099
   0.08416270  0.58402369  0.40232150
   0.58191530  0.58384368  0.40356770
   0.41792018  0.41524218  0.49979560
   0.00169214  0.49971004  0.59863980
   0.49990925 -0.00074431  0.59864888
   0.08474849  0.83333875  0.40246485
  -0.00054893  0.75047644  0.59907058
   0.16848493  0.91569990  0.50070606
   0.33175674  0.83305191  0.40316776
   0.24813027  0.49955278  0.59716079
   0.33211462  0.58577294  0.40254041
   0.24931316  0.25151558  0.59818848
   0.16806222  0.41569546  0.49976662
   0.50030094  0.50124320  0.59719923
   0.08427808  0.08173121  0.40252831
Direct configuration=    11
   0.24940284  0.74857156  0.60402520
   0.83700440  0.83159841  0.39431547
   0.83233155  0.58239486  0.39554146
   0.74863307  0.25097300  0.60246316
   0.83661374  0.08372008  0.39501482
   0.58158991  0.83157737  0.39795840
   0.41802894  0.66682180  0.50036045
   0.49786160  0.25152968  0.60255183
   0.58386223  0.33615722  0.39970632
   0.41701704  0.16759279  0.50129074
   0.58364057  0.08410444  0.39587812
   0.66562612  0.91618834  0.50142526
   0.16991459  0.66435330  0.50032533
   0.33148590  0.33694043  0.39782621
   0.74959733  0.74915044  0.60436408
   0.16741781  0.16528568  0.50044640
   0.91716861  0.66494016  0.50088504
   0.91493193  0.41704443  0.50124877
   0.91794505  0.91662064  0.50030739
   0.25233808 -0.00100410  0.60321044
   0.08155265  0.33384164  0.39585936
   0.00017931  0.25175329  0.60728990
   0.33181847  0.08154213  0.39510172
   0.91612304  0.16674294  0.50018334
   0.66502000  0.41658633  0.50057114
   0.66559356  0.66639484  0.50002435
   0.75026882 -0.00024001  0.59792334
   0.66573048  0.16835543  0.50088082
   0.74915488  0.50126140  0.59775688
   0.50138696  0.74935361  0.59723709
   0.41703984  0.91605088  0.49977254
  -0.00146697 -0.00038122  0.59864675
   0.83318730  0.33385625  0.40291376
   0.08397113  0.58433012  0.40244127
   0.58181599  0.58381608  0.40394074
   0.41828980  0.41514390  0.49957526
   0.00162143  0.49987122  0.59837062
   0.50015078 -0.00058720  0.59831478
   0.08502164  0.83342264  0.40285117
  -0.00100102  0.75069599  0.59890676
   0.16878570  0.91527368  0.50135188
   0.33152981  0.83330457  0.40346214
   0.24790178  0.49945834  0.59690653
   0.33210414  0.58590406  0.40290468
   0.24950940  0.25131964  0.59785058
   0.16786012  0.41562035  0.49942041
   0.50009025  0.50114882  0.59732317
   0.08434941  0.08159976  0.40307416
Direct configuration=    12
   0.24965076  0.74839895  0.60444646
   0.83698717  0.83179844  0.39387209
   0.83216538  0.58257563  0.39529001
   0.74874585  0.25118534  0.60264846
   0.83670963  0.08354330  0.39471883
   0.58176543  0.83156508  0.39780690
   0.41834826  0.66660974  0.50063984
   0.49787768  0.25160599  0.60259278
   0.58390701  0.33616788  0.39972812
   0.41699085  0.16756459  0.50099598
   0.58387331  0.08403721  0.39554526
   0.66567814  0.91630658  0.50118976
   0.16959582  0.66418401  0.50055216
   0.33133411  0.33705862  0.39760299
   0.74980819  0.74895681  0.60450478
   0.16782401  0.16488969  0.50052746
   0.91744214  0.66460834  0.50079656
   0.91495175  0.41730414  0.50127694
   0.91764815  0.91688095  0.50004340
   0.25211671 -0.00102601  0.60349788
   0.08169670  0.33374002  0.39555679
   0.00006536  0.25164764  0.60788410
   0.33179636  0.08167725  0.39474211
   0.91594355  0.16624334  0.50046563
   0.66467910  0.41645151  0.50076616
   0.66568012  0.66632890  0.49996622
   0.75019352 -0.00016304  0.59767550
   0.66600813  0.16820872  0.50082132
   0.74910825  0.50125033  0.59769582
   0.50122592  0.74922964  0.59713407
   0.41691700  0.91598191  0.49965832
  -0.00135279 -0.00010823  0.59870907
   0.83321557  0.33397948  0.40309802
   0.08391808  0.58437692  0.40254924
   0.58178881  0.58386451  0.40415344
   0.41865430  0.41505514  0.49954473
   0.00151797  0.49990083  0.59821719
   0.50005272 -0.00060849  0.59814389
   0.08512041  0.83346871  0.40309592
  -0.00097653  0.75050734  0.59877019
   0.16890295  0.91555959  0.50183120
   0.33134600  0.83320677  0.40375327
   0.24779153  0.49970346  0.59672498
   0.33219654  0.58611773  0.40313089
   0.24903281  0.25146984  0.59765223
   0.16785080  0.41557929  0.49910409
   0.49974071  0.50150639  0.59732412
   0.08446578  0.08160925  0.40355484
Direct configuration=    13
   0.24976700  0.74831802  0.60464397
   0.83697908  0.83189222  0.39366421
   0.83208746  0.58266038  0.39517211
   0.74879873  0.25128491  0.60273534
   0.83675460  0.08346041  0.39458005
   0.58184772  0.83155932  0.39773586
   0.41849798  0.66651031  0.50077083
   0.49788522  0.25164176  0.60261198
   0.58392800  0.33617287  0.39973835
   0.41697857  0.16755137  0.50085778
   0.58398244  0.08400568  0.39538918
   0.66570253  0.91636201  0.50107935
   0.16944635  0.66410463  0.50065851
   0.33126295  0.33711404  0.39749833
   0.74990706  0.74886603  0.60457075
   0.16801446  0.16470402  0.50056547
   0.91757039  0.66445275  0.50075507
   0.91496104  0.41742591  0.50129016
   0.91750894  0.91700300  0.49991962
   0.25201292 -0.00103629  0.60363266
   0.08176425  0.33369238  0.39541492
   0.00001194  0.25159810  0.60816271
   0.33178599  0.08174060  0.39457350
   0.91585938  0.16600908  0.50059799
   0.66451926  0.41638829  0.50085760
   0.66572071  0.66629798  0.49993896
   0.75015821 -0.00012696  0.59755930
   0.66613831  0.16813993  0.50079342
   0.74908639  0.50124514  0.59766720
   0.50115041  0.74917152  0.59708576
   0.41685940  0.91594957  0.49960476
  -0.00129926  0.00001976  0.59873829
   0.83322882  0.33403726  0.40318442
   0.08389321  0.58439886  0.40259986
   0.58177607  0.58388722  0.40425316
   0.41882520  0.41501352  0.49953042
   0.00146946  0.49991472  0.59814525
   0.50000675 -0.00061848  0.59806376
   0.08516672  0.83349031  0.40321067
  -0.00096504  0.75041889  0.59870616
   0.16895792  0.91569364  0.50205594
   0.33125981  0.83316092  0.40388977
   0.24773984  0.49981840  0.59663985
   0.33223986  0.58621791  0.40323695
   0.24880935  0.25154027  0.59755923
   0.16784644  0.41556004  0.49895578
   0.49957682  0.50167404  0.59732456
   0.08452034  0.08161370  0.40378022
Direct configuration=    14
   0.24960208  0.74848224  0.60491949
   0.83706972  0.83193792  0.39336091
   0.83203128  0.58284909  0.39510188
   0.74879748  0.25145327  0.60284747
   0.83685323  0.08347686  0.39448479
   0.58176685  0.83172263  0.39764610
   0.41834139  0.66672167  0.50098967
   0.49777096  0.25187559  0.60246657
   0.58407842  0.33593504  0.39979327
   0.41693324  0.16761832  0.50051753
   0.58403608  0.08398631  0.39518853
   0.66567822  0.91644042  0.50079622
   0.16915919  0.66434082  0.50074913
   0.33121843  0.33737766  0.39736840
   0.74988349  0.74876802  0.60445749
   0.16806237  0.16487603  0.50061470
   0.91743683  0.66468699  0.50056225
   0.91493745  0.41699619  0.50124743
   0.91735406  0.91699793  0.49980909
   0.25191197 -0.00112058  0.60383069
   0.08187447  0.33367905  0.39529899
  -0.00020040  0.25181645  0.60847384
   0.33196926  0.08145206  0.39439923
   0.91561460  0.16625715  0.50079274
   0.66491901  0.41600200  0.50102403
   0.66577176  0.66642318  0.49991959
   0.75023797 -0.00011488  0.59734772
   0.66628591  0.16795445  0.50066207
   0.74912014  0.50114289  0.59765584
   0.50104703  0.74922233  0.59706112
   0.41710455  0.91573198  0.49953208
  -0.00099274 -0.00016258  0.59884745
   0.83325819  0.33403465  0.40339183
   0.08385423  0.58444064  0.40260755
   0.58181936  0.58401642  0.40437170
   0.41874998  0.41483376  0.49958838
   0.00147527  0.49962392  0.59810516
   0.49972635 -0.00072668  0.59791863
   0.08510278  0.83348339  0.40337374
  -0.00076437  0.75045900  0.59860483
   0.16905229  0.91549547  0.50241392
   0.33133246  0.83309380  0.40420298
   0.24780121  0.49978638  0.59657110
   0.33230122  0.58624356  0.40340906
   0.24835456  0.25178452  0.59741990
   0.16827860  0.41506204  0.49871808
   0.49949733  0.50174546  0.59737331
   0.08448624  0.08179718  0.40416354
Direct configuration=    15
   0.24955793  0.74852621  0.60499326
   0.83709399  0.83195016  0.39327970
   0.83201623  0.58289962  0.39508308
   0.74879715  0.25149834  0.60287750
   0.83687964  0.08348127  0.39445929
   0.58174519  0.83176635  0.39762206
   0.41829946  0.66677825  0.50104826
   0.49774036  0.25193820  0.60242764
   0.58411870  0.33587136  0.39980797
   0.41692110  0.16763625  0.50042643
   0.58405044  0.08398113  0.39513480
   0.66567172  0.91646141  0.50072042
   0.16908231  0.66440406  0.50077339
   0.33120651  0.33744824  0.39733361
   0.74987718  0.74874178  0.60442716
   0.16807520  0.16492208  0.50062788
   0.91740107  0.66474971  0.50051063
   0.91493113  0.41688113  0.50123599
   0.91731260  0.91699657  0.49977950
   0.25188495 -0.00114315  0.60388371
   0.08190398  0.33367548  0.39526795
  -0.00025726  0.25187490  0.60855714
   0.33201833  0.08137481  0.39435258
   0.91554907  0.16632357  0.50084488
   0.66502603  0.41589857  0.50106859
   0.66578543  0.66645670  0.49991441
   0.75025932 -0.00011165  0.59729108
   0.66632542  0.16790479  0.50062691
   0.74912917  0.50111551  0.59765280
   0.50101935  0.74923593  0.59705452
   0.41717019  0.91567372  0.49951261
  -0.00091067 -0.00021141  0.59887667
   0.83326605  0.33403395  0.40344736
   0.08384380  0.58445183  0.40260961
   0.58183095  0.58405101  0.40440343
   0.41872984  0.41478563  0.49960389
   0.00147683  0.49954607  0.59809442
   0.49965128 -0.00075565  0.59787977
   0.08508567  0.83348154  0.40341740
  -0.00071065  0.75046975  0.59857770
   0.16907756  0.91544241  0.50250976
   0.33135191  0.83307582  0.40428684
   0.24781764  0.49977781  0.59655270
   0.33231765  0.58625042  0.40345514
   0.24823279  0.25184992  0.59738260
   0.16839431  0.41492871  0.49865444
   0.49947605  0.50176458  0.59738636
   0.08447711  0.08184630  0.40426617
Direct configuration=    16
   0.24939649  0.74853141  0.60520282
   0.83716457  0.83190876  0.39305585
   0.83208413  0.58294184  0.39512869
   0.74871953  0.25135104  0.60297611
   0.83705247  0.08356103  0.39449727
   0.58169414  0.83183506  0.39753901
   0.41825308  0.66654389  0.50118650
   0.49761886  0.25189439  0.60214606
   0.58420483  0.33582306  0.39989400
   0.41717586  0.16734079  0.50017181
   0.58397640  0.08405117  0.39496882
   0.66553735  0.91657904  0.50048267
   0.16917493  0.66441011  0.50076577
   0.33135146  0.33756326  0.39719485
   0.74981967  0.74880913  0.60412833
   0.16800901  0.16487749  0.50069124
   0.91732613  0.66457311  0.50034214
   0.91504576  0.41687304  0.50119610
   0.91734580  0.91709668  0.49977988
   0.25182641 -0.00099399  0.60400547
   0.08194117  0.33367825  0.39526039
  -0.00032153  0.25197473  0.60867879
   0.33206789  0.08119831  0.39427878
   0.91578886  0.16623061  0.50101974
   0.66502001  0.41599454  0.50116767
   0.66585603  0.66638313  0.49992250
   0.75025008 -0.00007496  0.59710119
   0.66619101  0.16788561  0.50048098
   0.74908937  0.50117137  0.59768474
   0.50104434  0.74931987  0.59712498
   0.41731335  0.91578882  0.49953577
  -0.00090811 -0.00034542  0.59901131
   0.83325028  0.33409525  0.40359989
   0.08383070  0.58452135  0.40253783
   0.58189842  0.58404467  0.40452200
   0.41856370  0.41484450  0.49968251
   0.00143732  0.49952759  0.59800454
   0.49941618 -0.00065829  0.59768053
   0.08505815  0.83351419  0.40351507
  -0.00070745  0.75055072  0.59852950
   0.16889079  0.91542065  0.50273490
   0.33140001  0.83310517  0.40457542
   0.24781433  0.49967855  0.59654759
   0.33242026  0.58615589  0.40360613
   0.24826474  0.25182594  0.59728263
   0.16831531  0.41497421  0.49852703
   0.49954913  0.50171262  0.59746571
   0.08448878  0.08191181  0.40456848
Direct configuration=    17
   0.24926518  0.74853565  0.60537329
   0.83722198  0.83187509  0.39287376
   0.83213936  0.58297619  0.39516579
   0.74865640  0.25123121  0.60305632