  56  56   0   0
  0.4903395E+02  0.1100258E-08  0.1100258E-08  0.2619179E-08  0.3500000E-15
  1.000000000000000E-004
  CAR 
 unknown system                          
      6.37957311    -21.67742174  301     -1.26496957      1.00000000
    -21.677  0.0000E+00  0.0000E+00
    -21.584  0.0000E+00  0.0000E+00
    -21.490  0.0000E+00  0.0000E+00
    -21.397  0.0000E+00  0.0000E+00
    -21.303  0.0000E+00  0.0000E+00
    -21.210  0.0000E+00  0.0000E+00
    -21.116  0.0000E+00  0.0000E+00
    -21.023  0.0000E+00  0.0000E+00
    -20.929  0.1189E-14  0.1112E-15
    -20.836  0.1229E-10  0.1150E-11
    -20.742  0.2314E-07  0.2165E-08
    -20.649  0.8131E-05  0.7626E-06
    -20.555  0.5590E-03  0.5304E-04
    -20.462  0.8276E-02  0.8270E-03
    -20.368  0.3171E-01  0.3792E-02
    -20.275  0.4651E-01  0.8142E-02
    -20.181  0.5865E-01  0.1363E-01
    -20.088  0.8295E-01  0.2138E-01
    -19.994  0.7925E-01  0.2880E-01
    -19.900  0.3076E-01  0.3167E-01
    -19.807  0.3400E-02  0.3199E-01
    -19.713  0.8818E-04  0.3200E-01
    -19.620  0.4792E-06  0.3200E-01
    -19.526  0.5096E-09  0.3200E-01
    -19.433  0.1017E-12  0.3200E-01
    -19.339  0.2374E-17  0.3200E-01
    -19.246  0.0000E+00  0.3200E-01
    -19.152  0.0000E+00  0.3200E-01
    -19.059  0.0000E+00  0.3200E-01
    -18.965  0.0000E+00  0.3200E-01
    -18.872  0.0000E+00  0.3200E-01
    -18.778  0.0000E+00  0.3200E-01
    -18.685  0.0000E+00  0.3200E-01
    -18.591  0.0000E+00  0.3200E-01
    -18.498  0.0000E+00  0.3200E-01
    -18.404  0.0000E+00  0.3200E-01
    -18.311  0.0000E+00  0.3200E-01
    -18.217  0.0000E+00  0.3200E-01
    -18.124  0.0000E+00  0.3200E-01
    -18.030  0.0000E+00  0.3200E-01
    -17.936  0.0000E+00  0.3200E-01
    -17.843  0.0000E+00  0.3200E-01
    -17.749  0.0000E+00  0.3200E-01
    -17.656  0.0000E+00  0.3200E-01
    -17.562  0.0000E+00  0.3200E-01
    -17.469  0.0000E+00  0.3200E-01
    -17.375  0.0000E+00  0.3200E-01
    -17.282  0.0000E+00  0.3200E-01
    -17.188  0.0000E+00  0.3200E-01
    -17.095  0.0000E+00  0.3200E-01
    -17.001  0.0000E+00  0.3200E-01
    -16.908  0.0000E+00  0.3200E-01
    -16.814  0.0000E+00  0.3200E-01
    -16.721  0.0000E+00  0.3200E-01
    -16.627  0.0000E+00  0.3200E-01
    -16.534  0.0000E+00  0.3200E-01
    -16.440  0.0000E+00  0.3200E-01
    -16.347  0.0000E+00  0.3200E-01
    -16.253  0.0000E+00  0.3200E-01
    -16.160  0.0000E+00  0.3200E-01
    -16.066  0.0000E+00  0.3200E-01
    -15.972  0.0000E+00  0.3200E-01
    -15.879  0.0000E+00  0.3200E-01
    -15.785  0.0000E+00  0.3200E-01
    -15.692  0.0000E+00  0.3200E-01
    -15.598  0.0000E+00  0.3200E-01
    -15.505  0.0000E+00  0.3200E-01
    -15.411  0.0000E+00  0.3200E-01
    -15.318  0.0000E+00  0.3200E-01
    -15.224  0.0000E+00  0.3200E-01
    -15.131  0.0000E+00  0.3200E-01
    -15.037  0.0000E+00  0.3200E-01
    -14.944  0.0000E+00  0.3200E-01
    -14.850  0.0000E+00  0.3200E-01
    -14.757  0.0000E+00  0.3200E-01
    -14.663  0.0000E+00  0.3200E-01
    -14.570  0.0000E+00  0.3200E-01
    -14.476  0.0000E+00  0.3200E-01
    -14.383  0.0000E+00  0.3200E-01
    -14.289  0.0000E+00  0.3200E-01
    -14.196  0.0000E+00  0.3200E-01
    -14.102  0.0000E+00  0.3200E-01
    -14.009  0.0000E+00  0.3200E-01
    -13.915  0.0000E+00  0.3200E-01
    -13.821  0.0000E+00  0.3200E-01
    -13.728  0.0000E+00  0.3200E-01
    -13.634  0.0000E+00  0.3200E-01
    -13.541  0.0000E+00  0.3200E-01
    -13.447  0.0000E+00  0.3200E-01
    -13.354  0.0000E+00  0.3200E-01
    -13.260  0.0000E+00  0.3200E-01
    -13.167  0.0000E+00  0.3200E-01
    -13.073  0.0000E+00  0.3200E-01
    -12.980  0.0000E+00  0.3200E-01
    -12.886  0.0000E+00  0.3200E-01
    -12.793  0.0000E+00  0.3200E-01
    -12.699  0.0000E+00  0.3200E-01
    -12.606  0.0000E+00  0.3200E-01
    -12.512  0.0000E+00  0.3200E-01
    -12.419  0.0000E+00  0.3200E-01
    -12.325  0.0000E+00  0.3200E-01
    -12.232  0.0000E+00  0.3200E-01
    -12.138  0.0000E+00  0.3200E-01
    -12.045  0.0000E+00  0.3200E-01
    -11.951  0.0000E+00  0.3200E-01
    -11.857  0.0000E+00  0.3200E-01
    -11.764  0.0000E+00  0.3200E-01
    -11.670  0.0000E+00  0.3200E-01
    -11.577  0.0000E+00  0.3200E-01
    -11.483  0.0000E+00  0.3200E-01
    -11.390  0.0000E+00  0.3200E-01
    -11.296  0.0000E+00  0.3200E-01
    -11.203  0.0000E+00  0.3200E-01
    -11.109  0.0000E+00  0.3200E-01
    -11.016  0.0000E+00  0.3200E-01
    -10.922  0.0000E+00  0.3200E-01
    -10.829  0.0000E+00  0.3200E-01
    -10.735  0.0000E+00  0.3200E-01
    -10.642  0.0000E+00  0.3200E-01
    -10.548  0.0000E+00  0.3200E-01
    -10.455  0.0000E+00  0.3200E-01
    -10.361  0.0000E+00  0.3200E-01
    -10.268  0.0000E+00  0.3200E-01
    -10.174  0.1187E-17  0.3200E-01
    -10.081  0.4186E-13  0.3200E-01
     -9.987  0.2069E-09  0.3200E-01
     -9.893  0.1865E-06  0.3200E-01
     -9.800  0.3140E-04  0.3200E-01
     -9.706  0.1027E-02  0.3210E-01
     -9.613  0.6892E-02  0.3274E-01
     -9.519  0.1009E-01  0.3369E-01
     -9.426  0.4835E-02  0.3414E-01
     -9.332  0.8480E-02  0.3493E-01
     -9.239  0.9109E-02  0.3578E-01
     -9.145  0.2200E-02  0.3599E-01
     -9.052  0.2806E-03  0.3602E-01
     -8.958  0.2808E-02  0.3628E-01
     -8.865  0.1181E-01  0.3738E-01
     -8.771  0.1782E-01  0.3905E-01
     -8.678  0.1671E-01  0.4061E-01
     -8.584  0.1218E-01  0.4175E-01
     -8.491  0.8293E-02  0.4253E-01
     -8.397  0.1287E-01  0.4373E-01
     -8.304  0.1583E-01  0.4521E-01
     -8.210  0.1921E-01  0.4701E-01
     -8.117  0.1952E-01  0.4883E-01
     -8.023  0.2891E-01  0.5154E-01
     -7.929  0.6602E-01  0.5771E-01
     -7.836  0.9687E-01  0.6677E-01
     -7.742  0.1165E+00  0.7767E-01
     -7.649  0.1248E+00  0.8934E-01
     -7.555  0.1159E+00  0.1002E+00
     -7.462  0.1122E+00  0.1107E+00
     -7.368  0.1123E+00  0.1212E+00
     -7.275  0.1085E+00  0.1313E+00
     -7.181  0.1107E+00  0.1417E+00
     -7.088  0.1240E+00  0.1533E+00
     -6.994  0.1409E+00  0.1664E+00
     -6.901  0.1492E+00  0.1804E+00
     -6.807  0.1628E+00  0.1956E+00
     -6.714  0.1741E+00  0.2119E+00
     -6.620  0.1874E+00  0.2294E+00
     -6.527  0.1914E+00  0.2473E+00
     -6.433  0.1667E+00  0.2629E+00
     -6.340  0.1411E+00  0.2761E+00
     -6.246  0.1274E+00  0.2880E+00
     -6.153  0.1209E+00  0.2994E+00
     -6.059  0.1402E+00  0.3125E+00
     -5.966  0.1670E+00  0.3281E+00
     -5.872  0.1761E+00  0.3445E+00
     -5.778  0.1771E+00  0.3611E+00
     -5.685  0.1767E+00  0.3776E+00
     -5.591  0.1811E+00  0.3946E+00
     -5.498  0.1753E+00  0.4110E+00
     -5.404  0.1662E+00  0.4265E+00
     -5.311  0.1698E+00  0.4424E+00
     -5.217  0.1728E+00  0.4586E+00
     -5.124  0.1757E+00  0.4750E+00
     -5.030  0.1707E+00  0.4909E+00
     -4.937  0.1727E+00  0.5071E+00
     -4.843  0.1850E+00  0.5244E+00
     -4.750  0.1867E+00  0.5419E+00
     -4.656  0.1830E+00  0.5590E+00
     -4.563  0.1812E+00  0.5759E+00
     -4.469  0.1983E+00  0.5945E+00
     -4.376  0.2245E+00  0.6155E+00
     -4.282  0.2324E+00  0.6372E+00
     -4.189  0.2161E+00  0.6574E+00
     -4.095  0.2077E+00  0.6768E+00
     -4.002  0.2019E+00  0.6957E+00
     -3.908  0.1889E+00  0.7134E+00
     -3.814  0.1808E+00  0.7303E+00
     -3.721  0.1861E+00  0.7477E+00
     -3.627  0.2019E+00  0.7666E+00
     -3.534  0.2168E+00  0.7868E+00
     -3.440  0.2032E+00  0.8059E+00
     -3.347  0.1798E+00  0.8227E+00
     -3.253  0.1632E+00  0.8379E+00
     -3.160  0.1549E+00  0.8524E+00
     -3.066  0.1541E+00  0.8668E+00
     -2.973  0.1636E+00  0.8821E+00
     -2.879  0.1695E+00  0.8980E+00
     -2.786  0.1669E+00  0.9136E+00
     -2.692  0.1601E+00  0.9286E+00
     -2.599  0.1638E+00  0.9439E+00
     -2.505  0.1658E+00  0.9594E+00
     -2.412  0.1574E+00  0.9741E+00
     -2.318  0.1556E+00  0.9887E+00
     -2.225  0.1558E+00  0.1003E+01
     -2.131  0.1427E+00  0.1017E+01
     -2.038  0.1344E+00  0.1029E+01
     -1.944  0.1335E+00  0.1042E+01
     -1.850  0.1248E+00  0.1053E+01
     -1.757  0.1064E+00  0.1063E+01
     -1.663  0.1030E+00  0.1073E+01
     -1.570  0.9799E-01  0.1082E+01
     -1.476  0.8023E-01  0.1090E+01
     -1.383  0.7034E-01  0.1096E+01
     -1.289  0.6655E-01  0.1102E+01
     -1.196  0.7041E-01  0.1109E+01
     -1.102  0.8143E-01  0.1117E+01
     -1.009  0.9344E-01  0.1125E+01
     -0.915  0.7726E-01  0.1133E+01
     -0.822  0.5534E-01  0.1138E+01
     -0.728  0.5357E-01  0.1143E+01
     -0.635  0.6570E-01  0.1149E+01
     -0.541  0.6409E-01  0.1155E+01
     -0.448  0.4385E-01  0.1159E+01
     -0.354  0.3184E-01  0.1162E+01
     -0.261  0.2000E-01  0.1164E+01
     -0.167  0.1580E-01  0.1165E+01
     -0.074  0.2412E-01  0.1168E+01
      0.020  0.4077E-01  0.1171E+01
      0.114  0.4651E-01  0.1176E+01
      0.207  0.4026E-01  0.1179E+01
      0.301  0.3495E-01  0.1183E+01
      0.394  0.3545E-01  0.1186E+01
      0.488  0.2951E-01  0.1189E+01
      0.581  0.2967E-01  0.1192E+01
      0.675  0.2925E-01  0.1194E+01
      0.768  0.2060E-01  0.1196E+01
      0.862  0.1374E-01  0.1198E+01
      0.955  0.9842E-02  0.1198E+01
      1.049  0.1508E-01  0.1200E+01
      1.142  0.2278E-01  0.1202E+01
      1.236  0.3080E-01  0.1205E+01
      1.329  0.3553E-01  0.1208E+01
      1.423  0.3409E-01  0.1211E+01
      1.516  0.3770E-01  0.1215E+01
      1.610  0.4841E-01  0.1219E+01
      1.703  0.4246E-01  0.1223E+01
      1.797  0.2742E-01  0.1226E+01
      1.890  0.2527E-01  0.1228E+01
      1.984  0.3236E-01  0.1231E+01
      2.078  0.2890E-01  0.1234E+01
      2.171  0.1730E-01  0.1236E+01
      2.265  0.9125E-02  0.1237E+01
      2.358  0.1155E-01  0.1238E+01
      2.452  0.1474E-01  0.1239E+01
      2.545  0.1702E-01  0.1241E+01
      2.639  0.2000E-01  0.1242E+01
      2.732  0.2367E-01  0.1245E+01
      2.826  0.2573E-01  0.1247E+01
      2.919  0.3264E-01  0.1250E+01
      3.013  0.3657E-01  0.1254E+01
      3.106  0.2686E-01  0.1256E+01
      3.200  0.2532E-01  0.1258E+01
      3.293  0.2885E-01  0.1261E+01
      3.387  0.2561E-01  0.1264E+01
      3.480  0.2262E-01  0.1266E+01
      3.574  0.3110E-01  0.1269E+01
      3.667  0.4386E-01  0.1273E+01
      3.761  0.5327E-01  0.1278E+01
      3.854  0.4713E-01  0.1282E+01
      3.948  0.3873E-01  0.1286E+01
      4.041  0.3334E-01  0.1289E+01
      4.135  0.3124E-01  0.1292E+01
      4.229  0.4103E-01  0.1296E+01
      4.322  0.4225E-01  0.1299E+01
      4.416  0.4577E-01  0.1304E+01
      4.509  0.5081E-01  0.1308E+01
      4.603  0.5177E-01  0.1313E+01
      4.696  0.5614E-01  0.1319E+01
      4.790  0.5367E-01  0.1324E+01
      4.883  0.5164E-01  0.1328E+01
      4.977  0.6168E-01  0.1334E+01
      5.070  0.6122E-01  0.1340E+01
      5.164  0.3535E-01  0.1343E+01
      5.257  0.7654E-02  0.1344E+01
      5.351  0.4571E-03  0.1344E+01
      5.444  0.6226E-05  0.1344E+01
      5.538  0.1723E-07  0.1344E+01
      5.631  0.9093E-11  0.1344E+01
      5.725  0.8832E-15  0.1344E+01
      5.818  0.0000E+00  0.1344E+01
      5.912  0.0000E+00  0.1344E+01
      6.005  0.0000E+00  0.1344E+01
      6.099  0.0000E+00  0.1344E+01
      6.193  0.0000E+00  0.1344E+01
      6.286  0.0000E+00  0.1344E+01
      6.380  0.0000E+00  0.1344E+01
