unknown system                          
           1
    11.002582    0.000000    0.000000
     5.501291    9.528515    0.000000
     0.000000    0.000000   26.191785
   Au   O    Pd
  24   8  24
Direct configuration=     1
   0.08333333  0.08333333  0.38179910
   0.33333333  0.83333333  0.38179910
   0.08333333  0.83333333  0.38179910
   0.91666667  0.16666667  0.46754708
   0.83333333  0.83333333  0.38179910
   0.08333333  0.33333333  0.38179910
   0.91666667  0.41666667  0.46754708
   0.66666667  0.66666667  0.46754708
   0.83333333  0.58333333  0.38179910
   0.08333333  0.58333333  0.38179910
   0.66666667  0.41666667  0.46754708
   0.83333333  0.08333333  0.38179910
   0.83333333  0.33333333  0.38179910
   0.41666667  0.91666667  0.46754708
   0.58333333  0.83333333  0.38179910
   0.33333333  0.08333333  0.38179910
   0.58333333  0.58333333  0.38179910
   0.58333333  0.33333333  0.38179910
   0.33333333  0.33333333  0.38179910
   0.16666667  0.41666667  0.46754708
   0.41666667  0.16666667  0.46754708
   0.33333333  0.58333333  0.38179910
   0.16666667  0.66666667  0.46754708
   0.58333333  0.08333333  0.38179910
   0.08333333  0.08333333  0.61820090
   0.08333333  0.33333333  0.61820090
   0.33333333  0.33333333  0.61820090
   0.83333333  0.83333333  0.61820090
   0.83333333  0.58333333  0.61820090
   0.58333333  0.08333333  0.61820090
   0.58333333  0.58333333  0.61820090
   0.83333333  0.08333333  0.61820090
   0.25000000  0.00000000  0.55329505
   0.41666667  0.41666667  0.46754708
   0.50000000  0.25000000  0.55329505
   0.25000000  0.25000000  0.55329505
   0.50000000  0.00000000  0.55329505
   0.25000000  0.50000000  0.55329505
   0.75000000  0.75000000  0.55329505
   0.25000000  0.75000000  0.55329505
   0.16666667  0.16666667  0.46754708
   0.50000000  0.75000000  0.55329505
   0.00000000  0.75000000  0.55329505
   0.91666667  0.91666667  0.46754708
   0.66666667  0.16666667  0.46754708
   0.75000000  0.00000000  0.55329505
   0.00000000  0.50000000  0.55329505
   0.91666667  0.66666667  0.46754708
   0.75000000  0.25000000  0.55329505
   0.00000000  0.25000000  0.55329505
   0.75000000  0.50000000  0.55329505
   0.00000000  0.00000000  0.55329505
   0.66666667  0.91666667  0.46754708
   0.16666667  0.91666667  0.46754708
   0.41666667  0.66666667  0.46754708
   0.50000000  0.50000000  0.55329505
Direct configuration=     2
   0.08333333  0.08333333  0.38179910
   0.33333333  0.83333333  0.38179910
   0.08333333  0.83333333  0.38179910
   0.91768584  0.16501874  0.46876606
   0.83333333  0.83333333  0.38179910
   0.08333333  0.33333333  0.38179910
   0.91749040  0.41653807  0.46898525
   0.66685753  0.66771706  0.46874682
   0.83333333  0.58333333  0.38179910
   0.08333333  0.58333333  0.38179910
   0.66531339  0.41619509  0.46917810
   0.83333333  0.08333333  0.38179910
   0.83333333  0.33333333  0.38179910
   0.41571460  0.91683685  0.46957156
   0.58333333  0.83333333  0.38179910
   0.33333333  0.08333333  0.38179910
   0.58333333  0.58333333  0.38179910
   0.58333333  0.33333333  0.38179910
   0.33333333  0.33333333  0.38179910
   0.16638221  0.41683839  0.46877362
   0.41725975  0.16683444  0.46871794
   0.33333333  0.58333333  0.38179910
   0.16646756  0.66741983  0.46935680
   0.58333333  0.08333333  0.38179910
   0.08445152  0.08228372  0.61387253
   0.08303207  0.33387316  0.61412732
   0.33322548  0.33411430  0.61393378
   0.83455258  0.83210422  0.61412001
   0.83367038  0.58360271  0.61407784
   0.58212845  0.08344672  0.61405048
   0.58170288  0.58367499  0.61372015
   0.83353219  0.08425735  0.61406469
   0.24891890  0.00014654  0.55545349
   0.41759916  0.41658728  0.46878341
   0.49993843  0.24982739  0.55664161
   0.24971899  0.25084546  0.55697780
   0.50057136  0.00013832  0.55556575
   0.25071663  0.49950191  0.55557401
   0.75133219  0.74996634  0.55679708
   0.24994928  0.75002667  0.55399429
   0.16678605  0.16625456  0.46836328
   0.49991018  0.74849282  0.55571702
  -0.00108274  0.75049877  0.55541643
   0.91588394  0.91702109  0.46857912
   0.66648547  0.16587376  0.46857055
   0.75006940 -0.00008340  0.55713210
  -0.00037934  0.49983094  0.55691822
   0.91630803  0.66747050  0.46840270
   0.75018128  0.24876858  0.55561671
   0.00128334  0.24892751  0.55690651
   0.74903494  0.50067835  0.55696943
  -0.00005522  0.00045892  0.55666111
   0.66832222  0.91652927  0.46859493
   0.16625194  0.91678880  0.46850938
   0.41588389  0.66678601  0.46813081
   0.50023441  0.50129638  0.55542722
Direct configuration=     3
   0.08333333  0.08333333  0.38179910
   0.33333333  0.83333333  0.38179910
   0.08333333  0.83333333  0.38179910
   0.91967378  0.16180443  0.47114371
   0.83333333  0.83333333  0.38179910
   0.08333333  0.33333333  0.38179910
   0.91909712  0.41628724  0.47179045
   0.66722983  0.66976586  0.47108695
   0.83333333  0.58333333  0.38179910
   0.08333333  0.58333333  0.38179910
   0.66267379  0.41527528  0.47235945
   0.83333333  0.08333333  0.38179910
   0.83333333  0.33333333  0.38179910
   0.41385757  0.91716879  0.47352035
   0.58333333  0.83333333  0.38179910
   0.33333333  0.08333333  0.38179910
   0.58333333  0.58333333  0.38179910
   0.58333333  0.33333333  0.38179910
   0.33333333  0.33333333  0.38179910
   0.16582738  0.41717335  0.47116601
   0.41841658  0.16716169  0.47100173
   0.33333333  0.58333333  0.38179910
   0.16607920  0.66888889  0.47288670
   0.58333333  0.08333333  0.38179910
   0.08663257  0.08023641  0.60542993
   0.08244444  0.33492611  0.60618172
   0.33301510  0.33563760  0.60561066
   0.83693075  0.82970681  0.60616015
   0.83432780  0.58412813  0.60603571
   0.57977830  0.08366787  0.60595498
   0.57852264  0.58434139  0.60498034
   0.83392006  0.08605966  0.60599692
   0.24681018  0.00043238  0.55966357
   0.41941800  0.41643244  0.47119492
   0.49981835  0.24949071  0.56316915
   0.24917087  0.25249456  0.56416108
   0.50168580  0.00040812  0.55999481
   0.25211444  0.49853039  0.56001916
   0.75393065  0.74990070  0.56362788
   0.24985034  0.75007869  0.55535816
   0.16701892  0.16545073  0.46995531
   0.49973500  0.74555303  0.56044113
  -0.00319464  0.75147165  0.55955422
   0.91435722  0.91771239  0.47059214
   0.66613204  0.16432718  0.47056687
   0.75020477 -0.00024609  0.56461634
  -0.00111924  0.49950120  0.56398530
   0.91560851  0.66903840  0.47007162
   0.75053487  0.24636667  0.56014517
   0.00378653  0.24683561  0.56395074
   0.74715255  0.50200148  0.56413641
  -0.00016294  0.00135404  0.56322670
   0.67155141  0.91626128  0.47063879
   0.16544300  0.91702702  0.47038638
   0.41435707  0.66701879  0.46926941
   0.50069163  0.50382499  0.55958606
Direct configuration=     4
   0.08333333  0.08333333  0.38179910
   0.33333333  0.83333333  0.38179910
   0.08333333  0.83333333  0.38179910
   0.91916812  0.16262204  0.47053892
   0.83333333  0.83333333  0.38179910
   0.08333333  0.33333333  0.38179910
   0.91868843  0.41635104  0.47107691
   0.66713513  0.66924472  0.47049170
   0.83333333  0.58333333  0.38179910
   0.08333333  0.58333333  0.38179910
   0.66334521  0.41550924  0.47155023
   0.83333333  0.08333333  0.38179910
   0.83333333  0.33333333  0.38179910
   0.41432993  0.91708435  0.47251592
   0.58333333  0.83333333  0.38179910
   0.33333333  0.08333333  0.38179910
   0.58333333  0.58333333  0.38179910
   0.58333333  0.33333333  0.38179910
   0.33333333  0.33333333  0.38179910
   0.16596851  0.41708815  0.47055747
   0.41812233  0.16707845  0.47042082
   0.33333333  0.58333333  0.38179910
   0.16617799  0.66851521  0.47198882
   0.58333333  0.08333333  0.38179910
   0.08607779  0.08075717  0.60757742
   0.08259391  0.33465828  0.60820279
   0.33306861  0.33525013  0.60772776
   0.83632583  0.83031663  0.60818485
   0.83416058  0.58399448  0.60808134
   0.58037609  0.08361162  0.60801418
   0.57933158  0.58417188  0.60720344
   0.83382140  0.08560122  0.60804907
   0.24734657  0.00035967  0.55859268
   0.41895535  0.41647183  0.47058152
   0.49984890  0.24957635  0.56150878
   0.24931029  0.25207509  0.56233391
   0.50140232  0.00033949  0.55886822
   0.25175888  0.49877751  0.55888848
   0.75326970  0.74991739  0.56189037
   0.24987551  0.75006546  0.55501124
   0.16695969  0.16565520  0.46955035
   0.49977956  0.74630081  0.55923949
  -0.00265745  0.75122418  0.55850171
   0.91474557  0.91753655  0.47008010
   0.66622194  0.16472058  0.47005908
   0.75017034 -0.00020471  0.56271262
  -0.00093104  0.49958507  0.56218769
   0.91578644  0.66863958  0.46964711
   0.75044493  0.24697763  0.55899329
   0.00314981  0.24736771  0.56215894
   0.74763136  0.50166493  0.56231339
  -0.00013554  0.00112635  0.56155665
   0.67073002  0.91632945  0.47011890
   0.16564877  0.91696643  0.46990894
   0.41474544  0.66695958  0.46897979
   0.50057533  0.50318180  0.55852820
Direct configuration=     5
   0.08333333  0.08333333  0.38179910
   0.33333333  0.83333333  0.38179910
   0.08333333  0.83333333  0.38179910
   0.91932621  0.16236642  0.47072800
   0.83333333  0.83333333  0.38179910
   0.08333333  0.33333333  0.38179910
   0.91881620  0.41633109  0.47129999
   0.66716473  0.66940765  0.47067780
   0.83333333  0.58333333  0.38179910
   0.08333333  0.58333333  0.38179910
   0.66313530  0.41543610  0.47180322
   0.83333333  0.08333333  0.38179910
   0.83333333  0.33333333  0.38179910
   0.41418225  0.91711075  0.47282994
   0.58333333  0.83333333  0.38179910
   0.33333333  0.08333333  0.38179910
   0.58333333  0.58333333  0.38179910
   0.58333333  0.33333333  0.38179910
   0.33333333  0.33333333  0.38179910
   0.16592439  0.41711479  0.47074772
   0.41821432  0.16710448  0.47060243
   0.33333333  0.58333333  0.38179910
   0.16614710  0.66863204  0.47226953
   0.58333333  0.08333333  0.38179910
   0.08625124  0.08059437  0.60690604
   0.08254718  0.33474201  0.60757093
   0.33305188  0.33537127  0.60706588
   0.83651495  0.83012598  0.60755185
   0.83421286  0.58403626  0.60744180
   0.58018920  0.08362920  0.60737040
   0.57907868  0.58422487  0.60650842
   0.83385225  0.08574455  0.60740749
   0.24717887  0.00038240  0.55892748
   0.41909999  0.41645951  0.47077329
   0.49983935  0.24954958  0.56202787
   0.24926670  0.25220623  0.56290515
   0.50149095  0.00036095  0.55922043
   0.25187004  0.49870025  0.55924197
   0.75347634  0.74991217  0.56243358
   0.24986764  0.75006960  0.55511970
   0.16697821  0.16559127  0.46967696
   0.49976563  0.74606702  0.55961516
  -0.00282540  0.75130155  0.55883076
   0.91462416  0.91759152  0.47024019
   0.66619383  0.16459759  0.47021783
   0.75018110 -0.00021764  0.56330779
  -0.00098988  0.49955885  0.56274969
   0.91573082  0.66876427  0.46977983
   0.75047305  0.24678662  0.55935341
   0.00334887  0.24720136  0.56271912
   0.74748167  0.50177015  0.56288333
  -0.00014410  0.00119754  0.56207877
   0.67098682  0.91630814  0.47028144
   0.16558444  0.91698537  0.47005821
   0.41462402  0.66697809  0.46907034
   0.50061169  0.50338288  0.55885893
Direct configuration=     6
   0.08333333  0.08333333  0.38179910
   0.33333333  0.83333333  0.38179910
   0.08333333  0.83333333  0.38179910
   0.91897294  0.16279811  0.47250855
   0.83333333  0.83333333  0.38179910
   0.08333333  0.33333333  0.38179910
   0.91765868  0.41613859  0.47354333
   0.66740909  0.66925607  0.47253587
   0.83333333  0.58333333  0.38179910
   0.08333333  0.58333333  0.38179910
   0.66484687  0.41475346  0.47356994
   0.83333333  0.08333333  0.38179910
   0.83333333  0.33333333  0.38179910
   0.41459456  0.91719388  0.47507562
   0.58333333  0.83333333  0.38179910
   0.33333333  0.08333333  0.38179910
   0.58333333  0.58333333  0.38179910
   0.58333333  0.33333333  0.38179910
   0.33333333  0.33333333  0.38179910
   0.16615545  0.41738062  0.47256798
   0.41816648  0.16717343  0.47235629
   0.33333333  0.58333333  0.38179910
   0.16519620  0.66825956  0.47366269
   0.58333333  0.08333333  0.38179910
   0.09016993  0.07748118  0.60632579
   0.08282428  0.33425281  0.60705539
   0.33279947  0.33832669  0.60614584
   0.84012032  0.82771183  0.60671930
   0.83386208  0.58403614  0.60689304
   0.57755667  0.08296183  0.60625832
   0.57555027  0.58497116  0.60623208
   0.83389744  0.08829491  0.60638330
   0.25345100 -0.00361170  0.55989340
   0.41874664  0.41632407  0.47247551
   0.50177505  0.25315123  0.56299788
   0.25172154  0.24689264  0.56398666
   0.49859144 -0.00284148  0.56013642
   0.24941776  0.50484252  0.56022353
   0.74739021  0.75237655  0.56323458
   0.24915871  0.75021415  0.55629668
   0.16723404  0.16571111  0.47114199
   0.49604235  0.75292244  0.56036086
   0.00368508  0.74826784  0.55963603
   0.91463311  0.91771405  0.47174515
   0.66631503  0.16422013  0.47178247
   0.75039037 -0.00040815  0.56382562
   0.00167622  0.50227854  0.56343217
   0.91600977  0.66882368  0.47128501
   0.74767063  0.25198888  0.56024308
  -0.00279552  0.25100381  0.56327822
   0.75062205  0.49566259  0.56342882
   0.00251342 -0.00437655  0.56307504
   0.67102375  0.91633932  0.47186273
   0.16500775  0.91709929  0.47112251
   0.41479096  0.66725948  0.46991534
   0.49843677  0.50083446  0.55952208
Direct configuration=     7
   0.08333333  0.08333333  0.38179910
   0.33333333  0.83333333  0.38179910
   0.08333333  0.83333333  0.38179910
   0.91865240  0.16318980  0.47412418
   0.83333333  0.83333333  0.38179910
   0.08333333  0.33333333  0.38179910
   0.91660837  0.41596391  0.47557888
   0.66763082  0.66911852  0.47422183
   0.83333333  0.58333333  0.38179910
   0.08333333  0.58333333  0.38179910
   0.66639990  0.41413405  0.47517302
   0.83333333  0.08333333  0.38179910
   0.83333333  0.33333333  0.38179910
   0.41496867  0.91726931  0.47711329
   0.58333333  0.83333333  0.38179910
   0.33333333  0.08333333  0.38179910
   0.58333333  0.58333333  0.38179910
   0.58333333  0.33333333  0.38179910
   0.33333333  0.33333333  0.38179910
   0.16636510  0.41762182  0.47421964
   0.41812306  0.16723599  0.47394770
   0.33333333  0.58333333  0.38179910
   0.16433338  0.66792158  0.47492680
   0.58333333  0.08333333  0.38179910
   0.09372565  0.07465635  0.60579928
   0.08307572  0.33380892  0.60658760
   0.33257044  0.34100836  0.60531103
   0.84339174  0.82552129  0.60596386
   0.83354380  0.58403602  0.60639510
   0.57516798  0.08235626  0.60524924
   0.57234868  0.58564832  0.60598135
   0.83393844  0.09060904  0.60545397
   0.25914216 -0.00723584  0.56076986
   0.41842602  0.41620117  0.47402005
   0.50353146  0.25641927  0.56387803
   0.25394899  0.24207122  0.56496799
   0.49596050 -0.00574729  0.56096756
   0.24719262  0.51041587  0.56111418
   0.74186781  0.75461266  0.56396139
   0.24851545  0.75034531  0.55736463
   0.16746618  0.16581986  0.47247133
   0.49266395  0.75914287  0.56103749
   0.00959253  0.74551512  0.56036671
   0.91464123  0.91782523  0.47311071
   0.66642501  0.16387763  0.47320218
   0.75058025 -0.00058100  0.56429548
   0.00409537  0.50474632  0.56405143
   0.91626289  0.66887759  0.47265078
   0.74512779  0.25670929  0.56105035
  -0.00837079  0.25445406  0.56378554
   0.75347155  0.49012075  0.56392379
   0.00492480 -0.00943434  0.56397904
   0.67105726  0.91636762  0.47329755
   0.16448448  0.91720265  0.47208823
   0.41494244  0.66751480  0.47068207
   0.49646331  0.49852208  0.56012380
Direct configuration=     8
   0.08333333  0.08333333  0.38179910
   0.33333333  0.83333333  0.38179910
   0.08333333  0.83333333  0.38179910
   0.91890046  0.16260786  0.47541566
   0.83333333  0.83333333  0.38179910
   0.08333333  0.33333333  0.38179910
   0.91705012  0.41638537  0.47666645
   0.66757761  0.66866368  0.47551162
   0.83333333  0.58333333  0.38179910
   0.08333333  0.58333333  0.38179910
   0.66570313  0.41493489  0.47549413
   0.83333333  0.08333333  0.38179910
   0.83333333  0.33333333  0.38179910
   0.41515824  0.91729750  0.47617588
   0.58333333  0.83333333  0.38179910
   0.33333333  0.08333333  0.38179910
   0.58333333  0.58333333  0.38179910
   0.58333333  0.33333333  0.38179910
   0.33333333  0.33333333  0.38179910
   0.16630263  0.41691994  0.47553549
   0.41831230  0.16737533  0.47534273
   0.33333333  0.58333333  0.38179910
   0.16485956  0.66802740  0.47441161
   0.58333333  0.08333333  0.38179910
   0.09780931  0.07232965  0.60567657
   0.08282855  0.33339424  0.60725403
   0.33090626  0.34500557  0.60563954
   0.84762424  0.82214920  0.60588957
   0.83246202  0.58348047  0.60680276
   0.57240029  0.08131393  0.60532843
   0.56913621  0.58774989  0.60558760
   0.83299130  0.09383197  0.60582535
   0.25753102 -0.00670018  0.56253354
   0.41816264  0.41633526  0.47485548
   0.50522812  0.25702802  0.56431519
   0.25655205  0.23836085  0.56552910
   0.49497041 -0.00480292  0.56246970
   0.24564158  0.51285928  0.56260131
   0.73912756  0.75544567  0.56477906
   0.25071461  0.75069559  0.55887018
   0.16730042  0.16598735  0.47369233
   0.49414648  0.75485180  0.56318244
   0.01096566  0.74445026  0.56190606
   0.91466472  0.91774174  0.47416811
   0.66673203  0.16395602  0.47433360
   0.75056316 -0.00064149  0.56395865
   0.00673224  0.50766679  0.56437914
   0.91585719  0.66875297  0.47385235
   0.74470260  0.25833517  0.56234517
  -0.00946618  0.25239644  0.56461466
   0.75098043  0.49080583  0.56508963
   0.00809424 -0.01274112  0.56449259
   0.67049153  0.91660823  0.47447138
   0.16449467  0.91729908  0.47287945
   0.41538353  0.66715093  0.47148516
   0.49367493  0.50069462  0.56098173
Direct configuration=     9
   0.08333333  0.08333333  0.38179910
   0.33333333  0.83333333  0.38179910
   0.08333333  0.83333333  0.38179910
   0.91890992  0.16258567  0.47546491
   0.83333333  0.83333333  0.38179910
   0.08333333  0.33333333  0.38179910
   0.91706696  0.41640144  0.47670793
   0.66757558  0.66864633  0.47556081
   0.83333333  0.58333333  0.38179910
   0.08333333  0.58333333  0.38179910
   0.66567656  0.41496543  0.47550638
   0.83333333  0.08333333  0.38179910
   0.83333333  0.33333333  0.38179910
   0.41516547  0.91729858  0.47614013
   0.58333333  0.83333333  0.38179910
   0.33333333  0.08333333  0.38179910
   0.58333333  0.58333333  0.38179910
   0.58333333  0.33333333  0.38179910
   0.33333333  0.33333333  0.38179910
   0.16630025  0.41689317  0.47558567
   0.41831952  0.16738064  0.47539594
   0.33333333  0.58333333  0.38179910
   0.16487963  0.66803144  0.47439196
   0.58333333  0.08333333  0.38179910
   0.09796505  0.07224092  0.60567189
   0.08281913  0.33337842  0.60727945
   0.33084279  0.34515801  0.60565207
   0.84778565  0.82202061  0.60588674
   0.83242077  0.58345928  0.60681831
   0.57229474  0.08127418  0.60533145
   0.56901369  0.58783004  0.60557259
   0.83295518  0.09395488  0.60583951
   0.25746958 -0.00667976  0.56260080
   0.41815259  0.41634038  0.47488734
   0.50529282  0.25705123  0.56433187
   0.25665132  0.23821935  0.56555050
   0.49493265 -0.00476690  0.56252699
   0.24558243  0.51295246  0.56265802
   0.73902305  0.75547744  0.56481024
   0.25079848  0.75070895  0.55892759
   0.16729410  0.16599374  0.47373890
   0.49420301  0.75468816  0.56326424
   0.01101802  0.74440965  0.56196476
   0.91466561  0.91773856  0.47420844
   0.66674374  0.16395901  0.47437675
   0.75056251 -0.00064379  0.56394580
   0.00683281  0.50777817  0.56439164
   0.91584172  0.66874822  0.47389817
   0.74468639  0.25839717  0.56239455
  -0.00950796  0.25231797  0.56464628
   0.75088543  0.49083195  0.56513409
   0.00821511 -0.01286723  0.56451218
   0.67046996  0.91661740  0.47451615
   0.16449506  0.91730276  0.47290962
   0.41540035  0.66713705  0.47151579
   0.49356859  0.50077748  0.56101445
Direct configuration=    10
   0.08333333  0.08333333  0.38179910
   0.33333333  0.83333333  0.38179910
   0.08333333  0.83333333  0.38179910
   0.91901087  0.16221073  0.47601441
   0.83333333  0.83333333  0.38179910
   0.08333333  0.33333333  0.38179910
   0.91763137  0.41665868  0.47718187
   0.66717306  0.66843164  0.47610745
   0.83333333  0.58333333  0.38179910
   0.08333333  0.58333333  0.38179910
   0.66463683  0.41562917  0.47525593
   0.83333333  0.08333333  0.38179910
   0.83333333  0.33333333  0.38179910
   0.41511825  0.91691188  0.47548258
   0.58333333  0.83333333  0.38179910
   0.33333333  0.08333333  0.38179910
   0.58333333  0.58333333  0.38179910
   0.58333333  0.33333333  0.38179910
   0.33333333  0.33333333  0.38179910
   0.16653356  0.41625704  0.47618731
   0.41868708  0.16741338  0.47605907
   0.33333333  0.58333333  0.38179910
   0.16572212  0.66836556  0.47392450
   0.58333333  0.08333333  0.38179910
   0.09731717  0.07202403  0.60713453
   0.08271050  0.33343362  0.60740242
   0.33031260  0.34653177  0.60630077
   0.84875446  0.82104240  0.60637416
   0.83242557  0.58282566  0.60725141
   0.57239113  0.08126839  0.60632933
   0.56795123  0.58786004  0.60706487
   0.83293029  0.09467866  0.60646413
   0.26015199 -0.00814298  0.56273284
   0.41770899  0.41666060  0.47514086
   0.50474086  0.25679714  0.56499923
   0.25658335  0.23863885  0.56655929
   0.49356506 -0.00545754  0.56310132
   0.24537866  0.51366972  0.56364270
   0.73949801  0.75492959  0.56584718
   0.25265079  0.75054602  0.55987457
   0.16704498  0.16587992  0.47451303
   0.49391026  0.75435945  0.56407772
   0.01172930  0.74465514  0.56283347
   0.91483543  0.91721863  0.47473716
   0.66704935  0.16445373  0.47482218
   0.75074721 -0.00070664  0.56426463
   0.00702309  0.50749147  0.56552405
   0.91542509  0.66897673  0.47453135
   0.74481223  0.25853575  0.56345544
  -0.00831015  0.25101414  0.56559886
   0.74924056  0.49251968  0.56599084
   0.00822996 -0.01269322  0.56525301
   0.66987938  0.91670011  0.47504746
   0.16519628  0.91704991  0.47336039
   0.41547765  0.66707163  0.47209306
   0.49144506  0.50241589  0.56128683
Direct configuration=    11
   0.08333333  0.08333333  0.38179910
   0.33333333  0.83333333  0.38179910
   0.08333333  0.83333333  0.38179910
   0.91909191  0.16190972  0.47645555
   0.83333333  0.83333333  0.38179910
   0.08333333  0.33333333  0.38179910
   0.91808448  0.41686519  0.47756236
   0.66684991  0.66825928  0.47654631
   0.83333333  0.58333333  0.38179910
   0.08333333  0.58333333  0.38179910
   0.66380212  0.41616203  0.47505486
   0.83333333  0.08333333  0.38179910
   0.83333333  0.33333333  0.38179910
   0.41508034  0.91660144  0.47495470
   0.58333333  0.83333333  0.38179910
   0.33333333  0.08333333  0.38179910
   0.58333333  0.58333333  0.38179910
   0.58333333  0.33333333  0.38179910
   0.33333333  0.33333333  0.38179910
   0.16672086  0.41574634  0.47667031
   0.41898217  0.16743966  0.47659144
   0.33333333  0.58333333  0.38179910
   0.16639849  0.66863379  0.47354922
   0.58333333  0.08333333  0.38179910
   0.09679704  0.07184991  0.60830876
   0.08262329  0.33347794  0.60750114
   0.32988696  0.34763465  0.60682157
   0.84953222  0.82025708  0.60676547
   0.83242942  0.58231698  0.60759912
   0.57246851  0.08126375  0.60713044
   0.56709827  0.58788413  0.60826291
   0.83291030  0.09525972  0.60696558
   0.26230546 -0.00931768  0.56283884
   0.41735286  0.41691768  0.47534439
   0.50429774  0.25659314  0.56553500
   0.25652878  0.23897563  0.56736916
   0.49246714 -0.00601199  0.56356240
   0.24521508  0.51424554  0.56443321
   0.73987930  0.75448978  0.56667966
   0.25413786  0.75041522  0.56063482
   0.16684498  0.16578854  0.47513452
   0.49367523  0.75409557  0.56473080
   0.01230032  0.74485222  0.56353088
   0.91497175  0.91680123  0.47516163
   0.66729469  0.16485089  0.47517977
   0.75089550 -0.00075710  0.56452060
   0.00717586  0.50726131  0.56643317
   0.91509061  0.66916018  0.47503968
   0.74491326  0.25864701  0.56430714
  -0.00734853  0.24996741  0.56636362
   0.74792003  0.49387462  0.56667865
   0.00824189 -0.01255353  0.56584777
   0.66940525  0.91676650  0.47547400
   0.16575923  0.91684692  0.47372227
   0.41553971  0.66701911  0.47255651
   0.48974025  0.50373124  0.56150551
Direct configuration=    12
   0.08333333  0.08333333  0.38179910
   0.33333333  0.83333333  0.38179910
   0.08333333  0.83333333  0.38179910
   0.91895111  0.16202678  0.47689638
   0.83333333  0.83333333  0.38179910
   0.08333333  0.33333333  0.38179910
   0.91795116  0.41680721  0.47814623
   0.66669936  0.66809781  0.47698136
   0.83333333  0.58333333  0.38179910
   0.08333333  0.58333333  0.38179910
   0.66372304  0.41621417  0.47517452
   0.83333333  0.08333333  0.38179910
   0.83333333  0.33333333  0.38179910
   0.41522772  0.91631232  0.47469020
   0.58333333  0.83333333  0.38179910
   0.33333333  0.08333333  0.38179910
   0.58333333  0.58333333  0.38179910
   0.58333333  0.33333333  0.38179910
   0.33333333  0.33333333  0.38179910
   0.16697664  0.41582722  0.47720838
   0.41930546  0.16723543  0.47707930
   0.33333333  0.58333333  0.38179910
   0.16675203  0.66874506  0.47381048
   0.58333333  0.08333333  0.38179910
   0.09816101  0.07035367  0.60935639
   0.08256714  0.33335973  0.60825503
   0.33004406  0.34781372  0.60795140
   0.84923469  0.82069667  0.60769411
   0.83278392  0.58181018  0.60872049
   0.57293869  0.08062857  0.60784660
   0.56589459  0.58731341  0.60994061
   0.83330545  0.09444796  0.60788491
   0.26079952 -0.00867551  0.56355059
   0.41679307  0.41708155  0.47557695
   0.50364396  0.25602512  0.56635484
   0.25674872  0.23968345  0.56841476
   0.49326851 -0.00634519  0.56431645
   0.24447752  0.51550914  0.56496838
   0.74042167  0.75437682  0.56760412
   0.25396902  0.75084118  0.56131039
   0.16678065  0.16559645  0.47573352
   0.49418465  0.75403616  0.56536602
   0.01390491  0.74479699  0.56393148
   0.91517028  0.91632767  0.47558349
   0.66748665  0.16528384  0.47551358
   0.75041219 -0.00067229  0.56541176
   0.00689283  0.50704715  0.56736136
   0.91513744  0.66935532  0.47561753
   0.74403812  0.26021550  0.56499716
  -0.00664250  0.24902483  0.56720060
   0.74645114  0.49402379  0.56718289
   0.00825131 -0.01160139  0.56676291
   0.66896981  0.91682035  0.47592505
   0.16612657  0.91670778  0.47417783
   0.41549459  0.66721377  0.47295584
   0.49012850  0.50398446  0.56194814
Direct configuration=    13
   0.08333333  0.08333333  0.38179910
   0.33333333  0.83333333  0.38179910
   0.08333333  0.83333333  0.38179910
   0.91876957  0.16217770  0.47746470
   0.83333333  0.83333333  0.38179910
   0.08333333  0.33333333  0.38179910
   0.91777928  0.41673247  0.47889896
   0.66650527  0.66788964  0.47754225
   0.83333333  0.58333333  0.38179910
   0.08333333  0.58333333  0.38179910
   0.66362109  0.41628139  0.47532878
   0.83333333  0.08333333  0.38179910
   0.83333333  0.33333333  0.38179910
   0.41541772  0.91593957  0.47434920
   0.58333333  0.83333333  0.38179910
   0.33333333  0.08333333  0.38179910
   0.58333333  0.58333333  0.38179910
   0.58333333  0.33333333  0.38179910
   0.33333333  0.33333333  0.38179910
   0.16730640  0.41593149  0.47790208
   0.41972224  0.16697214  0.47770827
   0.33333333  0.58333333  0.38179910
   0.16720783  0.66888852  0.47414731
   0.58333333  0.08333333  0.38179910
   0.09991947  0.06842466  0.61070703
   0.08249476  0.33320733  0.60922697
   0.33024660  0.34804458  0.60940802
   0.84885109  0.82126341  0.60889135
   0.83324096  0.58115679  0.61016619
   0.57354486  0.07980967  0.60876989
   0.56434275  0.58657762  0.61210357
   0.83381488  0.09340140  0.60907013
   0.25885801 -0.00784759  0.56446821
   0.41607137  0.41729281  0.47587677
   0.50280109  0.25529280  0.56741182
   0.25703227  0.24059599  0.56976280
   0.49430165 -0.00677475  0.56528860
   0.24352664  0.51713822  0.56565835
   0.74112090  0.75423119  0.56879598
   0.25375135  0.75139035  0.56218136
   0.16669772  0.16534881  0.47650577
   0.49484143  0.75395958  0.56618496
   0.01597360  0.74472580  0.56444796
   0.91542622  0.91571714  0.47612737
   0.66773414  0.16584201  0.47594393
   0.74978909 -0.00056296  0.56656069
   0.00652793  0.50677105  0.56855801
   0.91519781  0.66960690  0.47636252
   0.74290987  0.26223765  0.56588676
  -0.00573226  0.24780962  0.56827966
   0.74455740  0.49421612  0.56783298
   0.00826345 -0.01037386  0.56794274
   0.66840843  0.91688977  0.47650655
   0.16660015  0.91652839  0.47476515
   0.41543642  0.66746472  0.47347067
   0.49062905  0.50431092  0.56251881
Direct configuration=    14
   0.08333333  0.08333333  0.38179910
   0.33333333  0.83333333  0.38179910
   0.08333333  0.83333333  0.38179910
   0.91866768  0.16233979  0.47799496
   0.83333333  0.83333333  0.38179910
   0.08333333  0.33333333  0.38179910
   0.91735528  0.41649350  0.47979969
   0.66698082  0.66783585  0.47807416
   0.83333333  0.58333333  0.38179910
   0.08333333  0.58333333  0.38179910
   0.66414242  0.41590254  0.47581686
   0.83333333  0.08333333  0.38179910
   0.83333333  0.33333333  0.38179910
   0.41542427  0.91635363  0.47523057
   0.58333333  0.83333333  0.38179910
   0.33333333  0.08333333  0.38179910
   0.58333333  0.58333333  0.38179910
   0.58333333  0.33333333  0.38179910
   0.33333333  0.33333333  0.38179910
   0.16700448  0.41647741  0.47852829
   0.41969149  0.16662288  0.47819616
   0.33333333  0.58333333  0.38179910
   0.16696544  0.66880479  0.47497691
   0.58333333  0.08333333  0.38179910
   0.10185671  0.06702343  0.61218925
   0.08237676  0.33277975  0.61081738
   0.33015079  0.34913136  0.61080043
   0.84977823  0.82187434  0.60974826
   0.83251947  0.58049697  0.61148909
   0.57391083  0.07899692  0.60988669
   0.56265635  0.58634430  0.61325410
   0.83302664  0.09353821  0.60983557
   0.25820542 -0.00701469  0.56513331
   0.41602917  0.41716748  0.47637586
   0.50233545  0.25563264  0.56835381
   0.25756177  0.24114363  0.57093928
   0.49497937 -0.00729749  0.56592103
   0.24482470  0.51548992  0.56642700
   0.74250221  0.75327056  0.56997816
   0.25276484  0.75221946  0.56272814
   0.16703740  0.16534089  0.47707214
   0.49571356  0.75348367  0.56721473
   0.01401418  0.74664968  0.56524052
   0.91530164  0.91591126  0.47669339
   0.66770525  0.16575272  0.47642323