  48  48   0   0
  0.5349325E+02  0.1100258E-08  0.1100258E-08  0.2449179E-08  0.3500000E-15
  1.000000000000000E-004
  CAR 
 unknown system                          
      6.37286748    -10.13897368  301     -1.10474389      1.00000000
    -10.139  0.0000E+00  0.0000E+00
    -10.084  0.0000E+00  0.0000E+00
    -10.029  0.0000E+00  0.0000E+00
     -9.974  0.0000E+00  0.0000E+00
     -9.919  0.0000E+00  0.0000E+00
     -9.864  0.0000E+00  0.0000E+00
     -9.809  0.0000E+00  0.0000E+00
     -9.754  0.0000E+00  0.0000E+00
     -9.699  0.4236E-16  0.2331E-17
     -9.644  0.1643E-13  0.9067E-15
     -9.589  0.3518E-11  0.1945E-12
     -9.534  0.4156E-09  0.2307E-10
     -9.479  0.2716E-07  0.1518E-08
     -9.423  0.9836E-06  0.5565E-07
     -9.368  0.1980E-04  0.1145E-05
     -9.313  0.2221E-03  0.1337E-04
     -9.258  0.1392E-02  0.8999E-04
     -9.203  0.4890E-02  0.3591E-03
     -9.148  0.9646E-02  0.8900E-03
     -9.093  0.1077E-01  0.1483E-02
     -9.038  0.7339E-02  0.1887E-02
     -8.983  0.5404E-02  0.2184E-02
     -8.928  0.8205E-02  0.2636E-02
     -8.873  0.1102E-01  0.3242E-02
     -8.818  0.8734E-02  0.3723E-02
     -8.763  0.3906E-02  0.3938E-02
     -8.708  0.9829E-03  0.3992E-02
     -8.653  0.1713E-03  0.4001E-02
     -8.598  0.3374E-03  0.4020E-02
     -8.543  0.1817E-02  0.4120E-02
     -8.488  0.5799E-02  0.4439E-02
     -8.433  0.1103E-01  0.5046E-02
     -8.378  0.1411E-01  0.5823E-02
     -8.323  0.1564E-01  0.6684E-02
     -8.268  0.1764E-01  0.7654E-02
     -8.213  0.1794E-01  0.8642E-02
     -8.158  0.1409E-01  0.9417E-02
     -8.103  0.7570E-02  0.9834E-02
     -8.047  0.2765E-02  0.9986E-02
     -7.992  0.2063E-02  0.1010E-01
     -7.937  0.5531E-02  0.1040E-01
     -7.882  0.1151E-01  0.1104E-01
     -7.827  0.1603E-01  0.1192E-01
     -7.772  0.1647E-01  0.1283E-01
     -7.717  0.1280E-01  0.1353E-01
     -7.662  0.8006E-02  0.1397E-01
     -7.607  0.7612E-02  0.1439E-01
     -7.552  0.1289E-01  0.1510E-01
     -7.497  0.2155E-01  0.1629E-01
     -7.442  0.3477E-01  0.1820E-01
     -7.387  0.5079E-01  0.2099E-01
     -7.332  0.5951E-01  0.2427E-01
     -7.277  0.5582E-01  0.2734E-01
     -7.222  0.4733E-01  0.2995E-01
     -7.167  0.4378E-01  0.3236E-01
     -7.112  0.4535E-01  0.3485E-01
     -7.057  0.4832E-01  0.3751E-01
     -7.002  0.5055E-01  0.4030E-01
     -6.947  0.5161E-01  0.4314E-01
     -6.892  0.5420E-01  0.4612E-01
     -6.837  0.5762E-01  0.4929E-01
     -6.782  0.5852E-01  0.5251E-01
     -6.727  0.5924E-01  0.5577E-01
     -6.671  0.6427E-01  0.5931E-01
     -6.616  0.7552E-01  0.6347E-01
     -6.561  0.9386E-01  0.6863E-01
     -6.506  0.1151E+00  0.7497E-01
     -6.451  0.1312E+00  0.8219E-01
     -6.396  0.1400E+00  0.8990E-01
     -6.341  0.1449E+00  0.9787E-01
     -6.286  0.1482E+00  0.1060E+00
     -6.231  0.1506E+00  0.1143E+00
     -6.176  0.1545E+00  0.1228E+00
     -6.121  0.1638E+00  0.1318E+00
     -6.066  0.1738E+00  0.1414E+00
     -6.011  0.1733E+00  0.1509E+00
     -5.956  0.1609E+00  0.1598E+00
     -5.901  0.1460E+00  0.1678E+00
     -5.846  0.1380E+00  0.1754E+00
     -5.791  0.1377E+00  0.1830E+00
     -5.736  0.1376E+00  0.1906E+00
     -5.681  0.1321E+00  0.1978E+00
     -5.626  0.1248E+00  0.2047E+00
     -5.571  0.1240E+00  0.2115E+00
     -5.516  0.1306E+00  0.2187E+00
     -5.461  0.1366E+00  0.2262E+00
     -5.406  0.1371E+00  0.2338E+00
     -5.351  0.1328E+00  0.2411E+00
     -5.296  0.1300E+00  0.2483E+00
     -5.240  0.1369E+00  0.2558E+00
     -5.185  0.1529E+00  0.2642E+00
     -5.130  0.1680E+00  0.2735E+00
     -5.075  0.1750E+00  0.2831E+00
     -5.020  0.1761E+00  0.2928E+00
     -4.965  0.1752E+00  0.3024E+00
     -4.910  0.1736E+00  0.3120E+00
     -4.855  0.1717E+00  0.3214E+00
     -4.800  0.1698E+00  0.3308E+00
     -4.745  0.1661E+00  0.3399E+00
     -4.690  0.1605E+00  0.3488E+00
     -4.635  0.1570E+00  0.3574E+00
     -4.580  0.1595E+00  0.3662E+00
     -4.525  0.1656E+00  0.3753E+00
     -4.470  0.1660E+00  0.3844E+00
     -4.415  0.1578E+00  0.3931E+00
     -4.360  0.1521E+00  0.4015E+00
     -4.305  0.1557E+00  0.4100E+00
     -4.250  0.1631E+00  0.4190E+00
     -4.195  0.1675E+00  0.4282E+00
     -4.140  0.1691E+00  0.4375E+00
     -4.085  0.1710E+00  0.4470E+00
     -4.030  0.1735E+00  0.4565E+00
     -3.975  0.1783E+00  0.4663E+00
     -3.920  0.1862E+00  0.4766E+00
     -3.864  0.1948E+00  0.4873E+00
     -3.809  0.1988E+00  0.4982E+00
     -3.754  0.1943E+00  0.5089E+00
     -3.699  0.1861E+00  0.5192E+00
     -3.644  0.1825E+00  0.5292E+00
     -3.589  0.1844E+00  0.5394E+00
     -3.534  0.1880E+00  0.5497E+00
     -3.479  0.1895E+00  0.5601E+00
     -3.424  0.1877E+00  0.5705E+00
     -3.369  0.1851E+00  0.5807E+00
     -3.314  0.1831E+00  0.5907E+00
     -3.259  0.1807E+00  0.6007E+00
     -3.204  0.1787E+00  0.6105E+00
     -3.149  0.1780E+00  0.6203E+00
     -3.094  0.1775E+00  0.6301E+00
     -3.039  0.1778E+00  0.6399E+00
     -2.984  0.1809E+00  0.6498E+00
     -2.929  0.1858E+00  0.6601E+00
     -2.874  0.1896E+00  0.6705E+00
     -2.819  0.1918E+00  0.6810E+00
     -2.764  0.1942E+00  0.6917E+00
     -2.709  0.1988E+00  0.7027E+00
     -2.654  0.2045E+00  0.7139E+00
     -2.599  0.2076E+00  0.7254E+00
     -2.544  0.2069E+00  0.7367E+00
     -2.488  0.2037E+00  0.7480E+00
     -2.433  0.2000E+00  0.7590E+00
     -2.378  0.1969E+00  0.7698E+00
     -2.323  0.1927E+00  0.7804E+00
     -2.268  0.1874E+00  0.7907E+00
     -2.213  0.1826E+00  0.8008E+00
     -2.158  0.1798E+00  0.8107E+00
     -2.103  0.1816E+00  0.8207E+00
     -2.048  0.1899E+00  0.8311E+00
     -1.993  0.2010E+00  0.8422E+00
     -1.938  0.2081E+00  0.8536E+00
     -1.883  0.2127E+00  0.8653E+00
     -1.828  0.2198E+00  0.8774E+00
     -1.773  0.2263E+00  0.8899E+00
     -1.718  0.2294E+00  0.9025E+00
     -1.663  0.2317E+00  0.9153E+00
     -1.608  0.2329E+00  0.9281E+00
     -1.553  0.2301E+00  0.9408E+00
     -1.498  0.2191E+00  0.9528E+00
     -1.443  0.1987E+00  0.9638E+00
     -1.388  0.1768E+00  0.9735E+00
     -1.333  0.1607E+00  0.9823E+00
     -1.278  0.1463E+00  0.9904E+00
     -1.223  0.1266E+00  0.9974E+00
     -1.168  0.1029E+00  0.1003E+01
     -1.113  0.8063E-01  0.1007E+01
     -1.057  0.6186E-01  0.1011E+01
     -1.002  0.4767E-01  0.1013E+01
     -0.947  0.3845E-01  0.1016E+01
     -0.892  0.3088E-01  0.1017E+01
     -0.837  0.2323E-01  0.1019E+01
     -0.782  0.1895E-01  0.1020E+01
     -0.727  0.2088E-01  0.1021E+01
     -0.672  0.2778E-01  0.1022E+01
     -0.617  0.3720E-01  0.1024E+01
     -0.562  0.4682E-01  0.1027E+01
     -0.507  0.5328E-01  0.1030E+01
     -0.452  0.5649E-01  0.1033E+01
     -0.397  0.5923E-01  0.1036E+01
     -0.342  0.5842E-01  0.1039E+01
     -0.287  0.4840E-01  0.1042E+01
     -0.232  0.3271E-01  0.1044E+01
     -0.177  0.2024E-01  0.1045E+01
     -0.122  0.1260E-01  0.1046E+01
     -0.067  0.9181E-02  0.1046E+01
     -0.012  0.1067E-01  0.1047E+01
      0.043  0.1361E-01  0.1048E+01
      0.098  0.1633E-01  0.1048E+01
      0.153  0.2076E-01  0.1050E+01
      0.208  0.2378E-01  0.1051E+01
      0.263  0.2297E-01  0.1052E+01
      0.319  0.2426E-01  0.1054E+01
      0.374  0.3143E-01  0.1055E+01
      0.429  0.4044E-01  0.1057E+01
      0.484  0.4876E-01  0.1060E+01
      0.539  0.5670E-01  0.1063E+01
      0.594  0.6193E-01  0.1067E+01
      0.649  0.6285E-01  0.1070E+01
      0.704  0.6014E-01  0.1073E+01
      0.759  0.5384E-01  0.1076E+01
      0.814  0.4347E-01  0.1079E+01
      0.869  0.3049E-01  0.1080E+01
      0.924  0.1912E-01  0.1082E+01
      0.979  0.1355E-01  0.1082E+01
      1.034  0.1359E-01  0.1083E+01
      1.089  0.1447E-01  0.1084E+01
      1.144  0.1448E-01  0.1085E+01
      1.199  0.1506E-01  0.1085E+01
      1.254  0.1581E-01  0.1086E+01
      1.309  0.1567E-01  0.1087E+01
      1.364  0.1415E-01  0.1088E+01
      1.419  0.1312E-01  0.1089E+01
      1.474  0.1555E-01  0.1090E+01
      1.529  0.2200E-01  0.1091E+01
      1.584  0.3081E-01  0.1092E+01
      1.639  0.3839E-01  0.1095E+01
      1.695  0.4004E-01  0.1097E+01
      1.750  0.3385E-01  0.1099E+01
      1.805  0.2433E-01  0.1100E+01
      1.860  0.1946E-01  0.1101E+01
      1.915  0.2199E-01  0.1102E+01
      1.970  0.2905E-01  0.1104E+01
      2.025  0.3736E-01  0.1106E+01
      2.080  0.4312E-01  0.1108E+01
      2.135  0.4553E-01  0.1111E+01
      2.190  0.4850E-01  0.1113E+01
      2.245  0.5150E-01  0.1116E+01
      2.300  0.4959E-01  0.1119E+01
      2.355  0.4355E-01  0.1121E+01
      2.410  0.3911E-01  0.1124E+01
      2.465  0.3830E-01  0.1126E+01
      2.520  0.4055E-01  0.1128E+01
      2.575  0.4380E-01  0.1130E+01
      2.630  0.4285E-01  0.1133E+01
      2.685  0.3541E-01  0.1135E+01
      2.740  0.2583E-01  0.1136E+01
      2.795  0.1819E-01  0.1137E+01
      2.850  0.1287E-01  0.1138E+01
      2.905  0.1058E-01  0.1138E+01
      2.960  0.1114E-01  0.1139E+01
      3.015  0.1033E-01  0.1140E+01
      3.070  0.6780E-02  0.1140E+01
      3.126  0.5523E-02  0.1140E+01
      3.181  0.1102E-01  0.1141E+01
      3.236  0.2087E-01  0.1142E+01
      3.291  0.2616E-01  0.1143E+01
      3.346  0.2226E-01  0.1145E+01
      3.401  0.1723E-01  0.1146E+01
      3.456  0.2265E-01  0.1147E+01
      3.511  0.3890E-01  0.1149E+01
      3.566  0.5244E-01  0.1152E+01
      3.621  0.5060E-01  0.1155E+01
      3.676  0.3816E-01  0.1157E+01
      3.731  0.2822E-01  0.1158E+01
      3.786  0.2480E-01  0.1160E+01
      3.841  0.2608E-01  0.1161E+01
      3.896  0.2907E-01  0.1163E+01
      3.951  0.3013E-01  0.1164E+01
      4.006  0.2889E-01  0.1166E+01
      4.061  0.2418E-01  0.1167E+01
      4.116  0.1921E-01  0.1168E+01
      4.171  0.2023E-01  0.1169E+01
      4.226  0.2178E-01  0.1171E+01
      4.281  0.1664E-01  0.1172E+01
      4.336  0.1129E-01  0.1172E+01
      4.391  0.1505E-01  0.1173E+01
      4.446  0.2640E-01  0.1174E+01
      4.502  0.3750E-01  0.1177E+01
      4.557  0.4715E-01  0.1179E+01
      4.612  0.5776E-01  0.1182E+01
      4.667  0.6251E-01  0.1186E+01
      4.722  0.5520E-01  0.1189E+01
      4.777  0.4612E-01  0.1191E+01
      4.832  0.4649E-01  0.1194E+01
      4.887  0.5156E-01  0.1197E+01
      4.942  0.5450E-01  0.1200E+01
      4.997  0.5825E-01  0.1203E+01
      5.052  0.6542E-01  0.1207E+01
      5.107  0.6850E-01  0.1210E+01
      5.162  0.6253E-01  0.1214E+01
      5.217  0.5574E-01  0.1217E+01
      5.272  0.5121E-01  0.1220E+01
      5.327  0.4075E-01  0.1222E+01
      5.382  0.2437E-01  0.1223E+01
      5.437  0.1063E-01  0.1224E+01
      5.492  0.3344E-02  0.1224E+01
      5.547  0.7178E-03  0.1224E+01
      5.602  0.9769E-04  0.1224E+01
      5.657  0.7961E-05  0.1224E+01
      5.712  0.3755E-06  0.1224E+01
      5.767  0.1006E-07  0.1224E+01
      5.822  0.1512E-09  0.1224E+01
      5.878  0.1267E-11  0.1224E+01
      5.933  0.5893E-14  0.1224E+01
      5.988  0.1479E-16  0.1224E+01
      6.043  0.0000E+00  0.1224E+01
      6.098  0.0000E+00  0.1224E+01
      6.153  0.0000E+00  0.1224E+01
      6.208  0.0000E+00  0.1224E+01
      6.263  0.0000E+00  0.1224E+01
      6.318  0.0000E+00  0.1224E+01
      6.373  0.0000E+00  0.1224E+01
